                         Program Version 5.0.0 -  RELEASE  -
|  1> !TPSS D3BJ RIJCOSX def2-SVPD def2/J TightSCF
|  2> *xyz 0 1
|  3> C         -0.72184       -0.99951       -3.43931
|  4> C          0.28725       -1.71177       -2.52740
|  5> H          1.13178       -2.06738       -3.15940
|  6> H         -0.20414       -2.63733       -2.17048
|  7> F          0.71050       -0.92751       -1.48177
|  8> H         -1.01315       -1.65739       -4.23129
|  9> H         -0.27123       -0.12142       -3.85259
| 10> H         -1.58442       -0.72333       -2.86958
| 11> *
| 12> %MaxCore 64000
| 13>
| 14> %pal nprocs 4
| 15> end
| 16>
| 17> %scf
| 18>   MaxIter 150
| 19> end
| 20>
| 21>
| 22>                          ****END OF INPUT****

CARTESIAN COORDINATES (ANGSTROEM)
---------------------------------
  C     -0.721840   -0.999510   -3.439310
  C      0.287250   -1.711770   -2.527400
  H      1.131780   -2.067380   -3.159400
  H     -0.204140   -2.637330   -2.170480
  F      0.710500   -0.927510   -1.481770
  H     -1.013150   -1.657390   -4.231290
  H     -0.271230   -0.121420   -3.852590
  H     -1.584420   -0.723330   -2.869580

 Total Charge           Charge          ....    0
 Multiplicity           Mult            ....    1
 Number of Electrons    NEL             ....   26
 Basis Dimension        Dim             ....  103

ORBITAL ENERGIES
----------------

  NO   OCC          E(Eh)            E(eV)
   0   2.0000     -24.415750      -664.3863
   1   2.0000     -10.080658      -274.3086
   2   2.0000     -10.000086      -272.1162
   3   2.0000      -1.105253       -30.0755
   4   2.0000      -0.703912       -19.1544
   5   2.0000      -0.576929       -15.6990
   6   2.0000      -0.461413       -12.5557
   7   2.0000      -0.448166       -12.1952
   8   2.0000      -0.408855       -11.1255
   9   2.0000      -0.364236        -9.9114
  10   2.0000      -0.362047        -9.8518
  11   2.0000      -0.294220        -8.0061
  12   2.0000      -0.291107        -7.9214
  13   0.0000       0.012569         0.3420
  14   0.0000       0.044164         1.2018
  15   0.0000       0.058943         1.6039
  16   0.0000       0.069065         1.8794
  17   0.0000       0.092627         2.5205

MULLIKEN ATOMIC CHARGES
-----------------------
   0 C :    0.259557
   1 C :    0.398249
   2 H :   -0.044719
   3 H :   -0.055175
   4 F :   -0.457915
   5 H :   -0.015495
   6 H :   -0.044108
   7 H :   -0.040394
Sum of atomic charges:    0.0000000

LOEWDIN ATOMIC CHARGES
----------------------
   0 C :    0.144259
   1 C :    0.068791
   2 H :    0.027887
   3 H :    0.023463
   4 F :   -0.211475
   5 H :   -0.016426
   6 H :   -0.018574
   7 H :   -0.017925

  Mayer bond orders larger than 0.100000
B(  0-C ,  1-C ) :   1.3350 B(  0-C ,  5-H ) :   0.8696 B(  0-C ,  6-H ) :   0.9053
B(  0-C ,  7-H ) :   0.9007 B(  1-C ,  2-H ) :   0.9500 B(  1-C ,  3-H ) :   0.9480
B(  1-C ,  4-F ) :   0.7240 B(  1-C ,  5-H ) :   0.1132 B(  1-C ,  6-H ) :   0.1337
B(  1-C ,  7-H ) :   0.1361

Dispersion correction           -0.004200916
FINAL SINGLE POINT ENERGY      -178.961819647936

DIPOLE MOMENT
-------------
                                X             Y             Z
Electronic contribution:      2.70210       1.05475       4.22829
Nuclear contribution   :     -2.97459      -1.40206      -4.79987
                        -----------------------------------------
Total Dipole Moment    :     -0.27249      -0.34731      -0.57158
                        -----------------------------------------
Magnitude (a.u.)       :      0.72220
Magnitude (Debye)      :      1.83570

Rotational constants in cm-1:     1.257024     0.302702     0.267953
Rotational constants in MHz : 37684.643733  9074.792567  8033.038070

                             ****ORCA TERMINATED NORMALLY****
TOTAL RUN TIME: 0 days 0 hours 0 minutes 7 seconds 460 msec
