                         Program Version 5.0.0 -  RELEASE  -
|  1> !TPSS D3BJ RIJCOSX def2-SVPD def2/J TightSCF
|  2> *xyz 0 1
|  3> C          3.48828        1.60092       -1.52204
|  4> C          4.34297        1.31342       -2.75683
|  5> C          2.81029        0.42878       -1.01420
|  6> H          2.71455        2.33145       -1.76030
|  7> H          4.09099        2.06315       -0.73338
|  8> C          3.29098       -0.41802       -0.12908
|  9> N          2.51754       -1.43202        0.23936
| 10> N          4.53549       -0.28441        0.39580
| 11> H          5.04363        0.57189        0.22290
| 12> H          4.72335       -0.73327        1.28180
| 13> H          1.93479        0.10230       -1.40379
| 14> H          1.67464       -1.50562       -0.31610
| 15> H          2.92850       -2.21850        0.72549
| 16> H          3.73575        0.86277       -3.51385
| 17> H          5.13754        0.64699       -2.49333
| 18> H          4.75374        2.22930       -3.12740
| 19> *
| 20> %MaxCore 64000
| 21>
| 22> %pal nprocs 4
| 23> end
| 24>
| 25> %scf
| 26>   MaxIter 150
| 27> end
| 28>
| 29>
| 30>                          ****END OF INPUT****

CARTESIAN COORDINATES (ANGSTROEM)
---------------------------------
  C      3.488280    1.600920   -1.522040
  C      4.342970    1.313420   -2.756830
  C      2.810290    0.428780   -1.014200
  H      2.714550    2.331450   -1.760300
  H      4.090990    2.063150   -0.733380
  C      3.290980   -0.418020   -0.129080
  N      2.517540   -1.432020    0.239360
  N      4.535490   -0.284410    0.395800
  H      5.043630    0.571890    0.222900
  H      4.723350   -0.733270    1.281800
  H      1.934790    0.102300   -1.403790
  H      1.674640   -1.505620   -0.316100
  H      2.928500   -2.218500    0.725490
  H      3.735750    0.862770   -3.513850
  H      5.137540    0.646990   -2.493330
  H      4.753740    2.229300   -3.127400

 Total Charge           Charge          ....    0
 Multiplicity           Mult            ....    1
 Number of Electrons    NEL             ....   48
 Basis Dimension        Dim             ....  200

ORBITAL ENERGIES
----------------

  NO   OCC          E(Eh)            E(eV)
   0   2.0000     -14.119763      -384.2183
   1   2.0000     -14.115645      -384.1062
   2   2.0000     -10.033162      -273.0162
   3   2.0000      -9.979286      -271.5502
   4   2.0000      -9.968906      -271.2677
   5   2.0000      -9.924021      -270.0463
   6   2.0000      -0.885446       -24.0942
   7   2.0000      -0.802987       -21.8504
   8   2.0000      -0.711062       -19.3490
   9   2.0000      -0.635581       -17.2951
  10   2.0000      -0.560752       -15.2588
  11   2.0000      -0.531327       -14.4581
  12   2.0000      -0.492066       -13.3898
  13   2.0000      -0.464945       -12.6518
  14   2.0000      -0.425139       -11.5686
  15   2.0000      -0.398586       -10.8461
  16   2.0000      -0.376966       -10.2578
  17   2.0000      -0.354629        -9.6499
  18   2.0000      -0.341793        -9.3007
  19   2.0000      -0.314181        -8.5493
  20   2.0000      -0.296442        -8.0666
  21   2.0000      -0.286931        -7.8078
  22   2.0000      -0.225598        -6.1388
  23   2.0000      -0.133624        -3.6361
  24   0.0000       0.002727         0.0742
  25   0.0000       0.029131         0.7927
  26   0.0000       0.034630         0.9423
  27   0.0000       0.047486         1.2922
  28   0.0000       0.065057         1.7703

MULLIKEN ATOMIC CHARGES
-----------------------
   0 C :   -0.161962
   1 C :    0.555012
   2 C :   -0.344980
   3 H :   -0.049263
   4 H :   -0.050886
   5 C :    0.789855
   6 N :   -0.060469
   7 N :   -0.071054
   8 H :   -0.007134
   9 H :   -0.228726
  10 H :   -0.215729
  11 H :    0.079857
  12 H :   -0.178707
  13 H :   -0.023373
  14 H :   -0.046758
  15 H :    0.014316
Sum of atomic charges:   -0.0000000

LOEWDIN ATOMIC CHARGES
----------------------
   0 C :   -0.089208
   1 C :    0.129863
   2 C :   -0.034641
   3 H :    0.009766
   4 H :    0.001389
   5 C :   -0.220556
   6 N :    0.175608
   7 N :    0.205386
   8 H :   -0.021719
   9 H :   -0.016858
  10 H :   -0.050002
  11 H :    0.000171
  12 H :   -0.008092
  13 H :   -0.022155
  14 H :   -0.027870
  15 H :   -0.031082

  Mayer bond orders larger than 0.100000
B(  0-C ,  1-C ) :   1.2168 B(  0-C ,  2-C ) :   1.2173 B(  0-C ,  3-H ) :   0.8716
B(  0-C ,  4-H ) :   0.8507 B(  0-C , 10-H ) :   0.2140 B(  0-C , 13-H ) :   0.2157
B(  0-C , 14-H ) :   0.1987 B(  0-C , 15-H ) :   0.1540 B(  1-C , 13-H ) :   0.8431
B(  1-C , 14-H ) :   0.8506 B(  1-C , 15-H ) :   0.8298 B(  2-C ,  3-H ) :   0.2022
B(  2-C ,  4-H ) :   0.2415 B(  2-C ,  5-C ) :   1.6328 B(  2-C ,  6-N ) :   0.3480
B(  2-C ,  7-N ) :   0.1851 B(  2-C ,  8-H ) :  -0.1127 B(  2-C , 10-H ) :   0.9518
B(  5-C ,  6-N ) :   0.8179 B(  5-C ,  7-N ) :   0.8706 B(  5-C , 10-H ) :   0.2179
B(  6-N ,  7-N ) :   0.1296 B(  6-N , 11-H ) :   1.0146 B(  6-N , 12-H ) :   1.2148
B(  7-N ,  8-H ) :   0.9861 B(  7-N ,  9-H ) :   1.2846 B(  8-H ,  9-H ) :  -0.1350
B( 11-H , 12-H ) :  -0.1316

Dispersion correction           -0.015810076
FINAL SINGLE POINT ENERGY      -267.791628481930

DIPOLE MOMENT
-------------
                                X             Y             Z
Electronic contribution:     -1.28617      -2.93059       3.64876
Nuclear contribution   :      1.44676       2.38443      -3.07370
                        -----------------------------------------
Total Dipole Moment    :      0.16059      -0.54616       0.57506
                        -----------------------------------------
Magnitude (a.u.)       :      0.80918
Magnitude (Debye)      :      2.05677

Rotational constants in cm-1:     0.235977     0.073199     0.063283
Rotational constants in MHz :  7074.404583  2194.453291  1897.179599

                             ****ORCA TERMINATED NORMALLY****
TOTAL RUN TIME: 0 days 0 hours 0 minutes 17 seconds 550 msec
