                         Program Version 5.0.0 -  RELEASE  -
|  1> !TPSS D3BJ RIJCOSX def2-SVPD def2/J TightSCF
|  2> *xyz 0 1
|  3> C          3.48828        1.60092       -1.52204
|  4> C          4.34297        1.31342       -2.75683
|  5> N          2.81029        0.42878       -1.01420
|  6> H          2.71455        2.33145       -1.76030
|  7> H          4.09099        2.06315       -0.73338
|  8> C          3.29098       -0.41802       -0.12908
|  9> C          2.51754       -1.43202        0.23936
| 10> N          4.53549       -0.28441        0.39580
| 11> H          5.04363        0.57189        0.22290
| 12> H          4.72335       -0.73327        1.28180
| 13> H          1.93479        0.10230       -1.40379
| 14> H          1.67464       -1.50562       -0.31610
| 15> H          2.92850       -2.21850        0.72549
| 16> H          3.73575        0.86277       -3.51385
| 17> H          5.13754        0.64699       -2.49333
| 18> H          4.75374        2.22930       -3.12740
| 19> *
| 20> %MaxCore 64000
| 21>
| 22> %pal nprocs 4
| 23> end
| 24>
| 25> %scf
| 26>   MaxIter 150
| 27> end
| 28>
| 29>
| 30>                          ****END OF INPUT****

CARTESIAN COORDINATES (ANGSTROEM)
---------------------------------
  C      3.488280    1.600920   -1.522040
  C      4.342970    1.313420   -2.756830
  N      2.810290    0.428780   -1.014200
  H      2.714550    2.331450   -1.760300
  H      4.090990    2.063150   -0.733380
  C      3.290980   -0.418020   -0.129080
  C      2.517540   -1.432020    0.239360
  N      4.535490   -0.284410    0.395800
  H      5.043630    0.571890    0.222900
  H      4.723350   -0.733270    1.281800
  H      1.934790    0.102300   -1.403790
  H      1.674640   -1.505620   -0.316100
  H      2.928500   -2.218500    0.725490
  H      3.735750    0.862770   -3.513850
  H      5.137540    0.646990   -2.493330
  H      4.753740    2.229300   -3.127400

 Total Charge           Charge          ....    0
 Multiplicity           Mult            ....    1
 Number of Electrons    NEL             ....   48
 Basis Dimension        Dim             ....  200

ORBITAL ENERGIES
----------------

  NO   OCC          E(Eh)            E(eV)
   0   2.0000     -14.118761      -384.1910
   1   2.0000     -14.118352      -384.1799
   2   2.0000     -10.044543      -273.3259
   3   2.0000     -10.035828      -273.0888
   4   2.0000      -9.994318      -271.9592
   5   2.0000      -9.910689      -269.6836
   6   2.0000      -0.895357       -24.3639
   7   2.0000      -0.814698       -22.1691
   8   2.0000      -0.713312       -19.4102
   9   2.0000      -0.641866       -17.4661
  10   2.0000      -0.576048       -15.6751
  11   2.0000      -0.548472       -14.9247
  12   2.0000      -0.489932       -13.3317
  13   2.0000      -0.455921       -12.4063
  14   2.0000      -0.437443       -11.9034
  15   2.0000      -0.401357       -10.9215
  16   2.0000      -0.387873       -10.5546
  17   2.0000      -0.364197        -9.9103
  18   2.0000      -0.339675        -9.2430
  19   2.0000      -0.335549        -9.1307
  20   2.0000      -0.326056        -8.8724
  21   2.0000      -0.318710        -8.6725
  22   2.0000      -0.219352        -5.9689
  23   2.0000      -0.131082        -3.5669
  24   0.0000      -0.000027        -0.0007
  25   0.0000       0.027073         0.7367
  26   0.0000       0.030851         0.8395
  27   0.0000       0.042022         1.1435
  28   0.0000       0.055590         1.5127

MULLIKEN ATOMIC CHARGES
-----------------------
   0 C :    0.282005
   1 C :    0.579386
   2 N :   -0.282444
   3 H :   -0.312989
   4 H :   -0.088218
   5 C :    0.675209
   6 C :    0.338346
   7 N :    0.020498
   8 H :   -0.151991
   9 H :   -0.130811
  10 H :   -0.282737
  11 H :   -0.171808
  12 H :   -0.379655
  13 H :   -0.052296
  14 H :   -0.055608
  15 H :    0.013114
Sum of atomic charges:    0.0000000

LOEWDIN ATOMIC CHARGES
----------------------
   0 C :    0.021448
   1 C :    0.143606
   2 N :   -0.020971
   3 H :    0.013749
   4 H :    0.007410
   5 C :   -0.230717
   6 C :    0.139344
   7 N :    0.203958
   8 H :   -0.036045
   9 H :    0.002014
  10 H :    0.031976
  11 H :   -0.105524
  12 H :   -0.098431
  13 H :   -0.021416
  14 H :   -0.025847
  15 H :   -0.024553

  Mayer bond orders larger than 0.100000
B(  0-C ,  1-C ) :   1.2330 B(  0-C ,  2-N ) :   0.9316 B(  0-C ,  3-H ) :   0.9397
B(  0-C ,  4-H ) :   0.8721 B(  0-C , 10-H ) :  -0.2191 B(  0-C , 13-H ) :   0.2346
B(  0-C , 14-H ) :   0.2005 B(  0-C , 15-H ) :   0.1648 B(  1-C , 13-H ) :   0.8191
B(  1-C , 14-H ) :   0.8434 B(  1-C , 15-H ) :   0.8310 B(  2-N ,  3-H ) :   0.1769
B(  2-N ,  4-H ) :   0.1436 B(  2-N ,  5-C ) :   1.0383 B(  2-N ,  6-C ) :   0.2672
B(  2-N ,  7-N ) :   0.1281 B(  2-N , 10-H ) :   1.2876 B(  5-C ,  6-C ) :   1.5846
B(  5-C ,  7-N ) :   0.8326 B(  5-C ,  9-H ) :  -0.1169 B(  5-C , 10-H ) :  -0.2073
B(  5-C , 11-H ) :   0.2326 B(  5-C , 12-H ) :   0.1870 B(  6-C ,  7-N ) :   0.2278
B(  6-C , 11-H ) :   0.8120 B(  6-C , 12-H ) :   0.7895 B(  7-N ,  8-H ) :   1.0305
B(  7-N ,  9-H ) :   1.2212 B(  8-H ,  9-H ) :  -0.1456

Dispersion correction           -0.015662292
FINAL SINGLE POINT ENERGY      -267.781339872786

DIPOLE MOMENT
-------------
                                X             Y             Z
Electronic contribution:     -0.88667      -1.07744       2.43122
Nuclear contribution   :      1.38466       1.98967      -2.80776
                        -----------------------------------------
Total Dipole Moment    :      0.49799       0.91223      -0.37655
                        -----------------------------------------
Magnitude (a.u.)       :      1.10542
Magnitude (Debye)      :      2.80975

Rotational constants in cm-1:     0.235618     0.075969     0.065309
Rotational constants in MHz :  7063.646698  2277.495424  1957.925383

                             ****ORCA TERMINATED NORMALLY****
TOTAL RUN TIME: 0 days 0 hours 0 minutes 17 seconds 662 msec
