                         Program Version 5.0.0 -  RELEASE  -
|  1> !TPSS D3BJ RIJCOSX def2-SVPD def2/J TightSCF
|  2> *xyz 0 1
|  3> C          3.48828        1.60092       -1.52204
|  4> C          4.34297        1.31342       -2.75683
|  5> N          2.81029        0.42878       -1.01420
|  6> H          2.71455        2.33145       -1.76030
|  7> H          4.09099        2.06315       -0.73338
|  8> C          3.29098       -0.41802       -0.12908
|  9> N          2.51754       -1.43202        0.23936
| 10> C          4.53549       -0.28441        0.39580
| 11> H          5.04363        0.57189        0.22290
| 12> H          4.72335       -0.73327        1.28180
| 13> H          1.93479        0.10230       -1.40379
| 14> H          1.67464       -1.50562       -0.31610
| 15> H          2.92850       -2.21850        0.72549
| 16> H          3.73575        0.86277       -3.51385
| 17> H          5.13754        0.64699       -2.49333
| 18> H          4.75374        2.22930       -3.12740
| 19> *
| 20> %MaxCore 64000
| 21>
| 22> %pal nprocs 4
| 23> end
| 24>
| 25> %scf
| 26>   MaxIter 150
| 27> end
| 28>
| 29>
| 30>                          ****END OF INPUT****

CARTESIAN COORDINATES (ANGSTROEM)
---------------------------------
  C      3.488280    1.600920   -1.522040
  C      4.342970    1.313420   -2.756830
  N      2.810290    0.428780   -1.014200
  H      2.714550    2.331450   -1.760300
  H      4.090990    2.063150   -0.733380
  C      3.290980   -0.418020   -0.129080
  N      2.517540   -1.432020    0.239360
  C      4.535490   -0.284410    0.395800
  H      5.043630    0.571890    0.222900
  H      4.723350   -0.733270    1.281800
  H      1.934790    0.102300   -1.403790
  H      1.674640   -1.505620   -0.316100
  H      2.928500   -2.218500    0.725490
  H      3.735750    0.862770   -3.513850
  H      5.137540    0.646990   -2.493330
  H      4.753740    2.229300   -3.127400

 Total Charge           Charge          ....    0
 Multiplicity           Mult            ....    1
 Number of Electrons    NEL             ....   48
 Basis Dimension        Dim             ....  200

ORBITAL ENERGIES
----------------

  NO   OCC          E(Eh)            E(eV)
   0   2.0000     -14.124171      -384.3382
   1   2.0000     -14.120957      -384.2508
   2   2.0000     -10.038413      -273.1591
   3   2.0000     -10.037205      -273.1262
   4   2.0000      -9.986879      -271.7568
   5   2.0000      -9.912640      -269.7367
   6   2.0000      -0.904141       -24.6029
   7   2.0000      -0.819795       -22.3078
   8   2.0000      -0.695247       -18.9186
   9   2.0000      -0.645018       -17.5518
  10   2.0000      -0.590653       -16.0725
  11   2.0000      -0.514762       -14.0074
  12   2.0000      -0.496554       -13.5119
  13   2.0000      -0.484535       -13.1849
  14   2.0000      -0.427322       -11.6280
  15   2.0000      -0.400569       -10.9000
  16   2.0000      -0.383029       -10.4227
  17   2.0000      -0.354681        -9.6514
  18   2.0000      -0.341926        -9.3043
  19   2.0000      -0.330150        -8.9838
  20   2.0000      -0.320237        -8.7141
  21   2.0000      -0.313708        -8.5364
  22   2.0000      -0.214401        -5.8341
  23   2.0000      -0.134839        -3.6692
  24   0.0000      -0.003039        -0.0827
  25   0.0000       0.025087         0.6827
  26   0.0000       0.034708         0.9445
  27   0.0000       0.042495         1.1563
  28   0.0000       0.061448         1.6721

MULLIKEN ATOMIC CHARGES
-----------------------
   0 C :    0.277228
   1 C :    0.586067
   2 N :   -0.425819
   3 H :   -0.294809
   4 H :    0.038781
   5 C :    0.716806
   6 N :   -0.005952
   7 C :    0.329588
   8 H :   -0.123662
   9 H :   -0.463058
  10 H :   -0.348207
  11 H :   -0.109716
  12 H :   -0.060020
  13 H :   -0.059314
  14 H :   -0.068496
  15 H :    0.010581
Sum of atomic charges:   -0.0000000

LOEWDIN ATOMIC CHARGES
----------------------
   0 C :    0.029914
   1 C :    0.148160
   2 N :   -0.023481
   3 H :    0.013734
   4 H :    0.015942
   5 C :   -0.238291
   6 N :    0.187191
   7 C :    0.161383
   8 H :   -0.128239
   9 H :   -0.110074
  10 H :    0.018026
  11 H :   -0.015642
  12 H :    0.012907
  13 H :   -0.025064
  14 H :   -0.023314
  15 H :   -0.023151

  Mayer bond orders larger than 0.100000
B(  0-C ,  1-C ) :   1.2169 B(  0-C ,  2-N ) :   0.9371 B(  0-C ,  3-H ) :   0.9637
B(  0-C ,  4-H ) :   0.8422 B(  0-C , 10-H ) :  -0.2013 B(  0-C , 13-H ) :   0.2074
B(  0-C , 14-H ) :   0.1978 B(  0-C , 15-H ) :   0.1633 B(  1-C , 13-H ) :   0.8326
B(  1-C , 14-H ) :   0.8514 B(  1-C , 15-H ) :   0.8317 B(  2-N ,  3-H ) :   0.1547
B(  2-N ,  4-H ) :   0.1280 B(  2-N ,  5-C ) :   0.8696 B(  2-N ,  6-N ) :   0.1919
B(  2-N ,  7-C ) :   0.3861 B(  2-N , 10-H ) :   1.4079 B(  5-C ,  6-N ) :   0.8281
B(  5-C ,  7-C ) :   1.6642 B(  5-C ,  8-H ) :   0.2813 B(  5-C ,  9-H ) :   0.1758
B(  5-C , 10-H ) :  -0.2836 B(  6-N ,  7-C ) :   0.2963 B(  6-N , 11-H ) :   1.0861
B(  6-N , 12-H ) :   1.1717 B(  7-C ,  8-H ) :   0.6653 B(  7-C ,  9-H ) :   0.8535
B(  8-H ,  9-H ) :   0.1388 B( 11-H , 12-H ) :  -0.1255

Dispersion correction           -0.015762636
FINAL SINGLE POINT ENERGY      -267.781583114796

DIPOLE MOMENT
-------------
                                X             Y             Z
Electronic contribution:     -2.79270      -2.29068       2.21125
Nuclear contribution   :      1.81275       2.23313      -2.77458
                        -----------------------------------------
Total Dipole Moment    :     -0.97995      -0.05756      -0.56333
                        -----------------------------------------
Magnitude (a.u.)       :      1.13179
Magnitude (Debye)      :      2.87678

Rotational constants in cm-1:     0.245202     0.073668     0.064348
Rotational constants in MHz :  7350.977980  2208.513334  1929.108541

                             ****ORCA TERMINATED NORMALLY****
TOTAL RUN TIME: 0 days 0 hours 0 minutes 18 seconds 22 msec
