                         Program Version 5.0.0 -  RELEASE  -
|  1> !TPSS D3BJ RIJCOSX def2-SVPD def2/J TightSCF xyzfile
|  2>
|  3> *xyzfile 0 1 D2.xyz
|  4>
|  5> %MaxCore 64000
|  6>
|  7> %pal nprocs 4
|  8> end
|  9>
| 10> %scf
| 11>   MaxIter 150
| 12> end
| 13>
| 14>
| 15>                          ****END OF INPUT****

CARTESIAN COORDINATES (ANGSTROEM)
---------------------------------
  C      3.488276    1.600919   -1.522040
  C      4.342970    1.313419   -2.756826
  N      2.810285    0.428783   -1.014196
  H      5.132033    0.604994   -2.484466
  C      3.535896    0.749253   -3.924604
  H      4.841247    2.242136   -3.054083
  H      2.991617   -0.132199   -3.574137
  H      4.225505    0.392784   -4.695962
  C      2.564776    1.750890   -4.544523
  H      1.918749    2.171679   -3.769419
  C      1.686235    1.161657   -5.650111
  H      3.132494    2.594775   -4.951604
  C      0.839616   -0.037582   -5.220473
  H      2.323886    0.866395   -6.490796
  H      1.029518    1.951850   -6.029329
  C     -0.151019    0.254955   -4.094256
  H      1.499442   -0.857141   -4.922958
  H      0.290097   -0.410143   -6.091131
  H      0.328265    0.833022   -3.299125
  C     -0.721843   -0.999513   -3.439309
  H     -0.957367    0.884951   -4.485450
  H     -1.083403   -1.697555   -4.205656
  H     -1.581056   -0.723848   -2.820490
  C      0.287250   -1.711771   -2.527405
  H      1.131780   -2.067380   -3.159396
  H     -0.204137   -2.637326   -2.170480
  F      0.710505   -0.927506   -1.481767
  H      2.714548    2.331455   -1.760302
  H      4.090991    2.063151   -0.733382
  C      3.290978   -0.418021   -0.129083
  C      2.517536   -1.432017    0.239360
  N      4.535490   -0.284410    0.395800
  H      5.043627    0.571888    0.222899
  H      4.723346   -0.733273    1.281800
  H      1.934787    0.102305   -1.403788
  H      1.674638   -1.505616   -0.316095
  H      2.928503   -2.218502    0.725494

 Total Charge           Charge          ....    0
 Multiplicity           Mult            ....    1
 Number of Electrons    NEL             ....  112
 Basis Dimension        Dim             ....  467

ORBITAL ENERGIES
----------------

  NO   OCC          E(Eh)            E(eV)
   0   2.0000     -24.443892      -665.1521
   1   2.0000     -14.103002      -383.7622
   2   2.0000     -14.091111      -383.4386
   3   2.0000     -10.089899      -274.5601
   4   2.0000     -10.028042      -272.8769
   5   2.0000     -10.016776      -272.5703
   6   2.0000     -10.015063      -272.5237
   7   2.0000     -10.005403      -272.2609
   8   2.0000     -10.001956      -272.1671
   9   2.0000      -9.999530      -272.1010
  10   2.0000      -9.996692      -272.0238
  11   2.0000      -9.994583      -271.9664
  12   2.0000      -9.993020      -271.9239
  13   2.0000      -9.883916      -268.9550
  14   2.0000      -1.140685       -31.0396
  15   2.0000      -0.876652       -23.8549
  16   2.0000      -0.798648       -21.7323
  17   2.0000      -0.761450       -20.7201
  18   2.0000      -0.735384       -20.0108
  19   2.0000      -0.709795       -19.3145
  20   2.0000      -0.666684       -18.1414
  21   2.0000      -0.644325       -17.5330
  22   2.0000      -0.611522       -16.6404
  23   2.0000      -0.587551       -15.9881
  24   2.0000      -0.558452       -15.1963
  25   2.0000      -0.545196       -14.8355
  26   2.0000      -0.526378       -14.3235
  27   2.0000      -0.510268       -13.8851
  28   2.0000      -0.486840       -13.2476
  29   2.0000      -0.473807       -12.8930
  30   2.0000      -0.464585       -12.6420
  31   2.0000      -0.449368       -12.2279
  32   2.0000      -0.440285       -11.9808
  33   2.0000      -0.430062       -11.7026
  34   2.0000      -0.423795       -11.5321
  35   2.0000      -0.411868       -11.2075
  36   2.0000      -0.395551       -10.7635
  37   2.0000      -0.390495       -10.6259
  38   2.0000      -0.386630       -10.5207
  39   2.0000      -0.374371       -10.1872
  40   2.0000      -0.354677        -9.6512
  41   2.0000      -0.344229        -9.3670
  42   2.0000      -0.335968        -9.1422
  43   2.0000      -0.335188        -9.1209
  44   2.0000      -0.325461        -8.8562
  45   2.0000      -0.320942        -8.7333
  46   2.0000      -0.309326        -8.4172
  47   2.0000      -0.307090        -8.3563
  48   2.0000      -0.300363        -8.1733
  49   2.0000      -0.293191        -7.9781
  50   2.0000      -0.282907        -7.6983
  51   2.0000      -0.281036        -7.6474
  52   2.0000      -0.280608        -7.6357
  53   2.0000      -0.276322        -7.5191
  54   2.0000      -0.202229        -5.5029
  55   2.0000      -0.112672        -3.0660
  56   0.0000       0.005754         0.1566
  57   0.0000       0.010568         0.2876
  58   0.0000       0.016584         0.4513
  59   0.0000       0.021070         0.5734
  60   0.0000       0.034605         0.9416

MULLIKEN ATOMIC CHARGES
-----------------------
   0 C :    1.072507
   1 C :    0.238158
   2 N :    0.245134
   3 H :   -0.031242
   4 C :    0.320355
   5 H :   -0.114823
   6 H :   -0.348107
   7 H :   -0.118829
   8 C :   -0.117628
   9 H :    0.075127
  10 C :    0.561258
  11 H :   -0.198031
  12 C :   -0.043787
  13 H :   -0.003596
  14 H :   -0.109548
  15 C :    0.159298
  16 H :   -0.008790
  17 H :   -0.201748
  18 H :   -0.264901
  19 C :    0.199906
  20 H :   -0.074252
  21 H :   -0.027192
  22 H :   -0.029801
  23 C :    0.811201
  24 H :   -0.075416
  25 H :   -0.195686
  26 F :   -0.667190
  27 H :   -0.303891
  28 H :   -0.273373
  29 C :    0.600609
  30 C :    0.613434
  31 N :    0.097317
  32 H :   -0.140993
  33 H :   -0.161174
  34 H :   -0.785648
  35 H :   -0.412006
  36 H :   -0.286653
Sum of atomic charges:    0.0000000

LOEWDIN ATOMIC CHARGES
----------------------
   0 C :    0.068378
   1 C :   -0.012295
   2 N :    0.008260
   3 H :    0.015056
   4 C :   -0.021244
   5 H :    0.015810
   6 H :   -0.004509
   7 H :    0.023545
   8 C :   -0.026837
   9 H :   -0.005929
  10 C :   -0.020702
  11 H :    0.022075
  12 C :   -0.025262
  13 H :    0.019482
  14 H :    0.018751
  15 C :   -0.017457
  16 H :   -0.005480
  17 H :    0.020769
  18 H :    0.000408
  19 C :   -0.003093
  20 H :    0.025856
  21 H :    0.031851
  22 H :    0.024366
  23 C :    0.168378
  24 H :    0.029971
  25 H :    0.037499
  26 F :   -0.208742
  27 H :    0.005573
  28 H :    0.005784
  29 C :   -0.208768
  30 C :    0.163624
  31 N :    0.201378
  32 H :   -0.039705
  33 H :   -0.001500
  34 H :   -0.047695
  35 H :   -0.157219
  36 H :   -0.100377

  Mayer bond orders larger than 0.100000
B(  0-C ,  1-C ) :   1.0409 B(  0-C ,  2-N ) :   1.0041 B(  0-C ,  4-C ) :   0.1038
B(  0-C ,  5-H ) :   0.1261 B(  0-C , 27-H ) :   0.6851 B(  0-C , 28-H ) :   0.8201
B(  0-C , 34-H ) :  -0.5532 B(  1-C ,  3-H ) :   0.7671 B(  1-C ,  4-C ) :   1.2060
B(  1-C ,  5-H ) :   0.9200 B(  1-C ,  6-H ) :   0.1400 B(  1-C , 27-H ) :   0.1142
B(  1-C , 28-H ) :   0.1183 B(  2-N , 27-H ) :   0.1574 B(  2-N , 29-C ) :   1.0414
B(  2-N , 30-C ) :   0.2340 B(  2-N , 31-N ) :   0.1978 B(  2-N , 34-H ) :   0.8885
B(  3-H ,  4-C ) :   0.1824 B(  4-C ,  6-H ) :   0.8518 B(  4-C ,  7-H ) :   0.7764
B(  4-C ,  8-C ) :   1.1819 B(  4-C , 11-H ) :   0.1584 B(  6-H ,  8-C ) :   0.1651
B(  7-H ,  8-C ) :   0.1429 B(  8-C ,  9-H ) :   0.8340 B(  8-C , 10-C ) :   1.1737
B(  8-C , 11-H ) :   0.9395 B(  8-C , 12-C ) :   0.1164 B(  8-C , 13-H ) :   0.1167
B(  8-C , 14-H ) :   0.2755 B( 10-C , 12-C ) :   1.1982 B( 10-C , 13-H ) :   0.7164
B( 10-C , 14-H ) :   0.7014 B( 10-C , 17-H ) :   0.1006 B( 12-C , 13-H ) :   0.2174
B( 12-C , 14-H ) :   0.1264 B( 12-C , 15-C ) :   1.2092 B( 12-C , 16-H ) :   0.8755
B( 12-C , 17-H ) :   0.8843 B( 12-C , 18-H ) :   0.1529 B( 12-C , 20-H ) :   0.1903
B( 13-H , 14-H ) :  -0.1141 B( 15-C , 16-H ) :   0.1043 B( 15-C , 17-H ) :   0.2335
B( 15-C , 18-H ) :   0.8785 B( 15-C , 19-C ) :   1.1742 B( 15-C , 20-H ) :   0.8260
B( 15-C , 21-H ) :   0.1008 B( 15-C , 22-H ) :   0.1978 B( 18-H , 19-C ) :   0.1529
B( 19-C , 21-H ) :   0.8182 B( 19-C , 22-H ) :   0.7490 B( 19-C , 23-C ) :   1.2128
B( 19-C , 24-H ) :   0.1187 B( 19-C , 25-H ) :   0.1384 B( 19-C , 26-F ) :   0.1108
B( 21-H , 23-C ) :   0.1467 B( 22-H , 23-C ) :   0.1562 B( 23-C , 24-H ) :   0.8529
B( 23-C , 25-H ) :   0.9087 B( 23-C , 26-F ) :   0.5889 B( 26-F , 35-H ) :   0.1705
B( 27-H , 34-H ) :   0.1784 B( 29-C , 30-C ) :   1.6584 B( 29-C , 31-N ) :   0.8251
B( 29-C , 34-H ) :  -0.5982 B( 29-C , 35-H ) :   0.2217 B( 29-C , 36-H ) :   0.3899
B( 30-C , 31-N ) :   0.2709 B( 30-C , 35-H ) :   0.4414 B( 30-C , 36-H ) :   0.5372
B( 31-N , 32-H ) :   0.9908 B( 31-N , 33-H ) :   1.2151 B( 32-H , 33-H ) :  -0.1385
B( 34-H , 35-H ) :  -0.1123 B( 35-H , 36-H ) :   0.2166

Dispersion correction           -0.049817180
FINAL SINGLE POINT ENERGY      -642.016392771255

DIPOLE MOMENT
-------------
                                X             Y             Z
Electronic contribution:     -1.28824      -3.15543       9.45921
Nuclear contribution   :      1.09892       3.58083     -10.64472
                        -----------------------------------------
Total Dipole Moment    :     -0.18932       0.42540      -1.18551
                        -----------------------------------------
Magnitude (a.u.)       :      1.27367
Magnitude (Debye)      :      3.23742

Rotational constants in cm-1:     0.026768     0.016312     0.010954
Rotational constants in MHz :   802.489946   489.033275   328.388904

                             ****ORCA TERMINATED NORMALLY****
TOTAL RUN TIME: 0 days 0 hours 1 minutes 22 seconds 626 msec
