                         Program Version 5.0.0 -  RELEASE  -
|  1> !CAM-B3LYP RIJCOSX def2-SVPD def2/J TightSCF
|  2> *xyz -1 1
|  3> C          0.28725       -1.71177       -2.52740
|  4> O          0.71050       -0.92751       -1.48177
|  5> H          0.92384       -1.55316       -3.37267
|  6> H         -0.71828       -1.45137       -2.78433
|  7> H          0.32655       -2.74158       -2.23955
|  8> *
|  9> %MaxCore 64000
| 10>
| 11> %pal nprocs 4
| 12> end
| 13>
| 14> %scf
| 15>   MaxIter 150
| 16> end
| 17>
| 18>
| 19>                          ****END OF INPUT****

CARTESIAN COORDINATES (ANGSTROEM)
---------------------------------
  C      0.287250   -1.711770   -2.527400
  O      0.710500   -0.927510   -1.481770
  H      0.923840   -1.553160   -3.372670
  H     -0.718280   -1.451370   -2.784330
  H      0.326550   -2.741580   -2.239550

 Total Charge           Charge          ....   -1
 Multiplicity           Mult            ....    1
 Number of Electrons    NEL             ....   18
 Basis Dimension        Dim             ....   67

ORBITAL ENERGIES
----------------

  NO   OCC          E(Eh)            E(eV)
   0   2.0000     -18.858320      -513.1610
   1   2.0000     -10.045543      -273.3531
   2   2.0000      -0.727187       -19.7878
   3   2.0000      -0.468710       -12.7542
   4   2.0000      -0.266101        -7.2410
   5   2.0000      -0.266084        -7.2405
   6   2.0000      -0.164106        -4.4655
   7   2.0000      -0.013126        -0.3572
   8   2.0000      -0.013116        -0.3569
   9   0.0000       0.225655         6.1404
  10   0.0000       0.300347         8.1729
  11   0.0000       0.300348         8.1729
  12   0.0000       0.309309         8.4167
  13   0.0000       0.344841         9.3836

MULLIKEN ATOMIC CHARGES
-----------------------
   0 C :    0.972147
   1 O :   -1.021476
   2 H :   -0.316716
   3 H :   -0.317151
   4 H :   -0.316804
Sum of atomic charges:   -1.0000000

LOEWDIN ATOMIC CHARGES
----------------------
   0 C :   -0.112593
   1 O :   -0.655581
   2 H :   -0.077266
   3 H :   -0.077293
   4 H :   -0.077267

  Mayer bond orders larger than 0.100000
B(  0-C ,  1-O ) :   1.1912 B(  0-C ,  2-H ) :   0.8762 B(  0-C ,  3-H ) :   0.8762
B(  0-C ,  4-H ) :   0.8761

FINAL SINGLE POINT ENERGY      -114.968543477760

DIPOLE MOMENT
-------------
                                X             Y             Z
Electronic contribution:      0.55209       1.02303       1.36398
Nuclear contribution   :     -0.89006      -1.64923      -2.19886
                        -----------------------------------------
Total Dipole Moment    :     -0.33797      -0.62621      -0.83488
                        -----------------------------------------
Magnitude (a.u.)       :      1.09699
Magnitude (Debye)      :      2.78833

Rotational constants in cm-1:     5.477712     0.934243     0.934241
Rotational constants in MHz : 164217.678885 28007.889263 28007.851448

                             ****ORCA TERMINATED NORMALLY****
TOTAL RUN TIME: 0 days 0 hours 0 minutes 4 seconds 511 msec
