                         Program Version 5.0.0 -  RELEASE  -
|  1> !CAM-B3LYP RIJCOSX def2-SVPD def2/J TightSCF
|  2> *xyz 1 1
|  3> C          3.48828        1.60092       -1.52204
|  4> N          2.81029        0.42878       -1.01420
|  5> C          3.29098       -0.41802       -0.12908
|  6> N          2.51754       -1.43202        0.23936
|  7> N          4.53549       -0.28441        0.39580
|  8> H          5.04363        0.57189        0.22290
|  9> H          4.72335       -0.73327        1.28180
| 10> H          1.93479        0.10230       -1.40379
| 11> H          1.67464       -1.50562       -0.31610
| 12> H          2.92850       -2.21850        0.72549
| 13> H          2.85802        2.09943       -2.22855
| 14> H          4.39853        1.30677       -2.00144
| 15> H          3.70992        2.26379       -0.71187
| 16> *
| 17> %MaxCore 64000
| 18>
| 19> %pal nprocs 4
| 20> end
| 21>
| 22> %scf
| 23>   MaxIter 150
| 24> end
| 25>
| 26>
| 27>                          ****END OF INPUT****

CARTESIAN COORDINATES (ANGSTROEM)
---------------------------------
  C      3.488280    1.600920   -1.522040
  N      2.810290    0.428780   -1.014200
  C      3.290980   -0.418020   -0.129080
  N      2.517540   -1.432020    0.239360
  N      4.535490   -0.284410    0.395800
  H      5.043630    0.571890    0.222900
  H      4.723350   -0.733270    1.281800
  H      1.934790    0.102300   -1.403790
  H      1.674640   -1.505620   -0.316100
  H      2.928500   -2.218500    0.725490
  H      2.858020    2.099430   -2.228550
  H      4.398530    1.306770   -2.001440
  H      3.709920    2.263790   -0.711870

 Total Charge           Charge          ....    1
 Multiplicity           Mult            ....    1
 Number of Electrons    NEL             ....   40
 Basis Dimension        Dim             ....  164

ORBITAL ENERGIES
----------------

  NO   OCC          E(Eh)            E(eV)
   0   2.0000     -14.641079      -398.4040
   1   2.0000     -14.634148      -398.2154
   2   2.0000     -14.633681      -398.2027
   3   2.0000     -10.603467      -288.5350
   4   2.0000     -10.468711      -284.8681
   5   2.0000      -1.303054       -35.4579
   6   2.0000      -1.187434       -32.3117
   7   2.0000      -1.173527       -31.9333
   8   2.0000      -0.989960       -26.9382
   9   2.0000      -0.904796       -24.6207
  10   2.0000      -0.859805       -23.3965
  11   2.0000      -0.834332       -22.7033
  12   2.0000      -0.770129       -20.9563
  13   2.0000      -0.758716       -20.6457
  14   2.0000      -0.738052       -20.0834
  15   2.0000      -0.720315       -19.6008
  16   2.0000      -0.666638       -18.1401
  17   2.0000      -0.653108       -17.7720
  18   2.0000      -0.551577       -15.0092
  19   2.0000      -0.526742       -14.3334
  20   0.0000      -0.131914        -3.5896
  21   0.0000      -0.126174        -3.4334
  22   0.0000      -0.089668        -2.4400
  23   0.0000      -0.081328        -2.2130
  24   0.0000      -0.051822        -1.4102

MULLIKEN ATOMIC CHARGES
-----------------------
   0 C :    1.253870
   1 N :   -0.484097
   2 C :    1.036482
   3 N :    0.120699
   4 N :    0.054064
   5 H :   -0.066295
   6 H :   -0.087005
   7 H :   -0.211486
   8 H :    0.001772
   9 H :   -0.111116
  10 H :   -0.387198
  11 H :   -0.053974
  12 H :   -0.065715
Sum of atomic charges:    1.0000000

LOEWDIN ATOMIC CHARGES
----------------------
   0 C :    0.252827
   1 N :    0.017859
   2 C :   -0.039719
   3 N :    0.266530
   4 N :    0.285644
   5 H :    0.015086
   6 H :    0.035875
   7 H :    0.055191
   8 H :    0.033424
   9 H :    0.045913
  10 H :    0.015599
  11 H :    0.008308
  12 H :    0.007464

  Mayer bond orders larger than 0.100000
B(  0-C ,  1-N ) :   0.9964 B(  0-C ,  7-H ) :  -0.1254 B(  0-C , 10-H ) :   0.7843
B(  0-C , 11-H ) :   0.7946 B(  0-C , 12-H ) :   0.7792 B(  1-N ,  2-C ) :   1.0899
B(  1-N ,  3-N ) :   0.2237 B(  1-N ,  4-N ) :   0.1955 B(  1-N ,  7-H ) :   1.2673
B(  1-N , 10-H ) :   0.1960 B(  1-N , 11-H ) :   0.1575 B(  1-N , 12-H ) :   0.1680
B(  2-C ,  3-N ) :   1.0000 B(  2-C ,  4-N ) :   1.0342 B(  2-C ,  5-H ) :  -0.1141
B(  2-C ,  7-H ) :  -0.2298 B(  2-C ,  9-H ) :  -0.1063 B(  3-N ,  4-N ) :   0.1295
B(  3-N ,  8-H ) :   1.0683 B(  3-N ,  9-H ) :   1.1929 B(  4-N ,  5-H ) :   1.0743
B(  4-N ,  6-H ) :   1.1719 B(  5-H ,  6-H ) :  -0.1393 B(  8-H ,  9-H ) :  -0.1416

FINAL SINGLE POINT ENERGY      -244.795934100750

DIPOLE MOMENT
-------------
                                X             Y             Z
Electronic contribution:     -0.68586      -2.29061       1.33822
Nuclear contribution   :      0.56176       1.95858      -1.15445
                        -----------------------------------------
Total Dipole Moment    :     -0.12410      -0.33203       0.18378
                        -----------------------------------------
Magnitude (a.u.)       :      0.39927
Magnitude (Debye)      :      1.01487

Rotational constants in cm-1:     0.309570     0.135399     0.096056
Rotational constants in MHz :  9280.673410  4059.171112  2879.675555

                             ****ORCA TERMINATED NORMALLY****
TOTAL RUN TIME: 0 days 0 hours 0 minutes 23 seconds 561 msec
