                         Program Version 5.0.0 -  RELEASE  -
|  1> !CAM-B3LYP RIJCOSX def2-SVPD def2/J TightSCF
|  2> *xyz 0 1
|  3> C          0.28725       -1.71177       -2.52740
|  4> F          0.71050       -0.92751       -1.48177
|  5> H          0.92384       -1.55316       -3.37267
|  6> H         -0.71828       -1.45137       -2.78433
|  7> H          0.32655       -2.74158       -2.23955
|  8> *
|  9> %MaxCore 64000
| 10>
| 11> %pal nprocs 4
| 12> end
| 13>
| 14> %scf
| 15>   MaxIter 150
| 16> end
| 17>
| 18>
| 19>                          ****END OF INPUT****

CARTESIAN COORDINATES (ANGSTROEM)
---------------------------------
  C      0.287250   -1.711770   -2.527400
  F      0.710500   -0.927510   -1.481770
  H      0.923840   -1.553160   -3.372670
  H     -0.718280   -1.451370   -2.784330
  H      0.326550   -2.741580   -2.239550

 Total Charge           Charge          ....    0
 Multiplicity           Mult            ....    1
 Number of Electrons    NEL             ....   18
 Basis Dimension        Dim             ....   67

ORBITAL ENERGIES
----------------

  NO   OCC          E(Eh)            E(eV)
   0   2.0000     -24.758508      -673.7133
   1   2.0000     -10.332563      -281.1633
   2   2.0000      -1.263042       -34.3691
   3   2.0000      -0.783226       -21.3127
   4   2.0000      -0.570598       -15.5268
   5   2.0000      -0.566062       -15.4033
   6   2.0000      -0.566051       -15.4030
   7   2.0000      -0.423399       -11.5213
   8   2.0000      -0.423378       -11.5207
   9   0.0000       0.053317         1.4508
  10   0.0000       0.097532         2.6540
  11   0.0000       0.132693         3.6108
  12   0.0000       0.132695         3.6108
  13   0.0000       0.174385         4.7453

MULLIKEN ATOMIC CHARGES
-----------------------
   0 C :    1.047411
   1 F :   -0.478036
   2 H :   -0.189610
   3 H :   -0.190163
   4 H :   -0.189602
Sum of atomic charges:   -0.0000000

LOEWDIN ATOMIC CHARGES
----------------------
   0 C :    0.267915
   1 F :   -0.252322
   2 H :   -0.005186
   3 H :   -0.005223
   4 H :   -0.005184

  Mayer bond orders larger than 0.100000
B(  0-C ,  1-F ) :   0.8514 B(  0-C ,  2-H ) :   0.9103 B(  0-C ,  3-H ) :   0.9103
B(  0-C ,  4-H ) :   0.9102

FINAL SINGLE POINT ENERGY      -139.595700889325

DIPOLE MOMENT
-------------
                                X             Y             Z
Electronic contribution:      0.89553       1.65950       2.21246
Nuclear contribution   :     -1.12906      -2.09208      -2.78929
                        -----------------------------------------
Total Dipole Moment    :     -0.23353      -0.43258      -0.57683
                        -----------------------------------------
Magnitude (a.u.)       :      0.75789
Magnitude (Debye)      :      1.92640

Rotational constants in cm-1:     5.477712     0.869598     0.869597
Rotational constants in MHz : 164217.678885 26069.889584 26069.856821

                             ****ORCA TERMINATED NORMALLY****
TOTAL RUN TIME: 0 days 0 hours 0 minutes 4 seconds 100 msec
