                         Program Version 5.0.0 -  RELEASE  -
|  1> !CAM-B3LYP RIJCOSX def2-SVPD def2/J TightSCF
|  2> *xyz 0 1
|  3> C          3.48828        1.60092       -1.52204
|  4> C          2.81029        0.42878       -1.01420
|  5> C          3.29098       -0.41802       -0.12908
|  6> N          2.51754       -1.43202        0.23936
|  7> N          4.53549       -0.28441        0.39580
|  8> H          5.04363        0.57189        0.22290
|  9> H          4.72335       -0.73327        1.28180
| 10> H          1.93479        0.10230       -1.40379
| 11> H          1.67464       -1.50562       -0.31610
| 12> H          2.92850       -2.21850        0.72549
| 13> H          2.85802        2.09943       -2.22855
| 14> H          4.39853        1.30677       -2.00144
| 15> H          3.70992        2.26379       -0.71187
| 16> *
| 17> %MaxCore 64000
| 18>
| 19> %pal nprocs 4
| 20> end
| 21>
| 22> %scf
| 23>   MaxIter 150
| 24> end
| 25>
| 26>
| 27>                          ****END OF INPUT****

CARTESIAN COORDINATES (ANGSTROEM)
---------------------------------
  C      3.488280    1.600920   -1.522040
  C      2.810290    0.428780   -1.014200
  C      3.290980   -0.418020   -0.129080
  N      2.517540   -1.432020    0.239360
  N      4.535490   -0.284410    0.395800
  H      5.043630    0.571890    0.222900
  H      4.723350   -0.733270    1.281800
  H      1.934790    0.102300   -1.403790
  H      1.674640   -1.505620   -0.316100
  H      2.928500   -2.218500    0.725490
  H      2.858020    2.099430   -2.228550
  H      4.398530    1.306770   -2.001440
  H      3.709920    2.263790   -0.711870

 Total Charge           Charge          ....    0
 Multiplicity           Mult            ....    1
 Number of Electrons    NEL             ....   40
 Basis Dimension        Dim             ....  164

ORBITAL ENERGIES
----------------

  NO   OCC          E(Eh)            E(eV)
   0   2.0000     -14.407072      -392.0364
   1   2.0000     -14.399491      -391.8301
   2   2.0000     -10.298263      -280.2300
   3   2.0000     -10.225206      -278.2420
   4   2.0000     -10.182655      -277.0841
   5   2.0000      -1.034105       -28.1394
   6   2.0000      -0.943314       -25.6689
   7   2.0000      -0.832193       -22.6451
   8   2.0000      -0.731232       -19.8978
   9   2.0000      -0.657078       -17.8800
  10   2.0000      -0.608856       -16.5678
  11   2.0000      -0.579491       -15.7688
  12   2.0000      -0.534338       -14.5401
  13   2.0000      -0.499435       -13.5903
  14   2.0000      -0.483650       -13.1608
  15   2.0000      -0.443668       -12.0728
  16   2.0000      -0.434748       -11.8301
  17   2.0000      -0.409464       -11.1421
  18   2.0000      -0.332261        -9.0413
  19   2.0000      -0.219606        -5.9758
  20   0.0000       0.048239         1.3127
  21   0.0000       0.074071         2.0156
  22   0.0000       0.085230         2.3192
  23   0.0000       0.110513         3.0072
  24   0.0000       0.118586         3.2269

MULLIKEN ATOMIC CHARGES
-----------------------
   0 C :    1.039038
   1 C :   -0.552817
   2 C :    0.498132
   3 N :    0.178303
   4 N :    0.044517
   5 H :   -0.053801
   6 H :   -0.212031
   7 H :   -0.457451
   8 H :    0.019539
   9 H :   -0.218181
  10 H :   -0.132593
  11 H :   -0.083527
  12 H :   -0.069128
Sum of atomic charges:   -0.0000000

LOEWDIN ATOMIC CHARGES
----------------------
   0 C :    0.086284
   1 C :   -0.069693
   2 C :   -0.235996
   3 N :    0.173696
   4 N :    0.206303
   5 H :   -0.017736
   6 H :   -0.014698
   7 H :   -0.056622
   8 H :   -0.001334
   9 H :   -0.008109
  10 H :   -0.017212
  11 H :   -0.021812
  12 H :   -0.023071

  Mayer bond orders larger than 0.100000
B(  0-C ,  1-C ) :   1.1760 B(  0-C ,  7-H ) :   0.1625 B(  0-C , 10-H ) :   0.7037
B(  0-C , 11-H ) :   0.6383 B(  0-C , 12-H ) :   0.5920 B(  1-C ,  2-C ) :   1.5418
B(  1-C ,  3-N ) :   0.2939 B(  1-C ,  4-N ) :   0.2061 B(  1-C ,  5-H ) :  -0.1253
B(  1-C ,  7-H ) :   0.9658 B(  1-C , 10-H ) :   0.3386 B(  1-C , 11-H ) :   0.2668
B(  1-C , 12-H ) :   0.3417 B(  2-C ,  3-N ) :   1.0127 B(  2-C ,  4-N ) :   0.9865
B(  2-C ,  7-H ) :   0.2101 B(  3-N ,  8-H ) :   1.0522 B(  3-N ,  9-H ) :   1.1424
B(  4-N ,  5-H ) :   1.0446 B(  4-N ,  6-H ) :   1.1832 B(  5-H ,  6-H ) :  -0.1192
B(  7-H , 10-H ) :  -0.1550 B(  8-H ,  9-H ) :  -0.1329

FINAL SINGLE POINT ENERGY      -228.331675703704

DIPOLE MOMENT
-------------
                                X             Y             Z
Electronic contribution:     -0.24148      -2.54942       1.79166
Nuclear contribution   :      0.45569       2.05070      -1.27895
                        -----------------------------------------
Total Dipole Moment    :      0.21421      -0.49873       0.51272
                        -----------------------------------------
Magnitude (a.u.)       :      0.74665
Magnitude (Debye)      :      1.89784

Rotational constants in cm-1:     0.314404     0.136412     0.097030
Rotational constants in MHz :  9425.600285  4089.541372  2908.875289

                             ****ORCA TERMINATED NORMALLY****
TOTAL RUN TIME: 0 days 0 hours 0 minutes 23 seconds 558 msec
