                         Program Version 5.0.0 -  RELEASE  -
|  1> !CAM-B3LYP RIJCOSX def2-SVPD def2/J TightSCF
|  2> *xyz 0 1
|  3> C          3.48828        1.60092       -1.52204
|  4> N          2.81029        0.42878       -1.01420
|  5> C          3.29098       -0.41802       -0.12908
|  6> C          2.51754       -1.43202        0.23936
|  7> N          4.53549       -0.28441        0.39580
|  8> H          5.04363        0.57189        0.22290
|  9> H          4.72335       -0.73327        1.28180
| 10> H          1.93479        0.10230       -1.40379
| 11> H          1.67464       -1.50562       -0.31610
| 12> H          2.92850       -2.21850        0.72549
| 13> H          2.85802        2.09943       -2.22855
| 14> H          4.39853        1.30677       -2.00144
| 15> H          3.70992        2.26379       -0.71187
| 16> *
| 17> %MaxCore 64000
| 18>
| 19> %pal nprocs 4
| 20> end
| 21>
| 22> %scf
| 23>   MaxIter 150
| 24> end
| 25>
| 26>
| 27>                          ****END OF INPUT****

CARTESIAN COORDINATES (ANGSTROEM)
---------------------------------
  C      3.488280    1.600920   -1.522040
  N      2.810290    0.428780   -1.014200
  C      3.290980   -0.418020   -0.129080
  C      2.517540   -1.432020    0.239360
  N      4.535490   -0.284410    0.395800
  H      5.043630    0.571890    0.222900
  H      4.723350   -0.733270    1.281800
  H      1.934790    0.102300   -1.403790
  H      1.674640   -1.505620   -0.316100
  H      2.928500   -2.218500    0.725490
  H      2.858020    2.099430   -2.228550
  H      4.398530    1.306770   -2.001440
  H      3.709920    2.263790   -0.711870

 Total Charge           Charge          ....    0
 Multiplicity           Mult            ....    1
 Number of Electrons    NEL             ....   40
 Basis Dimension        Dim             ....  164

ORBITAL ENERGIES
----------------

  NO   OCC          E(Eh)            E(eV)
   0   2.0000     -14.406715      -392.0267
   1   2.0000     -14.406040      -392.0083
   2   2.0000     -10.305420      -280.4247
   3   2.0000     -10.294227      -280.1202
   4   2.0000     -10.167467      -276.6709
   5   2.0000      -1.045886       -28.4600
   6   2.0000      -0.956868       -26.0377
   7   2.0000      -0.826706       -22.4958
   8   2.0000      -0.740848       -20.1595
   9   2.0000      -0.672053       -18.2875
  10   2.0000      -0.606412       -16.5013
  11   2.0000      -0.564063       -15.3489
  12   2.0000      -0.549804       -14.9609
  13   2.0000      -0.529587       -14.4108
  14   2.0000      -0.475916       -12.9503
  15   2.0000      -0.455676       -12.3996
  16   2.0000      -0.445311       -12.1175
  17   2.0000      -0.436491       -11.8775
  18   2.0000      -0.326103        -8.8737
  19   2.0000      -0.220145        -5.9905
  20   0.0000       0.041583         1.1315
  21   0.0000       0.077176         2.1001
  22   0.0000       0.080431         2.1887
  23   0.0000       0.109964         2.9923
  24   0.0000       0.115118         3.1325

MULLIKEN ATOMIC CHARGES
-----------------------
   0 C :    1.278701
   1 N :   -0.390455
   2 C :    0.490562
   3 C :    0.572714
   4 N :    0.116285
   5 H :   -0.197666
   6 H :   -0.088265
   7 H :   -0.251395
   8 H :   -0.325835
   9 H :   -0.519566
  10 H :   -0.440198
  11 H :   -0.114375
  12 H :   -0.130506
Sum of atomic charges:   -0.0000000

LOEWDIN ATOMIC CHARGES
----------------------
   0 C :    0.199877
   1 N :   -0.047528
   2 C :   -0.234354
   3 C :    0.132544
   4 N :    0.203454
   5 H :   -0.029884
   6 H :    0.002668
   7 H :    0.026997
   8 H :   -0.107045
   9 H :   -0.099613
  10 H :   -0.010931
  11 H :   -0.017735
  12 H :   -0.018450

  Mayer bond orders larger than 0.100000
B(  0-C ,  1-N ) :   0.9897 B(  0-C ,  7-H ) :  -0.1405 B(  0-C , 10-H ) :   0.7652
B(  0-C , 11-H ) :   0.7930 B(  0-C , 12-H ) :   0.7817 B(  1-N ,  2-C ) :   1.1297
B(  1-N ,  3-C ) :   0.2193 B(  1-N ,  4-N ) :   0.1098 B(  1-N ,  7-H ) :   1.2314
B(  1-N , 10-H ) :   0.1937 B(  1-N , 11-H ) :   0.1799 B(  1-N , 12-H ) :   0.1698
B(  2-C ,  3-C ) :   1.6410 B(  2-C ,  4-N ) :   0.9613 B(  2-C ,  7-H ) :  -0.1549
B(  2-C ,  8-H ) :   0.2489 B(  2-C ,  9-H ) :   0.2200 B(  3-C ,  4-N ) :   0.2282
B(  3-C ,  8-H ) :   0.7554 B(  3-C ,  9-H ) :   0.6664 B(  4-N ,  5-H ) :   1.0768
B(  4-N ,  6-H ) :   1.1371 B(  5-H ,  6-H ) :  -0.1323

FINAL SINGLE POINT ENERGY      -228.317100749805

DIPOLE MOMENT
-------------
                                X             Y             Z
Electronic contribution:      0.10097      -0.71434       0.63883
Nuclear contribution   :      0.39640       1.67380      -1.02505
                        -----------------------------------------
Total Dipole Moment    :      0.49736       0.95946      -0.38621
                        -----------------------------------------
Magnitude (a.u.)       :      1.14765
Magnitude (Debye)      :      2.91708

Rotational constants in cm-1:     0.316500     0.141146     0.099607
Rotational constants in MHz :  9488.425850  4231.454938  2986.155520

                             ****ORCA TERMINATED NORMALLY****
TOTAL RUN TIME: 0 days 0 hours 0 minutes 22 seconds 869 msec
