                         Program Version 5.0.0 -  RELEASE  -
|  1> !CAM-B3LYP RIJCOSX def2-SVPD def2/J TightSCF
|  2> *xyz 0 1
|  3> C          3.48828        1.60092       -1.52204
|  4> N          2.81029        0.42878       -1.01420
|  5> C          3.29098       -0.41802       -0.12908
|  6> N          2.51754       -1.43202        0.23936
|  7> C          4.53549       -0.28441        0.39580
|  8> H          5.04363        0.57189        0.22290
|  9> H          4.72335       -0.73327        1.28180
| 10> H          1.93479        0.10230       -1.40379
| 11> H          1.67464       -1.50562       -0.31610
| 12> H          2.92850       -2.21850        0.72549
| 13> H          2.85802        2.09943       -2.22855
| 14> H          4.39853        1.30677       -2.00144
| 15> H          3.70992        2.26379       -0.71187
| 16> *
| 17> %MaxCore 64000
| 18>
| 19> %pal nprocs 4
| 20> end
| 21>
| 22> %scf
| 23>   MaxIter 150
| 24> end
| 25>
| 26>
| 27>                          ****END OF INPUT****

CARTESIAN COORDINATES (ANGSTROEM)
---------------------------------
  C      3.488280    1.600920   -1.522040
  N      2.810290    0.428780   -1.014200
  C      3.290980   -0.418020   -0.129080
  N      2.517540   -1.432020    0.239360
  C      4.535490   -0.284410    0.395800
  H      5.043630    0.571890    0.222900
  H      4.723350   -0.733270    1.281800
  H      1.934790    0.102300   -1.403790
  H      1.674640   -1.505620   -0.316100
  H      2.928500   -2.218500    0.725490
  H      2.858020    2.099430   -2.228550
  H      4.398530    1.306770   -2.001440
  H      3.709920    2.263790   -0.711870

 Total Charge           Charge          ....    0
 Multiplicity           Mult            ....    1
 Number of Electrons    NEL             ....   40
 Basis Dimension        Dim             ....  164

ORBITAL ENERGIES
----------------

  NO   OCC          E(Eh)            E(eV)
   0   2.0000     -14.413806      -392.2196
   1   2.0000     -14.407755      -392.0550
   2   2.0000     -10.308364      -280.5048
   3   2.0000     -10.287293      -279.9315
   4   2.0000     -10.171078      -276.7691
   5   2.0000      -1.055569       -28.7235
   6   2.0000      -0.961939       -26.1757
   7   2.0000      -0.795120       -21.6363
   8   2.0000      -0.776275       -21.1235
   9   2.0000      -0.640762       -17.4360
  10   2.0000      -0.616813       -16.7843
  11   2.0000      -0.601122       -16.3574
  12   2.0000      -0.529631       -14.4120
  13   2.0000      -0.521507       -14.1909
  14   2.0000      -0.484946       -13.1961
  15   2.0000      -0.455714       -12.4006
  16   2.0000      -0.438873       -11.9424
  17   2.0000      -0.434043       -11.8109
  18   2.0000      -0.318074        -8.6552
  19   2.0000      -0.226051        -6.1512
  20   0.0000       0.043113         1.1732
  21   0.0000       0.065803         1.7906
  22   0.0000       0.083859         2.2819
  23   0.0000       0.113586         3.0908
  24   0.0000       0.118728         3.2308

MULLIKEN ATOMIC CHARGES
-----------------------
   0 C :    1.237572
   1 N :   -0.421723
   2 C :    0.376875
   3 N :    0.158584
   4 C :    0.611109
   5 H :   -0.278466
   6 H :   -0.513476
   7 H :   -0.362866
   8 H :   -0.148313
   9 H :   -0.107227
  10 H :   -0.465716
  11 H :   -0.038295
  12 H :   -0.048058
Sum of atomic charges:   -0.0000000

LOEWDIN ATOMIC CHARGES
----------------------
   0 C :    0.207130
   1 N :   -0.049297
   2 C :   -0.246576
   3 N :    0.186935
   4 C :    0.157891
   5 H :   -0.127182
   6 H :   -0.109871
   7 H :    0.014500
   8 H :   -0.014575
   9 H :    0.012851
  10 H :   -0.012583
  11 H :   -0.009927
  12 H :   -0.009295

  Mayer bond orders larger than 0.100000
B(  0-C ,  1-N ) :   1.0091 B(  0-C ,  7-H ) :  -0.1392 B(  0-C , 10-H ) :   0.7787
B(  0-C , 11-H ) :   0.7980 B(  0-C , 12-H ) :   0.7854 B(  1-N ,  2-C ) :   1.0848
B(  1-N ,  3-N ) :   0.1475 B(  1-N ,  4-C ) :   0.3204 B(  1-N ,  7-H ) :   1.3111
B(  1-N , 10-H ) :   0.1839 B(  1-N , 11-H ) :   0.1505 B(  1-N , 12-H ) :   0.1560
B(  2-C ,  3-N ) :   0.9520 B(  2-C ,  4-C ) :   1.7743 B(  2-C ,  5-H ) :   0.3181
B(  2-C ,  6-H ) :   0.2783 B(  2-C ,  7-H ) :  -0.2174 B(  3-N ,  4-C ) :   0.2518
B(  3-N ,  8-H ) :   1.0935 B(  3-N ,  9-H ) :   1.1680 B(  4-C ,  5-H ) :   0.6814
B(  4-C ,  6-H ) :   0.6519 B(  5-H ,  6-H ) :   0.2064 B(  8-H ,  9-H ) :  -0.1310

FINAL SINGLE POINT ENERGY      -228.319292101345

DIPOLE MOMENT
-------------
                                X             Y             Z
Electronic contribution:     -1.84505      -1.94786       0.39599
Nuclear contribution   :      0.80512       1.90624      -0.99336
                        -----------------------------------------
Total Dipole Moment    :     -1.03993      -0.04161      -0.59737
                        -----------------------------------------
Magnitude (a.u.)       :      1.20002
Magnitude (Debye)      :      3.05020

Rotational constants in cm-1:     0.332728     0.136065     0.098521
Rotational constants in MHz :  9974.927067  4079.126590  2953.598000

                             ****ORCA TERMINATED NORMALLY****
TOTAL RUN TIME: 0 days 0 hours 0 minutes 23 seconds 640 msec
