                         Program Version 5.0.0 -  RELEASE  -
|  1> !CAM-B3LYP RIJCOSX def2-SVPD def2/J TightSCF xyzfile
|  2>
|  3> *xyzfile 0 1 D1.xyz
|  4>
|  5> %MaxCore 64000
|  6>
|  7> %pal nprocs 4
|  8> end
|  9>
| 10> %scf
| 11>   MaxIter 150
| 12> end
| 13>
| 14>
| 15>                          ****END OF INPUT****

CARTESIAN COORDINATES (ANGSTROEM)
---------------------------------
  C      3.488276    1.600919   -1.522040
  C      4.342970    1.313419   -2.756826
  C      2.810285    0.428783   -1.014196
  H      5.132033    0.604994   -2.484466
  C      3.535896    0.749253   -3.924604
  H      4.841247    2.242136   -3.054083
  H      2.991617   -0.132199   -3.574137
  H      4.225505    0.392784   -4.695962
  C      2.564776    1.750890   -4.544523
  H      1.918749    2.171679   -3.769419
  C      1.686235    1.161657   -5.650111
  H      3.132494    2.594775   -4.951604
  C      0.839616   -0.037582   -5.220473
  H      2.323886    0.866395   -6.490796
  H      1.029518    1.951850   -6.029329
  C     -0.151019    0.254955   -4.094256
  H      1.499442   -0.857141   -4.922958
  H      0.290097   -0.410143   -6.091131
  H      0.328265    0.833022   -3.299125
  C     -0.721843   -0.999513   -3.439309
  H     -0.957367    0.884951   -4.485450
  H     -1.083403   -1.697555   -4.205656
  H     -1.581056   -0.723848   -2.820490
  C      0.287250   -1.711771   -2.527405
  H      1.131780   -2.067380   -3.159396
  H     -0.204137   -2.637326   -2.170480
  F      0.710505   -0.927506   -1.481767
  H      2.714548    2.331455   -1.760302
  H      4.090991    2.063151   -0.733382
  C      3.290978   -0.418021   -0.129083
  N      2.517536   -1.432017    0.239360
  N      4.535490   -0.284410    0.395800
  H      5.043627    0.571888    0.222899
  H      4.723346   -0.733273    1.281800
  H      1.934787    0.102305   -1.403788
  H      1.674638   -1.505616   -0.316095
  H      2.928503   -2.218502    0.725494

 Total Charge           Charge          ....    0
 Multiplicity           Mult            ....    1
 Number of Electrons    NEL             ....  112
 Basis Dimension        Dim             ....  467

ORBITAL ENERGIES
----------------

  NO   OCC          E(Eh)            E(eV)
   0   2.0000     -24.791616      -674.6142
   1   2.0000     -14.391593      -391.6152
   2   2.0000     -14.374367      -391.1464
   3   2.0000     -10.351761      -281.6857
   4   2.0000     -10.282485      -279.8006
   5   2.0000     -10.271010      -279.4884
   6   2.0000     -10.255393      -279.0634
   7   2.0000     -10.251243      -278.9505
   8   2.0000     -10.246311      -278.8163
   9   2.0000     -10.238617      -278.6069
  10   2.0000     -10.233130      -278.4576
  11   2.0000     -10.227773      -278.3119
  12   2.0000     -10.221240      -278.1341
  13   2.0000     -10.154500      -276.3180
  14   2.0000      -1.303178       -35.4613
  15   2.0000      -1.016917       -27.6717
  16   2.0000      -0.927033       -25.2259
  17   2.0000      -0.898009       -24.4361
  18   2.0000      -0.872726       -23.7481
  19   2.0000      -0.842474       -22.9249
  20   2.0000      -0.807760       -21.9803
  21   2.0000      -0.768082       -20.9006
  22   2.0000      -0.742223       -20.1969
  23   2.0000      -0.707644       -19.2560
  24   2.0000      -0.677933       -18.4475
  25   2.0000      -0.663588       -18.0571
  26   2.0000      -0.638760       -17.3815
  27   2.0000      -0.620761       -16.8918
  28   2.0000      -0.610867       -16.6225
  29   2.0000      -0.595473       -16.2037
  30   2.0000      -0.586627       -15.9629
  31   2.0000      -0.570892       -15.5348
  32   2.0000      -0.558281       -15.1916
  33   2.0000      -0.536479       -14.5983
  34   2.0000      -0.527617       -14.3572
  35   2.0000      -0.514287       -13.9944
  36   2.0000      -0.507701       -13.8153
  37   2.0000      -0.494224       -13.4485
  38   2.0000      -0.483332       -13.1521
  39   2.0000      -0.472857       -12.8671
  40   2.0000      -0.464900       -12.6506
  41   2.0000      -0.447562       -12.1788
  42   2.0000      -0.440600       -11.9893
  43   2.0000      -0.434080       -11.8119
  44   2.0000      -0.428621       -11.6634
  45   2.0000      -0.425253       -11.5717
  46   2.0000      -0.405373       -11.0308
  47   2.0000      -0.396708       -10.7950
  48   2.0000      -0.386592       -10.5197
  49   2.0000      -0.384080       -10.4513
  50   2.0000      -0.380394       -10.3510
  51   2.0000      -0.364966        -9.9312
  52   2.0000      -0.358797        -9.7634
  53   2.0000      -0.353157        -9.6099
  54   2.0000      -0.314863        -8.5679
  55   2.0000      -0.203747        -5.5442
  56   0.0000       0.047061         1.2806
  57   0.0000       0.059438         1.6174
  58   0.0000       0.060744         1.6529
  59   0.0000       0.066757         1.8166
  60   0.0000       0.081481         2.2172

MULLIKEN ATOMIC CHARGES
-----------------------
   0 C :    0.653345
   1 C :    0.658351
   2 C :    0.379324
   3 H :   -0.165462
   4 C :    0.455456
   5 H :   -0.157608
   6 H :   -0.492762
   7 H :   -0.178852
   8 C :    0.146320
   9 H :   -0.070936
  10 C :    0.812762
  11 H :   -0.322600
  12 C :    0.175858
  13 H :   -0.102740
  14 H :   -0.216990
  15 C :    0.419940
  16 H :   -0.151719
  17 H :   -0.308530
  18 H :   -0.426857
  19 C :    0.454839
  20 H :   -0.197526
  21 H :   -0.138622
  22 H :   -0.122055
  23 C :    1.039743
  24 H :   -0.170997
  25 H :   -0.317384
  26 F :   -0.552345
  27 H :   -0.068342
  28 H :   -0.279522
  29 C :    0.289333
  30 N :    0.431085
  31 N :    0.135383
  32 H :   -0.082311
  33 H :   -0.276729
  34 H :   -0.780929
  35 H :   -0.195695
  36 H :   -0.274224
Sum of atomic charges:    0.0000000

LOEWDIN ATOMIC CHARGES
----------------------
   0 C :   -0.046050
   1 C :   -0.027267
   2 C :   -0.014625
   3 H :    0.018556
   4 C :   -0.029018
   5 H :    0.016017
   6 H :   -0.003388
   7 H :    0.025006
   8 C :   -0.032311
   9 H :   -0.000473
  10 C :   -0.029908
  11 H :    0.025398
  12 C :   -0.034182
  13 H :    0.022347
  14 H :    0.021624
  15 C :   -0.022114
  16 H :   -0.003027
  17 H :    0.023337
  18 H :    0.008087
  19 C :   -0.009162
  20 H :    0.029921
  21 H :    0.035733
  22 H :    0.028629
  23 C :    0.160588
  24 H :    0.036010
  25 H :    0.038358
  26 F :   -0.216660
  27 H :    0.004925
  28 H :    0.005018
  29 C :   -0.198578
  30 N :    0.198236
  31 N :    0.203959
  32 H :   -0.025584
  33 H :   -0.018096
  34 H :   -0.108341
  35 H :   -0.073461
  36 H :   -0.009505

  Mayer bond orders larger than 0.100000
B(  0-C ,  1-C ) :   1.0493 B(  0-C ,  2-C ) :   0.9475 B(  0-C ,  3-H ) :   0.1459
B(  0-C ,  5-H ) :   0.2142 B(  0-C , 27-H ) :   0.7627 B(  0-C , 28-H ) :   0.5401
B(  0-C , 34-H ) :   0.6129 B(  1-C ,  3-H ) :   0.6741 B(  1-C ,  4-C ) :   1.2285
B(  1-C ,  5-H ) :   0.7247 B(  1-C ,  6-H ) :   0.1451 B(  1-C ,  7-H ) :   0.1135
B(  2-C , 27-H ) :   0.3175 B(  2-C , 28-H ) :   0.3798 B(  2-C , 29-C ) :   1.8473
B(  2-C , 30-N ) :   0.3012 B(  2-C , 31-N ) :   0.2084 B(  2-C , 32-H ) :  -0.1833
B(  2-C , 34-H ) :  -0.4158 B(  3-H ,  4-C ) :   0.2612 B(  3-H ,  5-H ) :  -0.1124
B(  4-C ,  5-H ) :   0.1341 B(  4-C ,  6-H ) :   0.7050 B(  4-C ,  7-H ) :   0.6909
B(  4-C ,  8-C ) :   1.1515 B(  4-C , 11-H ) :   0.1679 B(  6-H ,  8-C ) :   0.1857
B(  7-H ,  8-C ) :   0.1658 B(  8-C ,  9-H ) :   0.8152 B(  8-C , 10-C ) :   1.1283
B(  8-C , 11-H ) :   0.8655 B(  8-C , 12-C ) :   0.1321 B(  8-C , 13-H ) :   0.1264
B(  8-C , 14-H ) :   0.3423 B( 10-C , 12-C ) :   1.1744 B( 10-C , 13-H ) :   0.6391
B( 10-C , 14-H ) :   0.6026 B( 12-C , 13-H ) :   0.2781 B( 12-C , 14-H ) :   0.1219
B( 12-C , 15-C ) :   1.1541 B( 12-C , 16-H ) :   0.8516 B( 12-C , 17-H ) :   0.8053
B( 12-C , 18-H ) :   0.1815 B( 12-C , 20-H ) :   0.2045 B( 13-H , 14-H ) :  -0.1576
B( 15-C , 16-H ) :   0.1137 B( 15-C , 17-H ) :   0.2542 B( 15-C , 18-H ) :   0.7640
B( 15-C , 19-C ) :   1.1704 B( 15-C , 20-H ) :   0.7562 B( 15-C , 21-H ) :   0.1129
B( 15-C , 22-H ) :   0.2560 B( 18-H , 19-C ) :   0.1607 B( 18-H , 34-H ) :   0.1061
B( 19-C , 21-H ) :   0.7363 B( 19-C , 22-H ) :   0.6754 B( 19-C , 23-C ) :   1.1906
B( 19-C , 24-H ) :   0.1301 B( 19-C , 25-H ) :   0.1557 B( 21-H , 23-C ) :   0.1777
B( 22-H , 23-C ) :   0.1608 B( 23-C , 24-H ) :   0.7748 B( 23-C , 25-H ) :   0.8360
B( 23-C , 26-F ) :   0.6012 B( 24-H , 26-F ) :   0.1594 B( 27-H , 34-H ) :  -0.1913
B( 28-H , 34-H ) :   0.1305 B( 29-C , 30-N ) :   0.8024 B( 29-C , 31-N ) :   0.9142
B( 29-C , 34-H ) :   0.5349 B( 30-N , 35-H ) :   1.1089 B( 30-N , 36-H ) :   1.1555
B( 31-N , 32-H ) :   1.0428 B( 31-N , 33-H ) :   1.2151 B( 32-H , 33-H ) :  -0.1418
B( 35-H , 36-H ) :  -0.1341

FINAL SINGLE POINT ENERGY      -641.555107444804

DIPOLE MOMENT
-------------
                                X             Y             Z
Electronic contribution:     -1.60080      -4.85290      10.66095
Nuclear contribution   :      1.15699       3.94991     -10.89335
                        -----------------------------------------
Total Dipole Moment    :     -0.44381      -0.90299      -0.23240
                        -----------------------------------------
Magnitude (a.u.)       :      1.03265
Magnitude (Debye)      :      2.62479

Rotational constants in cm-1:     0.026548     0.016177     0.010851
Rotational constants in MHz :   795.884848   484.988695   325.313537

                             ****ORCA TERMINATED NORMALLY****
TOTAL RUN TIME: 0 days 0 hours 5 minutes 15 seconds 839 msec
