                         Program Version 5.0.0 -  RELEASE  -
|  1> !CAM-B3LYP RIJCOSX def2-SVPD def2/J TightSCF xyzfile
|  2>
|  3> *xyzfile 0 1 D2.xyz
|  4>
|  5> %MaxCore 64000
|  6>
|  7> %pal nprocs 4
|  8> end
|  9>
| 10> %scf
| 11>   MaxIter 150
| 12> end
| 13>
| 14>
| 15>                          ****END OF INPUT****

CARTESIAN COORDINATES (ANGSTROEM)
---------------------------------
  C      3.488276    1.600919   -1.522040
  C      4.342970    1.313419   -2.756826
  N      2.810285    0.428783   -1.014196
  H      5.132033    0.604994   -2.484466
  C      3.535896    0.749253   -3.924604
  H      4.841247    2.242136   -3.054083
  H      2.991617   -0.132199   -3.574137
  H      4.225505    0.392784   -4.695962
  C      2.564776    1.750890   -4.544523
  H      1.918749    2.171679   -3.769419
  C      1.686235    1.161657   -5.650111
  H      3.132494    2.594775   -4.951604
  C      0.839616   -0.037582   -5.220473
  H      2.323886    0.866395   -6.490796
  H      1.029518    1.951850   -6.029329
  C     -0.151019    0.254955   -4.094256
  H      1.499442   -0.857141   -4.922958
  H      0.290097   -0.410143   -6.091131
  H      0.328265    0.833022   -3.299125
  C     -0.721843   -0.999513   -3.439309
  H     -0.957367    0.884951   -4.485450
  H     -1.083403   -1.697555   -4.205656
  H     -1.581056   -0.723848   -2.820490
  C      0.287250   -1.711771   -2.527405
  H      1.131780   -2.067380   -3.159396
  H     -0.204137   -2.637326   -2.170480
  F      0.710505   -0.927506   -1.481767
  H      2.714548    2.331455   -1.760302
  H      4.090991    2.063151   -0.733382
  C      3.290978   -0.418021   -0.129083
  C      2.517536   -1.432017    0.239360
  N      4.535490   -0.284410    0.395800
  H      5.043627    0.571888    0.222899
  H      4.723346   -0.733273    1.281800
  H      1.934787    0.102305   -1.403788
  H      1.674638   -1.505616   -0.316095
  H      2.928503   -2.218502    0.725494

 Total Charge           Charge          ....    0
 Multiplicity           Mult            ....    1
 Number of Electrons    NEL             ....  112
 Basis Dimension        Dim             ....  467

ORBITAL ENERGIES
----------------

  NO   OCC          E(Eh)            E(eV)
   0   2.0000     -24.789036      -674.5440
   1   2.0000     -14.389616      -391.5614
   2   2.0000     -14.376722      -391.2105
   3   2.0000     -10.350511      -281.6517
   4   2.0000     -10.285133      -279.8727
   5   2.0000     -10.285035      -279.8700
   6   2.0000     -10.272819      -279.5376
   7   2.0000     -10.262281      -279.2509
   8   2.0000     -10.258589      -279.1504
   9   2.0000     -10.256173      -279.0847
  10   2.0000     -10.253077      -279.0004
  11   2.0000     -10.250939      -278.9422
  12   2.0000     -10.249759      -278.9101
  13   2.0000     -10.139155      -275.9004
  14   2.0000      -1.300711       -35.3942
  15   2.0000      -1.027256       -27.9531
  16   2.0000      -0.941712       -25.6253
  17   2.0000      -0.905680       -24.6448
  18   2.0000      -0.877239       -23.8709
  19   2.0000      -0.850051       -23.1311
  20   2.0000      -0.803324       -21.8596
  21   2.0000      -0.779851       -21.2208
  22   2.0000      -0.744420       -20.2567
  23   2.0000      -0.717825       -19.5330
  24   2.0000      -0.685441       -18.6518
  25   2.0000      -0.671611       -18.2755
  26   2.0000      -0.649921       -17.6852
  27   2.0000      -0.632349       -17.2071
  28   2.0000      -0.611124       -16.6295
  29   2.0000      -0.597239       -16.2517
  30   2.0000      -0.584219       -15.8974
  31   2.0000      -0.570966       -15.5368
  32   2.0000      -0.556061       -15.1312
  33   2.0000      -0.545449       -14.8424
  34   2.0000      -0.539142       -14.6708
  35   2.0000      -0.524655       -14.2766
  36   2.0000      -0.508687       -13.8421
  37   2.0000      -0.501313       -13.6414
  38   2.0000      -0.498896       -13.5756
  39   2.0000      -0.482758       -13.1365
  40   2.0000      -0.464976       -12.6526
  41   2.0000      -0.450458       -12.2576
  42   2.0000      -0.442406       -12.0385
  43   2.0000      -0.438985       -11.9454
  44   2.0000      -0.433554       -11.7976
  45   2.0000      -0.427956       -11.6453
  46   2.0000      -0.413465       -11.2509
  47   2.0000      -0.409025       -11.1301
  48   2.0000      -0.403444       -10.9783
  49   2.0000      -0.393947       -10.7199
  50   2.0000      -0.386609       -10.5202
  51   2.0000      -0.381643       -10.3850
  52   2.0000      -0.378356       -10.2956
  53   2.0000      -0.374833       -10.1997
  54   2.0000      -0.305723        -8.3192
  55   2.0000      -0.200659        -5.4602
  56   0.0000       0.048014         1.3065
  57   0.0000       0.052147         1.4190
  58   0.0000       0.058572         1.5938
  59   0.0000       0.062072         1.6891
  60   0.0000       0.077920         2.1203

MULLIKEN ATOMIC CHARGES
-----------------------
   0 C :    1.301702
   1 C :    0.483910
   2 N :    0.442062
   3 H :   -0.130999
   4 C :    0.574950
   5 H :   -0.224615
   6 H :   -0.502420
   7 H :   -0.228061
   8 C :    0.081695
   9 H :   -0.036897
  10 C :    0.797402
  11 H :   -0.300694
  12 C :    0.169660
  13 H :   -0.102767
  14 H :   -0.221002
  15 C :    0.405695
  16 H :   -0.128397
  17 H :   -0.304752
  18 H :   -0.432319
  19 C :    0.439609
  20 H :   -0.174969
  21 H :   -0.135973
  22 H :   -0.126929
  23 C :    1.024218
  24 H :   -0.188522
  25 H :   -0.305660
  26 F :   -0.620976
  27 H :   -0.420947
  28 H :   -0.381769
  29 C :    0.449797
  30 C :    0.970254
  31 N :    0.257012
  32 H :   -0.179764
  33 H :   -0.186126
  34 H :   -0.958606
  35 H :   -0.702064
  36 H :   -0.402740
Sum of atomic charges:    0.0000000

LOEWDIN ATOMIC CHARGES
----------------------
   0 C :    0.059334
   1 C :   -0.019407
   2 N :    0.010333
   3 H :    0.019311
   4 C :   -0.028816
   5 H :    0.020738
   6 H :   -0.001622
   7 H :    0.028057
   8 C :   -0.034823
   9 H :   -0.002862
  10 C :   -0.028067
  11 H :    0.026538
  12 C :   -0.033276
  13 H :    0.023747
  14 H :    0.023078
  15 C :   -0.024444
  16 H :   -0.002442
  17 H :    0.025201
  18 H :    0.004023
  19 C :   -0.009409
  20 H :    0.030430
  21 H :    0.036175
  22 H :    0.029299
  23 C :    0.163050
  24 H :    0.035631
  25 H :    0.043462
  26 F :   -0.218594
  27 H :    0.010056
  28 H :    0.010350
  29 C :   -0.208797
  30 C :    0.160618
  31 N :    0.202060
  32 H :   -0.038930
  33 H :   -0.000523
  34 H :   -0.049829
  35 H :   -0.159692
  36 H :   -0.099957

  Mayer bond orders larger than 0.100000
B(  0-C ,  1-C ) :   1.0422 B(  0-C ,  2-N ) :   1.0569 B(  0-C ,  4-C ) :   0.1488
B(  0-C ,  5-H ) :   0.1263 B(  0-C , 27-H ) :   0.5782 B(  0-C , 28-H ) :   0.7280
B(  0-C , 34-H ) :  -0.6479 B(  1-C ,  3-H ) :   0.7011 B(  1-C ,  4-C ) :   1.1882
B(  1-C ,  5-H ) :   0.8603 B(  1-C ,  6-H ) :   0.1418 B(  1-C , 27-H ) :   0.1136
B(  1-C , 28-H ) :   0.1402 B(  2-N , 27-H ) :   0.1613 B(  2-N , 29-C ) :   1.0863
B(  2-N , 30-C ) :   0.1941 B(  2-N , 31-N ) :   0.1692 B(  2-N , 34-H ) :   0.7913
B(  3-H ,  4-C ) :   0.2324 B(  3-H , 34-H ) :   0.1026 B(  4-C ,  6-H ) :   0.6805
B(  4-C ,  7-H ) :   0.7028 B(  4-C ,  8-C ) :   1.1475 B(  4-C , 11-H ) :   0.1723
B(  6-H ,  8-C ) :   0.1932 B(  7-H ,  8-C ) :   0.1542 B(  8-C ,  9-H ) :   0.8172
B(  8-C , 10-C ) :   1.1434 B(  8-C , 11-H ) :   0.8628 B(  8-C , 12-C ) :   0.1280
B(  8-C , 13-H ) :   0.1250 B(  8-C , 14-H ) :   0.3361 B( 10-C , 12-C ) :   1.1771
B( 10-C , 13-H ) :   0.6494 B( 10-C , 14-H ) :   0.6030 B( 10-C , 17-H ) :   0.1006
B( 12-C , 13-H ) :   0.2699 B( 12-C , 14-H ) :   0.1286 B( 12-C , 15-C ) :   1.1630
B( 12-C , 16-H ) :   0.8445 B( 12-C , 17-H ) :   0.7959 B( 12-C , 18-H ) :   0.1800
B( 12-C , 20-H ) :   0.2109 B( 13-H , 14-H ) :  -0.1579 B( 15-C , 16-H ) :   0.1167
B( 15-C , 17-H ) :   0.2642 B( 15-C , 18-H ) :   0.7618 B( 15-C , 19-C ) :   1.1637
B( 15-C , 20-H ) :   0.7682 B( 15-C , 22-H ) :   0.2467 B( 18-H , 19-C ) :   0.1563
B( 19-C , 21-H ) :   0.7567 B( 19-C , 22-H ) :   0.6722 B( 19-C , 23-C ) :   1.1999
B( 19-C , 24-H ) :   0.1298 B( 19-C , 25-H ) :   0.1550 B( 21-H , 23-C ) :   0.1685
B( 22-H , 23-C ) :   0.1761 B( 23-C , 24-H ) :   0.7928 B( 23-C , 25-H ) :   0.8465
B( 23-C , 26-F ) :   0.5912 B( 24-H , 26-F ) :   0.1344 B( 26-F , 34-H ) :   0.1363
B( 26-F , 35-H ) :   0.1778 B( 27-H , 28-H ) :  -0.1323 B( 27-H , 34-H ) :   0.2086
B( 29-C , 30-C ) :   1.7301 B( 29-C , 31-N ) :   0.8951 B( 29-C , 34-H ) :  -0.6409
B( 29-C , 35-H ) :   0.2811 B( 29-C , 36-H ) :   0.4567 B( 30-C , 31-N ) :   0.2622
B( 30-C , 35-H ) :   0.2817 B( 30-C , 36-H ) :   0.3154 B( 31-N , 32-H ) :   0.9847
B( 31-N , 33-H ) :   1.1880 B( 32-H , 33-H ) :  -0.1498 B( 34-H , 35-H ) :  -0.1101
B( 35-H , 36-H ) :   0.2576

FINAL SINGLE POINT ENERGY      -641.542824516273

DIPOLE MOMENT
-------------
                                X             Y             Z
Electronic contribution:     -1.28962      -3.14560       9.41104
Nuclear contribution   :      1.09892       3.58083     -10.64472
                        -----------------------------------------
Total Dipole Moment    :     -0.19070       0.43523      -1.23367
                        -----------------------------------------
Magnitude (a.u.)       :      1.32202
Magnitude (Debye)      :      3.36032

Rotational constants in cm-1:     0.026768     0.016312     0.010954
Rotational constants in MHz :   802.489946   489.033275   328.388904

                             ****ORCA TERMINATED NORMALLY****
TOTAL RUN TIME: 0 days 0 hours 5 minutes 18 seconds 700 msec
