                         Program Version 5.0.0 -  RELEASE  -
|  1> !CAM-B3LYP RIJCOSX def2-SVPD def2/J TightSCF xyzfile
|  2>
|  3> *xyzfile 0 1 D3.xyz
|  4>
|  5> %MaxCore 64000
|  6>
|  7> %pal nprocs 4
|  8> end
|  9>
| 10> %scf
| 11>   MaxIter 150
| 12> end
| 13>
| 14>
| 15>                          ****END OF INPUT****

CARTESIAN COORDINATES (ANGSTROEM)
---------------------------------
  C      3.488276    1.600919   -1.522040
  C      4.342970    1.313419   -2.756826
  N      2.810285    0.428783   -1.014196
  H      5.132033    0.604994   -2.484466
  C      3.535896    0.749253   -3.924604
  H      4.841247    2.242136   -3.054083
  H      2.991617   -0.132199   -3.574137
  H      4.225505    0.392784   -4.695962
  C      2.564776    1.750890   -4.544523
  H      1.918749    2.171679   -3.769419
  C      1.686235    1.161657   -5.650111
  H      3.132494    2.594775   -4.951604
  C      0.839616   -0.037582   -5.220473
  H      2.323886    0.866395   -6.490796
  H      1.029518    1.951850   -6.029329
  C     -0.151019    0.254955   -4.094256
  H      1.499442   -0.857141   -4.922958
  H      0.290097   -0.410143   -6.091131
  H      0.328265    0.833022   -3.299125
  C     -0.721843   -0.999513   -3.439309
  H     -0.957367    0.884951   -4.485450
  H     -1.083403   -1.697555   -4.205656
  H     -1.581056   -0.723848   -2.820490
  C      0.287250   -1.711771   -2.527405
  H      1.131780   -2.067380   -3.159396
  H     -0.204137   -2.637326   -2.170480
  F      0.710505   -0.927506   -1.481767
  H      2.714548    2.331455   -1.760302
  H      4.090991    2.063151   -0.733382
  C      3.290978   -0.418021   -0.129083
  N      2.517536   -1.432017    0.239360
  C      4.535490   -0.284410    0.395800
  H      5.043627    0.571888    0.222899
  H      4.723346   -0.733273    1.281800
  H      1.934787    0.102305   -1.403788
  H      1.674638   -1.505616   -0.316095
  H      2.928503   -2.218502    0.725494

 Total Charge           Charge          ....    0
 Multiplicity           Mult            ....    1
 Number of Electrons    NEL             ....  112
 Basis Dimension        Dim             ....  467

ORBITAL ENERGIES
----------------

  NO   OCC          E(Eh)            E(eV)
   0   2.0000     -24.819006      -675.3595
   1   2.0000     -14.381200      -391.3323
   2   2.0000     -14.377390      -391.2287
   3   2.0000     -10.368749      -282.1480
   4   2.0000     -10.288158      -279.9550
   5   2.0000     -10.284914      -279.8667
   6   2.0000     -10.276846      -279.6472
   7   2.0000     -10.269810      -279.4557
   8   2.0000     -10.263621      -279.2873
   9   2.0000     -10.258180      -279.1393
  10   2.0000     -10.252615      -278.9878
  11   2.0000     -10.248760      -278.8829
  12   2.0000     -10.242573      -278.7146
  13   2.0000     -10.150316      -276.2041
  14   2.0000      -1.329301       -36.1721
  15   2.0000      -1.033265       -28.1166
  16   2.0000      -0.942935       -25.6586
  17   2.0000      -0.911859       -24.8129
  18   2.0000      -0.880954       -23.9720
  19   2.0000      -0.846184       -23.0258
  20   2.0000      -0.803400       -21.8616
  21   2.0000      -0.771032       -20.9809
  22   2.0000      -0.762930       -20.7604
  23   2.0000      -0.729205       -19.8427
  24   2.0000      -0.695662       -18.9299
  25   2.0000      -0.668936       -18.2027
  26   2.0000      -0.649824       -17.6826
  27   2.0000      -0.636351       -17.3160
  28   2.0000      -0.630865       -17.1667
  29   2.0000      -0.599619       -16.3165
  30   2.0000      -0.595504       -16.2045
  31   2.0000      -0.583411       -15.8754
  32   2.0000      -0.564817       -15.3695
  33   2.0000      -0.549997       -14.9662
  34   2.0000      -0.535953       -14.5840
  35   2.0000      -0.526199       -14.3186
  36   2.0000      -0.511384       -13.9155
  37   2.0000      -0.507804       -13.8180
  38   2.0000      -0.499949       -13.6043
  39   2.0000      -0.479663       -13.0523
  40   2.0000      -0.471689       -12.8353
  41   2.0000      -0.454347       -12.3634
  42   2.0000      -0.448173       -12.1954
  43   2.0000      -0.440639       -11.9904
  44   2.0000      -0.438901       -11.9431
  45   2.0000      -0.428322       -11.6552
  46   2.0000      -0.418416       -11.3857
  47   2.0000      -0.415850       -11.3158
  48   2.0000      -0.406938       -11.0734
  49   2.0000      -0.402488       -10.9523
  50   2.0000      -0.396233       -10.7820
  51   2.0000      -0.381614       -10.3842
  52   2.0000      -0.379953       -10.3391
  53   2.0000      -0.373028       -10.1506
  54   2.0000      -0.294925        -8.0253
  55   2.0000      -0.205169        -5.5829
  56   0.0000       0.038600         1.0504
  57   0.0000       0.049565         1.3487
  58   0.0000       0.057972         1.5775
  59   0.0000       0.062189         1.6922
  60   0.0000       0.076581         2.0839

MULLIKEN ATOMIC CHARGES
-----------------------
   0 C :    1.267644
   1 C :    0.504174
   2 N :    0.448049
   3 H :   -0.159884
   4 C :    0.537356
   5 H :   -0.203102
   6 H :   -0.508640
   7 H :   -0.217649
   8 C :    0.079404
   9 H :   -0.035433
  10 C :    0.801920
  11 H :   -0.295435
  12 C :    0.165990
  13 H :   -0.100167
  14 H :   -0.219291
  15 C :    0.400094
  16 H :   -0.127365
  17 H :   -0.310112
  18 H :   -0.437323
  19 C :    0.447871
  20 H :   -0.175456
  21 H :   -0.132170
  22 H :   -0.121900
  23 C :    1.019319
  24 H :   -0.177921
  25 H :   -0.292505
  26 F :   -0.683646
  27 H :   -0.413473
  28 H :   -0.265817
  29 C :    0.499067
  30 N :    0.584900
  31 C :    0.706722
  32 H :   -0.132218
  33 H :   -0.720113
  34 H :   -1.160756
  35 H :   -0.399791
  36 H :   -0.172344
Sum of atomic charges:    0.0000000

LOEWDIN ATOMIC CHARGES
----------------------
   0 C :    0.066926
   1 C :   -0.011421
   2 N :    0.010431
   3 H :    0.021801
   4 C :   -0.031089
   5 H :    0.022802
   6 H :   -0.005179
   7 H :    0.027835
   8 C :   -0.034980
   9 H :   -0.003246
  10 C :   -0.027755
  11 H :    0.027387
  12 C :   -0.033275
  13 H :    0.024313
  14 H :    0.023146
  15 C :   -0.023152
  16 H :   -0.002816
  17 H :    0.025382
  18 H :    0.004711
  19 C :   -0.006923
  20 H :    0.031974
  21 H :    0.038455
  22 H :    0.030166
  23 C :    0.162663
  24 H :    0.037897
  25 H :    0.043040
  26 F :   -0.207437
  27 H :    0.009598
  28 H :    0.017697
  29 C :   -0.216789
  30 N :    0.210076
  31 C :    0.149253
  32 H :   -0.133877
  33 H :   -0.115111
  34 H :   -0.058377
  35 H :   -0.084442
  36 H :    0.010318

  Mayer bond orders larger than 0.100000
B(  0-C ,  1-C ) :   1.0276 B(  0-C ,  2-N ) :   1.0720 B(  0-C ,  4-C ) :   0.1246
B(  0-C ,  5-H ) :   0.1005 B(  0-C , 27-H ) :   0.6287 B(  0-C , 28-H ) :   0.7474
B(  0-C , 34-H ) :  -0.6825 B(  1-C ,  3-H ) :   0.7226 B(  1-C ,  4-C ) :   1.1828
B(  1-C ,  5-H ) :   0.8590 B(  1-C ,  6-H ) :   0.1448 B(  1-C , 27-H ) :   0.1006
B(  1-C , 28-H ) :   0.1274 B(  2-N , 27-H ) :   0.2148 B(  2-N , 29-C ) :   1.0251
B(  2-N , 31-C ) :   0.4763 B(  2-N , 33-H ) :   0.1184 B(  2-N , 34-H ) :   0.5041
B(  3-H ,  4-C ) :   0.2413 B(  3-H ,  5-H ) :  -0.1138 B(  4-C ,  6-H ) :   0.6828
B(  4-C ,  7-H ) :   0.7173 B(  4-C ,  8-C ) :   1.1492 B(  4-C , 11-H ) :   0.1767
B(  6-H ,  8-C ) :   0.1924 B(  7-H ,  8-C ) :   0.1597 B(  8-C ,  9-H ) :   0.8202
B(  8-C , 10-C ) :   1.1460 B(  8-C , 11-H ) :   0.8596 B(  8-C , 12-C ) :   0.1277
B(  8-C , 13-H ) :   0.1278 B(  8-C , 14-H ) :   0.3404 B( 10-C , 12-C ) :   1.1752
B( 10-C , 13-H ) :   0.6486 B( 10-C , 14-H ) :   0.6012 B( 10-C , 17-H ) :   0.1011
B( 12-C , 13-H ) :   0.2694 B( 12-C , 14-H ) :   0.1249 B( 12-C , 15-C ) :   1.1630
B( 12-C , 16-H ) :   0.8422 B( 12-C , 17-H ) :   0.8041 B( 12-C , 18-H ) :   0.1788
B( 12-C , 20-H ) :   0.2099 B( 13-H , 14-H ) :  -0.1569 B( 15-C , 16-H ) :   0.1164
B( 15-C , 17-H ) :   0.2587 B( 15-C , 18-H ) :   0.7673 B( 15-C , 19-C ) :   1.1688
B( 15-C , 20-H ) :   0.7725 B( 15-C , 22-H ) :   0.2466 B( 18-H , 19-C ) :   0.1546
B( 19-C , 21-H ) :   0.7475 B( 19-C , 22-H ) :   0.6726 B( 19-C , 23-C ) :   1.1975
B( 19-C , 24-H ) :   0.1271 B( 19-C , 25-H ) :   0.1538 B( 21-H , 23-C ) :   0.1768
B( 22-H , 23-C ) :   0.1623 B( 23-C , 24-H ) :   0.7892 B( 23-C , 25-H ) :   0.8350
B( 23-C , 26-F ) :   0.5607 B( 24-H , 26-F ) :   0.1512 B( 26-F , 34-H ) :   0.2053
B( 26-F , 35-H ) :   0.1856 B( 27-H , 28-H ) :  -0.1737 B( 27-H , 34-H ) :   0.1283
B( 29-C , 30-N ) :   0.8733 B( 29-C , 31-C ) :   1.6382 B( 29-C , 32-H ) :   0.3976
B( 29-C , 33-H ) :   0.3840 B( 29-C , 34-H ) :  -0.6636 B( 30-N , 31-C ) :   0.2605
B( 30-N , 35-H ) :   0.9235 B( 30-N , 36-H ) :   1.1751 B( 31-C , 32-H ) :   0.5644
B( 31-C , 33-H ) :   0.4632 B( 35-H , 36-H ) :  -0.1411

FINAL SINGLE POINT ENERGY      -641.555626667731

DIPOLE MOMENT
-------------
                                X             Y             Z
Electronic contribution:     -3.24862      -4.31497       9.04982
Nuclear contribution   :      1.49917       3.80845     -10.61369
                        -----------------------------------------
Total Dipole Moment    :     -1.74946      -0.50652      -1.56387
                        -----------------------------------------
Magnitude (a.u.)       :      2.40059
Magnitude (Debye)      :      6.10181

Rotational constants in cm-1:     0.026547     0.016542     0.011018
Rotational constants in MHz :   795.873737   495.912559   330.323979

                             ****ORCA TERMINATED NORMALLY****
TOTAL RUN TIME: 0 days 0 hours 5 minutes 38 seconds 2 msec
