                         Program Version 5.0.0 -  RELEASE  -
|  1> !wB97X-D3 RIJCOSX def2-TZVPD def2/J TightSCF
|  2> *xyz -1 1
|  3> C         -0.60249       -0.63071        0.49224
|  4> O         -1.71206       -1.37684        0.20253
|  5> H          0.27695       -1.19720        0.26733
|  6> H         -0.60598       -0.37494        1.53122
|  7> H         -0.61066        0.26355       -0.09525
|  8> *
|  9> %MaxCore 64000
| 10>
| 11> %pal nprocs 8
| 12> end
| 13> %scf
| 14>   MaxIter 150
| 15> end
| 16>
| 17>                          ****END OF INPUT****

CARTESIAN COORDINATES (ANGSTROEM)
---------------------------------
  C     -0.602490   -0.630710    0.492240
  O     -1.712060   -1.376840    0.202530
  H      0.276950   -1.197200    0.267330
  H     -0.605980   -0.374940    1.531220
  H     -0.610660    0.263550   -0.095250

 Total Charge           Charge          ....   -1
 Multiplicity           Mult            ....    1
 Number of Electrons    NEL             ....   18
 Basis Dimension        Dim             ....  104

ORBITAL ENERGIES
----------------

  NO   OCC          E(Eh)            E(eV)
   0   2.0000     -18.873858      -513.5838
   1   2.0000     -10.055615      -273.6272
   2   2.0000      -0.773713       -21.0538
   3   2.0000      -0.508420       -13.8348
   4   2.0000      -0.295271        -8.0347
   5   2.0000      -0.295256        -8.0343
   6   2.0000      -0.194978        -5.3056
   7   2.0000      -0.041581        -1.1315
   8   2.0000      -0.041575        -1.1313
   9   0.0000       0.226226         6.1559
  10   0.0000       0.274783         7.4772
  11   0.0000       0.280124         7.6226
  12   0.0000       0.280129         7.6227
  13   0.0000       0.329970         8.9789

MULLIKEN ATOMIC CHARGES
-----------------------
   0 C :   -0.550167
   1 O :   -0.943290
   2 H :    0.164588
   3 H :    0.164489
   4 H :    0.164380
Sum of atomic charges:   -1.0000000

LOEWDIN ATOMIC CHARGES
----------------------
   0 C :   -0.514049
   1 O :   -0.515384
   2 H :    0.009795
   3 H :    0.009815
   4 H :    0.009822

  Mayer bond orders larger than 0.100000
B(  0-C ,  1-O ) :   1.0554 B(  0-C ,  2-H ) :   0.9590 B(  0-C ,  3-H ) :   0.9588
B(  0-C ,  4-H ) :   0.9590

Dispersion correction           -0.000090009
FINAL SINGLE POINT ENERGY      -115.107424882410

DIPOLE MOMENT
-------------
                                X             Y             Z
Electronic contribution:     -1.50416      -1.01152      -0.39273
Nuclear contribution   :      2.33640       1.57111       0.61004
                        -----------------------------------------
Total Dipole Moment    :      0.83224       0.55959       0.21731
                        -----------------------------------------
Magnitude (a.u.)       :      1.02615
Magnitude (Debye)      :      2.60827

Rotational constants in cm-1:     5.477665     0.940945     0.940944
Rotational constants in MHz : 164216.266994 28208.811441 28208.799857

                             ****ORCA TERMINATED NORMALLY****
TOTAL RUN TIME: 0 days 0 hours 0 minutes 5 seconds 239 msec
