                         Program Version 5.0.0 -  RELEASE  -
|  1> !wB97X-D3 RIJCOSX def2-TZVPD def2/J TightSCF
|  2> *xyz 1 1
|  3> C         -2.12050        0.88520        1.78951
|  4> N         -3.17690       -0.15948        1.61070
|  5> H         -4.06474        0.23127        1.28675
|  6> H         -3.34407       -0.67151        2.48493
|  7> H         -2.71686       -0.78189        0.93588
|  8> H         -1.96853        1.40078        0.86432
|  9> H         -1.20609        0.41954        2.09270
| 10> H         -2.43151        1.58226        2.53937
| 11> *
| 12> %MaxCore 64000
| 13>
| 14> %pal nprocs 8
| 15> end
| 16>
| 17> %scf
| 18>   MaxIter 150
| 19> end
| 20>
| 21>
| 22>                          ****END OF INPUT****

CARTESIAN COORDINATES (ANGSTROEM)
---------------------------------
  C     -2.120500    0.885200    1.789510
  N     -3.176900   -0.159480    1.610700
  H     -4.064740    0.231270    1.286750
  H     -3.344070   -0.671510    2.484930
  H     -2.716860   -0.781890    0.935880
  H     -1.968530    1.400780    0.864320
  H     -1.206090    0.419540    2.092700
  H     -2.431510    1.582260    2.539370

 Total Charge           Charge          ....    1
 Multiplicity           Mult            ....    1
 Number of Electrons    NEL             ....   18
 Basis Dimension        Dim             ....  128

ORBITAL ENERGIES
----------------

  NO   OCC          E(Eh)            E(eV)
   0   2.0000     -14.770598      -401.9284
   1   2.0000     -10.531408      -286.5742
   2   2.0000      -1.343135       -36.5486
   3   2.0000      -1.049441       -28.5567
   4   2.0000      -0.921832       -25.0843
   5   2.0000      -0.909512       -24.7491
   6   2.0000      -0.806280       -21.9400
   7   2.0000      -0.726408       -19.7666
   8   2.0000      -0.722939       -19.6722
   9   0.0000      -0.131433        -3.5765
  10   0.0000      -0.071605        -1.9485
  11   0.0000      -0.060818        -1.6549
  12   0.0000      -0.059912        -1.6303
  13   0.0000      -0.023606        -0.6423

MULLIKEN ATOMIC CHARGES
-----------------------
   0 C :   -0.859124
   1 N :   -0.331416
   2 H :    0.362638
   3 H :    0.367459
   4 H :    0.392365
   5 H :    0.360651
   6 H :    0.360955
   7 H :    0.346472
Sum of atomic charges:    1.0000000

LOEWDIN ATOMIC CHARGES
----------------------
   0 C :   -0.009283
   1 N :    0.156901
   2 H :    0.179975
   3 H :    0.180868
   4 H :    0.178620
   5 H :    0.105172
   6 H :    0.105407
   7 H :    0.102340

  Mayer bond orders larger than 0.100000
B(  0-C ,  1-N ) :   0.9440 B(  0-C ,  5-H ) :   0.8837 B(  0-C ,  6-H ) :   0.8784
B(  0-C ,  7-H ) :   0.8997 B(  1-N ,  2-H ) :   0.8637 B(  1-N ,  3-H ) :   0.8616
B(  1-N ,  4-H ) :   0.8318

Dispersion correction           -0.000488334
FINAL SINGLE POINT ENERGY       -96.223592384156

DIPOLE MOMENT
-------------
                                X             Y             Z
Electronic contribution:     -0.83909      -0.76773      -0.12998
Nuclear contribution   :      0.30442       0.18283       0.03339
                        -----------------------------------------
Total Dipole Moment    :     -0.53466      -0.58490      -0.09658
                        -----------------------------------------
Magnitude (a.u.)       :      0.79831
Magnitude (Debye)      :      2.02915

Rotational constants in cm-1:     2.844840     0.686092     0.683099
Rotational constants in MHz : 85286.171795 20568.516729 20478.789944

                             ****ORCA TERMINATED NORMALLY****
TOTAL RUN TIME: 0 days 0 hours 0 minutes 6 seconds 751 msec
