                         Program Version 5.0.0 -  RELEASE  -
|  1> !wB97X-D3 RIJCOSX def2-TZVPD def2/J TightSCF xyzfile
|  2>
|  3> *xyzfile 0 1 B.xyz
|  4>
|  5> %MaxCore 64000
|  6>
|  7> %pal nprocs 18
|  8> end
|  9>
| 10> %scf
| 11>   MaxIter 150
| 12> end
| 13>
| 14>
| 15>                          ****END OF INPUT****

CARTESIAN COORDINATES (ANGSTROEM)
---------------------------------
  C     -2.120502    0.885196    1.789506
  C     -0.778939    0.171966    1.804965
  H     -2.324193    1.472649    2.686078
  H     -2.187698    1.541272    0.919482
  N     -3.176900   -0.159484    1.610700
  H      0.015695    0.910767    1.939153
  H     -0.743553   -0.506827    2.665420
  C     -0.602493   -0.630712    0.492240
  H      0.313894   -1.240346    0.603498
  H     -0.363829    0.113322   -0.301169
  O     -1.712061   -1.376836    0.202535
  H     -4.064736    0.231272    1.286754
  H     -3.344073   -0.671511    2.484928
  H     -2.716861   -0.781886    0.935880

 Total Charge           Charge          ....    0
 Multiplicity           Mult            ....    1
 Number of Electrons    NEL             ....   42
 Basis Dimension        Dim             ....  269

ORBITAL ENERGIES
----------------

  NO   OCC          E(Eh)            E(eV)
   0   2.0000     -19.099356      -519.7199
   1   2.0000     -14.503581      -394.6625
   2   2.0000     -10.339419      -281.3499
   3   2.0000     -10.271334      -279.4972
   4   2.0000     -10.268458      -279.4189
   5   2.0000      -1.109439       -30.1894
   6   2.0000      -1.008538       -27.4437
   7   2.0000      -0.887145       -24.1404
   8   2.0000      -0.767143       -20.8750
   9   2.0000      -0.699362       -19.0306
  10   2.0000      -0.675959       -18.3938
  11   2.0000      -0.650031       -17.6883
  12   2.0000      -0.586464       -15.9585
  13   2.0000      -0.536581       -14.6011
  14   2.0000      -0.502289       -13.6680
  15   2.0000      -0.499067       -13.5803
  16   2.0000      -0.454652       -12.3717
  17   2.0000      -0.435414       -11.8482
  18   2.0000      -0.411816       -11.2061
  19   2.0000      -0.275599        -7.4994
  20   2.0000      -0.268791        -7.3142
  21   0.0000       0.044990         1.2242
  22   0.0000       0.077245         2.1020
  23   0.0000       0.080028         2.1777
  24   0.0000       0.098241         2.6733
  25   0.0000       0.121741         3.3127

MULLIKEN ATOMIC CHARGES
-----------------------
   0 C :   -0.651970
   1 C :   -0.325930
   2 H :    0.281991
   3 H :    0.307998
   4 N :   -0.193597
   5 H :    0.271193
   6 H :    0.288818
   7 C :   -0.402673
   8 H :    0.222692
   9 H :    0.198644
  10 O :   -0.869083
  11 H :    0.315161
  12 H :    0.333710
  13 H :    0.223047
Sum of atomic charges:    0.0000000

LOEWDIN ATOMIC CHARGES
----------------------
   0 C :   -0.175739
   1 C :   -0.192669
   2 H :    0.114421
   3 H :    0.128167
   4 N :    0.130922
   5 H :    0.109889
   6 H :    0.110388
   7 C :   -0.420085
   8 H :    0.097892
   9 H :    0.099235
  10 O :   -0.292121
  11 H :    0.156479
  12 H :    0.161301
  13 H :   -0.028080

  Mayer bond orders larger than 0.100000
B(  0-C ,  1-C ) :   0.8087 B(  0-C ,  2-H ) :   0.9753 B(  0-C ,  3-H ) :   0.8969
B(  0-C ,  4-N ) :   0.9903 B(  0-C ,  7-C ) :   0.1613 B(  1-C ,  5-H ) :   0.9985
B(  1-C ,  6-H ) :   0.9082 B(  1-C ,  7-C ) :   0.9517 B(  1-C , 10-O ) :   0.1161
B(  4-N , 10-O ) :  -0.1129 B(  4-N , 11-H ) :   0.8896 B(  4-N , 12-H ) :   0.8636
B(  4-N , 13-H ) :   0.6749 B(  7-C ,  8-H ) :   1.0201 B(  7-C ,  9-H ) :   1.0348
B(  7-C , 10-O ) :   0.8681 B( 10-O , 13-H ) :   0.4130

Dispersion correction           -0.003272664
FINAL SINGLE POINT ENERGY      -249.686808043527

DIPOLE MOMENT
-------------
                                X             Y             Z
Electronic contribution:     -1.51495      -1.42951      -0.77849
Nuclear contribution   :      0.08650       3.01678       2.47433
                        -----------------------------------------
Total Dipole Moment    :     -1.42845       1.58726       1.69584
                        -----------------------------------------
Magnitude (a.u.)       :      2.72686
Magnitude (Debye)      :      6.93112

Rotational constants in cm-1:     0.238796     0.156489     0.106146
Rotational constants in MHz :  7158.916762  4691.413084  3182.185740

                             ****ORCA TERMINATED NORMALLY****
TOTAL RUN TIME: 0 days 0 hours 0 minutes 21 seconds 2 msec
