                         Program Version 5.0.0 -  RELEASE  -
|  1> !wB97X-D3 RIJCOSX def2-TZVPD def2/J TightSCF
|  2> *xyz 0 1
|  3> C         -0.60249       -0.63071        0.49224
|  4> F         -1.71206       -1.37684        0.20253
|  5> H          0.27695       -1.19720        0.26733
|  6> H         -0.60598       -0.37494        1.53122
|  7> H         -0.61066        0.26355       -0.09525
|  8> *
|  9> %MaxCore 64000
| 10>
| 11> %pal nprocs 8
| 12> end
| 13> %scf
| 14>   MaxIter 150
| 15> end
| 16>
| 17>                          ****END OF INPUT****

CARTESIAN COORDINATES (ANGSTROEM)
---------------------------------
  C     -0.602490   -0.630710    0.492240
  F     -1.712060   -1.376840    0.202530
  H      0.276950   -1.197200    0.267330
  H     -0.605980   -0.374940    1.531220
  H     -0.610660    0.263550   -0.095250

 Total Charge           Charge          ....    0
 Multiplicity           Mult            ....    1
 Number of Electrons    NEL             ....   18
 Basis Dimension        Dim             ....  104

ORBITAL ENERGIES
----------------

  NO   OCC          E(Eh)            E(eV)
   0   2.0000     -24.768162      -673.9759
   1   2.0000     -10.339458      -281.3509
   2   2.0000      -1.312635       -35.7186
   3   2.0000      -0.821106       -22.3434
   4   2.0000      -0.596057       -16.2195
   5   2.0000      -0.592668       -16.1273
   6   2.0000      -0.592657       -16.1270
   7   2.0000      -0.447830       -12.1861
   8   2.0000      -0.447816       -12.1857
   9   0.0000       0.074161         2.0180
  10   0.0000       0.116470         3.1693
  11   0.0000       0.134434         3.6581
  12   0.0000       0.134436         3.6582
  13   0.0000       0.161323         4.3898

MULLIKEN ATOMIC CHARGES
-----------------------
   0 C :   -0.334152
   1 F :   -0.287238
   2 H :    0.207143
   3 H :    0.207272
   4 H :    0.206975
Sum of atomic charges:    0.0000000

LOEWDIN ATOMIC CHARGES
----------------------
   0 C :   -0.116741
   1 F :   -0.098353
   2 H :    0.071686
   3 H :    0.071705
   4 H :    0.071703

  Mayer bond orders larger than 0.100000
B(  0-C ,  1-F ) :   0.8312 B(  0-C ,  2-H ) :   0.9499 B(  0-C ,  3-H ) :   0.9497
B(  0-C ,  4-H ) :   0.9500

Dispersion correction           -0.000129194
FINAL SINGLE POINT ENERGY      -139.766272772037

DIPOLE MOMENT
-------------
                                X             Y             Z
Electronic contribution:     -2.39054      -1.60751      -0.62407
Nuclear contribution   :      2.96306       1.99251       0.77366
                        -----------------------------------------
Total Dipole Moment    :      0.57252       0.38500       0.14959
                        -----------------------------------------
Magnitude (a.u.)       :      0.70596
Magnitude (Debye)      :      1.79441

Rotational constants in cm-1:     5.477665     0.875886     0.875886
Rotational constants in MHz : 164216.266994 26258.396768 26258.386731

                             ****ORCA TERMINATED NORMALLY****
TOTAL RUN TIME: 0 days 0 hours 0 minutes 5 seconds 359 msec
