                         Program Version 5.0.0 -  RELEASE  -
|  1> !wB97X-D3 RIJCOSX def2-TZVPD def2/J TightSCF
|  2> *xyz 0 1
|  3> C         -2.12050        0.88520        1.78951
|  4> C         -3.17690       -0.15948        1.61070
|  5> H         -4.06474        0.23127        1.28675
|  6> H         -3.34407       -0.67151        2.48493
|  7> H         -2.71686       -0.78189        0.93588
|  8> H         -1.96853        1.40078        0.86432
|  9> H         -1.20609        0.41954        2.09270
| 10> H         -2.43151        1.58226        2.53937
| 11> *
| 12> %MaxCore 64000
| 13>
| 14> %pal nprocs 8
| 15> end
| 16>
| 17> %scf
| 18>   MaxIter 150
| 19> end
| 20>
| 21>
| 22>                          ****END OF INPUT****

CARTESIAN COORDINATES (ANGSTROEM)
---------------------------------
  C     -2.120500    0.885200    1.789510
  C     -3.176900   -0.159480    1.610700
  H     -4.064740    0.231270    1.286750
  H     -3.344070   -0.671510    2.484930
  H     -2.716860   -0.781890    0.935880
  H     -1.968530    1.400780    0.864320
  H     -1.206090    0.419540    2.092700
  H     -2.431510    1.582260    2.539370

 Total Charge           Charge          ....    0
 Multiplicity           Mult            ....    1
 Number of Electrons    NEL             ....   18
 Basis Dimension        Dim             ....  128

ORBITAL ENERGIES
----------------

  NO   OCC          E(Eh)            E(eV)
   0   2.0000     -10.248158      -278.8665
   1   2.0000     -10.233535      -278.4686
   2   2.0000      -0.886023       -24.1099
   3   2.0000      -0.729900       -19.8616
   4   2.0000      -0.556809       -15.1515
   5   2.0000      -0.547895       -14.9090
   6   2.0000      -0.461483       -12.5576
   7   2.0000      -0.442830       -12.0500
   8   2.0000      -0.433501       -11.7962
   9   0.0000       0.078186         2.1276
  10   0.0000       0.099721         2.7136
  11   0.0000       0.142568         3.8795
  12   0.0000       0.144231         3.9247
  13   0.0000       0.168576         4.5872

MULLIKEN ATOMIC CHARGES
-----------------------
   0 C :   -0.844152
   1 C :   -0.929495
   2 H :    0.337477
   3 H :    0.324808
   4 H :    0.272302
   5 H :    0.279098
   6 H :    0.287372
   7 H :    0.272590
Sum of atomic charges:   -0.0000000

LOEWDIN ATOMIC CHARGES
----------------------
   0 C :   -0.166463
   1 C :   -0.159537
   2 H :    0.046523
   3 H :    0.047324
   4 H :    0.047117
   5 H :    0.062588
   6 H :    0.063169
   7 H :    0.059280

  Mayer bond orders larger than 0.100000
B(  0-C ,  1-C ) :   0.6097 B(  0-C ,  5-H ) :   0.9692 B(  0-C ,  6-H ) :   0.9653
B(  0-C ,  7-H ) :   0.9612 B(  1-C ,  2-H ) :   0.9144 B(  1-C ,  3-H ) :   0.9435
B(  1-C ,  4-H ) :   0.9759

Dispersion correction           -0.000477140
FINAL SINGLE POINT ENERGY       -79.819900043774

DIPOLE MOMENT
-------------
                                X             Y             Z
Electronic contribution:     -0.12527      -0.01939      -0.00293
Nuclear contribution   :      0.12022       0.00247       0.00249
                        -----------------------------------------
Total Dipole Moment    :     -0.00505      -0.01692      -0.00044
                        -----------------------------------------
Magnitude (a.u.)       :      0.01766
Magnitude (Debye)      :      0.04490

Rotational constants in cm-1:     2.844858     0.716988     0.713720
Rotational constants in MHz : 85286.697487 21494.771942 21396.773512

                             ****ORCA TERMINATED NORMALLY****
TOTAL RUN TIME: 0 days 0 hours 0 minutes 6 seconds 451 msec
