                         Program Version 5.0.0 -  RELEASE  -
|  1> !wB97X-D3 RIJCOSX def2-TZVPD def2/J TightSCF xyzfile
|  2>
|  3> *xyzfile 0 1 D1.xyz
|  4>
|  5> %MaxCore 64000
|  6>
|  7> %pal nprocs 18
|  8> end
|  9>
| 10> %scf
| 11>   MaxIter 150
| 12> end
| 13>
| 14>
| 15>                          ****END OF INPUT****

CARTESIAN COORDINATES (ANGSTROEM)
---------------------------------
  C     -2.120502    0.885196    1.789506
  C     -0.778939    0.171966    1.804965
  H     -2.324193    1.472649    2.686078
  H     -2.187698    1.541272    0.919482
  C     -3.176900   -0.159484    1.610700
  H      0.015695    0.910767    1.939153
  H     -0.743553   -0.506827    2.665420
  C     -0.602493   -0.630712    0.492240
  H      0.313894   -1.240346    0.603498
  H     -0.363829    0.113322   -0.301169
  F     -1.712061   -1.376836    0.202535
  H     -4.064736    0.231272    1.286754
  H     -3.344073   -0.671511    2.484928
  H     -2.716861   -0.781886    0.935880

 Total Charge           Charge          ....    0
 Multiplicity           Mult            ....    1
 Number of Electrons    NEL             ....   42
 Basis Dimension        Dim             ....  269

ORBITAL ENERGIES
----------------

  NO   OCC          E(Eh)            E(eV)
   0   2.0000     -24.790213      -674.5760
   1   2.0000     -10.362398      -281.9752
   2   2.0000     -10.279010      -279.7061
   3   2.0000     -10.258435      -279.1462
   4   2.0000     -10.194828      -277.4154
   5   2.0000      -1.347672       -36.6720
   6   2.0000      -0.923712       -25.1355
   7   2.0000      -0.849616       -23.1192
   8   2.0000      -0.749097       -20.3840
   9   2.0000      -0.701147       -19.0792
  10   2.0000      -0.634545       -17.2668
  11   2.0000      -0.629491       -17.1293
  12   2.0000      -0.591345       -16.0913
  13   2.0000      -0.540153       -14.6983
  14   2.0000      -0.512417       -13.9436
  15   2.0000      -0.502911       -13.6849
  16   2.0000      -0.474468       -12.9109
  17   2.0000      -0.441115       -12.0034
  18   2.0000      -0.420695       -11.4477
  19   2.0000      -0.416380       -11.3303
  20   2.0000      -0.368312       -10.0223
  21   0.0000       0.072243         1.9658
  22   0.0000       0.092062         2.5051
  23   0.0000       0.093472         2.5435
  24   0.0000       0.094886         2.5820
  25   0.0000       0.126171         3.4333

MULLIKEN ATOMIC CHARGES
-----------------------
   0 C :   -0.226821
   1 C :   -0.453403
   2 H :    0.213714
   3 H :    0.255090
   4 C :   -1.299447
   5 H :    0.253675
   6 H :    0.304835
   7 C :   -0.330244
   8 H :    0.273187
   9 H :    0.260870
  10 F :   -0.308522
  11 H :    0.365162
  12 H :    0.381621
  13 H :    0.310283
Sum of atomic charges:   -0.0000000

LOEWDIN ATOMIC CHARGES
----------------------
   0 C :   -0.257418
   1 C :   -0.189584
   2 H :    0.105751
   3 H :    0.111339
   4 C :   -0.105617
   5 H :    0.112329
   6 H :    0.116077
   7 C :   -0.195562
   8 H :    0.120007
   9 H :    0.128139
  10 F :   -0.042929
  11 H :    0.057028
  12 H :    0.062763
  13 H :   -0.022322

  Mayer bond orders larger than 0.100000
B(  0-C ,  1-C ) :   0.7739 B(  0-C ,  2-H ) :   0.9984 B(  0-C ,  3-H ) :   0.9581
B(  0-C ,  4-C ) :   0.6441 B(  0-C ,  7-C ) :   0.1232 B(  1-C ,  4-C ) :   0.1915
B(  1-C ,  5-H ) :   0.9844 B(  1-C ,  6-H ) :   0.9347 B(  1-C ,  7-C ) :   0.9379
B(  4-C , 10-F ) :   0.1047 B(  4-C , 11-H ) :   0.9204 B(  4-C , 12-H ) :   0.9393
B(  4-C , 13-H ) :   1.0810 B(  7-C ,  8-H ) :   0.9522 B(  7-C ,  9-H ) :   0.9785
B(  7-C , 10-F ) :   0.8099 B( 10-F , 13-H ) :  -0.1244

Dispersion correction           -0.003160716
FINAL SINGLE POINT ENERGY      -257.660759193716

DIPOLE MOMENT
-------------
                                X             Y             Z
Electronic contribution:      0.89341      -4.20370      -3.74080
Nuclear contribution   :     -0.20666       4.43855       3.76066
                        -----------------------------------------
Total Dipole Moment    :      0.68675       0.23484       0.01986
                        -----------------------------------------
Magnitude (a.u.)       :      0.72606
Magnitude (Debye)      :      1.84551

Rotational constants in cm-1:     0.236353     0.155239     0.105045
Rotational constants in MHz :  7085.692869  4653.957069  3149.180346

                             ****ORCA TERMINATED NORMALLY****
TOTAL RUN TIME: 0 days 0 hours 0 minutes 17 seconds 858 msec
