                         Program Version 5.0.0 -  RELEASE  -
|  1> !wB97X-D3 RIJCOSX def2-SVP def2/J TightSCF
|  2> *xyz -1 1
|  3> C         -0.05517        1.61942       -3.78858
|  4> C          1.22302        2.46987       -3.75691
|  5> H          1.11470        3.25807       -4.53300
|  6> H          1.23773        3.01124       -2.79216
|  7> O          2.35381        1.71203       -3.93448
|  8> H         -0.10198        1.08015       -4.71156
|  9> H         -0.91014        2.25726       -3.70441
| 10> H         -0.04403        0.92826       -2.97183
| 11> *
| 12>
| 13> %MaxCore 64000
| 14>
| 15> %pal nprocs 4
| 16> end
| 17>
| 18> %scf
| 19>   MaxIter 150
| 20> end
| 21>
| 22>
| 23>                          ****END OF INPUT****

CARTESIAN COORDINATES (ANGSTROEM)
---------------------------------
  C     -0.055170    1.619420   -3.788580
  C      1.223020    2.469870   -3.756910
  H      1.114700    3.258070   -4.533000
  H      1.237730    3.011240   -2.792160
  O      2.353810    1.712030   -3.934480
  H     -0.101980    1.080150   -4.711560
  H     -0.910140    2.257260   -3.704410
  H     -0.044030    0.928260   -2.971830

 Total Charge           Charge          ....   -1
 Multiplicity           Mult            ....    1
 Number of Electrons    NEL             ....   26
 Basis Dimension        Dim             ....   67

ORBITAL ENERGIES
----------------

  NO   OCC          E(Eh)            E(eV)
   0   2.0000     -18.844265      -512.7785
   1   2.0000     -10.076497      -274.1954
   2   2.0000     -10.065261      -273.8897
   3   2.0000      -0.738110       -20.0850
   4   2.0000      -0.612183       -16.6584
   5   2.0000      -0.453118       -12.3300
   6   2.0000      -0.334176        -9.0934
   7   2.0000      -0.309576        -8.4240
   8   2.0000      -0.249894        -6.8000
   9   2.0000      -0.232052        -6.3144
  10   2.0000      -0.160541        -4.3685
  11   2.0000      -0.011205        -0.3049
  12   2.0000      -0.009327        -0.2538
  13   0.0000       0.335951         9.1417
  14   0.0000       0.380948        10.3661
  15   0.0000       0.393922        10.7192
  16   0.0000       0.402852        10.9622
  17   0.0000       0.445947        12.1348

MULLIKEN ATOMIC CHARGES
-----------------------
   0 C :    0.011392
   1 C :    0.246743
   2 H :   -0.163751
   3 H :   -0.161372
   4 O :   -0.737414
   5 H :   -0.046406
   6 H :   -0.102797
   7 H :   -0.046395
Sum of atomic charges:   -1.0000000

LOEWDIN ATOMIC CHARGES
----------------------
   0 C :   -0.111852
   1 C :    0.010438
   2 H :   -0.080815
   3 H :   -0.078370
   4 O :   -0.686865
   5 H :   -0.010384
   6 H :   -0.031669
   7 H :   -0.010483

  Mayer bond orders larger than 0.100000
B(  0-C ,  1-C ) :   0.9992 B(  0-C ,  5-H ) :   0.9639 B(  0-C ,  6-H ) :   0.9315
B(  0-C ,  7-H ) :   0.9660 B(  1-C ,  2-H ) :   0.8792 B(  1-C ,  3-H ) :   0.8811
B(  1-C ,  4-O ) :   1.4846

Dispersion correction           -0.000857260
FINAL SINGLE POINT ENERGY      -154.230373452915

DIPOLE MOMENT
-------------
                                X             Y             Z
Electronic contribution:      2.98021      -0.70593      -0.28081
Nuclear contribution   :     -4.28298       0.81046       0.39340
                        -----------------------------------------
Total Dipole Moment    :     -1.30277       0.10454       0.11259
                        -----------------------------------------
Magnitude (a.u.)       :      1.31180
Magnitude (Debye)      :      3.33433

Rotational constants in cm-1:     1.266793     0.328147     0.288309
Rotational constants in MHz : 37977.512300  9837.594308  8643.275638

                             ****ORCA TERMINATED NORMALLY****
TOTAL RUN TIME: 0 days 0 hours 0 minutes 9 seconds 121 msec
