                         Program Version 5.0.0 -  RELEASE  -
|  1> !wB97X-D3 RIJCOSX def2-SVP def2/J TightSCF
|  2> *xyz 1 1
|  3> C          1.63556       -1.67040       -5.29211
|  4> C          0.33848       -1.50091       -4.50540
|  5> N          2.48451       -0.50741       -5.14039
|  6> H          1.39834       -1.82924       -6.35259
|  7> H          2.15586       -2.56540       -4.93209
|  8> C          3.45115       -0.14953       -5.95259
|  9> N          3.92267        1.08956       -5.85071
| 10> N          3.96616       -1.00618       -6.86788
| 11> H          3.52139       -1.90647       -6.99527
| 12> H          4.44482       -0.62347       -7.67035
| 13> H          2.25200        0.24080       -4.49879
| 14> H          3.46428        1.64078       -5.13639
| 15> H          4.83447        1.31375       -6.22465
| 16> H         -0.17658       -0.62881       -4.85045
| 17> H          0.56384       -1.39374       -3.46490
| 18> H         -0.28102       -2.36136       -4.64938
| 19> *
| 20>
| 21> %MaxCore 64000
| 22>
| 23> %pal nprocs 4
| 24> end
| 25>
| 26> %scf
| 27>   MaxIter 150
| 28> end
| 29>
| 30>
| 31>                          ****END OF INPUT****

CARTESIAN COORDINATES (ANGSTROEM)
---------------------------------
  C      1.635560   -1.670400   -5.292110
  C      0.338480   -1.500910   -4.505400
  N      2.484510   -0.507410   -5.140390
  H      1.398340   -1.829240   -6.352590
  H      2.155860   -2.565400   -4.932090
  C      3.451150   -0.149530   -5.952590
  N      3.922670    1.089560   -5.850710
  N      3.966160   -1.006180   -6.867880
  H      3.521390   -1.906470   -6.995270
  H      4.444820   -0.623470   -7.670350
  H      2.252000    0.240800   -4.498790
  H      3.464280    1.640780   -5.136390
  H      4.834470    1.313750   -6.224650
  H     -0.176580   -0.628810   -4.850450
  H      0.563840   -1.393740   -3.464900
  H     -0.281020   -2.361360   -4.649380

 Total Charge           Charge          ....    1
 Multiplicity           Mult            ....    1
 Number of Electrons    NEL             ....   48
 Basis Dimension        Dim             ....  134

ORBITAL ENERGIES
----------------

  NO   OCC          E(Eh)            E(eV)
   0   2.0000     -14.662884      -398.9974
   1   2.0000     -14.659390      -398.9023
   2   2.0000     -14.656681      -398.8286
   3   2.0000     -10.624935      -289.1192
   4   2.0000     -10.498276      -285.6726
   5   2.0000     -10.427791      -283.7546
   6   2.0000      -1.330915       -36.2160
   7   2.0000      -1.214727       -33.0544
   8   2.0000      -1.199863       -32.6499
   9   2.0000      -1.045131       -28.4395
  10   2.0000      -0.935859       -25.4660
  11   2.0000      -0.919884       -25.0313
  12   2.0000      -0.880882       -23.9700
  13   2.0000      -0.848289       -23.0831
  14   2.0000      -0.790023       -21.4976
  15   2.0000      -0.784584       -21.3496
  16   2.0000      -0.765419       -20.8281
  17   2.0000      -0.741611       -20.1803
  18   2.0000      -0.703463       -19.1422
  19   2.0000      -0.643030       -17.4977
  20   2.0000      -0.625738       -17.0272
  21   2.0000      -0.615830       -16.7576
  22   2.0000      -0.571136       -15.5414
  23   2.0000      -0.545127       -14.8337
  24   0.0000      -0.078108        -2.1254
  25   0.0000      -0.051459        -1.4003
  26   0.0000      -0.015720        -0.4278
  27   0.0000       0.002610         0.0710
  28   0.0000       0.023319         0.6345

MULLIKEN ATOMIC CHARGES
-----------------------
   0 C :    0.001731
   1 C :   -0.065687
   2 N :   -0.153256
   3 H :    0.076025
   4 H :    0.091426
   5 C :    0.091018
   6 N :   -0.064457
   7 N :   -0.099531
   8 H :    0.181926
   9 H :    0.185549
  10 H :    0.168872
  11 H :    0.176638
  12 H :    0.193461
  13 H :    0.062188
  14 H :    0.067744
  15 H :    0.086353
Sum of atomic charges:    1.0000000

LOEWDIN ATOMIC CHARGES
----------------------
   0 C :    0.032077
   1 C :   -0.041179
   2 N :    0.027313
   3 H :    0.035446
   4 H :    0.041252
   5 C :    0.159552
   6 N :    0.039953
   7 N :    0.028195
   8 H :    0.108830
   9 H :    0.112361
  10 H :    0.103745
  11 H :    0.109017
  12 H :    0.116691
  13 H :    0.035210
  14 H :    0.037893
  15 H :    0.053645

  Mayer bond orders larger than 0.100000
B(  0-C ,  1-C ) :   1.0932 B(  0-C ,  2-N ) :   0.8955 B(  0-C ,  3-H ) :   0.9540
B(  0-C ,  4-H ) :   0.9514 B(  1-C , 13-H ) :   0.9761 B(  1-C , 14-H ) :   0.9731
B(  1-C , 15-H ) :   0.9636 B(  2-N ,  5-C ) :   1.3995 B(  2-N , 10-H ) :   0.9072
B(  5-C ,  6-N ) :   1.3928 B(  5-C ,  7-N ) :   1.3797 B(  6-N , 11-H ) :   0.9213
B(  6-N , 12-H ) :   0.9233 B(  7-N ,  8-H ) :   0.9245 B(  7-N ,  9-H ) :   0.9268

Dispersion correction           -0.003480723
FINAL SINGLE POINT ENERGY      -284.116017122366

DIPOLE MOMENT
-------------
                                X             Y             Z
Electronic contribution:      4.76318       2.53229      -1.73720
Nuclear contribution   :     -3.96322      -1.85512       1.24891
                        -----------------------------------------
Total Dipole Moment    :      0.79997       0.67717      -0.48830
                        -----------------------------------------
Magnitude (a.u.)       :      1.15626
Magnitude (Debye)      :      2.93899

Rotational constants in cm-1:     0.261404     0.067000     0.054949
Rotational constants in MHz :  7836.702504  2008.609425  1647.329138

                             ****ORCA TERMINATED NORMALLY****
TOTAL RUN TIME: 0 days 0 hours 0 minutes 25 seconds 168 msec
