                         Program Version 5.0.0 -  RELEASE  -
|  1> !wB97X-D3 RIJCOSX def2-SVP def2/J TightSCF xyzfile
|  2>
|  3> *xyzfile 0 1 B.xyz
|  4>
|  5> %MaxCore 64000
|  6>
|  7> %pal nprocs 18
|  8> end
|  9>
| 10> %scf
| 11>   MaxIter 150
| 12> end
| 13>
| 14>
| 15>                          ****END OF INPUT****

CARTESIAN COORDINATES (ANGSTROEM)
---------------------------------
  C      1.635557   -1.670396   -5.292109
  C      0.338484   -1.500907   -4.505398
  N      2.484511   -0.507410   -5.140392
  C     -0.684873   -0.528026   -5.099889
  C     -0.290406    0.951335   -5.153423
  H      0.607991    1.070692   -5.764412
  C     -0.055168    1.619420   -3.788577
  H     -1.080912    1.483775   -5.689436
  H      0.045006    0.862302   -3.003015
  H     -0.922936    2.230329   -3.517028
  C      1.223022    2.469865   -3.756911
  H      1.114701    3.258074   -4.532999
  H      1.237732    3.011242   -2.792157
  O      2.353815    1.712032   -3.934477
  H      1.398337   -1.829239   -6.352591
  H      2.155864   -2.565398   -4.932091
  C      3.451149   -0.149530   -5.952589
  N      3.922667    1.089559   -5.850711
  N      3.966162   -1.006183   -6.867880
  H      3.521391   -1.906467   -6.995270
  H      4.444824   -0.623472   -7.670348
  H      2.251995    0.240804   -4.498792
  H      3.464277    1.640782   -5.136392
  H      4.834470    1.313745   -6.224653
  H     -0.937999   -0.869056   -6.110838
  H     -1.604638   -0.622496   -4.513132
  H      0.594887   -1.211578   -3.482312
  H     -0.126530   -2.487656   -4.434176

 Total Charge           Charge          ....    0
 Multiplicity           Mult            ....    1
 Number of Electrons    NEL             ....   88
 Basis Dimension        Dim             ....  239

ORBITAL ENERGIES
----------------

  NO   OCC          E(Eh)            E(eV)
   0   2.0000     -19.086445      -519.3686
   1   2.0000     -14.492657      -394.3653
   2   2.0000     -14.445651      -393.0861
   3   2.0000     -14.444716      -393.0607
   4   2.0000     -10.434347      -283.9330
   5   2.0000     -10.339897      -281.3629
   6   2.0000     -10.290497      -280.0187
   7   2.0000     -10.277415      -279.6627
   8   2.0000     -10.258320      -279.1431
   9   2.0000     -10.258019      -279.1349
  10   2.0000     -10.237191      -278.5681
  11   2.0000      -1.139231       -31.0001
  12   2.0000      -1.031629       -28.0721
  13   2.0000      -1.010741       -27.5037
  14   2.0000      -0.970547       -26.4099
  15   2.0000      -0.907972       -24.7072
  16   2.0000      -0.851879       -23.1808
  17   2.0000      -0.794003       -21.6059
  18   2.0000      -0.754458       -20.5298
  19   2.0000      -0.728609       -19.8265
  20   2.0000      -0.699773       -19.0418
  21   2.0000      -0.678662       -18.4673
  22   2.0000      -0.662133       -18.0175
  23   2.0000      -0.624474       -16.9928
  24   2.0000      -0.606689       -16.5088
  25   2.0000      -0.595565       -16.2061
  26   2.0000      -0.586278       -15.9534
  27   2.0000      -0.574503       -15.6330
  28   2.0000      -0.538260       -14.6468
  29   2.0000      -0.522443       -14.2164
  30   2.0000      -0.511723       -13.9247
  31   2.0000      -0.506412       -13.7802
  32   2.0000      -0.477276       -12.9873
  33   2.0000      -0.457434       -12.4474
  34   2.0000      -0.450386       -12.2556
  35   2.0000      -0.427585       -11.6352
  36   2.0000      -0.408552       -11.1173
  37   2.0000      -0.399277       -10.8649
  38   2.0000      -0.392754       -10.6874
  39   2.0000      -0.384174       -10.4539
  40   2.0000      -0.374569       -10.1925
  41   2.0000      -0.349021        -9.4973
  42   2.0000      -0.254101        -6.9144
  43   2.0000      -0.245304        -6.6751
  44   0.0000       0.100469         2.7339
  45   0.0000       0.110217         2.9992
  46   0.0000       0.139493         3.7958
  47   0.0000       0.155979         4.2444
  48   0.0000       0.173423         4.7191

MULLIKEN ATOMIC CHARGES
-----------------------
   0 C :    0.092293
   1 C :   -0.063166
   2 N :   -0.138889
   3 C :   -0.032757
   4 C :   -0.030710
   5 H :    0.002609
   6 C :   -0.079421
   7 H :    0.013788
   8 H :    0.003070
   9 H :   -0.004076
  10 C :    0.262156
  11 H :   -0.060446
  12 H :   -0.045944
  13 O :   -0.652473
  14 H :    0.014438
  15 H :    0.037804
  16 C :    0.038249
  17 N :   -0.053913
  18 N :   -0.127650
  19 H :    0.148304
  20 H :    0.149277
  21 H :    0.143265
  22 H :    0.143956
  23 H :    0.131226
  24 H :    0.004916
  25 H :    0.025989
  26 H :    0.051230
  27 H :    0.026876
Sum of atomic charges:   -0.0000000

LOEWDIN ATOMIC CHARGES
----------------------
   0 C :    0.030563
   1 C :   -0.041687
   2 N :    0.027012
   3 C :   -0.039651
   4 C :   -0.048135
   5 H :    0.010999
   6 C :   -0.073177
   7 H :    0.021052
   8 H :    0.009525
   9 H :    0.013288
  10 C :    0.036826
  11 H :   -0.029637
  12 H :   -0.020154
  13 O :   -0.500974
  14 H :    0.011602
  15 H :    0.020197
  16 C :    0.142204
  17 N :    0.024133
  18 N :   -0.014519
  19 H :    0.088065
  20 H :    0.088964
  21 H :    0.020727
  22 H :    0.039863
  23 H :    0.079790
  24 H :    0.016350
  25 H :    0.025088
  26 H :    0.032050
  27 H :    0.029639

  Mayer bond orders larger than 0.100000
B(  0-C ,  1-C ) :   1.0725 B(  0-C ,  2-N ) :   0.9621 B(  0-C , 14-H ) :   0.9444
B(  0-C , 15-H ) :   0.9484 B(  1-C ,  3-C ) :   1.0729 B(  1-C , 26-H ) :   0.9449
B(  1-C , 27-H ) :   0.9443 B(  2-N , 16-C ) :   1.4478 B(  2-N , 21-H ) :   0.7405
B(  3-C ,  4-C ) :   1.0797 B(  3-C , 24-H ) :   0.9476 B(  3-C , 25-H ) :   0.9491
B(  4-C ,  5-H ) :   0.9511 B(  4-C ,  6-C ) :   1.0290 B(  4-C ,  7-H ) :   0.9461
B(  6-C ,  8-H ) :   0.9606 B(  6-C ,  9-H ) :   0.9398 B(  6-C , 10-C ) :   1.0346
B( 10-C , 11-H ) :   0.9310 B( 10-C , 12-H ) :   0.9343 B( 10-C , 13-O ) :   1.1702
B( 13-O , 21-H ) :   0.3198 B( 13-O , 22-H ) :   0.2585 B( 16-C , 17-N ) :   1.4456
B( 16-C , 18-N ) :   1.2810 B( 17-N , 22-H ) :   0.7864 B( 17-N , 23-H ) :   0.9387
B( 18-N , 19-H ) :   0.9383 B( 18-N , 20-H ) :   0.9406

Dispersion correction           -0.011927497
FINAL SINGLE POINT ENERGY      -515.941216513987

DIPOLE MOMENT
-------------
                                X             Y             Z
Electronic contribution:      8.52090      -0.96957      -2.34674
Nuclear contribution   :     -7.46499      -1.05836       0.01518
                        -----------------------------------------
Total Dipole Moment    :      1.05591      -2.02793      -2.33156
                        -----------------------------------------
Magnitude (a.u.)       :      3.26552
Magnitude (Debye)      :      8.30029

Rotational constants in cm-1:     0.044680     0.028958     0.019773
Rotational constants in MHz :  1339.486245   868.136755   592.791310

                             ****ORCA TERMINATED NORMALLY****
TOTAL RUN TIME: 0 days 0 hours 0 minutes 32 seconds 360 msec
