                         Program Version 5.0.0 -  RELEASE  -
|  1> !wB97X-D3 RIJCOSX def2-SVP def2/J TightSCF
|  2> *xyz 0 1
|  3> C         -0.05517        1.61942       -3.78858
|  4> C          1.22302        2.46987       -3.75691
|  5> H          1.11470        3.25807       -4.53300
|  6> H          1.23773        3.01124       -2.79216
|  7> F          2.35381        1.71203       -3.93448
|  8> H         -0.10198        1.08015       -4.71156
|  9> H         -0.91014        2.25726       -3.70441
| 10> H         -0.04403        0.92826       -2.97183
| 11> *
| 12>
| 13> %MaxCore 64000
| 14>
| 15> %pal nprocs 4
| 16> end
| 17>
| 18> %scf
| 19>   MaxIter 150
| 20> end
| 21>
| 22>
| 23>                          ****END OF INPUT****

CARTESIAN COORDINATES (ANGSTROEM)
---------------------------------
  C     -0.055170    1.619420   -3.788580
  C      1.223020    2.469870   -3.756910
  H      1.114700    3.258070   -4.533000
  H      1.237730    3.011240   -2.792160
  F      2.353810    1.712030   -3.934480
  H     -0.101980    1.080150   -4.711560
  H     -0.910140    2.257260   -3.704410
  H     -0.044030    0.928260   -2.971830

 Total Charge           Charge          ....    0
 Multiplicity           Mult            ....    1
 Number of Electrons    NEL             ....   26
 Basis Dimension        Dim             ....   67

ORBITAL ENERGIES
----------------

  NO   OCC          E(Eh)            E(eV)
   0   2.0000     -24.766716      -673.9366
   1   2.0000     -10.363545      -282.0064
   2   2.0000     -10.282631      -279.8046
   3   2.0000      -1.282890       -34.9092
   4   2.0000      -0.871176       -23.7059
   5   2.0000      -0.731792       -19.9131
   6   2.0000      -0.601567       -16.3695
   7   2.0000      -0.593786       -16.1577
   8   2.0000      -0.551409       -15.0046
   9   2.0000      -0.498049       -13.5526
  10   2.0000      -0.494963       -13.4686
  11   2.0000      -0.425487       -11.5781
  12   2.0000      -0.421092       -11.4585
  13   0.0000       0.151975         4.1354
  14   0.0000       0.197923         5.3858
  15   0.0000       0.203726         5.5437
  16   0.0000       0.221230         6.0200
  17   0.0000       0.238749         6.4967

MULLIKEN ATOMIC CHARGES
-----------------------
   0 C :   -0.095163
   1 C :    0.204115
   2 H :    0.024411
   3 H :    0.023536
   4 F :   -0.276221
   5 H :    0.044192
   6 H :    0.031985
   7 H :    0.043146
Sum of atomic charges:    0.0000000

LOEWDIN ATOMIC CHARGES
----------------------
   0 C :   -0.077317
   1 C :    0.111738
   2 H :    0.012002
   3 H :    0.011452
   4 F :   -0.143205
   5 H :    0.027755
   6 H :    0.030742
   7 H :    0.026833

  Mayer bond orders larger than 0.100000
B(  0-C ,  1-C ) :   1.0837 B(  0-C ,  5-H ) :   0.9738 B(  0-C ,  6-H ) :   0.9650
B(  0-C ,  7-H ) :   0.9748 B(  1-C ,  2-H ) :   0.9621 B(  1-C ,  3-H ) :   0.9620
B(  1-C ,  4-F ) :   0.9858

Dispersion correction           -0.000872722
FINAL SINGLE POINT ENERGY      -178.874131031511

DIPOLE MOMENT
-------------
                                X             Y             Z
Electronic contribution:      5.05082      -0.73995      -0.43347
Nuclear contribution   :     -5.66833       1.07099       0.52006
                        -----------------------------------------
Total Dipole Moment    :     -0.61751       0.33104       0.08659
                        -----------------------------------------
Magnitude (a.u.)       :      0.70598
Magnitude (Debye)      :      1.79446

Rotational constants in cm-1:     1.245689     0.305293     0.269541
Rotational constants in MHz : 37344.801915  9152.442838  8080.640229

                             ****ORCA TERMINATED NORMALLY****
TOTAL RUN TIME: 0 days 0 hours 0 minutes 8 seconds 314 msec
