                         Program Version 5.0.0 -  RELEASE  -
|  1> !wB97X-D3 RIJCOSX def2-SVP def2/J TightSCF
|  2> *xyz 0 1
|  3> C          1.63556       -1.67040       -5.29211
|  4> C          0.33848       -1.50091       -4.50540
|  5> C          2.48451       -0.50741       -5.14039
|  6> H          1.39834       -1.82924       -6.35259
|  7> H          2.15586       -2.56540       -4.93209
|  8> C          3.45115       -0.14953       -5.95259
|  9> N          3.92267        1.08956       -5.85071
| 10> N          3.96616       -1.00618       -6.86788
| 11> H          3.52139       -1.90647       -6.99527
| 12> H          4.44482       -0.62347       -7.67035
| 13> H          2.25200        0.24080       -4.49879
| 14> H          3.46428        1.64078       -5.13639
| 15> H          4.83447        1.31375       -6.22465
| 16> H         -0.17658       -0.62881       -4.85045
| 17> H          0.56384       -1.39374       -3.46490
| 18> H         -0.28102       -2.36136       -4.64938
| 19> *
| 20>
| 21> %MaxCore 64000
| 22>
| 23> %pal nprocs 4
| 24> end
| 25>
| 26> %scf
| 27>   MaxIter 150
| 28> end
| 29>
| 30>
| 31>                          ****END OF INPUT****

CARTESIAN COORDINATES (ANGSTROEM)
---------------------------------
  C      1.635560   -1.670400   -5.292110
  C      0.338480   -1.500910   -4.505400
  C      2.484510   -0.507410   -5.140390
  H      1.398340   -1.829240   -6.352590
  H      2.155860   -2.565400   -4.932090
  C      3.451150   -0.149530   -5.952590
  N      3.922670    1.089560   -5.850710
  N      3.966160   -1.006180   -6.867880
  H      3.521390   -1.906470   -6.995270
  H      4.444820   -0.623470   -7.670350
  H      2.252000    0.240800   -4.498790
  H      3.464280    1.640780   -5.136390
  H      4.834470    1.313750   -6.224650
  H     -0.176580   -0.628810   -4.850450
  H      0.563840   -1.393740   -3.464900
  H     -0.281020   -2.361360   -4.649380

 Total Charge           Charge          ....    0
 Multiplicity           Mult            ....    1
 Number of Electrons    NEL             ....   48
 Basis Dimension        Dim             ....  134

ORBITAL ENERGIES
----------------

  NO   OCC          E(Eh)            E(eV)
   0   2.0000     -14.428674      -392.6242
   1   2.0000     -14.423918      -392.4948
   2   2.0000     -10.322118      -280.8791
   3   2.0000     -10.260815      -279.2110
   4   2.0000     -10.254176      -279.0303
   5   2.0000     -10.200418      -277.5675
   6   2.0000      -1.059316       -28.8255
   7   2.0000      -0.968746       -26.3609
   8   2.0000      -0.879954       -23.9448
   9   2.0000      -0.798930       -21.7400
  10   2.0000      -0.710384       -19.3305
  11   2.0000      -0.677507       -18.4359
  12   2.0000      -0.629727       -17.1357
  13   2.0000      -0.608207       -16.5501
  14   2.0000      -0.558547       -15.1988
  15   2.0000      -0.536638       -14.6027
  16   2.0000      -0.521690       -14.1959
  17   2.0000      -0.488488       -13.2924
  18   2.0000      -0.470570       -12.8049
  19   2.0000      -0.431061       -11.7298
  20   2.0000      -0.419546       -11.4164
  21   2.0000      -0.418563       -11.3897
  22   2.0000      -0.350668        -9.5422
  23   2.0000      -0.240113        -6.5338
  24   0.0000       0.137953         3.7539
  25   0.0000       0.165577         4.5056
  26   0.0000       0.177102         4.8192
  27   0.0000       0.181279         4.9329
  28   0.0000       0.195636         5.3235

MULLIKEN ATOMIC CHARGES
-----------------------
   0 C :   -0.012046
   1 C :   -0.012372
   2 C :   -0.153036
   3 H :    0.003120
   4 H :    0.014520
   5 C :   -0.056261
   6 N :   -0.096014
   7 N :   -0.136310
   8 H :    0.129551
   9 H :    0.114300
  10 H :   -0.093512
  11 H :    0.130319
  12 H :    0.116161
  13 H :    0.018223
  14 H :    0.021673
  15 H :    0.011683
Sum of atomic charges:   -0.0000000

LOEWDIN ATOMIC CHARGES
----------------------
   0 C :   -0.046240
   1 C :   -0.047887
   2 C :   -0.229958
   3 H :    0.009075
   4 H :    0.012742
   5 C :    0.035314
   6 N :   -0.034151
   7 N :   -0.041178
   8 H :    0.079520
   9 H :    0.065502
  10 H :   -0.010575
  11 H :    0.084327
  12 H :    0.066953
  13 H :    0.019012
  14 H :    0.020593
  15 H :    0.016950

  Mayer bond orders larger than 0.100000
B(  0-C ,  1-C ) :   1.1001 B(  0-C ,  2-C ) :   1.0180 B(  0-C ,  3-H ) :   0.9511
B(  0-C ,  4-H ) :   0.9349 B(  1-C , 13-H ) :   0.9790 B(  1-C , 14-H ) :   0.9739
B(  1-C , 15-H ) :   0.9720 B(  2-C ,  5-C ) :   1.7079 B(  2-C , 10-H ) :   0.9453
B(  5-C ,  6-N ) :   1.2427 B(  5-C ,  7-N ) :   1.2374 B(  6-N , 11-H ) :   0.9334
B(  6-N , 12-H ) :   0.9475 B(  7-N ,  8-H ) :   0.9406 B(  7-N ,  9-H ) :   0.9489

Dispersion correction           -0.003473136
FINAL SINGLE POINT ENERGY      -267.644216106048

DIPOLE MOMENT
-------------
                                X             Y             Z
Electronic contribution:      4.64535       2.22266      -1.99746
Nuclear contribution   :     -3.99655      -1.83277       1.34879
                        -----------------------------------------
Total Dipole Moment    :      0.64880       0.38990      -0.64867
                        -----------------------------------------
Magnitude (a.u.)       :      0.99686
Magnitude (Debye)      :      2.53383

Rotational constants in cm-1:     0.262971     0.067064     0.055026
Rotational constants in MHz :  7883.664566  2010.513309  1649.636654

                             ****ORCA TERMINATED NORMALLY****
TOTAL RUN TIME: 0 days 0 hours 0 minutes 24 seconds 110 msec
