                         Program Version 5.0.0 -  RELEASE  -
|  1> !wB97X-D3 RIJCOSX def2-SVP def2/J TightSCF
|  2> *xyz 0 1
|  3> C          1.63556       -1.67040       -5.29211
|  4> C          0.33848       -1.50091       -4.50540
|  5> N          2.48451       -0.50741       -5.14039
|  6> H          1.39834       -1.82924       -6.35259
|  7> H          2.15586       -2.56540       -4.93209
|  8> C          3.45115       -0.14953       -5.95259
|  9> C          3.92267        1.08956       -5.85071
| 10> N          3.96616       -1.00618       -6.86788
| 11> H          3.52139       -1.90647       -6.99527
| 12> H          4.44482       -0.62347       -7.67035
| 13> H          2.25200        0.24080       -4.49879
| 14> H          3.46428        1.64078       -5.13639
| 15> H          4.83447        1.31375       -6.22465
| 16> H         -0.17658       -0.62881       -4.85045
| 17> H          0.56384       -1.39374       -3.46490
| 18> H         -0.28102       -2.36136       -4.64938
| 19> *
| 20>
| 21> %MaxCore 64000
| 22>
| 23> %pal nprocs 4
| 24> end
| 25>
| 26> %scf
| 27>   MaxIter 150
| 28> end
| 29>
| 30>
| 31>                          ****END OF INPUT****

CARTESIAN COORDINATES (ANGSTROEM)
---------------------------------
  C      1.635560   -1.670400   -5.292110
  C      0.338480   -1.500910   -4.505400
  N      2.484510   -0.507410   -5.140390
  H      1.398340   -1.829240   -6.352590
  H      2.155860   -2.565400   -4.932090
  C      3.451150   -0.149530   -5.952590
  C      3.922670    1.089560   -5.850710
  N      3.966160   -1.006180   -6.867880
  H      3.521390   -1.906470   -6.995270
  H      4.444820   -0.623470   -7.670350
  H      2.252000    0.240800   -4.498790
  H      3.464280    1.640780   -5.136390
  H      4.834470    1.313750   -6.224650
  H     -0.176580   -0.628810   -4.850450
  H      0.563840   -1.393740   -3.464900
  H     -0.281020   -2.361360   -4.649380

 Total Charge           Charge          ....    0
 Multiplicity           Mult            ....    1
 Number of Electrons    NEL             ....   48
 Basis Dimension        Dim             ....  134

ORBITAL ENERGIES
----------------

  NO   OCC          E(Eh)            E(eV)
   0   2.0000     -14.429188      -392.6382
   1   2.0000     -14.427421      -392.5901
   2   2.0000     -10.329977      -281.0930
   3   2.0000     -10.327033      -281.0128
   4   2.0000     -10.289406      -279.9890
   5   2.0000     -10.190521      -277.2982
   6   2.0000      -1.073909       -29.2225
   7   2.0000      -0.983983       -26.7755
   8   2.0000      -0.885357       -24.0918
   9   2.0000      -0.805295       -21.9132
  10   2.0000      -0.730614       -19.8810
  11   2.0000      -0.695233       -18.9182
  12   2.0000      -0.632201       -17.2031
  13   2.0000      -0.593233       -16.1427
  14   2.0000      -0.581016       -15.8102
  15   2.0000      -0.557656       -15.1746
  16   2.0000      -0.514426       -13.9983
  17   2.0000      -0.492260       -13.3951
  18   2.0000      -0.471744       -12.8368
  19   2.0000      -0.468935       -12.7604
  20   2.0000      -0.466691       -12.6993
  21   2.0000      -0.441785       -12.0216
  22   2.0000      -0.344563        -9.3760
  23   2.0000      -0.240134        -6.5344
  24   0.0000       0.136713         3.7201
  25   0.0000       0.157818         4.2945
  26   0.0000       0.164603         4.4791
  27   0.0000       0.175195         4.7673
  28   0.0000       0.200115         5.4454

MULLIKEN ATOMIC CHARGES
-----------------------
   0 C :    0.059623
   1 C :   -0.058693
   2 N :   -0.179529
   3 H :    0.026253
   4 H :    0.032049
   5 C :   -0.018907
   6 C :   -0.124227
   7 N :   -0.145468
   8 H :    0.112807
   9 H :    0.136803
  10 H :    0.133927
  11 H :   -0.057888
  12 H :   -0.033953
  13 H :    0.040504
  14 H :    0.039001
  15 H :    0.037697
Sum of atomic charges:   -0.0000000

LOEWDIN ATOMIC CHARGES
----------------------
   0 C :    0.027949
   1 C :   -0.055126
   2 N :   -0.037645
   3 H :    0.013902
   4 H :    0.013922
   5 C :    0.047690
   6 C :   -0.269043
   7 N :   -0.038380
   8 H :    0.064335
   9 H :    0.083324
  10 H :    0.085532
  11 H :   -0.011894
  12 H :   -0.007222
  13 H :    0.026110
  14 H :    0.025748
  15 H :    0.030798

  Mayer bond orders larger than 0.100000
B(  0-C ,  1-C ) :   1.1000 B(  0-C ,  2-N ) :   0.9748 B(  0-C ,  3-H ) :   0.9502
B(  0-C ,  4-H ) :   0.9518 B(  1-C , 13-H ) :   0.9763 B(  1-C , 14-H ) :   0.9745
B(  1-C , 15-H ) :   0.9703 B(  2-N ,  5-C ) :   1.2203 B(  2-N , 10-H ) :   0.9227
B(  5-C ,  6-C ) :   1.7392 B(  5-C ,  7-N ) :   1.2068 B(  6-C , 11-H ) :   0.9347
B(  6-C , 12-H ) :   0.9609 B(  7-N ,  8-H ) :   0.9549 B(  7-N ,  9-H ) :   0.9498

Dispersion correction           -0.003505480
FINAL SINGLE POINT ENERGY      -267.633928415297

DIPOLE MOMENT
-------------
                                X             Y             Z
Electronic contribution:      2.95551       0.51328      -1.32908
Nuclear contribution   :     -3.69145      -1.49398       1.19810
                        -----------------------------------------
Total Dipole Moment    :     -0.73594      -0.98070      -0.13099
                        -----------------------------------------
Magnitude (a.u.)       :      1.23310
Magnitude (Debye)      :      3.13430

Rotational constants in cm-1:     0.270790     0.068966     0.056679
Rotational constants in MHz :  8118.084803  2067.559423  1699.196934

                             ****ORCA TERMINATED NORMALLY****
TOTAL RUN TIME: 0 days 0 hours 0 minutes 24 seconds 471 msec
