                         Program Version 5.0.0 -  RELEASE  -
|  1> !wB97X-D3 RIJCOSX def2-SVP def2/J TightSCF
|  2> *xyz 0 1
|  3> C          1.63556       -1.67040       -5.29211
|  4> C          0.33848       -1.50091       -4.50540
|  5> N          2.48451       -0.50741       -5.14039
|  6> H          1.39834       -1.82924       -6.35259
|  7> H          2.15586       -2.56540       -4.93209
|  8> C          3.45115       -0.14953       -5.95259
|  9> N          3.92267        1.08956       -5.85071
| 10> C          3.96616       -1.00618       -6.86788
| 11> H          3.52139       -1.90647       -6.99527
| 12> H          4.44482       -0.62347       -7.67035
| 13> H          2.25200        0.24080       -4.49879
| 14> H          3.46428        1.64078       -5.13639
| 15> H          4.83447        1.31375       -6.22465
| 16> H         -0.17658       -0.62881       -4.85045
| 17> H          0.56384       -1.39374       -3.46490
| 18> H         -0.28102       -2.36136       -4.64938
| 19> *
| 20>
| 21> %MaxCore 64000
| 22>
| 23> %pal nprocs 4
| 24> end
| 25>
| 26> %scf
| 27>   MaxIter 150
| 28> end
| 29>
| 30>
| 31>                          ****END OF INPUT****

CARTESIAN COORDINATES (ANGSTROEM)
---------------------------------
  C      1.635560   -1.670400   -5.292110
  C      0.338480   -1.500910   -4.505400
  N      2.484510   -0.507410   -5.140390
  H      1.398340   -1.829240   -6.352590
  H      2.155860   -2.565400   -4.932090
  C      3.451150   -0.149530   -5.952590
  N      3.922670    1.089560   -5.850710
  C      3.966160   -1.006180   -6.867880
  H      3.521390   -1.906470   -6.995270
  H      4.444820   -0.623470   -7.670350
  H      2.252000    0.240800   -4.498790
  H      3.464280    1.640780   -5.136390
  H      4.834470    1.313750   -6.224650
  H     -0.176580   -0.628810   -4.850450
  H      0.563840   -1.393740   -3.464900
  H     -0.281020   -2.361360   -4.649380

 Total Charge           Charge          ....    0
 Multiplicity           Mult            ....    1
 Number of Electrons    NEL             ....   48
 Basis Dimension        Dim             ....  134

ORBITAL ENERGIES
----------------

  NO   OCC          E(Eh)            E(eV)
   0   2.0000     -14.435309      -392.8047
   1   2.0000     -14.430139      -392.6641
   2   2.0000     -10.328615      -281.0559
   3   2.0000     -10.321744      -280.8689
   4   2.0000     -10.285074      -279.8711
   5   2.0000     -10.190602      -277.3004
   6   2.0000      -1.082171       -29.4474
   7   2.0000      -0.989523       -26.9263
   8   2.0000      -0.870786       -23.6953
   9   2.0000      -0.803797       -21.8724
  10   2.0000      -0.748008       -20.3543
  11   2.0000      -0.666256       -18.1297
  12   2.0000      -0.632832       -17.2202
  13   2.0000      -0.620542       -16.8858
  14   2.0000      -0.574294       -15.6273
  15   2.0000      -0.563103       -15.3228
  16   2.0000      -0.496613       -13.5135
  17   2.0000      -0.490020       -13.3341
  18   2.0000      -0.484744       -13.1905
  19   2.0000      -0.461490       -12.5578
  20   2.0000      -0.452732       -12.3195
  21   2.0000      -0.441515       -12.0142
  22   2.0000      -0.338949        -9.2233
  23   2.0000      -0.242470        -6.5980
  24   0.0000       0.129964         3.5365
  25   0.0000       0.153445         4.1755
  26   0.0000       0.173721         4.7272
  27   0.0000       0.182917         4.9774
  28   0.0000       0.206124         5.6089

MULLIKEN ATOMIC CHARGES
-----------------------
   0 C :    0.083769
   1 C :   -0.057289
   2 N :   -0.198588
   3 H :    0.042007
   4 H :    0.037260
   5 C :   -0.007826
   6 N :   -0.117762
   7 C :   -0.163470
   8 H :   -0.038313
   9 H :   -0.037883
  10 H :    0.103337
  11 H :    0.106337
  12 H :    0.143965
  13 H :    0.032542
  14 H :    0.031956
  15 H :    0.039957
Sum of atomic charges:   -0.0000000

LOEWDIN ATOMIC CHARGES
----------------------
   0 C :    0.044144
   1 C :   -0.058653
   2 N :   -0.033289
   3 H :    0.023574
   4 H :    0.019594
   5 C :    0.041085
   6 N :   -0.027883
   7 C :   -0.280676
   8 H :   -0.010374
   9 H :   -0.009193
  10 H :    0.063358
  11 H :    0.063260
  12 H :    0.088069
  13 H :    0.022553
  14 H :    0.022382
  15 H :    0.032052

  Mayer bond orders larger than 0.100000
B(  0-C ,  1-C ) :   1.0903 B(  0-C ,  2-N ) :   0.9706 B(  0-C ,  3-H ) :   0.9478
B(  0-C ,  4-H ) :   0.9546 B(  1-C , 13-H ) :   0.9756 B(  1-C , 14-H ) :   0.9740
B(  1-C , 15-H ) :   0.9706 B(  2-N ,  5-C ) :   1.1970 B(  2-N , 10-H ) :   0.9359
B(  5-C ,  6-N ) :   1.2249 B(  5-C ,  7-C ) :   1.7284 B(  6-N , 11-H ) :   0.9528
B(  6-N , 12-H ) :   0.9447 B(  7-C ,  8-H ) :   0.9496 B(  7-C ,  9-H ) :   0.9567

Dispersion correction           -0.003486481
FINAL SINGLE POINT ENERGY      -267.633792304195

DIPOLE MOMENT
-------------
                                X             Y             Z
Electronic contribution:      3.03591       2.72471      -0.14198
Nuclear contribution   :     -3.68222      -1.93858       0.98231
                        -----------------------------------------
Total Dipole Moment    :     -0.64632       0.78613       0.84033
                        -----------------------------------------
Magnitude (a.u.)       :      1.31980
Magnitude (Debye)      :      3.35468

Rotational constants in cm-1:     0.275407     0.068040     0.056255
Rotational constants in MHz :  8256.498401  2039.796466  1686.484500

                             ****ORCA TERMINATED NORMALLY****
TOTAL RUN TIME: 0 days 0 hours 0 minutes 24 seconds 588 msec
