                         Program Version 5.0.0 -  RELEASE  -
|  1> !wB97X-D3 RIJCOSX def2-SVP def2/J TightSCF xyzfile
|  2>
|  3> *xyzfile 0 1 D2.xyz
|  4>
|  5> %MaxCore 64000
|  6>
|  7> %pal nprocs 18
|  8> end
|  9>
| 10> %scf
| 11>   MaxIter 150
| 12> end
| 13>
| 14>
| 15>                          ****END OF INPUT****

CARTESIAN COORDINATES (ANGSTROEM)
---------------------------------
  C      1.635557   -1.670396   -5.292109
  C      0.338484   -1.500907   -4.505398
  N      2.484511   -0.507410   -5.140392
  C     -0.684873   -0.528026   -5.099889
  C     -0.290406    0.951335   -5.153423
  H      0.607991    1.070692   -5.764412
  C     -0.055168    1.619420   -3.788577
  H     -1.080912    1.483775   -5.689436
  H      0.045006    0.862302   -3.003015
  H     -0.922936    2.230329   -3.517028
  C      1.223022    2.469865   -3.756911
  H      1.114701    3.258074   -4.532999
  H      1.237732    3.011242   -2.792157
  F      2.353815    1.712032   -3.934477
  H      1.398337   -1.829239   -6.352591
  H      2.155864   -2.565398   -4.932091
  C      3.451149   -0.149530   -5.952589
  C      3.922667    1.089559   -5.850711
  N      3.966162   -1.006183   -6.867880
  H      3.521391   -1.906467   -6.995270
  H      4.444824   -0.623472   -7.670348
  H      2.251995    0.240804   -4.498792
  H      3.464277    1.640782   -5.136392
  H      4.834470    1.313745   -6.224653
  H     -0.937999   -0.869056   -6.110838
  H     -1.604638   -0.622496   -4.513132
  H      0.594887   -1.211578   -3.482312
  H     -0.126530   -2.487656   -4.434176

 Total Charge           Charge          ....    0
 Multiplicity           Mult            ....    1
 Number of Electrons    NEL             ....   88
 Basis Dimension        Dim             ....  239

ORBITAL ENERGIES
----------------

  NO   OCC          E(Eh)            E(eV)
   0   2.0000     -24.806851      -675.0287
   1   2.0000     -14.411994      -392.1703
   2   2.0000     -14.400611      -391.8605
   3   2.0000     -10.378793      -282.4213
   4   2.0000     -10.316075      -280.7147
   5   2.0000     -10.307690      -280.4865
   6   2.0000     -10.303424      -280.3704
   7   2.0000     -10.292053      -280.0610
   8   2.0000     -10.291888      -280.0565
   9   2.0000     -10.290209      -280.0108
  10   2.0000     -10.163205      -276.5549
  11   2.0000      -1.329925       -36.1891
  12   2.0000      -1.055289       -28.7159
  13   2.0000      -0.969507       -26.3816
  14   2.0000      -0.928795       -25.2738
  15   2.0000      -0.884996       -24.0820
  16   2.0000      -0.843479       -22.9522
  17   2.0000      -0.787845       -21.4384
  18   2.0000      -0.754811       -20.5395
  19   2.0000      -0.724813       -19.7232
  20   2.0000      -0.684807       -18.6346
  21   2.0000      -0.669400       -18.2153
  22   2.0000      -0.644226       -17.5303
  23   2.0000      -0.617601       -16.8058
  24   2.0000      -0.608106       -16.5474
  25   2.0000      -0.602774       -16.4023
  26   2.0000      -0.582565       -15.8524
  27   2.0000      -0.572401       -15.5758
  28   2.0000      -0.548038       -14.9129
  29   2.0000      -0.537251       -14.6193
  30   2.0000      -0.520180       -14.1548
  31   2.0000      -0.506558       -13.7842
  32   2.0000      -0.494819       -13.4647
  33   2.0000      -0.473835       -12.8937
  34   2.0000      -0.464650       -12.6438
  35   2.0000      -0.456548       -12.4233
  36   2.0000      -0.445340       -12.1183
  37   2.0000      -0.438906       -11.9432
  38   2.0000      -0.423704       -11.5296
  39   2.0000      -0.414805       -11.2874
  40   2.0000      -0.412168       -11.2157
  41   2.0000      -0.409503       -11.1431
  42   2.0000      -0.325576        -8.8594
  43   2.0000      -0.220528        -6.0009
  44   0.0000       0.132535         3.6064
  45   0.0000       0.146874         3.9966
  46   0.0000       0.154801         4.2124
  47   0.0000       0.163665         4.4535
  48   0.0000       0.177319         4.8251

MULLIKEN ATOMIC CHARGES
-----------------------
   0 C :    0.126614
   1 C :   -0.078506
   2 N :   -0.198402
   3 C :   -0.028081
   4 C :   -0.062070
   5 H :    0.050106
   6 C :   -0.132297
   7 H :    0.029311
   8 H :    0.041010
   9 H :    0.044942
  10 C :    0.254082
  11 H :    0.044853
  12 H :    0.037744
  13 F :   -0.229338
  14 H :    0.006780
  15 H :    0.023656
  16 C :   -0.022313
  17 C :   -0.172807
  18 N :   -0.143873
  19 H :    0.106653
  20 H :    0.131069
  21 H :    0.137749
  22 H :   -0.019334
  23 H :   -0.050999
  24 H :    0.023842
  25 H :    0.024299
  26 H :    0.026283
  27 H :    0.029028
Sum of atomic charges:    0.0000000

LOEWDIN ATOMIC CHARGES
----------------------
   0 C :    0.030269
   1 C :   -0.045638
   2 N :   -0.044479
   3 C :   -0.036908
   4 C :   -0.049848
   5 H :    0.027272
   6 C :   -0.066116
   7 H :    0.027110
   8 H :    0.024877
   9 H :    0.037613
  10 C :    0.122861
  11 H :    0.022916
  12 H :    0.020310
  13 F :   -0.044038
  14 H :    0.008509
  15 H :    0.012365
  16 C :    0.043502
  17 C :   -0.287737
  18 N :   -0.043254
  19 H :    0.060743
  20 H :    0.079771
  21 H :    0.040399
  22 H :   -0.025305
  23 H :   -0.015318
  24 H :    0.025921
  25 H :    0.023157
  26 H :    0.020594
  27 H :    0.030451

  Mayer bond orders larger than 0.100000
B(  0-C ,  1-C ) :   1.0757 B(  0-C ,  2-N ) :   0.9874 B(  0-C , 14-H ) :   0.9412
B(  0-C , 15-H ) :   0.9466 B(  1-C ,  3-C ) :   1.0745 B(  1-C , 26-H ) :   0.9470
B(  1-C , 27-H ) :   0.9446 B(  2-N , 16-C ) :   1.2219 B(  2-N , 21-H ) :   0.8822
B(  3-C ,  4-C ) :   1.0774 B(  3-C , 24-H ) :   0.9475 B(  3-C , 25-H ) :   0.9519
B(  4-C ,  5-H ) :   0.9579 B(  4-C ,  6-C ) :   1.0157 B(  4-C ,  7-H ) :   0.9471
B(  6-C ,  8-H ) :   0.9588 B(  6-C ,  9-H ) :   0.9437 B(  6-C , 10-C ) :   1.0760
B( 10-C , 11-H ) :   0.9584 B( 10-C , 12-H ) :   0.9585 B( 10-C , 13-F ) :   0.8993
B( 13-F , 21-H ) :   0.1059 B( 16-C , 17-C ) :   1.7444 B( 16-C , 18-N ) :   1.2025
B( 17-C , 22-H ) :   0.9196 B( 17-C , 23-H ) :   0.9560 B( 18-N , 19-H ) :   0.9562
B( 18-N , 20-H ) :   0.9510

Dispersion correction           -0.011866316
FINAL SINGLE POINT ENERGY      -523.847281594930

DIPOLE MOMENT
-------------
                                X             Y             Z
Electronic contribution:      6.35992       2.43700       1.66968
Nuclear contribution   :     -7.85451      -2.70006      -1.48294
                        -----------------------------------------
Total Dipole Moment    :     -1.49459      -0.26306       0.18674
                        -----------------------------------------
Magnitude (a.u.)       :      1.52901
Magnitude (Debye)      :      3.88643

Rotational constants in cm-1:     0.044065     0.029250     0.019826
Rotational constants in MHz :  1321.026981   876.903192   594.367265

                             ****ORCA TERMINATED NORMALLY****
TOTAL RUN TIME: 0 days 0 hours 0 minutes 27 seconds 783 msec
