                         Program Version 5.0.0 -  RELEASE  -
|  1> !M062X D3Zero RIJCOSX def2-SVPD def2/J TightSCF
|  2> *xyz -1 1
|  3> C          4.12921        0.89839       -3.41895
|  4> C          5.01734        1.31521       -2.22130
|  5> O          4.73706        0.85411       -1.12283
|  6> O          5.92815        2.16811       -2.49136
|  7> H          4.48610        1.37210       -4.30953
|  8> H          3.11885        1.19903       -3.23540
|  9> H          4.16886       -0.16404       -3.53966
| 10> *
| 11> %MaxCore 64000
| 12>
| 13> %pal nprocs 4
| 14> end
| 15>
| 16> %scf
| 17>   MaxIter 150
| 18> end
| 19>
| 20>
| 21>                          ****END OF INPUT****

CARTESIAN COORDINATES (ANGSTROEM)
---------------------------------
  C      4.129210    0.898390   -3.418950
  C      5.017340    1.315210   -2.221300
  O      4.737060    0.854110   -1.122830
  O      5.928150    2.168110   -2.491360
  H      4.486100    1.372100   -4.309530
  H      3.118850    1.199030   -3.235400
  H      4.168860   -0.164040   -3.539660

 Total Charge           Charge          ....   -1
 Multiplicity           Mult            ....    1
 Number of Electrons    NEL             ....   32
 Basis Dimension        Dim             ....  110

ORBITAL ENERGIES
----------------

  NO   OCC          E(Eh)            E(eV)
   0   2.0000     -19.374640      -527.2108
   1   2.0000     -19.364388      -526.9318
   2   2.0000     -10.437218      -284.0111
   3   2.0000     -10.359165      -281.8872
   4   2.0000      -0.931766       -25.3546
   5   2.0000      -0.827992       -22.5308
   6   2.0000      -0.623966       -16.9790
   7   2.0000      -0.377364       -10.2686
   8   2.0000      -0.326697        -8.8899
   9   2.0000      -0.312948        -8.5158
  10   2.0000      -0.304975        -8.2988
  11   2.0000      -0.259552        -7.0628
  12   2.0000      -0.238852        -6.4995
  13   2.0000      -0.110133        -2.9969
  14   2.0000      -0.107631        -2.9288
  15   2.0000      -0.099974        -2.7204
  16   0.0000       0.191954         5.2233
  17   0.0000       0.222745         6.0612
  18   0.0000       0.251435         6.8419
  19   0.0000       0.258201         7.0260
  20   0.0000       0.283833         7.7235

MULLIKEN ATOMIC CHARGES
-----------------------
   0 C :    0.456370
   1 C :    0.144489
   2 O :   -0.662804
   3 O :   -0.743101
   4 H :   -0.082049
   5 H :   -0.057436
   6 H :   -0.055469
Sum of atomic charges:   -1.0000000

LOEWDIN ATOMIC CHARGES
----------------------
   0 C :    0.145232
   1 C :   -0.322189
   2 O :   -0.326003
   3 O :   -0.370594
   4 H :   -0.046126
   5 H :   -0.039072
   6 H :   -0.041249

  Mayer bond orders larger than 0.100000
B(  0-C ,  1-C ) :   1.1900 B(  0-C ,  4-H ) :   0.8864 B(  0-C ,  5-H ) :   0.8366
B(  0-C ,  6-H ) :   0.8270 B(  1-C ,  2-O ) :   1.4671 B(  1-C ,  3-O ) :   1.3810
B(  1-C ,  4-H ) :   0.2338 B(  1-C ,  5-H ) :   0.1492 B(  1-C ,  6-H ) :   0.1579

Dispersion correction           -0.000017332
FINAL SINGLE POINT ENERGY      -228.267225019017

DIPOLE MOMENT
-------------
                                X             Y             Z
Electronic contribution:      2.03409       0.93852       2.88943
Nuclear contribution   :     -2.87913      -1.42371      -3.86600
                        -----------------------------------------
Total Dipole Moment    :     -0.84504      -0.48519      -0.97657
                        -----------------------------------------
Magnitude (a.u.)       :      1.37956
Magnitude (Debye)      :      3.50657

Rotational constants in cm-1:     0.390018     0.334370     0.186171
Rotational constants in MHz : 11692.450907 10024.149143  5581.251544

                             ****ORCA TERMINATED NORMALLY****
TOTAL RUN TIME: 0 days 0 hours 0 minutes 7 seconds 564 msec
