                         Program Version 5.0.0 -  RELEASE  -
|  1> !M062X D3Zero RIJCOSX def2-SVPD def2/J TightSCF
|  2> *xyz 1 1
|  3> C          3.34350        3.35457       -3.59200
|  4> C          4.25587        3.70385       -4.72605
|  5> N          3.73403        4.29378       -5.80077
|  6> N          5.51504        3.40725       -4.63718
|  7> H          6.14919        3.60120       -5.39905
|  8> H          5.81358        2.89950       -3.80879
|  9> H          2.74138        4.51311       -5.82470
| 10> H          4.28755        4.52126       -6.61434
| 11> H          2.34726        3.66659       -3.82664
| 12> H          3.67283        3.85124       -2.70331
| 13> H          3.35820        2.29620       -3.43538
| 14> *
| 15> %MaxCore 64000
| 16>
| 17> %pal nprocs 4
| 18> end
| 19>
| 20> %scf
| 21>   MaxIter 150
| 22> end
| 23>
| 24>
| 25>                          ****END OF INPUT****

CARTESIAN COORDINATES (ANGSTROEM)
---------------------------------
  C      3.343500    3.354570   -3.592000
  C      4.255870    3.703850   -4.726050
  N      3.734030    4.293780   -5.800770
  N      5.515040    3.407250   -4.637180
  H      6.149190    3.601200   -5.399050
  H      5.813580    2.899500   -3.808790
  H      2.741380    4.513110   -5.824700
  H      4.287550    4.521260   -6.614340
  H      2.347260    3.666590   -3.826640
  H      3.672830    3.851240   -2.703310
  H      3.358200    2.296200   -3.435380

 Total Charge           Charge          ....    1
 Multiplicity           Mult            ....    1
 Number of Electrons    NEL             ....   32
 Basis Dimension        Dim             ....  136

ORBITAL ENERGIES
----------------

  NO   OCC          E(Eh)            E(eV)
   0   2.0000     -15.017732      -408.6533
   1   2.0000     -15.013813      -408.5466
   2   2.0000     -10.887823      -296.2727
   3   2.0000     -10.750728      -292.5422
   4   2.0000      -1.312956       -35.7273
   5   2.0000      -1.210125       -32.9292
   6   2.0000      -1.044338       -28.4179
   7   2.0000      -0.923787       -25.1375
   8   2.0000      -0.862051       -23.4576
   9   2.0000      -0.848366       -23.0852
  10   2.0000      -0.779620       -21.2145
  11   2.0000      -0.737609       -20.0714
  12   2.0000      -0.683070       -18.5873
  13   2.0000      -0.669394       -18.2151
  14   2.0000      -0.645187       -17.5564
  15   2.0000      -0.562546       -15.3077
  16   0.0000      -0.174848        -4.7579
  17   0.0000      -0.141783        -3.8581
  18   0.0000      -0.097279        -2.6471
  19   0.0000      -0.095237        -2.5915
  20   0.0000      -0.070542        -1.9196

MULLIKEN ATOMIC CHARGES
-----------------------
   0 C :    0.529715
   1 C :    0.449016
   2 N :   -0.122863
   3 N :    0.101697
   4 H :   -0.151640
   5 H :    0.070796
   6 H :    0.078958
   7 H :   -0.124112
   8 H :    0.051596
   9 H :    0.064860
  10 H :    0.051976
Sum of atomic charges:    1.0000000

LOEWDIN ATOMIC CHARGES
----------------------
   0 C :    0.236213
   1 C :   -0.059799
   2 N :    0.272414
   3 N :    0.273582
   4 H :    0.055371
   5 H :    0.066142
   6 H :    0.052985
   7 H :    0.046383
   8 H :    0.006879
   9 H :    0.024968
  10 H :    0.024863

  Mayer bond orders larger than 0.100000
B(  0-C ,  1-C ) :   1.2779 B(  0-C ,  8-H ) :   0.7836 B(  0-C ,  9-H ) :   0.7683
B(  0-C , 10-H ) :   0.7942 B(  1-C ,  2-N ) :   0.9080 B(  1-C ,  3-N ) :   1.2061
B(  1-C ,  4-H ) :  -0.1673 B(  1-C ,  7-H ) :  -0.2649 B(  1-C ,  8-H ) :   0.2541
B(  1-C ,  9-H ) :   0.1671 B(  1-C , 10-H ) :   0.1459 B(  2-N ,  3-N ) :   0.1505
B(  2-N ,  6-H ) :   1.0584 B(  2-N ,  7-H ) :   1.3664 B(  3-N ,  4-H ) :   1.2716
B(  3-N ,  5-H ) :   1.0748 B(  4-H ,  5-H ) :  -0.1647 B(  6-H ,  7-H ) :  -0.1906

Dispersion correction           -0.000088495
FINAL SINGLE POINT ENERGY      -189.490852835876

DIPOLE MOMENT
-------------
                                X             Y             Z
Electronic contribution:      1.41366       0.50189      -1.59477
Nuclear contribution   :     -1.09951      -0.46604       1.22975
                        -----------------------------------------
Total Dipole Moment    :      0.31415       0.03585      -0.36502
                        -----------------------------------------
Magnitude (a.u.)       :      0.48293
Magnitude (Debye)      :      1.22750

Rotational constants in cm-1:     0.329035     0.303839     0.162676
Rotational constants in MHz :  9864.215808  9108.853745  4876.907929

                             ****ORCA TERMINATED NORMALLY****
TOTAL RUN TIME: 0 days 0 hours 0 minutes 11 seconds 880 msec
