                         Program Version 5.0.0 -  RELEASE  -
|  1> !M062X D3Zero RIJCOSX def2-SVPD def2/J TightSCF xyzfile
|  2>
|  3> *xyzfile 0 1 B.xyz
|  4>
|  5> %MaxCore 64000
|  6>
|  7> %pal nprocs 4
|  8> end
|  9>
| 10> %scf
| 11>   MaxIter 150
| 12> end
| 13>
| 14>
| 15>                          ****END OF INPUT****

CARTESIAN COORDINATES (ANGSTROEM)
---------------------------------
  C      3.343500    3.354571   -3.591998
  C      2.952633    1.863077   -3.574849
  C      4.129209    0.898394   -3.418950
  H      3.733687   -0.100605   -3.237633
  H      4.719095    0.862556   -4.339005
  C      5.017344    1.315212   -2.221305
  C      4.255868    3.703851   -4.726054
  N      3.734032    4.293783   -5.800770
  N      5.515039    3.407255   -4.637185
  H      6.149187    3.601203   -5.399053
  H      5.813584    2.899504   -3.808785
  H      2.741380    4.513109   -5.824701
  H      4.287548    4.521260   -6.614341
  H      2.278938    1.735250   -2.725496
  H      2.377466    1.625787   -4.475869
  O      4.737055    0.854112   -1.122825
  O      5.928146    2.168108   -2.491365
  H      3.861246    3.597252   -2.662979
  H      2.446493    3.973461   -3.656556

 Total Charge           Charge          ....    0
 Multiplicity           Mult            ....    1
 Number of Electrons    NEL             ....   70
 Basis Dimension        Dim             ....  266

ORBITAL ENERGIES
----------------

  NO   OCC          E(Eh)            E(eV)
   0   2.0000     -19.548070      -531.9300
   1   2.0000     -19.536767      -531.6225
   2   2.0000     -14.862969      -404.4420
   3   2.0000     -14.823344      -403.3637
   4   2.0000     -10.718516      -291.6657
   5   2.0000     -10.605317      -288.5853
   6   2.0000     -10.596114      -288.3349
   7   2.0000     -10.572517      -287.6928
   8   2.0000     -10.530580      -286.5517
   9   2.0000      -1.148050       -31.2400
  10   2.0000      -1.104422       -30.0528
  11   2.0000      -1.046011       -28.4634
  12   2.0000      -1.007822       -27.4242
  13   2.0000      -0.915222       -24.9045
  14   2.0000      -0.825195       -22.4547
  15   2.0000      -0.759073       -20.6554
  16   2.0000      -0.713835       -19.4244
  17   2.0000      -0.697248       -18.9731
  18   2.0000      -0.664583       -18.0842
  19   2.0000      -0.619848       -16.8669
  20   2.0000      -0.576316       -15.6823
  21   2.0000      -0.559183       -15.2161
  22   2.0000      -0.533375       -14.5139
  23   2.0000      -0.522101       -14.2071
  24   2.0000      -0.494552       -13.4574
  25   2.0000      -0.473984       -12.8978
  26   2.0000      -0.449384       -12.2284
  27   2.0000      -0.447871       -12.1872
  28   2.0000      -0.435891       -11.8612
  29   2.0000      -0.405503       -11.0343
  30   2.0000      -0.397272       -10.8103
  31   2.0000      -0.393426       -10.7057
  32   2.0000      -0.289089        -7.8665
  33   2.0000      -0.284487        -7.7413
  34   2.0000      -0.266372        -7.2483
  35   0.0000      -0.017235        -0.4690
  36   0.0000      -0.011731        -0.3192
  37   0.0000       0.024834         0.6758
  38   0.0000       0.046267         1.2590
  39   0.0000       0.054595         1.4856

MULLIKEN ATOMIC CHARGES
-----------------------
   0 C :    0.081563
   1 C :    0.010097
   2 C :    0.240958
   3 H :   -0.178548
   4 H :    0.096504
   5 C :    0.600204
   6 C :    0.813054
   7 N :   -0.103569
   8 N :    0.344034
   9 H :   -0.181917
  10 H :   -0.224161
  11 H :   -0.003725
  12 H :   -0.152648
  13 H :    0.050677
  14 H :   -0.177615
  15 O :   -0.638297
  16 O :   -0.690431
  17 H :    0.259095
  18 H :   -0.145274
Sum of atomic charges:    0.0000000

LOEWDIN ATOMIC CHARGES
----------------------
   0 C :    0.052738
   1 C :    0.001730
   2 C :    0.032942
   3 H :    0.023383
   4 H :    0.009042
   5 C :   -0.213336
   6 C :   -0.036522
   7 N :    0.238082
   8 N :    0.303592
   9 H :    0.041939
  10 H :   -0.131571
  11 H :    0.031451
  12 H :    0.024977
  13 H :    0.037273
  14 H :    0.018593
  15 O :   -0.227421
  16 O :   -0.275286
  17 H :    0.043869
  18 H :    0.024522

  Mayer bond orders larger than 0.100000
B(  0-C ,  1-C ) :   1.2113 B(  0-C ,  6-C ) :   1.0801 B(  0-C , 13-H ) :   0.1123
B(  0-C , 14-H ) :   0.1279 B(  0-C , 17-H ) :   0.7119 B(  0-C , 18-H ) :   0.9248
B(  1-C ,  2-C ) :   1.2729 B(  1-C ,  3-H ) :   0.1754 B(  1-C ,  4-H ) :   0.1634
B(  1-C , 13-H ) :   0.8540 B(  1-C , 14-H ) :   0.9658 B(  1-C , 17-H ) :   0.1223
B(  1-C , 18-H ) :   0.1535 B(  2-C ,  3-H ) :   0.8401 B(  2-C ,  4-H ) :   0.8206
B(  2-C ,  5-C ) :   0.9514 B(  2-C , 13-H ) :   0.1377 B(  3-H ,  5-C ) :   0.1635
B(  5-C , 15-O ) :   1.5066 B(  5-C , 16-O ) :   1.1888 B(  6-C ,  7-N ) :   0.8868
B(  6-C ,  8-N ) :   1.1487 B(  6-C ,  9-H ) :  -0.2409 B(  6-C , 11-H ) :  -0.1427
B(  6-C , 12-H ) :  -0.1748 B(  6-C , 17-H ) :   0.1283 B(  7-N ,  8-N ) :   0.1470
B(  7-N , 11-H ) :   1.1736 B(  7-N , 12-H ) :   1.3216 B(  8-N ,  9-H ) :   1.3174
B(  8-N , 10-H ) :   1.0905 B(  8-N , 16-O ) :  -0.1112 B(  9-H , 10-H ) :  -0.2492
B( 10-H , 16-O ) :   0.2613 B( 11-H , 12-H ) :  -0.1933 B( 15-O , 16-O ) :   0.1092

Dispersion correction           -0.000558552
FINAL SINGLE POINT ENERGY      -456.006986841704

DIPOLE MOMENT
-------------
                                X             Y             Z
Electronic contribution:      3.87155       0.02625       2.56543
Nuclear contribution   :     -5.42217       2.65262      -7.07590
                        -----------------------------------------
Total Dipole Moment    :     -1.55062       2.67887      -4.51047
                        -----------------------------------------
Magnitude (a.u.)       :      5.47038
Magnitude (Debye)      :     13.90461

Rotational constants in cm-1:     0.107541     0.035862     0.030371
Rotational constants in MHz :  3223.996852  1075.120464   910.508313

                             ****ORCA TERMINATED NORMALLY****
TOTAL RUN TIME: 0 days 0 hours 0 minutes 52 seconds 510 msec
