                         Program Version 5.0.0 -  RELEASE  -
|  1> !M062X D3Zero RIJCOSX def2-SVPD def2/J TightSCF
|  2> *xyz 0 1
|  3> C          4.12921        0.89839       -3.41895
|  4> C          5.01734        1.31521       -2.22130
|  5> F          4.73706        0.85411       -1.12283
|  6> O          5.92815        2.16811       -2.49136
|  7> H          4.48610        1.37210       -4.30953
|  8> H          3.11885        1.19903       -3.23540
|  9> H          4.16886       -0.16404       -3.53966
| 10> *
| 11> %MaxCore 64000
| 12>
| 13> %pal nprocs 4
| 14> end
| 15>
| 16> %scf
| 17>   MaxIter 150
| 18> end
| 19>
| 20>
| 21>                          ****END OF INPUT****

CARTESIAN COORDINATES (ANGSTROEM)
---------------------------------
  C      4.129210    0.898390   -3.418950
  C      5.017340    1.315210   -2.221300
  F      4.737060    0.854110   -1.122830
  O      5.928150    2.168110   -2.491360
  H      4.486100    1.372100   -4.309530
  H      3.118850    1.199030   -3.235400
  H      4.168860   -0.164040   -3.539660

 Total Charge           Charge          ....    0
 Multiplicity           Mult            ....    1
 Number of Electrons    NEL             ....   32
 Basis Dimension        Dim             ....  110

ORBITAL ENERGIES
----------------

  NO   OCC          E(Eh)            E(eV)
   0   2.0000     -25.345516      -689.6866
   1   2.0000     -19.647996      -534.6492
   2   2.0000     -10.747467      -292.4534
   3   2.0000     -10.578220      -287.8480
   4   2.0000      -1.475056       -40.1383
   5   2.0000      -1.133370       -30.8406
   6   2.0000      -0.861201       -23.4345
   7   2.0000      -0.772742       -21.0274
   8   2.0000      -0.664199       -18.0738
   9   2.0000      -0.657377       -17.8881
  10   2.0000      -0.586421       -15.9573
  11   2.0000      -0.514404       -13.9977
  12   2.0000      -0.502512       -13.6741
  13   2.0000      -0.476403       -12.9636
  14   2.0000      -0.420323       -11.4376
  15   2.0000      -0.368790       -10.0353
  16   0.0000       0.013588         0.3698
  17   0.0000       0.026729         0.7273
  18   0.0000       0.064979         1.7682
  19   0.0000       0.095742         2.6053
  20   0.0000       0.104334         2.8391

MULLIKEN ATOMIC CHARGES
-----------------------
   0 C :    0.330253
   1 C :    0.495683
   2 F :   -0.361006
   3 O :   -0.535314
   4 H :   -0.025657
   5 H :    0.049089
   6 H :    0.046951
Sum of atomic charges:    0.0000000

LOEWDIN ATOMIC CHARGES
----------------------
   0 C :    0.218418
   1 C :   -0.014581
   2 F :   -0.026976
   3 O :   -0.165586
   4 H :   -0.002667
   5 H :   -0.003072
   6 H :   -0.005536

  Mayer bond orders larger than 0.100000
B(  0-C ,  1-C ) :   1.2286 B(  0-C ,  4-H ) :   0.9153 B(  0-C ,  5-H ) :   0.8303
B(  0-C ,  6-H ) :   0.8254 B(  1-C ,  2-F ) :   0.7494 B(  1-C ,  3-O ) :   1.7667
B(  1-C ,  4-H ) :   0.1941 B(  1-C ,  5-H ) :   0.1080 B(  1-C ,  6-H ) :   0.1126

Dispersion correction           -0.000020970
FINAL SINGLE POINT ENERGY      -252.789377854666

DIPOLE MOMENT
-------------
                                X             Y             Z
Electronic contribution:      1.70796       0.21362       4.82672
Nuclear contribution   :     -2.65749      -0.95231      -5.09883
                        -----------------------------------------
Total Dipole Moment    :     -0.94952      -0.73870      -0.27211
                        -----------------------------------------
Magnitude (a.u.)       :      1.23341
Magnitude (Debye)      :      3.13509

Rotational constants in cm-1:     0.365278     0.322469     0.176821
Rotational constants in MHz : 10950.755781  9667.377070  5300.957073

                             ****ORCA TERMINATED NORMALLY****
TOTAL RUN TIME: 0 days 0 hours 0 minutes 8 seconds 564 msec
