                         Program Version 5.0.0 -  RELEASE  -
|  1> !M062X D3Zero RIJCOSX def2-SVPD def2/J TightSCF
|  2> *xyz 0 1
|  3> C          3.34350        3.35457       -3.59200
|  4> C          4.25587        3.70385       -4.72605
|  5> C          3.73403        4.29378       -5.80077
|  6> N          5.51504        3.40725       -4.63718
|  7> H          6.14919        3.60120       -5.39905
|  8> H          5.81358        2.89950       -3.80879
|  9> H          2.74138        4.51311       -5.82470
| 10> H          4.28755        4.52126       -6.61434
| 11> H          2.34726        3.66659       -3.82664
| 12> H          3.67283        3.85124       -2.70331
| 13> H          3.35820        2.29620       -3.43538
| 14> *
| 15> %MaxCore 64000
| 16>
| 17> %pal nprocs 4
| 18> end
| 19>
| 20> %scf
| 21>   MaxIter 150
| 22> end
| 23>
| 24>
| 25>                          ****END OF INPUT****

CARTESIAN COORDINATES (ANGSTROEM)
---------------------------------
  C      3.343500    3.354570   -3.592000
  C      4.255870    3.703850   -4.726050
  C      3.734030    4.293780   -5.800770
  N      5.515040    3.407250   -4.637180
  H      6.149190    3.601200   -5.399050
  H      5.813580    2.899500   -3.808790
  H      2.741380    4.513110   -5.824700
  H      4.287550    4.521260   -6.614340
  H      2.347260    3.666590   -3.826640
  H      3.672830    3.851240   -2.703310
  H      3.358200    2.296200   -3.435380

 Total Charge           Charge          ....    0
 Multiplicity           Mult            ....    1
 Number of Electrons    NEL             ....   32
 Basis Dimension        Dim             ....  136

ORBITAL ENERGIES
----------------

  NO   OCC          E(Eh)            E(eV)
   0   2.0000     -14.765405      -401.7871
   1   2.0000     -10.573296      -287.7140
   2   2.0000     -10.540657      -286.8258
   3   2.0000     -10.482938      -285.2552
   4   2.0000      -1.035376       -28.1740
   5   2.0000      -0.844133       -22.9700
   6   2.0000      -0.770853       -20.9760
   7   2.0000      -0.651715       -17.7341
   8   2.0000      -0.607016       -16.5178
   9   2.0000      -0.544597       -14.8192
  10   2.0000      -0.503350       -13.6968
  11   2.0000      -0.461500       -12.5581
  12   2.0000      -0.457012       -12.4359
  13   2.0000      -0.412908       -11.2358
  14   2.0000      -0.406975       -11.0744
  15   2.0000      -0.241075        -6.5600
  16   0.0000       0.037320         1.0155
  17   0.0000       0.071494         1.9454
  18   0.0000       0.077404         2.1063
  19   0.0000       0.084591         2.3018
  20   0.0000       0.110692         3.0121

MULLIKEN ATOMIC CHARGES
-----------------------
   0 C :    0.829191
   1 C :   -0.521175
   2 C :    0.408950
   3 N :    0.240020
   4 H :   -0.193874
   5 H :   -0.116459
   6 H :   -0.143206
   7 H :   -0.486300
   8 H :    0.042350
   9 H :   -0.026831
  10 H :   -0.032666
Sum of atomic charges:    0.0000000

LOEWDIN ATOMIC CHARGES
----------------------
   0 C :    0.164391
   1 C :   -0.302448
   2 C :    0.174348
   3 N :    0.153043
   4 H :    0.014688
   5 H :    0.011017
   6 H :   -0.087862
   7 H :   -0.092052
   8 H :   -0.014205
   9 H :   -0.010629
  10 H :   -0.010293

  Mayer bond orders larger than 0.100000
B(  0-C ,  1-C ) :   1.2754 B(  0-C ,  8-H ) :   0.7826 B(  0-C ,  9-H ) :   0.6609
B(  0-C , 10-H ) :   0.6814 B(  1-C ,  2-C ) :   1.6975 B(  1-C ,  3-N ) :   1.2061
B(  1-C ,  7-H ) :   0.1120 B(  1-C ,  8-H ) :   0.2485 B(  1-C ,  9-H ) :   0.2796
B(  1-C , 10-H ) :   0.2660 B(  2-C ,  3-N ) :   0.2264 B(  2-C ,  6-H ) :   0.9865
B(  2-C ,  7-H ) :   0.8122 B(  3-N ,  4-H ) :   1.2136 B(  3-N ,  5-H ) :   1.1306
B(  4-H ,  5-H ) :  -0.1374

Dispersion correction           -0.000087342
FINAL SINGLE POINT ENERGY      -173.040135431528

DIPOLE MOMENT
-------------
                                X             Y             Z
Electronic contribution:      1.76597      -0.04182      -0.55755
Nuclear contribution   :     -1.20871      -0.33119       0.98382
                        -----------------------------------------
Total Dipole Moment    :      0.55727      -0.37301       0.42626
                        -----------------------------------------
Magnitude (a.u.)       :      0.79460
Magnitude (Debye)      :      2.01971

Rotational constants in cm-1:     0.348453     0.308655     0.168735
Rotational constants in MHz : 10446.369928  9253.232733  5058.539653

                             ****ORCA TERMINATED NORMALLY****
TOTAL RUN TIME: 0 days 0 hours 0 minutes 12 seconds 197 msec
