                         Program Version 5.0.0 -  RELEASE  -
|  1> !M062X D3Zero RIJCOSX def2-SVPD def2/J TightSCF
|  2> *xyz 0 1
|  3> C          4.12921        0.89839       -3.41895
|  4> C          5.01734        1.31521       -2.22130
|  5> O          4.73706        0.85411       -1.12283
|  6> F          5.92815        2.16811       -2.49136
|  7> H          4.48610        1.37210       -4.30953
|  8> H          3.11885        1.19903       -3.23540
|  9> H          4.16886       -0.16404       -3.53966
| 10> *
| 11> %MaxCore 64000
| 12>
| 13> %pal nprocs 4
| 14> end
| 15>
| 16> %scf
| 17>   MaxIter 150
| 18> end
| 19>
| 20>
| 21>                          ****END OF INPUT****

CARTESIAN COORDINATES (ANGSTROEM)
---------------------------------
  C      4.129210    0.898390   -3.418950
  C      5.017340    1.315210   -2.221300
  O      4.737060    0.854110   -1.122830
  F      5.928150    2.168110   -2.491360
  H      4.486100    1.372100   -4.309530
  H      3.118850    1.199030   -3.235400
  H      4.168860   -0.164040   -3.539660

 Total Charge           Charge          ....    0
 Multiplicity           Mult            ....    1
 Number of Electrons    NEL             ....   32
 Basis Dimension        Dim             ....  110

ORBITAL ENERGIES
----------------

  NO   OCC          E(Eh)            E(eV)
   0   2.0000     -25.324349      -689.1106
   1   2.0000     -19.657384      -534.9046
   2   2.0000     -10.743316      -292.3405
   3   2.0000     -10.578061      -287.8437
   4   2.0000      -1.433385       -39.0044
   5   2.0000      -1.168285       -31.7906
   6   2.0000      -0.858720       -23.3670
   7   2.0000      -0.749120       -20.3846
   8   2.0000      -0.638464       -17.3735
   9   2.0000      -0.635773       -17.3003
  10   2.0000      -0.591709       -16.1012
  11   2.0000      -0.515860       -14.0373
  12   2.0000      -0.506459       -13.7814
  13   2.0000      -0.485020       -13.1981
  14   2.0000      -0.438228       -11.9248
  15   2.0000      -0.380476       -10.3533
  16   0.0000       0.015367         0.4182
  17   0.0000       0.027891         0.7590
  18   0.0000       0.066433         1.8077
  19   0.0000       0.098611         2.6834
  20   0.0000       0.101599         2.7647

MULLIKEN ATOMIC CHARGES
-----------------------
   0 C :    0.314583
   1 C :    0.472333
   2 O :   -0.480189
   3 F :   -0.401514
   4 H :   -0.004131
   5 H :    0.051246
   6 H :    0.047672
Sum of atomic charges:   -0.0000000

LOEWDIN ATOMIC CHARGES
----------------------
   0 C :    0.220909
   1 C :   -0.011273
   2 O :   -0.128105
   3 F :   -0.069774
   4 H :   -0.015276
   5 H :    0.002347
   6 H :    0.001171

  Mayer bond orders larger than 0.100000
B(  0-C ,  1-C ) :   1.2401 B(  0-C ,  4-H ) :   0.8998 B(  0-C ,  5-H ) :   0.8369
B(  0-C ,  6-H ) :   0.8287 B(  1-C ,  2-O ) :   1.8114 B(  1-C ,  3-F ) :   0.7111
B(  1-C ,  4-H ) :   0.1453 B(  1-C ,  5-H ) :   0.1184 B(  1-C ,  6-H ) :   0.1298

Dispersion correction           -0.000021191
FINAL SINGLE POINT ENERGY      -252.805461274800

DIPOLE MOMENT
-------------
                                X             Y             Z
Electronic contribution:      3.63851       2.34167       2.60629
Nuclear contribution   :     -3.88824      -2.31007      -3.68473
                        -----------------------------------------
Total Dipole Moment    :     -0.24973       0.03161      -1.07844
                        -----------------------------------------
Magnitude (a.u.)       :      1.10743
Magnitude (Debye)      :      2.81485

Rotational constants in cm-1:     0.367620     0.319924     0.176595
Rotational constants in MHz : 11020.955969  9591.092757  5294.190719

                             ****ORCA TERMINATED NORMALLY****
TOTAL RUN TIME: 0 days 0 hours 0 minutes 8 seconds 261 msec
