                         Program Version 5.0.0 -  RELEASE  -
|  1> !M062X D3Zero RIJCOSX def2-SVPD def2/J TightSCF
|  2> *xyz 0 1
|  3> C          3.34350        3.35457       -3.59200
|  4> C          4.25587        3.70385       -4.72605
|  5> N          3.73403        4.29378       -5.80077
|  6> C          5.51504        3.40725       -4.63718
|  7> H          6.14919        3.60120       -5.39905
|  8> H          5.81358        2.89950       -3.80879
|  9> H          2.74138        4.51311       -5.82470
| 10> H          4.28755        4.52126       -6.61434
| 11> H          2.34726        3.66659       -3.82664
| 12> H          3.67283        3.85124       -2.70331
| 13> H          3.35820        2.29620       -3.43538
| 14> *
| 15> %MaxCore 64000
| 16>
| 17> %pal nprocs 4
| 18> end
| 19>
| 20> %scf
| 21>   MaxIter 150
| 22> end
| 23>
| 24>
| 25>                          ****END OF INPUT****

CARTESIAN COORDINATES (ANGSTROEM)
---------------------------------
  C      3.343500    3.354570   -3.592000
  C      4.255870    3.703850   -4.726050
  N      3.734030    4.293780   -5.800770
  C      5.515040    3.407250   -4.637180
  H      6.149190    3.601200   -5.399050
  H      5.813580    2.899500   -3.808790
  H      2.741380    4.513110   -5.824700
  H      4.287550    4.521260   -6.614340
  H      2.347260    3.666590   -3.826640
  H      3.672830    3.851240   -2.703310
  H      3.358200    2.296200   -3.435380

 Total Charge           Charge          ....    0
 Multiplicity           Mult            ....    1
 Number of Electrons    NEL             ....   32
 Basis Dimension        Dim             ....  136

ORBITAL ENERGIES
----------------

  NO   OCC          E(Eh)            E(eV)
   0   2.0000     -14.761982      -401.6939
   1   2.0000     -10.570457      -287.6368
   2   2.0000     -10.540432      -286.8197
   3   2.0000     -10.479754      -285.1686
   4   2.0000      -1.020487       -27.7689
   5   2.0000      -0.849346       -23.1119
   6   2.0000      -0.774654       -21.0794
   7   2.0000      -0.645864       -17.5748
   8   2.0000      -0.596220       -16.2240
   9   2.0000      -0.546417       -14.8688
  10   2.0000      -0.499544       -13.5933
  11   2.0000      -0.462849       -12.5948
  12   2.0000      -0.457254       -12.4425
  13   2.0000      -0.416523       -11.3342
  14   2.0000      -0.401776       -10.9329
  15   2.0000      -0.245112        -6.6698
  16   0.0000       0.038618         1.0509
  17   0.0000       0.071297         1.9401
  18   0.0000       0.076794         2.0897
  19   0.0000       0.082853         2.2546
  20   0.0000       0.110017         2.9937

MULLIKEN ATOMIC CHARGES
-----------------------
   0 C :    0.787046
   1 C :   -0.255367
   2 N :    0.007777
   3 C :    0.305750
   4 H :   -0.382216
   5 H :   -0.162990
   6 H :   -0.068816
   7 H :   -0.175472
   8 H :   -0.115531
   9 H :    0.035328
  10 H :    0.024491
Sum of atomic charges:   -0.0000000

LOEWDIN ATOMIC CHARGES
----------------------
   0 C :    0.166503
   1 C :   -0.290111
   2 N :    0.154456
   3 C :    0.158195
   4 H :   -0.082101
   5 H :   -0.071332
   6 H :   -0.003464
   7 H :    0.004391
   8 H :   -0.027525
   9 H :   -0.004474
  10 H :   -0.004537

  Mayer bond orders larger than 0.100000
B(  0-C ,  1-C ) :   1.0615 B(  0-C ,  2-N ) :   0.1007 B(  0-C ,  8-H ) :   0.7250
B(  0-C ,  9-H ) :   0.7354 B(  0-C , 10-H ) :   0.7472 B(  1-C ,  2-N ) :   0.9373
B(  1-C ,  3-C ) :   1.8570 B(  1-C ,  4-H ) :   0.2179 B(  1-C ,  5-H ) :   0.1584
B(  1-C ,  7-H ) :  -0.1776 B(  1-C ,  8-H ) :   0.2835 B(  1-C ,  9-H ) :   0.1834
B(  1-C , 10-H ) :   0.1712 B(  2-N ,  3-C ) :   0.2346 B(  2-N ,  6-H ) :   1.1189
B(  2-N ,  7-H ) :   1.3204 B(  3-C ,  4-H ) :   0.7808 B(  3-C ,  5-H ) :   0.8142
B(  6-H ,  7-H ) :  -0.1765

Dispersion correction           -0.000087348
FINAL SINGLE POINT ENERGY      -173.039012355385

DIPOLE MOMENT
-------------
                                X             Y             Z
Electronic contribution:      0.19734       0.74214      -1.55011
Nuclear contribution   :     -0.80929      -0.53001       1.24477
                        -----------------------------------------
Total Dipole Moment    :     -0.61195       0.21213      -0.30534
                        -----------------------------------------
Magnitude (a.u.)       :      0.71604
Magnitude (Debye)      :      1.82002

Rotational constants in cm-1:     0.352070     0.305406     0.168593
Rotational constants in MHz : 10554.792117  9155.853997  5054.288053

                             ****ORCA TERMINATED NORMALLY****
TOTAL RUN TIME: 0 days 0 hours 0 minutes 12 seconds 294 msec
