                         Program Version 5.0.0 -  RELEASE  -
|  1> !CAM-B3LYP RIJCOSX def2-SVPD def2/J TightSCF
|  2> *xyz -1 1
|  3> C          1.44442        5.26658       -0.97546
|  4> O          1.56525        4.23349       -1.86489
|  5> C         -1.07389        4.84473       -0.97990
|  6> C          0.14812        5.21087       -0.13809
|  7> H          1.47425        6.26464       -1.47692
|  8> H          2.28962        5.30327       -0.26445
|  9> H          0.26183        4.45094        0.64071
| 10> H         -0.00252        6.17103        0.37148
| 11> H         -1.20745        5.57445       -1.75098
| 12> H         -1.94291        4.82190       -0.35605
| 13> H         -0.92683        3.88150       -1.42201
| 14> *
| 15> %MaxCore 64000
| 16>
| 17> %pal nprocs 4
| 18> end
| 19>
| 20> %scf
| 21>   MaxIter 150
| 22> end
| 23>
| 24>
| 25>                          ****END OF INPUT****

CARTESIAN COORDINATES (ANGSTROEM)
---------------------------------
  C      1.444420    5.266580   -0.975460
  O      1.565250    4.233490   -1.864890
  C     -1.073890    4.844730   -0.979900
  C      0.148120    5.210870   -0.138090
  H      1.474250    6.264640   -1.476920
  H      2.289620    5.303270   -0.264450
  H      0.261830    4.450940    0.640710
  H     -0.002520    6.171030    0.371480
  H     -1.207450    5.574450   -1.750980
  H     -1.942910    4.821900   -0.356050
  H     -0.926830    3.881500   -1.422010

 Total Charge           Charge          ....   -1
 Multiplicity           Mult            ....    1
 Number of Electrons    NEL             ....   34
 Basis Dimension        Dim             ....  139

ORBITAL ENERGIES
----------------

  NO   OCC          E(Eh)            E(eV)
   0   2.0000     -18.882430      -513.8170
   1   2.0000     -10.075177      -274.1595
   2   2.0000     -10.071977      -274.0724
   3   2.0000     -10.067293      -273.9450
   4   2.0000      -0.756289       -20.5797
   5   2.0000      -0.655936       -17.8489
   6   2.0000      -0.540410       -14.7053
   7   2.0000      -0.433251       -11.7894
   8   2.0000      -0.346321        -9.4239
   9   2.0000      -0.334316        -9.0972
  10   2.0000      -0.281180        -7.6513
  11   2.0000      -0.255765        -6.9597
  12   2.0000      -0.227158        -6.1813
  13   2.0000      -0.215022        -5.8510
  14   2.0000      -0.178375        -4.8538
  15   2.0000      -0.037609        -1.0234
  16   2.0000      -0.033552        -0.9130
  17   0.0000       0.194787         5.3004
  18   0.0000       0.218799         5.9538
  19   0.0000       0.237137         6.4528
  20   0.0000       0.262522         7.1436
  21   0.0000       0.283916         7.7258

MULLIKEN ATOMIC CHARGES
-----------------------
   0 C :    0.539431
   1 O :   -0.868133
   2 C :    0.811444
   3 C :   -0.359969
   4 H :   -0.170488
   5 H :   -0.247402
   6 H :   -0.128484
   7 H :   -0.163572
   8 H :   -0.144391
   9 H :   -0.189419
  10 H :   -0.079017
Sum of atomic charges:   -1.0000000

LOEWDIN ATOMIC CHARGES
----------------------
   0 C :   -0.216340
   1 O :   -0.560989
   2 C :    0.084075
   3 C :   -0.110863
   4 H :   -0.027853
   5 H :   -0.034982
   6 H :   -0.003739
   7 H :   -0.011777
   8 H :   -0.030603
   9 H :   -0.051175
  10 H :   -0.035755

  Mayer bond orders larger than 0.100000
B(  0-C ,  1-O ) :   1.1978 B(  0-C ,  3-C ) :   1.0475 B(  0-C ,  4-H ) :   0.9153
B(  0-C ,  5-H ) :   0.9285 B(  0-C ,  6-H ) :   0.1108 B(  0-C ,  7-H ) :   0.1021
B(  2-C ,  3-C ) :   1.2656 B(  2-C ,  8-H ) :   0.7804 B(  2-C ,  9-H ) :   0.7491
B(  2-C , 10-H ) :   0.7907 B(  3-C ,  4-H ) :   0.1580 B(  3-C ,  5-H ) :   0.1574
B(  3-C ,  6-H ) :   0.9203 B(  3-C ,  7-H ) :   0.9741 B(  3-C ,  8-H ) :   0.2158
B(  3-C ,  9-H ) :   0.2284 B(  3-C , 10-H ) :   0.2181

FINAL SINGLE POINT ENERGY      -193.510541891395

DIPOLE MOMENT
-------------
                                X             Y             Z
Electronic contribution:      2.03720      -1.29534      -1.41413
Nuclear contribution   :     -3.50495       2.13585       2.58010
                        -----------------------------------------
Total Dipole Moment    :     -1.46775       0.84051       1.16597
                        -----------------------------------------
Magnitude (a.u.)       :      2.05432
Magnitude (Debye)      :      5.22168

Rotational constants in cm-1:     0.478988     0.188199     0.150738
Rotational constants in MHz : 14359.706344  5642.078771  4519.011003

                             ****ORCA TERMINATED NORMALLY****
TOTAL RUN TIME: 0 days 0 hours 0 minutes 14 seconds 468 msec
