                         Program Version 5.0.0 -  RELEASE  -
|  1> !CAM-B3LYP RIJCOSX def2-SVPD def2/J TightSCF
|  2> *xyz 1 1
|  3> C         -0.70169        4.07250       -4.00392
|  4> N          0.68053        4.61482       -4.04800
|  5> H          0.69993        5.58489       -4.38827
|  6> H          1.27804        4.05598       -4.66824
|  7> H          1.08573        4.53358       -3.10652
|  8> C         -1.70347        5.09320       -3.47740
|  9> H         -0.99590        3.74039       -5.00065
| 10> H         -0.64358        3.20191       -3.35153
| 11> C         -1.31400        5.78600       -2.16927
| 12> H         -1.87706        5.85010       -4.25115
| 13> H         -2.65326        4.56448       -3.35480
| 14> H         -0.38448        6.29945       -2.30062
| 15> H         -1.21111        5.05451       -1.39516
| 16> H         -2.07413        6.48833       -1.89758
| 17> *
| 18> %MaxCore 64000
| 19>
| 20> %pal nprocs 4
| 21> end
| 22>
| 23> %scf
| 24>   MaxIter 150
| 25> end
| 26>
| 27>
| 28>                          ****END OF INPUT****

CARTESIAN COORDINATES (ANGSTROEM)
---------------------------------
  C     -0.701690    4.072500   -4.003920
  N      0.680530    4.614820   -4.048000
  H      0.699930    5.584890   -4.388270
  H      1.278040    4.055980   -4.668240
  H      1.085730    4.533580   -3.106520
  C     -1.703470    5.093200   -3.477400
  H     -0.995900    3.740390   -5.000650
  H     -0.643580    3.201910   -3.351530
  C     -1.314000    5.786000   -2.169270
  H     -1.877060    5.850100   -4.251150
  H     -2.653260    4.564480   -3.354800
  H     -0.384480    6.299450   -2.300620
  H     -1.211110    5.054510   -1.395160
  H     -2.074130    6.488330   -1.897580

 Total Charge           Charge          ....    1
 Multiplicity           Mult            ....    1
 Number of Electrons    NEL             ....   34
 Basis Dimension        Dim             ....  160

ORBITAL ENERGIES
----------------

  NO   OCC          E(Eh)            E(eV)
   0   2.0000     -14.736191      -400.9921
   1   2.0000     -10.506319      -285.8915
   2   2.0000     -10.436995      -284.0051
   3   2.0000     -10.407498      -283.2024
   4   2.0000      -1.287631       -35.0382
   5   2.0000      -1.049748       -28.5651
   6   2.0000      -0.960432       -26.1347
   7   2.0000      -0.880832       -23.9687
   8   2.0000      -0.862336       -23.4654
   9   2.0000      -0.845601       -23.0100
  10   2.0000      -0.756696       -20.5907
  11   2.0000      -0.706286       -19.2190
  12   2.0000      -0.677597       -18.4384
  13   2.0000      -0.654255       -17.8032
  14   2.0000      -0.594851       -16.1867
  15   2.0000      -0.590560       -16.0700
  16   2.0000      -0.576325       -15.6826
  17   0.0000      -0.154708        -4.2098
  18   0.0000      -0.096132        -2.6159
  19   0.0000      -0.096011        -2.6126
  20   0.0000      -0.084850        -2.3089
  21   0.0000      -0.055847        -1.5197

MULLIKEN ATOMIC CHARGES
-----------------------
   0 C :    0.695802
   1 N :   -0.615125
   2 H :    0.357713
   3 H :    0.267322
   4 H :    0.394293
   5 C :   -0.214639
   6 H :   -0.150996
   7 H :   -0.112181
   8 C :    0.949581
   9 H :   -0.101740
  10 H :   -0.104045
  11 H :   -0.144274
  12 H :   -0.074700
  13 H :   -0.147010
Sum of atomic charges:    1.0000000

LOEWDIN ATOMIC CHARGES
----------------------
   0 C :    0.082813
   1 N :    0.332683
   2 H :    0.107228
   3 H :    0.106697
   4 H :    0.103111
   5 C :   -0.045739
   6 H :    0.053855
   7 H :    0.053886
   8 C :    0.146953
   9 H :    0.036422
  10 H :    0.046470
  11 H :   -0.028192
  12 H :   -0.002344
  13 H :    0.006156

  Mayer bond orders larger than 0.100000
B(  0-C ,  1-N ) :   0.8199 B(  0-C ,  5-C ) :   1.1803 B(  0-C ,  6-H ) :   0.8931
B(  0-C ,  7-H ) :   0.8084 B(  0-C ,  9-H ) :   0.1185 B(  0-C , 10-H ) :   0.1536
B(  1-N ,  2-H ) :   0.7649 B(  1-N ,  3-H ) :   0.8702 B(  1-N ,  4-H ) :   0.7710
B(  1-N ,  7-H ) :   0.1355 B(  5-C ,  7-H ) :   0.1201 B(  5-C ,  8-C ) :   1.2873
B(  5-C ,  9-H ) :   0.9053 B(  5-C , 10-H ) :   0.9013 B(  5-C , 11-H ) :   0.1978
B(  5-C , 12-H ) :   0.2048 B(  5-C , 13-H ) :   0.2352 B(  8-C , 11-H ) :   0.7849
B(  8-C , 12-H ) :   0.7644 B(  8-C , 13-H ) :   0.7536

FINAL SINGLE POINT ENERGY      -174.625459632434

DIPOLE MOMENT
-------------
                                X             Y             Z
Electronic contribution:      1.54563      -0.91368      -1.46459
Nuclear contribution   :      0.19992       0.44181       0.60618
                        -----------------------------------------
Total Dipole Moment    :      1.74555      -0.47186      -0.85840
                        -----------------------------------------
Magnitude (a.u.)       :      2.00161
Magnitude (Debye)      :      5.08769

Rotational constants in cm-1:     0.427003     0.166237     0.135950
Rotational constants in MHz : 12801.234133  4983.663157  4075.681698

                             ****ORCA TERMINATED NORMALLY****
TOTAL RUN TIME: 0 days 0 hours 0 minutes 19 seconds 156 msec
