                         Program Version 5.0.0 -  RELEASE  -
|  1> !CAM-B3LYP RIJCOSX def2-SVPD def2/J TightSCF xyzfile
|  2>
|  3> *xyzfile 0 1 B.xyz
|  4>
|  5> %MaxCore 64000
|  6>
|  7> %pal nprocs 4
|  8> end
|  9>
| 10> %scf
| 11>   MaxIter 150
| 12> end
| 13>
| 14>
| 15>                          ****END OF INPUT****

CARTESIAN COORDINATES (ANGSTROEM)
---------------------------------
  C     -0.701686    4.072499   -4.003920
  N      0.680528    4.614820   -4.048005
  C      1.444422    5.266576   -0.975463
  O      1.565248    4.233493   -1.864885
  H      0.699926    5.584890   -4.388272
  H      1.278044    4.055977   -4.668235
  H      1.085729    4.533581   -3.106524
  C     -1.703475    5.093197   -3.477396
  H     -0.995895    3.740394   -5.000654
  H     -0.643580    3.201910   -3.351533
  C     -1.313997    5.785995   -2.169271
  H     -1.877057    5.850103   -4.251154
  H     -2.653264    4.564475   -3.354796
  H     -2.097137    6.509395   -1.929558
  H     -0.416875    6.387594   -2.339097
  C     -1.073895    4.844728   -0.979904
  H     -1.968893    4.809608   -0.352568
  C      0.148120    5.210874   -0.138092
  H     -0.909754    3.827531   -1.338975
  H      1.474250    6.264638   -1.476917
  H      2.289622    5.303267   -0.264450
  H      0.261827    4.450942    0.640711
  H     -0.002516    6.171031    0.371483

 Total Charge           Charge          ....    0
 Multiplicity           Mult            ....    1
 Number of Electrons    NEL             ....   66
 Basis Dimension        Dim             ....  283

ORBITAL ENERGIES
----------------

  NO   OCC          E(Eh)            E(eV)
   0   2.0000     -19.081607      -519.2369
   1   2.0000     -14.484424      -394.1412
   2   2.0000     -10.325222      -280.9636
   3   2.0000     -10.279894      -279.7301
   4   2.0000     -10.254551      -279.0405
   5   2.0000     -10.244121      -278.7567
   6   2.0000     -10.232772      -278.4479
   7   2.0000     -10.214746      -277.9574
   8   2.0000      -1.064614       -28.9696
   9   2.0000      -0.962345       -26.1867
  10   2.0000      -0.888257       -24.1707
  11   2.0000      -0.823215       -22.4008
  12   2.0000      -0.769875       -20.9494
  13   2.0000      -0.710547       -19.3350
  14   2.0000      -0.662347       -18.0234
  15   2.0000      -0.643773       -17.5180
  16   2.0000      -0.642153       -17.4739
  17   2.0000      -0.591404       -16.0929
  18   2.0000      -0.561640       -15.2830
  19   2.0000      -0.535812       -14.5802
  20   2.0000      -0.528167       -14.3721
  21   2.0000      -0.489124       -13.3097
  22   2.0000      -0.477849       -13.0029
  23   2.0000      -0.463246       -12.6056
  24   2.0000      -0.443914       -12.0795
  25   2.0000      -0.422695       -11.5021
  26   2.0000      -0.417080       -11.3493
  27   2.0000      -0.397341       -10.8122
  28   2.0000      -0.374804       -10.1989
  29   2.0000      -0.366787        -9.9808
  30   2.0000      -0.358435        -9.7535
  31   2.0000      -0.244719        -6.6591
  32   2.0000      -0.240207        -6.5364
  33   0.0000       0.019387         0.5275
  34   0.0000       0.051785         1.4091
  35   0.0000       0.057855         1.5743
  36   0.0000       0.074640         2.0311
  37   0.0000       0.090967         2.4753

MULLIKEN ATOMIC CHARGES
-----------------------
   0 C :    0.850486
   1 N :    0.022654
   2 C :    0.645660
   3 O :   -0.622771
   4 H :    0.325193
   5 H :    0.271713
   6 H :   -0.573914
   7 C :    0.311785
   8 H :   -0.375390
   9 H :    0.015496
  10 C :    0.289526
  11 H :   -0.066497
  12 H :   -0.209364
  13 H :   -0.323842
  14 H :   -0.101790
  15 C :    0.243734
  16 H :   -0.333031
  17 C :    0.347686
  18 H :    0.002218
  19 H :    0.103159
  20 H :   -0.525715
  21 H :   -0.061955
  22 H :   -0.235041
Sum of atomic charges:    0.0000000

LOEWDIN ATOMIC CHARGES
----------------------
   0 C :    0.081177
   1 N :    0.320803
   2 C :   -0.077699
   3 O :   -0.390867
   4 H :    0.085083
   5 H :    0.088721
   6 H :   -0.202179
   7 C :   -0.019414
   8 H :    0.027102
   9 H :    0.034685
  10 C :   -0.015288
  11 H :    0.021772
  12 H :    0.031395
  13 H :    0.021129
  14 H :   -0.006510
  15 C :   -0.023593
  16 H :    0.015104
  17 C :   -0.029490
  18 H :   -0.000059
  19 H :   -0.003614
  20 H :    0.006493
  21 H :    0.018873
  22 H :    0.016374

  Mayer bond orders larger than 0.100000
B(  0-C ,  1-N ) :   0.8249 B(  0-C ,  7-C ) :   1.1847 B(  0-C ,  8-H ) :   0.8420
B(  0-C ,  9-H ) :   0.7112 B(  0-C , 11-H ) :   0.1362 B(  0-C , 12-H ) :   0.1520
B(  1-N ,  4-H ) :   0.7814 B(  1-N ,  5-H ) :   0.8328 B(  1-N ,  6-H ) :   1.3655
B(  1-N ,  8-H ) :   0.1147 B(  1-N ,  9-H ) :   0.1649 B(  2-C ,  3-O ) :   1.0681
B(  2-C , 17-C ) :   1.1115 B(  2-C , 19-H ) :   0.7501 B(  2-C , 20-H ) :   0.9706
B(  2-C , 21-H ) :   0.1265 B(  2-C , 22-H ) :   0.1125 B(  3-O ,  6-H ) :   0.4756
B(  7-C ,  8-H ) :   0.1170 B(  7-C ,  9-H ) :   0.1365 B(  7-C , 10-C ) :   1.2142
B(  7-C , 11-H ) :   0.6956 B(  7-C , 12-H ) :   0.8591 B(  7-C , 13-H ) :   0.1374
B(  7-C , 14-H ) :   0.1089 B(  8-H ,  9-H ) :  -0.1658 B( 10-C , 11-H ) :   0.2050
B( 10-C , 12-H ) :   0.1024 B( 10-C , 13-H ) :   0.7201 B( 10-C , 14-H ) :   0.8464
B( 10-C , 15-C ) :   1.1759 B( 10-C , 16-H ) :   0.2213 B( 13-H , 15-C ) :   0.1608
B( 14-H , 15-C ) :   0.1334 B( 15-C , 16-H ) :   0.8055 B( 15-C , 17-C ) :   1.2477
B( 15-C , 18-H ) :   0.7973 B( 15-C , 21-H ) :   0.2277 B( 15-C , 22-H ) :   0.1335
B( 17-C , 18-H ) :   0.1233 B( 17-C , 19-H ) :   0.1124 B( 17-C , 20-H ) :   0.1652
B( 17-C , 21-H ) :   0.6713 B( 17-C , 22-H ) :   0.8712 B( 19-H , 20-H ) :  -0.1252

FINAL SINGLE POINT ENERGY      -367.158413951970

DIPOLE MOMENT
-------------
                                X             Y             Z
Electronic contribution:      1.97056      -1.50607      -1.29774
Nuclear contribution   :     -3.16446       1.92310      -1.11926
                        -----------------------------------------
Total Dipole Moment    :     -1.19390       0.41703      -2.41700
                        -----------------------------------------
Magnitude (a.u.)       :      2.72785
Magnitude (Debye)      :      6.93366

Rotational constants in cm-1:     0.085554     0.055600     0.038553
Rotational constants in MHz :  2564.854379  1666.836664  1155.798427

                             ****ORCA TERMINATED NORMALLY****
TOTAL RUN TIME: 0 days 0 hours 1 minutes 42 seconds 49 msec
