                         Program Version 5.0.0 -  RELEASE  -
|  1> !CAM-B3LYP RIJCOSX def2-SVPD def2/J TightSCF
|  2> *xyz 0 1
|  3> C          1.44442        5.26658       -0.97546
|  4> F          1.56525        4.23349       -1.86489
|  5> C         -1.07389        4.84473       -0.97990
|  6> C          0.14812        5.21087       -0.13809
|  7> H          1.47425        6.26464       -1.47692
|  8> H          2.28962        5.30327       -0.26445
|  9> H          0.26183        4.45094        0.64071
| 10> H         -0.00252        6.17103        0.37148
| 11> H         -1.20745        5.57445       -1.75098
| 12> H         -1.94291        4.82190       -0.35605
| 13> H         -0.92683        3.88150       -1.42201
| 14> *
| 15> %MaxCore 64000
| 16>
| 17> %pal nprocs 4
| 18> end
| 19>
| 20> %scf
| 21>   MaxIter 150
| 22> end
| 23>
| 24>
| 25>                          ****END OF INPUT****

CARTESIAN COORDINATES (ANGSTROEM)
---------------------------------
  C      1.444420    5.266580   -0.975460
  F      1.565250    4.233490   -1.864890
  C     -1.073890    4.844730   -0.979900
  C      0.148120    5.210870   -0.138090
  H      1.474250    6.264640   -1.476920
  H      2.289620    5.303270   -0.264450
  H      0.261830    4.450940    0.640710
  H     -0.002520    6.171030    0.371480
  H     -1.207450    5.574450   -1.750980
  H     -1.942910    4.821900   -0.356050
  H     -0.926830    3.881500   -1.422010

 Total Charge           Charge          ....    0
 Multiplicity           Mult            ....    1
 Number of Electrons    NEL             ....   34
 Basis Dimension        Dim             ....  139

ORBITAL ENERGIES
----------------

  NO   OCC          E(Eh)            E(eV)
   0   2.0000     -24.764227      -673.8689
   1   2.0000     -10.339049      -281.3398
   2   2.0000     -10.265899      -279.3493
   3   2.0000     -10.244962      -278.7796
   4   2.0000      -1.268257       -34.5110
   5   2.0000      -0.865621       -23.5547
   6   2.0000      -0.765611       -20.8333
   7   2.0000      -0.669145       -18.2084
   8   2.0000      -0.584098       -15.8941
   9   2.0000      -0.570470       -15.5233
  10   2.0000      -0.547954       -14.9106
  11   2.0000      -0.508059       -13.8250
  12   2.0000      -0.468555       -12.7500
  13   2.0000      -0.442679       -12.0459
  14   2.0000      -0.424272       -11.5450
  15   2.0000      -0.395356       -10.7582
  16   2.0000      -0.389799       -10.6070
  17   0.0000       0.050258         1.3676
  18   0.0000       0.075572         2.0564
  19   0.0000       0.086152         2.3443
  20   0.0000       0.103096         2.8054
  21   0.0000       0.125985         3.4282

MULLIKEN ATOMIC CHARGES
-----------------------
   0 C :    0.831409
   1 F :   -0.430708
   2 C :    0.820125
   3 C :   -0.328322
   4 H :   -0.088307
   5 H :   -0.165084
   6 H :   -0.124261
   7 H :   -0.142571
   8 H :   -0.130561
   9 H :   -0.159817
  10 H :   -0.081904
Sum of atomic charges:   -0.0000000

LOEWDIN ATOMIC CHARGES
----------------------
   0 C :    0.096420
   1 F :   -0.209356
   2 C :    0.120277
   3 C :   -0.063208
   4 H :    0.036589
   5 H :    0.027493
   6 H :    0.018933
   7 H :    0.025941
   8 H :   -0.015311
   9 H :   -0.019721
  10 H :   -0.018057

  Mayer bond orders larger than 0.100000
B(  0-C ,  1-F ) :   0.7535 B(  0-C ,  3-C ) :   1.1791 B(  0-C ,  4-H ) :   0.8693
B(  0-C ,  5-H ) :   0.8936 B(  2-C ,  3-C ) :   1.2963 B(  2-C ,  8-H ) :   0.7809
B(  2-C ,  9-H ) :   0.7780 B(  2-C , 10-H ) :   0.7907 B(  3-C ,  4-H ) :   0.1308
B(  3-C ,  5-H ) :   0.1244 B(  3-C ,  6-H ) :   0.9108 B(  3-C ,  7-H ) :   0.9430
B(  3-C ,  8-H ) :   0.1969 B(  3-C ,  9-H ) :   0.2138 B(  3-C , 10-H ) :   0.1874

FINAL SINGLE POINT ENERGY      -218.123162118337

DIPOLE MOMENT
-------------
                                X             Y             Z
Electronic contribution:      4.60268      -2.42015      -3.12489
Nuclear contribution   :     -4.76356       2.92420       3.62609
                        -----------------------------------------
Total Dipole Moment    :     -0.16088       0.50405       0.50120
                        -----------------------------------------
Magnitude (a.u.)       :      0.72880
Magnitude (Debye)      :      1.85246

Rotational constants in cm-1:     0.464485     0.177633     0.142630
Rotational constants in MHz : 13924.923489  5325.290206  4275.938589

                             ****ORCA TERMINATED NORMALLY****
TOTAL RUN TIME: 0 days 0 hours 0 minutes 13 seconds 835 msec
