                         Program Version 5.0.0 -  RELEASE  -
|  1> !CAM-B3LYP RIJCOSX def2-SVPD def2/J TightSCF
|  2> *xyz 0 1
|  3> C         -0.70169        4.07250       -4.00392
|  4> C          0.68053        4.61482       -4.04800
|  5> H          0.69993        5.58489       -4.38827
|  6> H          1.27804        4.05598       -4.66824
|  7> H          1.08573        4.53358       -3.10652
|  8> C         -1.70347        5.09320       -3.47740
|  9> H         -0.99590        3.74039       -5.00065
| 10> H         -0.64358        3.20191       -3.35153
| 11> C         -1.31400        5.78600       -2.16927
| 12> H         -1.87706        5.85010       -4.25115
| 13> H         -2.65326        4.56448       -3.35480
| 14> H         -0.38448        6.29945       -2.30062
| 15> H         -1.21111        5.05451       -1.39516
| 16> H         -2.07413        6.48833       -1.89758
| 17> *
| 18> %MaxCore 64000
| 19>
| 20> %pal nprocs 4
| 21> end
| 22>
| 23> %scf
| 24>   MaxIter 150
| 25> end
| 26>
| 27>
| 28>                          ****END OF INPUT****

CARTESIAN COORDINATES (ANGSTROEM)
---------------------------------
  C     -0.701690    4.072500   -4.003920
  C      0.680530    4.614820   -4.048000
  H      0.699930    5.584890   -4.388270
  H      1.278040    4.055980   -4.668240
  H      1.085730    4.533580   -3.106520
  C     -1.703470    5.093200   -3.477400
  H     -0.995900    3.740390   -5.000650
  H     -0.643580    3.201910   -3.351530
  C     -1.314000    5.786000   -2.169270
  H     -1.877060    5.850100   -4.251150
  H     -2.653260    4.564480   -3.354800
  H     -0.384480    6.299450   -2.300620
  H     -1.211110    5.054510   -1.395160
  H     -2.074130    6.488330   -1.897580

 Total Charge           Charge          ....    0
 Multiplicity           Mult            ....    1
 Number of Electrons    NEL             ....   34
 Basis Dimension        Dim             ....  160

ORBITAL ENERGIES
----------------

  NO   OCC          E(Eh)            E(eV)
   0   2.0000     -10.247391      -278.8457
   1   2.0000     -10.242790      -278.7205
   2   2.0000     -10.238126      -278.5936
   3   2.0000     -10.219462      -278.0857
   4   2.0000      -0.880313       -23.9545
   5   2.0000      -0.803448       -21.8629
   6   2.0000      -0.720266       -19.5994
   7   2.0000      -0.634661       -17.2700
   8   2.0000      -0.540554       -14.7092
   9   2.0000      -0.533036       -14.5046
  10   2.0000      -0.494691       -13.4612
  11   2.0000      -0.455579       -12.3969
  12   2.0000      -0.451875       -12.2961
  13   2.0000      -0.430868       -11.7245
  14   2.0000      -0.388048       -10.5593
  15   2.0000      -0.385327       -10.4853
  16   2.0000      -0.381769       -10.3885
  17   0.0000       0.054454         1.4818
  18   0.0000       0.080058         2.1785
  19   0.0000       0.081519         2.2183
  20   0.0000       0.094485         2.5711
  21   0.0000       0.125709         3.4207

MULLIKEN ATOMIC CHARGES
-----------------------
   0 C :   -0.110839
   1 C :    1.186120
   2 H :   -0.262336
   3 H :   -0.472116
   4 H :   -0.093364
   5 C :   -0.204398
   6 H :   -0.183432
   7 H :   -0.118706
   8 C :    0.870498
   9 H :   -0.061662
  10 H :   -0.185532
  11 H :   -0.093207
  12 H :   -0.104159
  13 H :   -0.166867
Sum of atomic charges:   -0.0000000

LOEWDIN ATOMIC CHARGES
----------------------
   0 C :   -0.080635
   1 C :    0.112795
   2 H :   -0.027100
   3 H :   -0.035332
   4 H :   -0.029372
   5 C :   -0.082184
   6 H :    0.021570
   7 H :    0.022804
   8 C :    0.124388
   9 H :    0.021828
  10 H :    0.014351
  11 H :   -0.027753
  12 H :   -0.015120
  13 H :   -0.020239

  Mayer bond orders larger than 0.100000
B(  0-C ,  1-C ) :   1.2538 B(  0-C ,  2-H ) :   0.2553 B(  0-C ,  3-H ) :   0.2576
B(  0-C ,  4-H ) :   0.2919 B(  0-C ,  5-C ) :   1.1876 B(  0-C ,  6-H ) :   0.8895
B(  0-C ,  7-H ) :   0.8258 B(  0-C ,  9-H ) :   0.1359 B(  0-C , 10-H ) :   0.1569
B(  1-C ,  2-H ) :   0.6630 B(  1-C ,  3-H ) :   0.6240 B(  1-C ,  4-H ) :   0.6394
B(  1-C ,  7-H ) :   0.1533 B(  5-C ,  7-H ) :   0.1391 B(  5-C ,  8-C ) :   1.2979
B(  5-C ,  9-H ) :   0.8695 B(  5-C , 10-H ) :   0.9063 B(  5-C , 11-H ) :   0.2077
B(  5-C , 12-H ) :   0.2058 B(  5-C , 13-H ) :   0.2419 B(  8-C , 11-H ) :   0.8054
B(  8-C , 12-H ) :   0.7635 B(  8-C , 13-H ) :   0.7140

FINAL SINGLE POINT ENERGY      -158.224968537522

DIPOLE MOMENT
-------------
                                X             Y             Z
Electronic contribution:     -0.62651      -0.37296      -0.43004
Nuclear contribution   :      0.63648       0.35464       0.41252
                        -----------------------------------------
Total Dipole Moment    :      0.00997      -0.01832      -0.01752
                        -----------------------------------------
Magnitude (a.u.)       :      0.02724
Magnitude (Debye)      :      0.06924

Rotational constants in cm-1:     0.435124     0.173315     0.141457
Rotational constants in MHz : 13044.691962  5195.845291  4240.763698

                             ****ORCA TERMINATED NORMALLY****
TOTAL RUN TIME: 0 days 0 hours 0 minutes 18 seconds 216 msec
