                         Program Version 5.0.0 -  RELEASE  -
|  1> !CAM-B3LYP RIJCOSX def2-TZVPD def2/J TightSCF
|  2> *xyz -1 1
|  3> C         -0.10608        1.76991       -4.08984
|  4> C         -0.25875        1.00432       -5.40983
|  5> C          0.39596       -0.37070       -5.33994
|  6> H          0.23915        1.56939       -6.20125
|  7> H         -1.30936        0.88869       -5.68245
|  8> O         -0.32633       -1.39040       -5.49128
|  9> O          1.61941       -0.40073       -5.03683
| 10> H         -0.57627        2.72718       -4.17630
| 11> H          0.93321        1.90140       -3.87192
| 12> H         -0.56868        1.21534       -3.30031
| 13> *
| 14> %MaxCore 64000
| 15>
| 16> %pal nprocs 4
| 17> end
| 18>
| 19> %scf
| 20>   MaxIter 150
| 21> end
| 22>
| 23>
| 24>                          ****END OF INPUT****

CARTESIAN COORDINATES (ANGSTROEM)
---------------------------------
  C     -0.106080    1.769910   -4.089840
  C     -0.258750    1.004320   -5.409830
  C      0.395960   -0.370700   -5.339940
  H      0.239150    1.569390   -6.201250
  H     -1.309360    0.888690   -5.682450
  O     -0.326330   -1.390400   -5.491280
  O      1.619410   -0.400730   -5.036830
  H     -0.576270    2.727180   -4.176300
  H      0.933210    1.901400   -3.871920
  H     -0.568680    1.215340   -3.300310

 Total Charge           Charge          ....   -1
 Multiplicity           Mult            ....    1
 Number of Electrons    NEL             ....   40
 Basis Dimension        Dim             ....  236

ORBITAL ENERGIES
----------------

  NO   OCC          E(Eh)            E(eV)
   0   2.0000     -18.934672      -515.2386
   1   2.0000     -18.932913      -515.1908
   2   2.0000     -10.129780      -275.6453
   3   2.0000     -10.080078      -274.2929
   4   2.0000     -10.070990      -274.0456
   5   2.0000      -0.901539       -24.5321
   6   2.0000      -0.806114       -21.9355
   7   2.0000      -0.689544       -18.7634
   8   2.0000      -0.554792       -15.0967
   9   2.0000      -0.395104       -10.7513
  10   2.0000      -0.364692        -9.9238
  11   2.0000      -0.331726        -9.0267
  12   2.0000      -0.299862        -8.1596
  13   2.0000      -0.283297        -7.7089
  14   2.0000      -0.277547        -7.5524
  15   2.0000      -0.245441        -6.6788
  16   2.0000      -0.229064        -6.2332
  17   2.0000      -0.111847        -3.0435
  18   2.0000      -0.108623        -2.9558
  19   2.0000      -0.094642        -2.5753
  20   0.0000       0.157999         4.2994
  21   0.0000       0.181781         4.9465
  22   0.0000       0.192671         5.2428
  23   0.0000       0.205214         5.5841
  24   0.0000       0.230150         6.2627

MULLIKEN ATOMIC CHARGES
-----------------------
   0 C :   -1.069991
   1 C :   -0.102232
   2 C :    0.352018
   3 H :    0.199646
   4 H :    0.207503
   5 O :   -0.719179
   6 O :   -0.725009
   7 H :    0.286375
   8 H :    0.266304
   9 H :    0.304564
Sum of atomic charges:   -1.0000000

LOEWDIN ATOMIC CHARGES
----------------------
   0 C :   -0.130308
   1 C :   -0.212813
   2 C :   -0.775432
   3 H :    0.094310
   4 H :    0.089068
   5 O :   -0.113453
   6 O :   -0.112874
   7 H :    0.043091
   8 H :    0.055666
   9 H :    0.062745

  Mayer bond orders larger than 0.100000
B(  0-C ,  1-C ) :   0.5390 B(  0-C ,  7-H ) :   0.9393 B(  0-C ,  8-H ) :   1.0285
B(  0-C ,  9-H ) :   0.9543 B(  1-C ,  2-C ) :   0.9012 B(  1-C ,  3-H ) :   0.9707
B(  1-C ,  4-H ) :   1.0199 B(  2-C ,  5-O ) :   1.4767 B(  2-C ,  6-O ) :   1.4738

FINAL SINGLE POINT ENERGY      -267.836235366516

DIPOLE MOMENT
-------------
                                X             Y             Z
Electronic contribution:      1.72278      -5.26015      -1.70208
Nuclear contribution   :     -2.46071       7.20791       1.95694
                        -----------------------------------------
Total Dipole Moment    :     -0.73794       1.94777       0.25485
                        -----------------------------------------
Magnitude (a.u.)       :      2.09840
Magnitude (Debye)      :      5.33372

Rotational constants in cm-1:     0.309435     0.135317     0.107436
Rotational constants in MHz :  9276.637721  4056.700783  3220.846587

                             ****ORCA TERMINATED NORMALLY****
TOTAL RUN TIME: 0 days 0 hours 0 minutes 43 seconds 449 msec
