                         Program Version 5.0.0 -  RELEASE  -
|  1> !CAM-B3LYP RIJCOSX def2-TZVPD def2/J TightSCF
|  2> *xyz 1 1
|  3> C          0.81607       -2.10149       -2.18655
|  4> H          1.69623       -2.36869       -1.60046
|  5> N          1.10055       -2.46749       -3.59927
|  6> C          0.51624       -0.61363       -2.03937
|  7> H         -0.02007       -2.71285       -1.84084
|  8> H          1.70061       -1.75723       -4.07838
|  9> H          0.29386       -2.35977       -4.25632
| 10> H          1.50132       -3.42848       -3.69491
| 11> H         -0.34841       -0.36504       -2.61858
| 12> H          1.35358       -0.04503       -2.38643
| 13> H          0.33317       -0.38682       -1.00984
| 14> *
| 15> %MaxCore 64000
| 16>
| 17> %pal nprocs 4
| 18> end
| 19>
| 20> %scf
| 21>   MaxIter 150
| 22> end
| 23>
| 24>
| 25>                          ****END OF INPUT****

CARTESIAN COORDINATES (ANGSTROEM)
---------------------------------
  C      0.816070   -2.101490   -2.186550
  H      1.696230   -2.368690   -1.600460
  N      1.100550   -2.467490   -3.599270
  C      0.516240   -0.613630   -2.039370
  H     -0.020070   -2.712850   -1.840840
  H      1.700610   -1.757230   -4.078380
  H      0.293860   -2.359770   -4.256320
  H      1.501320   -3.428480   -3.694910
  H     -0.348410   -0.365040   -2.618580
  H      1.353580   -0.045030   -2.386430
  H      0.333170   -0.386820   -1.009840

 Total Charge           Charge          ....    1
 Multiplicity           Mult            ....    1
 Number of Electrons    NEL             ....   26
 Basis Dimension        Dim             ....  183

ORBITAL ENERGIES
----------------

  NO   OCC          E(Eh)            E(eV)
   0   2.0000     -14.727257      -400.7490
   1   2.0000     -10.498234      -285.6715
   2   2.0000     -10.417853      -283.4842
   3   2.0000      -1.293213       -35.1901
   4   2.0000      -1.047869       -28.5140
   5   2.0000      -0.928331       -25.2612
   6   2.0000      -0.861372       -23.4391
   7   2.0000      -0.844117       -22.9696
   8   2.0000      -0.771825       -21.0024
   9   2.0000      -0.707668       -19.2566
  10   2.0000      -0.650553       -17.7024
  11   2.0000      -0.635803       -17.3011
  12   2.0000      -0.617574       -16.8050
  13   0.0000      -0.168610        -4.5881
  14   0.0000      -0.111068        -3.0223
  15   0.0000      -0.105917        -2.8821
  16   0.0000      -0.102018        -2.7761
  17   0.0000      -0.064987        -1.7684

MULLIKEN ATOMIC CHARGES
-----------------------
   0 C :   -0.284175
   1 H :    0.322687
   2 N :   -0.366911
   3 C :   -1.179312
   4 H :    0.328479
   5 H :    0.347295
   6 H :    0.359062
   7 H :    0.359321
   8 H :    0.379011
   9 H :    0.397006
  10 H :    0.337537
Sum of atomic charges:    1.0000000

LOEWDIN ATOMIC CHARGES
----------------------
   0 C :   -0.205110
   1 H :    0.135864
   2 N :    0.159966
   3 C :   -0.057869
   4 H :    0.137447
   5 H :    0.186553
   6 H :    0.190590
   7 H :    0.193836
   8 H :    0.082935
   9 H :    0.082574
  10 H :    0.093214

  Mayer bond orders larger than 0.100000
B(  0-C ,  1-H ) :   0.9263 B(  0-C ,  2-N ) :   0.8630 B(  0-C ,  3-C ) :   0.5546
B(  0-C ,  4-H ) :   0.9332 B(  2-N ,  5-H ) :   0.8684 B(  2-N ,  6-H ) :   0.8627
B(  2-N ,  7-H ) :   0.8627 B(  3-C ,  8-H ) :   0.9124 B(  3-C ,  9-H ) :   0.8911
B(  3-C , 10-H ) :   0.9721

FINAL SINGLE POINT ENERGY      -135.503547936443

DIPOLE MOMENT
-------------
                                X             Y             Z
Electronic contribution:      0.41740      -1.42987      -1.06646
Nuclear contribution   :     -0.07506       0.54337      -0.16191
                        -----------------------------------------
Total Dipole Moment    :      0.34234      -0.88650      -1.22837
                        -----------------------------------------
Magnitude (a.u.)       :      1.55305
Magnitude (Debye)      :      3.94755

Rotational constants in cm-1:     0.999557     0.280801     0.246932
Rotational constants in MHz : 29965.963633  8418.199581  7402.841054

                             ****ORCA TERMINATED NORMALLY****
TOTAL RUN TIME: 0 days 0 hours 0 minutes 26 seconds 139 msec
