                         Program Version 5.0.0 -  RELEASE  -
|  1> !CAM-B3LYP RIJCOSX def2-TZVPD def2/J TightSCF xyzfile
|  2>
|  3> *xyzfile 0 1 B.xyz
|  4>
|  5> %MaxCore 64000
|  6>
|  7> %pal nprocs 4
|  8> end
|  9>
| 10> %scf
| 11>   MaxIter 150
| 12> end
| 13>
| 14>
| 15>                          ****END OF INPUT****

CARTESIAN COORDINATES (ANGSTROEM)
---------------------------------
  C      0.816067   -2.101491   -2.186546
  H      1.696232   -2.368691   -1.600457
  N      1.100552   -2.467492   -3.599269
  C      0.516243   -0.613634   -2.039373
  H     -0.020066   -2.712849   -1.840844
  C     -0.868621   -0.193925   -2.546303
  C     -0.984801    1.284739   -2.928686
  H     -0.764939    1.904116   -2.051568
  H     -2.032613    1.478953   -3.178952
  C     -0.106085    1.769914   -4.089836
  H     -0.347744    2.822196   -4.262942
  H      0.949683    1.745875   -3.808781
  C     -0.258747    1.004323   -5.409829
  C      0.395958   -0.370696   -5.339939
  H      0.239150    1.569393   -6.201253
  H     -1.309360    0.888694   -5.682455
  H      1.700606   -1.757225   -4.078378
  H      0.293855   -2.359766   -4.256324
  H      1.501324   -3.428479   -3.694915
  O     -0.326329   -1.390398   -5.491279
  O      1.619412   -0.400726   -5.036827
  H     -1.607271   -0.412651   -1.768955
  H     -1.157234   -0.796164   -3.409254
  H      1.299044   -0.056805   -2.558982
  H      0.612393   -0.365579   -0.979171

 Total Charge           Charge          ....    0
 Multiplicity           Mult            ....    1
 Number of Electrons    NEL             ....   80
 Basis Dimension        Dim             ....  511

ORBITAL ENERGIES
----------------

  NO   OCC          E(Eh)            E(eV)
   0   2.0000     -19.133777      -520.6565
   1   2.0000     -19.132560      -520.6234
   2   2.0000     -14.475664      -393.9028
   3   2.0000     -10.321776      -280.8698
   4   2.0000     -10.317156      -280.7441
   5   2.0000     -10.257527      -279.1215
   6   2.0000     -10.239361      -278.6272
   7   2.0000     -10.235249      -278.5153
   8   2.0000     -10.228477      -278.3310
   9   2.0000     -10.220150      -278.1044
  10   2.0000      -1.113843       -30.3092
  11   2.0000      -1.061449       -28.8835
  12   2.0000      -1.011921       -27.5358
  13   2.0000      -0.899307       -24.4714
  14   2.0000      -0.855408       -23.2768
  15   2.0000      -0.807150       -21.9637
  16   2.0000      -0.741345       -20.1730
  17   2.0000      -0.706302       -19.2194
  18   2.0000      -0.650638       -17.7048
  19   2.0000      -0.640266       -17.4225
  20   2.0000      -0.615198       -16.7404
  21   2.0000      -0.588049       -16.0016
  22   2.0000      -0.554337       -15.0843
  23   2.0000      -0.541260       -14.7284
  24   2.0000      -0.527010       -14.3407
  25   2.0000      -0.515705       -14.0330
  26   2.0000      -0.494796       -13.4641
  27   2.0000      -0.488293       -13.2871
  28   2.0000      -0.469271       -12.7695
  29   2.0000      -0.458346       -12.4722
  30   2.0000      -0.454120       -12.3572
  31   2.0000      -0.439423       -11.9573
  32   2.0000      -0.418900       -11.3989
  33   2.0000      -0.414485       -11.2787
  34   2.0000      -0.389536       -10.5998
  35   2.0000      -0.375748       -10.2246
  36   2.0000      -0.371536       -10.1100
  37   2.0000      -0.315180        -8.5765
  38   2.0000      -0.303848        -8.2681
  39   2.0000      -0.297019        -8.0823
  40   0.0000       0.007935         0.2159
  41   0.0000       0.036557         0.9948
  42   0.0000       0.045560         1.2397
  43   0.0000       0.045950         1.2504
  44   0.0000       0.064419         1.7529

MULLIKEN ATOMIC CHARGES
-----------------------
   0 C :   -0.762365
   1 H :    0.341608
   2 N :   -0.274369
   3 C :   -0.372815
   4 H :    0.321985
   5 C :   -0.662201
   6 C :   -0.625786
   7 H :    0.253644
   8 H :    0.307801
   9 C :   -0.598697
  10 H :    0.276162
  11 H :    0.247696
  12 C :   -0.369820
  13 C :    0.610681
  14 H :    0.313629
  15 H :    0.233542
  16 H :    0.320001
  17 H :    0.307237
  18 H :    0.315219
  19 O :   -0.800460
  20 O :   -0.809075
  21 H :    0.321304
  22 H :    0.434056
  23 H :    0.273187
  24 H :    0.397836
Sum of atomic charges:   -0.0000000

LOEWDIN ATOMIC CHARGES
----------------------
   0 C :   -0.166305
   1 H :    0.120779
   2 N :    0.130170
   3 C :   -0.185348
   4 H :    0.126936
   5 C :   -0.201572
   6 C :   -0.200391
   7 H :    0.110638
   8 H :    0.111941
   9 C :   -0.205174
  10 H :    0.107737
  11 H :    0.103443
  12 C :   -0.112605
  13 C :   -0.665717
  14 H :    0.118347
  15 H :    0.116648
  16 H :    0.095787
  17 H :    0.095516
  18 H :    0.176250
  19 O :   -0.062768
  20 O :   -0.054455
  21 H :    0.114127
  22 H :    0.098882
  23 H :    0.107795
  24 H :    0.119340

  Mayer bond orders larger than 0.100000
B(  0-C ,  1-H ) :   0.9278 B(  0-C ,  2-N ) :   0.9186 B(  0-C ,  3-C ) :   0.7715
B(  0-C ,  4-H ) :   0.9312 B(  0-C ,  5-C ) :   0.1477 B(  2-N , 16-H ) :   0.7683
B(  2-N , 17-H ) :   0.7810 B(  2-N , 18-H ) :   0.8669 B(  3-C ,  5-C ) :   0.3972
B(  3-C ,  6-C ) :   0.1214 B(  3-C , 23-H ) :   1.0108 B(  3-C , 24-H ) :   0.8775
B(  5-C ,  6-C ) :   0.8297 B(  5-C , 21-H ) :   0.9725 B(  5-C , 22-H ) :   0.9241
B(  6-C ,  7-H ) :   1.0040 B(  6-C ,  8-H ) :   0.9665 B(  6-C ,  9-C ) :   0.7555
B(  9-C , 10-H ) :   0.9805 B(  9-C , 11-H ) :   0.9749 B(  9-C , 12-C ) :   0.7831
B( 12-C , 13-C ) :   0.9001 B( 12-C , 14-H ) :   0.8871 B( 12-C , 15-H ) :   1.0682
B( 13-C , 19-O ) :   1.2337 B( 13-C , 20-O ) :   1.2263 B( 16-H , 20-O ) :   0.2001
B( 17-H , 19-O ) :   0.2025 B( 19-O , 20-O ) :   0.1108

FINAL SINGLE POINT ENERGY      -480.948589946788

DIPOLE MOMENT
-------------
                                X             Y             Z
Electronic contribution:      2.28602      -3.08282      -6.24135
Nuclear contribution   :     -2.02598       1.95876       8.24116
                        -----------------------------------------
Total Dipole Moment    :      0.26004      -1.12406       1.99981
                        -----------------------------------------
Magnitude (a.u.)       :      2.30876
Magnitude (Debye)      :      5.86839

Rotational constants in cm-1:     0.052900     0.041948     0.028766
Rotational constants in MHz :  1585.892512  1257.572595   862.390225

                             ****ORCA TERMINATED NORMALLY****
TOTAL RUN TIME: 0 days 0 hours 4 minutes 55 seconds 121 msec
