                         Program Version 5.0.0 -  RELEASE  -
|  1> !CAM-B3LYP RIJCOSX def2-TZVPD def2/J TightSCF
|  2> *xyz 0 1
|  3> C         -0.10608        1.76991       -4.08984
|  4> C         -0.25875        1.00432       -5.40983
|  5> C          0.39596       -0.37070       -5.33994
|  6> H          0.23915        1.56939       -6.20125
|  7> H         -1.30936        0.88869       -5.68245
|  8> F         -0.32633       -1.39040       -5.49128
|  9> O          1.61941       -0.40073       -5.03683
| 10> H         -0.57627        2.72718       -4.17630
| 11> H          0.93321        1.90140       -3.87192
| 12> H         -0.56868        1.21534       -3.30031
| 13> *
| 14> %MaxCore 64000
| 15>
| 16> %pal nprocs 4
| 17> end
| 18>
| 19> %scf
| 20>   MaxIter 150
| 21> end
| 22>
| 23>
| 24>                          ****END OF INPUT****

CARTESIAN COORDINATES (ANGSTROEM)
---------------------------------
  C     -0.106080    1.769910   -4.089840
  C     -0.258750    1.004320   -5.409830
  C      0.395960   -0.370700   -5.339940
  H      0.239150    1.569390   -6.201250
  H     -1.309360    0.888690   -5.682450
  F     -0.326330   -1.390400   -5.491280
  O      1.619410   -0.400730   -5.036830
  H     -0.576270    2.727180   -4.176300
  H      0.933210    1.901400   -3.871920
  H     -0.568680    1.215340   -3.300310

 Total Charge           Charge          ....    0
 Multiplicity           Mult            ....    1
 Number of Electrons    NEL             ....   40
 Basis Dimension        Dim             ....  236

ORBITAL ENERGIES
----------------

  NO   OCC          E(Eh)            E(eV)
   0   2.0000     -24.829075      -675.6335
   1   2.0000     -19.206724      -522.6415
   2   2.0000     -10.428622      -283.7772
   3   2.0000     -10.278663      -279.6966
   4   2.0000     -10.248890      -278.8865
   5   2.0000      -1.402392       -38.1610
   6   2.0000      -1.114935       -30.3389
   7   2.0000      -0.886464       -24.1219
   8   2.0000      -0.770986       -20.9796
   9   2.0000      -0.717870       -19.5342
  10   2.0000      -0.625814       -17.0293
  11   2.0000      -0.611531       -16.6406
  12   2.0000      -0.584435       -15.9033
  13   2.0000      -0.538735       -14.6597
  14   2.0000      -0.506616       -13.7857
  15   2.0000      -0.469083       -12.7644
  16   2.0000      -0.448099       -12.1934
  17   2.0000      -0.443519       -12.0688
  18   2.0000      -0.413116       -11.2415
  19   2.0000      -0.363515        -9.8917
  20   0.0000       0.012500         0.3401
  21   0.0000       0.029012         0.7895
  22   0.0000       0.053005         1.4423
  23   0.0000       0.061656         1.6778
  24   0.0000       0.071792         1.9536

MULLIKEN ATOMIC CHARGES
-----------------------
   0 C :   -1.104363
   1 C :   -0.178556
   2 C :    0.499681
   3 H :    0.245857
   4 H :    0.269663
   5 F :   -0.204201
   6 O :   -0.487593
   7 H :    0.309398
   8 H :    0.310065
   9 H :    0.340049
Sum of atomic charges:    0.0000000

LOEWDIN ATOMIC CHARGES
----------------------
   0 C :   -0.087610
   1 C :   -0.157994
   2 C :   -0.483107
   3 H :    0.121869
   4 H :    0.110248
   5 F :    0.204876
   6 O :    0.073023
   7 H :    0.069892
   8 H :    0.073200
   9 H :    0.075602

  Mayer bond orders larger than 0.100000
B(  0-C ,  1-C ) :   0.5999 B(  0-C ,  7-H ) :   0.9465 B(  0-C ,  8-H ) :   1.0016
B(  0-C ,  9-H ) :   0.9167 B(  1-C ,  2-C ) :   0.8973 B(  1-C ,  3-H ) :   0.9626
B(  1-C ,  4-H ) :   0.9590 B(  2-C ,  5-F ) :   1.0281 B(  2-C ,  6-O ) :   1.7630

FINAL SINGLE POINT ENERGY      -292.403289143653

DIPOLE MOMENT
-------------
                                X             Y             Z
Electronic contribution:      0.82772      -8.15433      -2.57242
Nuclear contribution   :     -1.80992       8.85192       2.42184
                        -----------------------------------------
Total Dipole Moment    :     -0.98220       0.69759      -0.15058
                        -----------------------------------------
Magnitude (a.u.)       :      1.21409
Magnitude (Debye)      :      3.08598

Rotational constants in cm-1:     0.298360     0.128849     0.102271
Rotational constants in MHz :  8944.606599  3862.796179  3066.020510

                             ****ORCA TERMINATED NORMALLY****
TOTAL RUN TIME: 0 days 0 hours 0 minutes 44 seconds 274 msec
