                         Program Version 5.0.0 -  RELEASE  -
|  1> !CAM-B3LYP RIJCOSX def2-TZVPD def2/J TightSCF
|  2> *xyz 0 1
|  3> C          0.81607       -2.10149       -2.18655
|  4> H          1.69623       -2.36869       -1.60046
|  5> C          1.10055       -2.46749       -3.59927
|  6> C          0.51624       -0.61363       -2.03937
|  7> H         -0.02007       -2.71285       -1.84084
|  8> H          1.70061       -1.75723       -4.07838
|  9> H          0.29386       -2.35977       -4.25632
| 10> H          1.50132       -3.42848       -3.69491
| 11> H         -0.34841       -0.36504       -2.61858
| 12> H          1.35358       -0.04503       -2.38643
| 13> H          0.33317       -0.38682       -1.00984
| 14> *
| 15> %MaxCore 64000
| 16>
| 17> %pal nprocs 4
| 18> end
| 19>
| 20> %scf
| 21>   MaxIter 150
| 22> end
| 23>
| 24>
| 25>                          ****END OF INPUT****

CARTESIAN COORDINATES (ANGSTROEM)
---------------------------------
  C      0.816070   -2.101490   -2.186550
  H      1.696230   -2.368690   -1.600460
  C      1.100550   -2.467490   -3.599270
  C      0.516240   -0.613630   -2.039370
  H     -0.020070   -2.712850   -1.840840
  H      1.700610   -1.757230   -4.078380
  H      0.293860   -2.359770   -4.256320
  H      1.501320   -3.428480   -3.694910
  H     -0.348410   -0.365040   -2.618580
  H      1.353580   -0.045030   -2.386430
  H      0.333170   -0.386820   -1.009840

 Total Charge           Charge          ....    0
 Multiplicity           Mult            ....    1
 Number of Electrons    NEL             ....   26
 Basis Dimension        Dim             ....  183

ORBITAL ENERGIES
----------------

  NO   OCC          E(Eh)            E(eV)
   0   2.0000     -10.230696      -278.3914
   1   2.0000     -10.220324      -278.1091
   2   2.0000     -10.207357      -277.7563
   3   2.0000      -0.873219       -23.7615
   4   2.0000      -0.768841       -20.9212
   5   2.0000      -0.666799       -18.1445
   6   2.0000      -0.531732       -14.4692
   7   2.0000      -0.516440       -14.0530
   8   2.0000      -0.480635       -13.0787
   9   2.0000      -0.443198       -12.0600
  10   2.0000      -0.406756       -11.0684
  11   2.0000      -0.401473       -10.9246
  12   2.0000      -0.385327       -10.4853
  13   0.0000       0.040020         1.0890
  14   0.0000       0.061147         1.6639
  15   0.0000       0.062867         1.7107
  16   0.0000       0.090470         2.4618
  17   0.0000       0.111036         3.0214

MULLIKEN ATOMIC CHARGES
-----------------------
   0 C :   -0.027504
   1 H :    0.252224
   2 C :   -1.305219
   3 C :   -1.133219
   4 H :    0.240876
   5 H :    0.362419
   6 H :    0.376695
   7 H :    0.304571
   8 H :    0.315002
   9 H :    0.321657
  10 H :    0.292499
Sum of atomic charges:   -0.0000000

LOEWDIN ATOMIC CHARGES
----------------------
   0 C :   -0.320153
   1 H :    0.103034
   2 C :   -0.142539
   3 C :   -0.118817
   4 H :    0.104220
   5 H :    0.058318
   6 H :    0.060353
   7 H :    0.060203
   8 H :    0.067509
   9 H :    0.066491
  10 H :    0.061381

  Mayer bond orders larger than 0.100000
B(  0-C ,  1-H ) :   0.9817 B(  0-C ,  2-C ) :   0.5525 B(  0-C ,  3-C ) :   0.5806
B(  0-C ,  4-H ) :   0.9774 B(  2-C ,  5-H ) :   0.9365 B(  2-C ,  6-H ) :   0.9400
B(  2-C ,  7-H ) :   0.9777 B(  3-C ,  8-H ) :   0.9683 B(  3-C ,  9-H ) :   0.9676
B(  3-C , 10-H ) :   0.9911

FINAL SINGLE POINT ENERGY      -119.096657695297

DIPOLE MOMENT
-------------
                                X             Y             Z
Electronic contribution:     -0.01868      -0.30799       0.46406
Nuclear contribution   :      0.01737       0.30387      -0.47422
                        -----------------------------------------
Total Dipole Moment    :     -0.00131      -0.00412      -0.01016
                        -----------------------------------------
Magnitude (a.u.)       :      0.01104
Magnitude (Debye)      :      0.02805

Rotational constants in cm-1:     1.006891     0.295208     0.258491
Rotational constants in MHz : 30185.831813  8850.104914  7749.351732

                             ****ORCA TERMINATED NORMALLY****
TOTAL RUN TIME: 0 days 0 hours 0 minutes 24 seconds 725 msec
