                         Program Version 5.0.0 -  RELEASE  -
|  1> !CAM-B3LYP RIJCOSX def2-TZVPD def2/J TightSCF
|  2> *xyz 0 1
|  3> C         -0.10608        1.76991       -4.08984
|  4> C         -0.25875        1.00432       -5.40983
|  5> C          0.39596       -0.37070       -5.33994
|  6> H          0.23915        1.56939       -6.20125
|  7> H         -1.30936        0.88869       -5.68245
|  8> O         -0.32633       -1.39040       -5.49128
|  9> F          1.61941       -0.40073       -5.03683
| 10> H         -0.57627        2.72718       -4.17630
| 11> H          0.93321        1.90140       -3.87192
| 12> H         -0.56868        1.21534       -3.30031
| 13> *
| 14> %MaxCore 64000
| 15>
| 16> %pal nprocs 4
| 17> end
| 18>
| 19> %scf
| 20>   MaxIter 150
| 21> end
| 22>
| 23>
| 24>                          ****END OF INPUT****

CARTESIAN COORDINATES (ANGSTROEM)
---------------------------------
  C     -0.106080    1.769910   -4.089840
  C     -0.258750    1.004320   -5.409830
  C      0.395960   -0.370700   -5.339940
  H      0.239150    1.569390   -6.201250
  H     -1.309360    0.888690   -5.682450
  O     -0.326330   -1.390400   -5.491280
  F      1.619410   -0.400730   -5.036830
  H     -0.576270    2.727180   -4.176300
  H      0.933210    1.901400   -3.871920
  H     -0.568680    1.215340   -3.300310

 Total Charge           Charge          ....    0
 Multiplicity           Mult            ....    1
 Number of Electrons    NEL             ....   40
 Basis Dimension        Dim             ....  236

ORBITAL ENERGIES
----------------

  NO   OCC          E(Eh)            E(eV)
   0   2.0000     -24.827653      -675.5948
   1   2.0000     -19.207735      -522.6690
   2   2.0000     -10.427854      -283.7563
   3   2.0000     -10.278469      -279.6914
   4   2.0000     -10.253999      -279.0255
   5   2.0000      -1.400976       -38.1225
   6   2.0000      -1.115045       -30.3419
   7   2.0000      -0.891136       -24.2490
   8   2.0000      -0.768221       -20.9043
   9   2.0000      -0.721557       -19.6346
  10   2.0000      -0.627202       -17.0670
  11   2.0000      -0.615384       -16.7455
  12   2.0000      -0.576996       -15.7009
  13   2.0000      -0.539323       -14.6757
  14   2.0000      -0.507516       -13.8102
  15   2.0000      -0.472733       -12.8637
  16   2.0000      -0.454359       -12.3637
  17   2.0000      -0.447146       -12.1675
  18   2.0000      -0.418242       -11.3809
  19   2.0000      -0.360215        -9.8020
  20   0.0000       0.015410         0.4193
  21   0.0000       0.028676         0.7803
  22   0.0000       0.052182         1.4199
  23   0.0000       0.060876         1.6565
  24   0.0000       0.072112         1.9623

MULLIKEN ATOMIC CHARGES
-----------------------
   0 C :   -1.126540
   1 C :   -0.152920
   2 C :    0.503344
   3 H :    0.268599
   4 H :    0.234622
   5 O :   -0.486201
   6 F :   -0.212762
   7 H :    0.303161
   8 H :    0.318794
   9 H :    0.349903
Sum of atomic charges:   -0.0000000

LOEWDIN ATOMIC CHARGES
----------------------
   0 C :   -0.089762
   1 C :   -0.153828
   2 C :   -0.489577
   3 H :    0.118413
   4 H :    0.119300
   5 O :    0.075901
   6 F :    0.201928
   7 H :    0.070505
   8 H :    0.069881
   9 H :    0.077238

  Mayer bond orders larger than 0.100000
B(  0-C ,  1-C ) :   0.5448 B(  0-C ,  7-H ) :   0.9617 B(  0-C ,  8-H ) :   0.9650
B(  0-C ,  9-H ) :   0.9387 B(  1-C ,  2-C ) :   0.8986 B(  1-C ,  3-H ) :   0.9469
B(  1-C ,  4-H ) :   0.9993 B(  2-C ,  5-O ) :   1.7608 B(  2-C ,  6-F ) :   1.0116

FINAL SINGLE POINT ENERGY      -292.404789254584

DIPOLE MOMENT
-------------
                                X             Y             Z
Electronic contribution:      4.06828      -6.47351      -1.80818
Nuclear contribution   :     -3.93139       7.77287       1.92635
                        -----------------------------------------
Total Dipole Moment    :      0.13689       1.29936       0.11817
                        -----------------------------------------
Magnitude (a.u.)       :      1.31189
Magnitude (Debye)      :      3.33455

Rotational constants in cm-1:     0.286068     0.133630     0.103472
Rotational constants in MHz :  8576.109806  4006.118234  3102.010802

                             ****ORCA TERMINATED NORMALLY****
TOTAL RUN TIME: 0 days 0 hours 0 minutes 43 seconds 781 msec
