                         Program Version 5.0.0 -  RELEASE  -
|  1> !CAM-B3LYP RIJCOSX def2-TZVPD def2/J TightSCF xyzfile
|  2>
|  3> *xyzfile 0 1 D1.xyz
|  4>
|  5> %MaxCore 64000
|  6>
|  7> %pal nprocs 4
|  8> end
|  9>
| 10> %scf
| 11>   MaxIter 150
| 12> end
| 13>
| 14>
| 15>                          ****END OF INPUT****

CARTESIAN COORDINATES (ANGSTROEM)
---------------------------------
  C      0.816067   -2.101491   -2.186546
  H      1.696232   -2.368691   -1.600457
  C      1.100552   -2.467492   -3.599269
  C      0.516243   -0.613634   -2.039373
  H     -0.020066   -2.712849   -1.840844
  C     -0.868621   -0.193925   -2.546303
  C     -0.984801    1.284739   -2.928686
  H     -0.764939    1.904116   -2.051568
  H     -2.032613    1.478953   -3.178952
  C     -0.106085    1.769914   -4.089836
  H     -0.347744    2.822196   -4.262942
  H      0.949683    1.745875   -3.808781
  C     -0.258747    1.004323   -5.409829
  C      0.395958   -0.370696   -5.339939
  H      0.239150    1.569393   -6.201253
  H     -1.309360    0.888694   -5.682455
  H      1.700606   -1.757225   -4.078378
  H      0.293855   -2.359766   -4.256324
  H      1.501324   -3.428479   -3.694915
  F     -0.326329   -1.390398   -5.491279
  O      1.619412   -0.400726   -5.036827
  H     -1.607271   -0.412651   -1.768955
  H     -1.157234   -0.796164   -3.409254
  H      1.299044   -0.056805   -2.558982
  H      0.612393   -0.365579   -0.979171

 Total Charge           Charge          ....    0
 Multiplicity           Mult            ....    1
 Number of Electrons    NEL             ....   80
 Basis Dimension        Dim             ....  511

ORBITAL ENERGIES
----------------

  NO   OCC          E(Eh)            E(eV)
   0   2.0000     -24.835911      -675.8195
   1   2.0000     -19.212177      -522.7899
   2   2.0000     -10.436098      -283.9807
   3   2.0000     -10.279257      -279.7128
   4   2.0000     -10.257953      -279.1331
   5   2.0000     -10.246105      -278.8107
   6   2.0000     -10.238338      -278.5994
   7   2.0000     -10.224448      -278.2214
   8   2.0000     -10.214948      -277.9629
   9   2.0000     -10.165142      -276.6076
  10   2.0000      -1.415566       -38.5195
  11   2.0000      -1.129524       -30.7359
  12   2.0000      -0.910821       -24.7847
  13   2.0000      -0.877412       -23.8756
  14   2.0000      -0.828034       -22.5319
  15   2.0000      -0.788538       -21.4572
  16   2.0000      -0.745185       -20.2775
  17   2.0000      -0.717704       -19.5297
  18   2.0000      -0.678197       -18.4547
  19   2.0000      -0.637010       -17.3339
  20   2.0000      -0.632465       -17.2103
  21   2.0000      -0.618050       -16.8180
  22   2.0000      -0.601010       -16.3543
  23   2.0000      -0.550666       -14.9844
  24   2.0000      -0.530242       -14.4286
  25   2.0000      -0.514182       -13.9916
  26   2.0000      -0.508826       -13.8459
  27   2.0000      -0.495260       -13.4767
  28   2.0000      -0.481580       -13.1045
  29   2.0000      -0.468747       -12.7553
  30   2.0000      -0.450688       -12.2638
  31   2.0000      -0.434794       -11.8314
  32   2.0000      -0.429793       -11.6953
  33   2.0000      -0.416526       -11.3343
  34   2.0000      -0.402487       -10.9522
  35   2.0000      -0.391247       -10.6464
  36   2.0000      -0.382198       -10.4001
  37   2.0000      -0.370498       -10.0818
  38   2.0000      -0.361439        -9.8352
  39   2.0000      -0.329632        -8.9697
  40   0.0000       0.003712         0.1010
  41   0.0000       0.028068         0.7638
  42   0.0000       0.044851         1.2205
  43   0.0000       0.047730         1.2988
  44   0.0000       0.051045         1.3890

MULLIKEN ATOMIC CHARGES
-----------------------
   0 C :   -0.254721
   1 H :    0.271566
   2 C :   -1.780902
   3 C :   -0.452958
   4 H :    0.236545
   5 C :   -0.610204
   6 C :   -0.618947
   7 H :    0.263223
   8 H :    0.298096
   9 C :   -0.587820
  10 H :    0.284862
  11 H :    0.287301
  12 C :   -0.388479
  13 C :    0.520476
  14 H :    0.320467
  15 H :    0.271853
  16 H :    0.618038
  17 H :    0.530741
  18 H :    0.380547
  19 F :   -0.273557
  20 O :   -0.550117
  21 H :    0.339966
  22 H :    0.310145
  23 H :    0.229073
  24 H :    0.354806
Sum of atomic charges:    0.0000000

LOEWDIN ATOMIC CHARGES
----------------------
   0 C :   -0.242245
   1 H :    0.107953
   2 C :   -0.127467
   3 C :   -0.207914
   4 H :    0.110340
   5 C :   -0.200673
   6 C :   -0.201849
   7 H :    0.115232
   8 H :    0.110080
   9 C :   -0.195416
  10 H :    0.113454
  11 H :    0.109550
  12 C :   -0.088001
  13 C :   -0.456607
  14 H :    0.128086
  15 H :    0.122048
  16 H :    0.023170
  17 H :    0.037222
  18 H :    0.073631
  19 F :    0.175068
  20 O :    0.062593
  21 H :    0.117400
  22 H :    0.099653
  23 H :    0.102832
  24 H :    0.111859

  Mayer bond orders larger than 0.100000
B(  0-C ,  1-H ) :   0.9639 B(  0-C ,  2-C ) :   0.3281 B(  0-C ,  3-C ) :   0.8595
B(  0-C ,  4-H ) :   0.9781 B(  0-C ,  5-C ) :   0.2009 B(  2-C , 13-C ) :   0.1001
B(  2-C , 16-H ) :   0.7396 B(  2-C , 17-H ) :   0.7904 B(  2-C , 18-H ) :   0.9038
B(  3-C ,  5-C ) :   0.4418 B(  3-C ,  6-C ) :   0.1087 B(  3-C , 23-H ) :   1.0585
B(  3-C , 24-H ) :   0.8778 B(  5-C ,  6-C ) :   0.8060 B(  5-C , 21-H ) :   0.9466
B(  5-C , 22-H ) :   0.9662 B(  6-C ,  7-H ) :   0.9989 B(  6-C ,  8-H ) :   0.9832
B(  6-C ,  9-C ) :   0.7858 B(  9-C , 10-H ) :   0.9792 B(  9-C , 11-H ) :   0.9499
B(  9-C , 12-C ) :   0.7586 B( 12-C , 13-C ) :   0.8684 B( 12-C , 14-H ) :   0.9006
B( 12-C , 15-H ) :   1.0231 B( 13-C , 19-F ) :   0.8642 B( 13-C , 20-O ) :   1.6986
B( 16-H , 20-O ) :  -0.1721

FINAL SINGLE POINT ENERGY      -488.859624405488

DIPOLE MOMENT
-------------
                                X             Y             Z
Electronic contribution:      0.33284      -1.96642     -10.57621
Nuclear contribution   :     -1.21560       2.80077      10.24180
                        -----------------------------------------
Total Dipole Moment    :     -0.88277       0.83435      -0.33441
                        -----------------------------------------
Magnitude (a.u.)       :      1.25986
Magnitude (Debye)      :      3.20231

Rotational constants in cm-1:     0.051255     0.042531     0.028894
Rotational constants in MHz :  1536.587743  1275.050721   866.218876

                             ****ORCA TERMINATED NORMALLY****
TOTAL RUN TIME: 0 days 0 hours 5 minutes 18 seconds 689 msec
