                         Program Version 5.0.0 -  RELEASE  -
|  1> !CAM-B3LYP RIJCOSX def2-TZVPD def2/J TightSCF xyzfile
|  2>
|  3> *xyzfile 0 1 D2.xyz
|  4>
|  5> %MaxCore 64000
|  6>
|  7> %pal nprocs 4
|  8> end
|  9>
| 10> %scf
| 11>   MaxIter 150
| 12> end
| 13>
| 14>
| 15>                          ****END OF INPUT****

CARTESIAN COORDINATES (ANGSTROEM)
---------------------------------
  C      0.816067   -2.101491   -2.186546
  H      1.696232   -2.368691   -1.600457
  C      1.100552   -2.467492   -3.599269
  C      0.516243   -0.613634   -2.039373
  H     -0.020066   -2.712849   -1.840844
  C     -0.868621   -0.193925   -2.546303
  C     -0.984801    1.284739   -2.928686
  H     -0.764939    1.904116   -2.051568
  H     -2.032613    1.478953   -3.178952
  C     -0.106085    1.769914   -4.089836
  H     -0.347744    2.822196   -4.262942
  H      0.949683    1.745875   -3.808781
  C     -0.258747    1.004323   -5.409829
  C      0.395958   -0.370696   -5.339939
  H      0.239150    1.569393   -6.201253
  H     -1.309360    0.888694   -5.682455
  H      1.700606   -1.757225   -4.078378
  H      0.293855   -2.359766   -4.256324
  H      1.501324   -3.428479   -3.694915
  O     -0.326329   -1.390398   -5.491279
  F      1.619412   -0.400726   -5.036827
  H     -1.607271   -0.412651   -1.768955
  H     -1.157234   -0.796164   -3.409254
  H      1.299044   -0.056805   -2.558982
  H      0.612393   -0.365579   -0.979171

 Total Charge           Charge          ....    0
 Multiplicity           Mult            ....    1
 Number of Electrons    NEL             ....   80
 Basis Dimension        Dim             ....  511

ORBITAL ENERGIES
----------------

  NO   OCC          E(Eh)            E(eV)
   0   2.0000     -24.835865      -675.8183
   1   2.0000     -19.212230      -522.7913
   2   2.0000     -10.435623      -283.9677
   3   2.0000     -10.279140      -279.7096
   4   2.0000     -10.262031      -279.2441
   5   2.0000     -10.246159      -278.8122
   6   2.0000     -10.232984      -278.4537
   7   2.0000     -10.228424      -278.3296
   8   2.0000     -10.216043      -277.9927
   9   2.0000     -10.166362      -276.6408
  10   2.0000      -1.415342       -38.5134
  11   2.0000      -1.129295       -30.7297
  12   2.0000      -0.913390       -24.8546
  13   2.0000      -0.879154       -23.9230
  14   2.0000      -0.828767       -22.5519
  15   2.0000      -0.787750       -21.4358
  16   2.0000      -0.744523       -20.2595
  17   2.0000      -0.718454       -19.5501
  18   2.0000      -0.679281       -18.4842
  19   2.0000      -0.640366       -17.4252
  20   2.0000      -0.637418       -17.3450
  21   2.0000      -0.621863       -16.9218
  22   2.0000      -0.586835       -15.9686
  23   2.0000      -0.551870       -15.0171
  24   2.0000      -0.529198       -14.4002
  25   2.0000      -0.515162       -14.0183
  26   2.0000      -0.510702       -13.8969
  27   2.0000      -0.500009       -13.6059
  28   2.0000      -0.485572       -13.2131
  29   2.0000      -0.460855       -12.5405
  30   2.0000      -0.452872       -12.3233
  31   2.0000      -0.444356       -12.0915
  32   2.0000      -0.435382       -11.8474
  33   2.0000      -0.415973       -11.3192
  34   2.0000      -0.396499       -10.7893
  35   2.0000      -0.395153       -10.7527
  36   2.0000      -0.381270       -10.3749
  37   2.0000      -0.366358        -9.9691
  38   2.0000      -0.365636        -9.9495
  39   2.0000      -0.330402        -8.9907
  40   0.0000       0.005304         0.1443
  41   0.0000       0.027826         0.7572
  42   0.0000       0.045001         1.2245
  43   0.0000       0.045229         1.2307
  44   0.0000       0.051079         1.3899

MULLIKEN ATOMIC CHARGES
-----------------------
   0 C :   -0.243335
   1 H :    0.266457
   2 C :   -1.751125
   3 C :   -0.448998
   4 H :    0.242373
   5 C :   -0.653738
   6 C :   -0.565972
   7 H :    0.268508
   8 H :    0.302901
   9 C :   -0.631230
  10 H :    0.274933
  11 H :    0.294575
  12 C :   -0.358653
  13 C :    0.532311
  14 H :    0.333617
  15 H :    0.239096
  16 H :    0.512119
  17 H :    0.604290
  18 H :    0.379513
  19 O :   -0.558094
  20 F :   -0.281298
  21 H :    0.339222
  22 H :    0.358371
  23 H :    0.193534
  24 H :    0.350622
Sum of atomic charges:   -0.0000000

LOEWDIN ATOMIC CHARGES
----------------------
   0 C :   -0.242551
   1 H :    0.105937
   2 C :   -0.124541
   3 C :   -0.208476
   4 H :    0.113088
   5 C :   -0.200491
   6 C :   -0.200965
   7 H :    0.114043
   8 H :    0.111936
   9 C :   -0.199764
  10 H :    0.112793
  11 H :    0.106317
  12 C :   -0.082717
  13 C :   -0.462075
  14 H :    0.125282
  15 H :    0.130213
  16 H :    0.040975
  17 H :    0.021052
  18 H :    0.074601
  19 O :    0.056011
  20 F :    0.179325
  21 H :    0.117376
  22 H :    0.100766
  23 H :    0.100151
  24 H :    0.111713

  Mayer bond orders larger than 0.100000
B(  0-C ,  1-H ) :   0.9747 B(  0-C ,  2-C ) :   0.3301 B(  0-C ,  3-C ) :   0.8684
B(  0-C ,  4-H ) :   0.9709 B(  0-C ,  5-C ) :   0.1697 B(  2-C , 16-H ) :   0.7905
B(  2-C , 17-H ) :   0.7721 B(  2-C , 18-H ) :   0.8945 B(  3-C ,  5-C ) :   0.4407
B(  3-C ,  6-C ) :   0.1014 B(  3-C , 23-H ) :   1.0673 B(  3-C , 24-H ) :   0.8814
B(  5-C ,  6-C ) :   0.8087 B(  5-C , 21-H ) :   0.9455 B(  5-C , 22-H ) :   0.9768
B(  6-C ,  7-H ) :   1.0055 B(  6-C ,  8-H ) :   0.9789 B(  6-C ,  9-C ) :   0.7920
B(  9-C , 10-H ) :   0.9995 B(  9-C , 11-H ) :   0.9414 B(  9-C , 12-C ) :   0.7190
B( 12-C , 13-C ) :   0.8697 B( 12-C , 14-H ) :   0.9082 B( 12-C , 15-H ) :   1.0412
B( 13-C , 19-O ) :   1.6679 B( 13-C , 20-F ) :   0.8564 B( 17-H , 19-O ) :  -0.1358

FINAL SINGLE POINT ENERGY      -488.859844637219

DIPOLE MOMENT
-------------
                                X             Y             Z
Electronic contribution:      3.59015      -0.30126      -9.80745
Nuclear contribution   :     -3.57245       1.60200       9.69133
                        -----------------------------------------
Total Dipole Moment    :      0.01770       1.30073      -0.11612
                        -----------------------------------------
Magnitude (a.u.)       :      1.30603
Magnitude (Debye)      :      3.31965

Rotational constants in cm-1:     0.051520     0.042563     0.028962
Rotational constants in MHz :  1544.537298  1275.996546   868.258224

                             ****ORCA TERMINATED NORMALLY****
TOTAL RUN TIME: 0 days 0 hours 5 minutes 11 seconds 255 msec
