                         Program Version 5.0.0 -  RELEASE  -
|  1> !PBE0 D3BJ RIJCOSX def2-TZVPD def2/J TightSCF
|  2> *xyz -1 1
|  3> C         -0.91495        0.61511        2.50554
|  4> C         -0.05915        1.50352        3.41058
|  5> H          0.36536        2.34431        2.86116
|  6> H         -0.69226        1.92021        4.19898
|  7> C          1.08303        0.74964        4.08571
|  8> O          2.22817        1.26348        4.01983
|  9> O          0.81003       -0.34541        4.63627
| 10> H         -0.30401        0.20228        1.73015
| 11> H         -1.69811        1.19946        2.06954
| 12> H         -1.34124       -0.17772        3.08397
| 13> *
| 14>
| 15> %MaxCore 64000
| 16>
| 17> %pal nprocs 4
| 18> end
| 19>
| 20> %scf
| 21>   MaxIter 150
| 22> end
| 23>
| 24>
| 25>                          ****END OF INPUT****

CARTESIAN COORDINATES (ANGSTROEM)
---------------------------------
  C     -0.914950    0.615110    2.505540
  C     -0.059150    1.503520    3.410580
  H      0.365360    2.344310    2.861160
  H     -0.692260    1.920210    4.198980
  C      1.083030    0.749640    4.085710
  O      2.228170    1.263480    4.019830
  O      0.810030   -0.345410    4.636270
  H     -0.304010    0.202280    1.730150
  H     -1.698110    1.199460    2.069540
  H     -1.341240   -0.177720    3.083970

 Total Charge           Charge          ....   -1
 Multiplicity           Mult            ....    1
 Number of Electrons    NEL             ....   40
 Basis Dimension        Dim             ....  236

ORBITAL ENERGIES
----------------

  NO   OCC          E(Eh)            E(eV)
   0   2.0000     -18.939558      -515.3716
   1   2.0000     -18.938922      -515.3543
   2   2.0000     -10.099586      -274.8237
   3   2.0000     -10.054415      -273.5945
   4   2.0000     -10.045500      -273.3520
   5   2.0000      -0.847787       -23.0695
   6   2.0000      -0.753955       -20.5162
   7   2.0000      -0.627374       -17.0717
   8   2.0000      -0.493320       -13.4239
   9   2.0000      -0.335338        -9.1250
  10   2.0000      -0.305757        -8.3201
  11   2.0000      -0.274895        -7.4803
  12   2.0000      -0.243484        -6.6255
  13   2.0000      -0.226724        -6.1695
  14   2.0000      -0.220163        -5.9909
  15   2.0000      -0.190521        -5.1843
  16   2.0000      -0.172596        -4.6966
  17   2.0000      -0.060229        -1.6389
  18   2.0000      -0.052845        -1.4380
  19   2.0000      -0.040109        -1.0914
  20   0.0000       0.139925         3.8075
  21   0.0000       0.165158         4.4942
  22   0.0000       0.176700         4.8083
  23   0.0000       0.188455         5.1281
  24   0.0000       0.211039         5.7427

MULLIKEN ATOMIC CHARGES
-----------------------
   0 C :   -0.728555
   1 C :    0.145781
   2 H :    0.106061
   3 H :    0.088087
   4 C :    0.249270
   5 O :   -0.703325
   6 O :   -0.703823
   7 H :    0.195155
   8 H :    0.169553
   9 H :    0.181796
Sum of atomic charges:   -1.0000000

LOEWDIN ATOMIC CHARGES
----------------------
   0 C :   -0.135287
   1 C :   -0.213096
   2 H :    0.087534
   3 H :    0.095706
   4 C :   -0.779167
   5 O :   -0.110959
   6 O :   -0.102101
   7 H :    0.060951
   8 H :    0.041825
   9 H :    0.054593

  Mayer bond orders larger than 0.100000
B(  0-C ,  1-C ) :   0.7366 B(  0-C ,  4-C ) :   0.1622 B(  0-C ,  7-H ) :   0.9819
B(  0-C ,  8-H ) :   0.9832 B(  0-C ,  9-H ) :   1.0208 B(  1-C ,  2-H ) :   1.0139
B(  1-C ,  3-H ) :   0.9270 B(  1-C ,  4-C ) :   0.9516 B(  4-C ,  5-O ) :   1.4829
B(  4-C ,  6-O ) :   1.5056

Dispersion correction           -0.005454149
FINAL SINGLE POINT ENERGY      -267.648309781052

DIPOLE MOMENT
-------------
                                X             Y             Z
Electronic contribution:      4.74960      -1.01757       3.37482
Nuclear contribution   :     -6.38408       1.63097      -4.40540
                        -----------------------------------------
Total Dipole Moment    :     -1.63447       0.61339      -1.03059
                        -----------------------------------------
Magnitude (a.u.)       :      2.02728
Magnitude (Debye)      :      5.15294

Rotational constants in cm-1:     0.319732     0.134414     0.104753
Rotational constants in MHz :  9585.336550  4029.633034  3140.404334

                             ****ORCA TERMINATED NORMALLY****
TOTAL RUN TIME: 0 days 0 hours 0 minutes 32 seconds 540 msec
