                         Program Version 5.0.0 -  RELEASE  -
|  1> !PBE0 D3BJ RIJCOSX def2-TZVPD def2/J TightSCF
|  2> *xyz 1 1
|  3> C          4.60295       -2.44010        2.63478
|  4> C          3.86085       -1.59157        3.62289
|  5> N          2.75650       -2.04616        4.16633
|  6> N          4.25433       -0.36291        3.86046
|  7> H          3.56526        0.31099        4.16898
|  8> H          5.05429       -0.01606        3.33784
|  9> H          2.43970       -2.97389        3.89740
| 10> H          2.06687       -1.41253        4.54981
| 11> C          3.74469       -2.58056        1.36188
| 12> H          5.56156       -1.97135        2.40708
| 13> H          4.81050       -3.42255        3.06310
| 14> H          4.26314       -3.18477        0.64702
| 15> H          3.56325       -1.61180        0.94535
| 16> H          2.81197       -3.04259        1.60980
| 17> *
| 18>
| 19> %MaxCore 64000
| 20>
| 21> %pal nprocs 4
| 22> end
| 23>
| 24> %scf
| 25>   MaxIter 150
| 26> end
| 27>
| 28>
| 29>                          ****END OF INPUT****

CARTESIAN COORDINATES (ANGSTROEM)
---------------------------------
  C      4.602950   -2.440100    2.634780
  C      3.860850   -1.591570    3.622890
  N      2.756500   -2.046160    4.166330
  N      4.254330   -0.362910    3.860460
  H      3.565260    0.310990    4.168980
  H      5.054290   -0.016060    3.337840
  H      2.439700   -2.973890    3.897400
  H      2.066870   -1.412530    4.549810
  C      3.744690   -2.580560    1.361880
  H      5.561560   -1.971350    2.407080
  H      4.810500   -3.422550    3.063100
  H      4.263140   -3.184770    0.647020
  H      3.563250   -1.611800    0.945350
  H      2.811970   -3.042590    1.609800

 Total Charge           Charge          ....    1
 Multiplicity           Mult            ....    1
 Number of Electrons    NEL             ....   40
 Basis Dimension        Dim             ....  266

ORBITAL ENERGIES
----------------

  NO   OCC          E(Eh)            E(eV)
   0   2.0000     -14.629234      -398.0817
   1   2.0000     -14.628266      -398.0554
   2   2.0000     -10.544064      -286.9186
   3   2.0000     -10.424424      -283.6630
   4   2.0000     -10.381299      -282.4895
   5   2.0000      -1.236541       -33.6480
   6   2.0000      -1.137121       -30.9426
   7   2.0000      -0.995846       -27.0984
   8   2.0000      -0.882307       -24.0088
   9   2.0000      -0.835601       -22.7379
  10   2.0000      -0.789074       -21.4718
  11   2.0000      -0.770338       -20.9620
  12   2.0000      -0.712370       -19.3846
  13   2.0000      -0.678969       -18.4757
  14   2.0000      -0.640501       -17.4289
  15   2.0000      -0.615614       -16.7517
  16   2.0000      -0.563778       -15.3412
  17   2.0000      -0.556685       -15.1482
  18   2.0000      -0.544088       -14.8054
  19   2.0000      -0.508716       -13.8429
  20   0.0000      -0.212683        -5.7874
  21   0.0000      -0.160618        -4.3706
  22   0.0000      -0.119528        -3.2525
  23   0.0000      -0.115027        -3.1300
  24   0.0000      -0.091790        -2.4977

MULLIKEN ATOMIC CHARGES
-----------------------
   0 C :   -0.124950
   1 C :    0.434100
   2 N :   -0.254389
   3 N :   -0.204720
   4 H :    0.215486
   5 H :    0.236130
   6 H :    0.235825
   7 H :    0.194281
   8 C :   -0.814176
   9 H :    0.166446
  10 H :    0.187241
  11 H :    0.192403
  12 H :    0.264672
  13 H :    0.271652
Sum of atomic charges:    1.0000000

LOEWDIN ATOMIC CHARGES
----------------------
   0 C :   -0.139590
   1 C :   -0.373686
   2 N :    0.228303
   3 N :    0.230426
   4 H :    0.148474
   5 H :    0.150523
   6 H :    0.149929
   7 H :    0.150431
   8 C :   -0.052551
   9 H :    0.125792
  10 H :    0.135650
  11 H :    0.088304
  12 H :    0.085418
  13 H :    0.072578

  Mayer bond orders larger than 0.100000
B(  0-C ,  1-C ) :   0.9524 B(  0-C ,  8-C ) :   0.7741 B(  0-C ,  9-H ) :   0.9570
B(  0-C , 10-H ) :   0.9529 B(  1-C ,  2-N ) :   1.3182 B(  1-C ,  3-N ) :   1.3509
B(  1-C ,  8-C ) :   0.1671 B(  2-N ,  6-H ) :   0.9203 B(  2-N ,  7-H ) :   0.9839
B(  3-N ,  4-H ) :   0.9477 B(  3-N ,  5-H ) :   0.9273 B(  8-C , 11-H ) :   1.0098
B(  8-C , 12-H ) :   0.9760 B(  8-C , 13-H ) :   0.9068

Dispersion correction           -0.008630278
FINAL SINGLE POINT ENERGY      -228.850302880903

DIPOLE MOMENT
-------------
                                X             Y             Z
Electronic contribution:     -0.23439       1.78252       3.71967
Nuclear contribution   :     -0.22400      -1.16268      -3.30447
                        -----------------------------------------
Total Dipole Moment    :     -0.45839       0.61985       0.41520
                        -----------------------------------------
Magnitude (a.u.)       :      0.87563
Magnitude (Debye)      :      2.22566

Rotational constants in cm-1:     0.258103     0.130571     0.102508
Rotational constants in MHz :  7737.732062  3914.431392  3073.119154

                             ****ORCA TERMINATED NORMALLY****
TOTAL RUN TIME: 0 days 0 hours 0 minutes 37 seconds 312 msec
