                         Program Version 5.0.0 -  RELEASE  -
|  1> !PBE0 D3BJ RIJCOSX def2-TZVPD def2/J TightSCF xyzfile
|  2>
|  3> *xyzfile 0 1 B.xyz
|  4>
|  5> %MaxCore 64000
|  6>
|  7> %pal nprocs 4
|  8> end
|  9>
| 10> %scf
| 11>   MaxIter 150
| 12> end
| 13>
| 14>
| 15>                          ****END OF INPUT****

CARTESIAN COORDINATES (ANGSTROEM)
---------------------------------
  C      4.602954   -2.440100    2.634780
  C     -0.914947    0.615112    2.505538
  C     -0.059146    1.503524    3.410578
  H      0.365364    2.344315    2.861161
  H     -0.692261    1.920207    4.198985
  C      1.083027    0.749640    4.085705
  C      3.860851   -1.591565    3.622893
  N      2.756502   -2.046159    4.166333
  N      4.254325   -0.362905    3.860455
  H      3.565256    0.310994    4.168983
  H      5.054292   -0.016059    3.337838
  H      2.439696   -2.973894    3.897395
  H      2.066869   -1.412532    4.549813
  O      2.228167    1.263475    4.019826
  O      0.810034   -0.345411    4.636269
  C      3.744685   -2.580557    1.361882
  C      0.772139    0.636882    0.562129
  C     -0.130740   -0.193985    1.470763
  H     -0.840563   -0.760165    0.856377
  H      0.466691   -0.938942    2.006959
  H     -1.647961    1.245963    1.991076
  H     -1.478180   -0.081046    3.130424
  C      3.203721   -1.256004    0.826211
  H      2.898939   -3.239289    1.583074
  H      4.334962   -3.095523    0.600188
  C      2.107815   -1.442385   -0.216865
  H      2.786775   -0.672760    1.650711
  H      4.021008   -0.652993    0.414046
  C      1.390662   -0.145912   -0.602422
  H      1.372179   -2.152184    0.176151
  H      2.523302   -1.906787   -1.117115
  H      1.561361    1.100094    1.161831
  H      0.195516    1.468325    0.142758
  H      0.602893   -0.398214   -1.319716
  H      2.087247    0.508272   -1.137335
  H      5.561557   -1.971347    2.407084
  H      4.810498   -3.422552    3.063099

 Total Charge           Charge          ....    0
 Multiplicity           Mult            ....    1
 Number of Electrons    NEL             ....  118
 Basis Dimension        Dim             ....  759

ORBITAL ENERGIES
----------------

  NO   OCC          E(Eh)            E(eV)
   0   2.0000     -19.129015      -520.5270
   1   2.0000     -19.127083      -520.4744
   2   2.0000     -14.425183      -392.5292
   3   2.0000     -14.425171      -392.5289
   4   2.0000     -10.357972      -281.8548
   5   2.0000     -10.282301      -279.7956
   6   2.0000     -10.272928      -279.5406
   7   2.0000     -10.254527      -279.0399
   8   2.0000     -10.230363      -278.3823
   9   2.0000     -10.221661      -278.1455
  10   2.0000     -10.213766      -277.9307
  11   2.0000     -10.203031      -277.6386
  12   2.0000     -10.199735      -277.5489
  13   2.0000     -10.195958      -277.4461
  14   2.0000     -10.186797      -277.1968
  15   2.0000      -1.049775       -28.5658
  16   2.0000      -1.035740       -28.1839
  17   2.0000      -0.953720       -25.9520
  18   2.0000      -0.936937       -25.4954
  19   2.0000      -0.862077       -23.4583
  20   2.0000      -0.827501       -22.5175
  21   2.0000      -0.797100       -21.6902
  22   2.0000      -0.756333       -20.5809
  23   2.0000      -0.717425       -19.5221
  24   2.0000      -0.679196       -18.4819
  25   2.0000      -0.661805       -18.0086
  26   2.0000      -0.637731       -17.3535
  27   2.0000      -0.603460       -16.4210
  28   2.0000      -0.595918       -16.2158
  29   2.0000      -0.587173       -15.9778
  30   2.0000      -0.563266       -15.3273
  31   2.0000      -0.527266       -14.3476
  32   2.0000      -0.522297       -14.2124
  33   2.0000      -0.499145       -13.5824
  34   2.0000      -0.490378       -13.3439
  35   2.0000      -0.477383       -12.9902
  36   2.0000      -0.470952       -12.8153
  37   2.0000      -0.456729       -12.4282
  38   2.0000      -0.445162       -12.1135
  39   2.0000      -0.433277       -11.7901
  40   2.0000      -0.428068       -11.6483
  41   2.0000      -0.418790       -11.3959
  42   2.0000      -0.415418       -11.3041
  43   2.0000      -0.409613       -11.1461
  44   2.0000      -0.388423       -10.5695
  45   2.0000      -0.385087       -10.4787
  46   2.0000      -0.378965       -10.3122
  47   2.0000      -0.373721       -10.1695
  48   2.0000      -0.362582        -9.8664
  49   2.0000      -0.346225        -9.4213
  50   2.0000      -0.342555        -9.3214
  51   2.0000      -0.334850        -9.1117
  52   2.0000      -0.319958        -8.7065
  53   2.0000      -0.315394        -8.5823
  54   2.0000      -0.313188        -8.5223
  55   2.0000      -0.305853        -8.3227
  56   2.0000      -0.249927        -6.8009
  57   2.0000      -0.238349        -6.4858
  58   2.0000      -0.233854        -6.3635
  59   0.0000      -0.032630        -0.8879
  60   0.0000      -0.009023        -0.2455
  61   0.0000       0.005979         0.1627
  62   0.0000       0.016068         0.4372
  63   0.0000       0.024312         0.6616

MULLIKEN ATOMIC CHARGES
-----------------------
   0 C :   -0.177607
   1 C :   -0.289370
   2 C :   -0.163752
   3 H :    0.177123
   4 H :    0.116927
   5 C :    0.568037
   6 C :   -0.106033
   7 N :   -0.060286
   8 N :   -0.072591
   9 H :    0.253767
  10 H :    0.215773
  11 H :    0.220807
  12 H :    0.200409
  13 O :   -0.812320
  14 O :   -0.834934
  15 C :   -0.411187
  16 C :   -0.185124
  17 C :   -0.277696
  18 H :    0.174832
  19 H :    0.123714
  20 H :    0.093697
  21 H :    0.155248
  22 C :    0.379105
  23 H :    0.164887
  24 H :    0.139718
  25 C :   -0.349829
  26 H :   -0.287233
  27 H :    0.118259
  28 C :   -0.406985
  29 H :    0.216113
  30 H :    0.150990
  31 H :    0.225501
  32 H :    0.144141
  33 H :    0.152007
  34 H :    0.144220
  35 H :    0.174648
  36 H :    0.125023
Sum of atomic charges:   -0.0000000

LOEWDIN ATOMIC CHARGES
----------------------
   0 C :   -0.113193
   1 C :   -0.206012
   2 C :   -0.127020
   3 H :    0.107224
   4 H :    0.118629
   5 C :   -0.659006
   6 C :   -0.398539
   7 N :    0.233499
   8 N :    0.219692
   9 H :    0.055044
  10 H :    0.136568
  11 H :    0.138463
  12 H :    0.054236
  13 O :   -0.050871
  14 O :   -0.046892
  15 C :   -0.189020
  16 C :   -0.214408
  17 C :   -0.215095
  18 H :    0.117489
  19 H :    0.100551
  20 H :    0.109139
  21 H :    0.109350
  22 C :   -0.212645
  23 H :    0.110828
  24 H :    0.119365
  25 C :   -0.218246
  26 H :    0.092101
  27 H :    0.129534
  28 C :   -0.210600
  29 H :    0.109097
  30 H :    0.114401
  31 H :    0.106020
  32 H :    0.118003
  33 H :    0.109726
  34 H :    0.109761
  35 H :    0.118921
  36 H :    0.123905

  Mayer bond orders larger than 0.100000
B(  0-C ,  6-C ) :   0.9554 B(  0-C , 15-C ) :   0.8685 B(  0-C , 35-H ) :   0.8995
B(  0-C , 36-H ) :   0.9911 B(  1-C ,  2-C ) :   0.9590 B(  1-C ,  5-C ) :   0.1628
B(  1-C , 16-C ) :   0.2160 B(  1-C , 17-C ) :   1.1581 B(  1-C , 19-H ) :   0.1101
B(  1-C , 20-H ) :   0.9297 B(  1-C , 21-H ) :   0.8774 B(  2-C ,  3-H ) :   0.9594
B(  2-C ,  4-H ) :   0.8586 B(  2-C ,  5-C ) :   1.0563 B(  2-C , 16-C ) :   0.1648
B(  5-C , 13-O ) :   1.2740 B(  5-C , 14-O ) :   1.2778 B(  5-C , 17-C ) :   0.1069
B(  6-C ,  7-N ) :   1.4271 B(  6-C ,  8-N ) :   1.5362 B(  6-C , 15-C ) :   0.1609
B(  6-C , 22-C ) :   0.1004 B(  7-N , 11-H ) :   0.8956 B(  7-N , 12-H ) :   0.7922
B(  7-N , 14-O ) :  -0.1021 B(  8-N ,  9-H ) :   0.8025 B(  8-N , 10-H ) :   0.8875
B( 12-H , 14-O ) :   0.1470 B( 13-O , 14-O ) :   0.1451 B( 15-C , 22-C ) :   0.7505
B( 15-C , 23-H ) :   0.8686 B( 15-C , 24-H ) :   0.9642 B( 15-C , 25-C ) :   0.4511
B( 15-C , 26-H ) :   0.1089 B( 15-C , 27-H ) :  -0.1373 B( 16-C , 17-C ) :   0.7047
B( 16-C , 19-H ) :  -0.1226 B( 16-C , 22-C ) :   0.1069 B( 16-C , 26-H ) :   0.1059
B( 16-C , 28-C ) :   1.0001 B( 16-C , 31-H ) :   1.0157 B( 16-C , 32-H ) :   0.8689
B( 17-C , 18-H ) :   0.8336 B( 17-C , 19-H ) :   1.1335 B( 17-C , 25-C ) :   0.1519
B( 17-C , 28-C ) :   0.2646 B( 22-C , 25-C ) :   0.6978 B( 22-C , 26-H ) :   1.5003
B( 22-C , 27-H ) :   0.7916 B( 22-C , 28-C ) :   0.2321 B( 25-C , 27-H ) :  -0.1167
B( 25-C , 28-C ) :   1.0979 B( 25-C , 29-H ) :   0.8585 B( 25-C , 30-H ) :   0.9408
B( 26-H , 27-H ) :   0.1455 B( 28-C , 33-H ) :   0.9188 B( 28-C , 34-H ) :   0.9407

Dispersion correction           -0.037733839
FINAL SINGLE POINT ENERGY      -691.909964973209

DIPOLE MOMENT
-------------
                                X             Y             Z
Electronic contribution:      3.42620       1.62045      12.99905
Nuclear contribution   :     -1.50655      -3.48027     -14.35034
                        -----------------------------------------
Total Dipole Moment    :      1.91964      -1.85982      -1.35129
                        -----------------------------------------
Magnitude (a.u.)       :      2.99499
Magnitude (Debye)      :      7.61266

Rotational constants in cm-1:     0.021781     0.017296     0.011403
Rotational constants in MHz :   652.971749   518.510612   341.853154

                             ****ORCA TERMINATED NORMALLY****
TOTAL RUN TIME: 0 days 0 hours 8 minutes 14 seconds 594 msec
