                         Program Version 5.0.0 -  RELEASE  -
|  1> !PBE0 D3BJ RIJCOSX def2-TZVPD def2/J TightSCF
|  2> *xyz 0 1
|  3> C         -0.91495        0.61511        2.50554
|  4> C         -0.05915        1.50352        3.41058
|  5> H          0.36536        2.34431        2.86116
|  6> H         -0.69226        1.92021        4.19898
|  7> C          1.08303        0.74964        4.08571
|  8> F          2.22817        1.26348        4.01983
|  9> O          0.81003       -0.34541        4.63627
| 10> H         -0.30401        0.20228        1.73015
| 11> H         -1.69811        1.19946        2.06954
| 12> H         -1.34124       -0.17772        3.08397
| 13> *
| 14>
| 15> %MaxCore 64000
| 16>
| 17> %pal nprocs 4
| 18> end
| 19>
| 20> %scf
| 21>   MaxIter 150
| 22> end
| 23>
| 24>
| 25>                          ****END OF INPUT****

CARTESIAN COORDINATES (ANGSTROEM)
---------------------------------
  C     -0.914950    0.615110    2.505540
  C     -0.059150    1.503520    3.410580
  H      0.365360    2.344310    2.861160
  H     -0.692260    1.920210    4.198980
  C      1.083030    0.749640    4.085710
  F      2.228170    1.263480    4.019830
  O      0.810030   -0.345410    4.636270
  H     -0.304010    0.202280    1.730150
  H     -1.698110    1.199460    2.069540
  H     -1.341240   -0.177720    3.083970

 Total Charge           Charge          ....    0
 Multiplicity           Mult            ....    1
 Number of Electrons    NEL             ....   40
 Basis Dimension        Dim             ....  236

ORBITAL ENERGIES
----------------

  NO   OCC          E(Eh)            E(eV)
   0   2.0000     -24.842051      -675.9866
   1   2.0000     -19.212055      -522.7866
   2   2.0000     -10.399003      -282.9713
   3   2.0000     -10.254202      -279.0310
   4   2.0000     -10.223269      -278.1893
   5   2.0000      -1.351955       -36.7886
   6   2.0000      -1.062654       -28.9163
   7   2.0000      -0.824783       -22.4435
   8   2.0000      -0.713263       -19.4089
   9   2.0000      -0.657975       -17.9044
  10   2.0000      -0.566035       -15.4026
  11   2.0000      -0.552696       -15.0396
  12   2.0000      -0.527195       -14.3457
  13   2.0000      -0.480759       -13.0821
  14   2.0000      -0.449548       -12.2328
  15   2.0000      -0.412197       -11.2165
  16   2.0000      -0.391469       -10.6524
  17   2.0000      -0.387813       -10.5529
  18   2.0000      -0.360989        -9.8230
  19   2.0000      -0.308093        -8.3836
  20   0.0000      -0.026701        -0.7266
  21   0.0000       0.009494         0.2583
  22   0.0000       0.034849         0.9483
  23   0.0000       0.044670         1.2155
  24   0.0000       0.054913         1.4943

MULLIKEN ATOMIC CHARGES
-----------------------
   0 C :   -0.766959
   1 C :    0.103190
   2 H :    0.155997
   3 H :    0.141850
   4 C :    0.369765
   5 F :   -0.174605
   6 O :   -0.463153
   7 H :    0.231021
   8 H :    0.181634
   9 H :    0.221261
Sum of atomic charges:    0.0000000

LOEWDIN ATOMIC CHARGES
----------------------
   0 C :   -0.089328
   1 C :   -0.158635
   2 H :    0.108928
   3 H :    0.123630
   4 C :   -0.487492
   5 F :    0.204951
   6 O :    0.080733
   7 H :    0.075227
   8 H :    0.069361
   9 H :    0.072626

  Mayer bond orders larger than 0.100000
B(  0-C ,  1-C ) :   0.8115 B(  0-C ,  4-C ) :   0.1584 B(  0-C ,  7-H ) :   0.9495
B(  0-C ,  8-H ) :   0.9881 B(  0-C ,  9-H ) :   0.9984 B(  1-C ,  2-H ) :   0.9703
B(  1-C ,  3-H ) :   0.9115 B(  1-C ,  4-C ) :   0.9319 B(  4-C ,  5-F ) :   1.0597
B(  4-C ,  6-O ) :   1.8136

Dispersion correction           -0.005171926
FINAL SINGLE POINT ENERGY      -292.203489664777

DIPOLE MOMENT
-------------
                                X             Y             Z
Electronic contribution:      7.72494      -0.16954       4.08955
Nuclear contribution   :     -8.12386       1.06915      -4.71960
                        -----------------------------------------
Total Dipole Moment    :     -0.39893       0.89960      -0.63005
                        -----------------------------------------
Magnitude (a.u.)       :      1.16850
Magnitude (Debye)      :      2.97009

Rotational constants in cm-1:     0.309513     0.127560     0.099675
Rotational constants in MHz :  9278.979128  3824.146597  2988.174827

                             ****ORCA TERMINATED NORMALLY****
TOTAL RUN TIME: 0 days 0 hours 0 minutes 30 seconds 169 msec
