                         Program Version 5.0.0 -  RELEASE  -
|  1> !PBE0 D3BJ RIJCOSX def2-TZVPD def2/J TightSCF
|  2> *xyz 0 1
|  3> C          4.60295       -2.44010        2.63478
|  4> C          3.86085       -1.59157        3.62289
|  5> C          2.75650       -2.04616        4.16633
|  6> N          4.25433       -0.36291        3.86046
|  7> H          3.56526        0.31099        4.16898
|  8> H          5.05429       -0.01606        3.33784
|  9> H          2.43970       -2.97389        3.89740
| 10> H          2.06687       -1.41253        4.54981
| 11> C          3.74469       -2.58056        1.36188
| 12> H          5.56156       -1.97135        2.40708
| 13> H          4.81050       -3.42255        3.06310
| 14> H          4.26314       -3.18477        0.64702
| 15> H          3.56325       -1.61180        0.94535
| 16> H          2.81197       -3.04259        1.60980
| 17> *
| 18>
| 19> %MaxCore 64000
| 20>
| 21> %pal nprocs 4
| 22> end
| 23>
| 24> %scf
| 25>   MaxIter 150
| 26> end
| 27>
| 28>
| 29>                          ****END OF INPUT****

CARTESIAN COORDINATES (ANGSTROEM)
---------------------------------
  C      4.602950   -2.440100    2.634780
  C      3.860850   -1.591570    3.622890
  C      2.756500   -2.046160    4.166330
  N      4.254330   -0.362910    3.860460
  H      3.565260    0.310990    4.168980
  H      5.054290   -0.016060    3.337840
  H      2.439700   -2.973890    3.897400
  H      2.066870   -1.412530    4.549810
  C      3.744690   -2.580560    1.361880
  H      5.561560   -1.971350    2.407080
  H      4.810500   -3.422550    3.063100
  H      4.263140   -3.184770    0.647020
  H      3.563250   -1.611800    0.945350
  H      2.811970   -3.042590    1.609800

 Total Charge           Charge          ....    0
 Multiplicity           Mult            ....    1
 Number of Electrons    NEL             ....   40
 Basis Dimension        Dim             ....  266

ORBITAL ENERGIES
----------------

  NO   OCC          E(Eh)            E(eV)
   0   2.0000     -14.385193      -391.4410
   1   2.0000     -10.239525      -278.6317
   2   2.0000     -10.224024      -278.2098
   3   2.0000     -10.204797      -277.6866
   4   2.0000     -10.148436      -276.1530
   5   2.0000      -0.961254       -26.1571
   6   2.0000      -0.805930       -21.9305
   7   2.0000      -0.734941       -19.9988
   8   2.0000      -0.659867       -17.9559
   9   2.0000      -0.580381       -15.7930
  10   2.0000      -0.540244       -14.7008
  11   2.0000      -0.497614       -13.5408
  12   2.0000      -0.461859       -12.5678
  13   2.0000      -0.426361       -11.6019
  14   2.0000      -0.402016       -10.9394
  15   2.0000      -0.390756       -10.6330
  16   2.0000      -0.365426        -9.9437
  17   2.0000      -0.354758        -9.6535
  18   2.0000      -0.340983        -9.2786
  19   2.0000      -0.200922        -5.4674
  20   0.0000       0.009444         0.2570
  21   0.0000       0.029819         0.8114
  22   0.0000       0.039525         1.0755
  23   0.0000       0.047840         1.3018
  24   0.0000       0.056077         1.5259

MULLIKEN ATOMIC CHARGES
-----------------------
   0 C :   -0.073900
   1 C :    0.560787
   2 C :   -1.063628
   3 N :   -0.302962
   4 H :    0.163585
   5 H :    0.179693
   6 H :    0.244086
   7 H :    0.171026
   8 C :   -0.809326
   9 H :    0.141203
  10 H :    0.150281
  11 H :    0.176367
  12 H :    0.213346
  13 H :    0.249444
Sum of atomic charges:    0.0000000

LOEWDIN ATOMIC CHARGES
----------------------
   0 C :   -0.191675
   1 C :   -0.511098
   2 C :    0.007617
   3 N :    0.101505
   4 H :    0.113310
   5 H :    0.106142
   6 H :    0.026822
   7 H :    0.024767
   8 C :   -0.091695
   9 H :    0.102377
  10 H :    0.114790
  11 H :    0.061685
  12 H :    0.071981
  13 H :    0.063472

  Mayer bond orders larger than 0.100000
B(  0-C ,  1-C ) :   0.8689 B(  0-C ,  8-C ) :   0.7432 B(  0-C ,  9-H ) :   1.0310
B(  0-C , 10-H ) :   0.9326 B(  1-C ,  2-C ) :   1.4282 B(  1-C ,  3-N ) :   1.1077
B(  1-C ,  8-C ) :   0.1699 B(  2-C ,  6-H ) :   0.9517 B(  2-C ,  7-H ) :   1.0830
B(  3-N ,  4-H ) :   0.9688 B(  3-N ,  5-H ) :   0.9807 B(  8-C , 11-H ) :   0.9900
B(  8-C , 12-H ) :   0.9903 B(  8-C , 13-H ) :   0.9701

Dispersion correction           -0.008988350
FINAL SINGLE POINT ENERGY      -212.385473480565

DIPOLE MOMENT
-------------
                                X             Y             Z
Electronic contribution:      0.80387       1.77354       2.54560
Nuclear contribution   :     -0.47010      -1.22282      -3.06417
                        -----------------------------------------
Total Dipole Moment    :      0.33377       0.55073      -0.51856
                        -----------------------------------------
Magnitude (a.u.)       :      0.82681
Magnitude (Debye)      :      2.10157

Rotational constants in cm-1:     0.271862     0.131962     0.105499
Rotational constants in MHz :  8150.219120  3956.123671  3162.785522

                             ****ORCA TERMINATED NORMALLY****
TOTAL RUN TIME: 0 days 0 hours 0 minutes 41 seconds 683 msec
