                         Program Version 5.0.0 -  RELEASE  -
|  1> !PBE0 D3BJ RIJCOSX def2-TZVPD def2/J TightSCF
|  2> *xyz 0 1
|  3> C         -0.91495        0.61511        2.50554
|  4> C         -0.05915        1.50352        3.41058
|  5> H          0.36536        2.34431        2.86116
|  6> H         -0.69226        1.92021        4.19898
|  7> C          1.08303        0.74964        4.08571
|  8> O          2.22817        1.26348        4.01983
|  9> F          0.81003       -0.34541        4.63627
| 10> H         -0.30401        0.20228        1.73015
| 11> H         -1.69811        1.19946        2.06954
| 12> H         -1.34124       -0.17772        3.08397
| 13> *
| 14>
| 15> %MaxCore 64000
| 16>
| 17> %pal nprocs 4
| 18> end
| 19>
| 20> %scf
| 21>   MaxIter 150
| 22> end
| 23>
| 24>
| 25>                          ****END OF INPUT****

CARTESIAN COORDINATES (ANGSTROEM)
---------------------------------
  C     -0.914950    0.615110    2.505540
  C     -0.059150    1.503520    3.410580
  H      0.365360    2.344310    2.861160
  H     -0.692260    1.920210    4.198980
  C      1.083030    0.749640    4.085710
  O      2.228170    1.263480    4.019830
  F      0.810030   -0.345410    4.636270
  H     -0.304010    0.202280    1.730150
  H     -1.698110    1.199460    2.069540
  H     -1.341240   -0.177720    3.083970

 Total Charge           Charge          ....    0
 Multiplicity           Mult            ....    1
 Number of Electrons    NEL             ....   40
 Basis Dimension        Dim             ....  236

ORBITAL ENERGIES
----------------

  NO   OCC          E(Eh)            E(eV)
   0   2.0000     -24.843041      -676.0135
   1   2.0000     -19.211099      -522.7606
   2   2.0000     -10.398405      -282.9550
   3   2.0000     -10.253653      -279.0161
   4   2.0000     -10.228657      -278.3359
   5   2.0000      -1.353337       -36.8262
   6   2.0000      -1.060800       -28.8658
   7   2.0000      -0.829012       -22.5586
   8   2.0000      -0.709130       -19.2964
   9   2.0000      -0.664948       -18.0941
  10   2.0000      -0.568674       -15.4744
  11   2.0000      -0.559397       -15.2220
  12   2.0000      -0.518022       -14.0961
  13   2.0000      -0.482018       -13.1164
  14   2.0000      -0.450332       -12.2541
  15   2.0000      -0.416933       -11.3453
  16   2.0000      -0.398175       -10.8349
  17   2.0000      -0.391384       -10.6501
  18   2.0000      -0.362978        -9.8771
  19   2.0000      -0.302900        -8.2423
  20   0.0000      -0.024117        -0.6563
  21   0.0000       0.007317         0.1991
  22   0.0000       0.035182         0.9574
  23   0.0000       0.043175         1.1749
  24   0.0000       0.054902         1.4940

MULLIKEN ATOMIC CHARGES
-----------------------
   0 C :   -0.798081
   1 C :    0.157209
   2 H :    0.123239
   3 H :    0.155977
   4 C :    0.353421
   5 O :   -0.461138
   6 F :   -0.179790
   7 H :    0.243523
   8 H :    0.177831
   9 H :    0.227807
Sum of atomic charges:    0.0000000

LOEWDIN ATOMIC CHARGES
----------------------
   0 C :   -0.093696
   1 C :   -0.153907
   2 H :    0.118413
   3 H :    0.121443
   4 C :   -0.492310
   5 O :    0.076600
   6 F :    0.209063
   7 H :    0.075613
   8 H :    0.069757
   9 H :    0.069023

  Mayer bond orders larger than 0.100000
B(  0-C ,  1-C ) :   0.7566 B(  0-C ,  4-C ) :   0.1469 B(  0-C ,  7-H ) :   0.9693
B(  0-C ,  8-H ) :   1.0011 B(  0-C ,  9-H ) :   0.9779 B(  1-C ,  2-H ) :   0.9972
B(  1-C ,  3-H ) :   0.9065 B(  1-C ,  4-C ) :   0.9409 B(  4-C ,  5-O ) :   1.7967
B(  4-C ,  6-F ) :   1.0628

Dispersion correction           -0.005136500
FINAL SINGLE POINT ENERGY      -292.202588134152

DIPOLE MOMENT
-------------
                                X             Y             Z
Electronic contribution:      5.33975      -2.83674       5.09920
Nuclear contribution   :     -6.57765       2.82334      -5.39171
                        -----------------------------------------
Total Dipole Moment    :     -1.23790      -0.01340      -0.29251
                        -----------------------------------------
Magnitude (a.u.)       :      1.27206
Magnitude (Debye)      :      3.23333

Rotational constants in cm-1:     0.294245     0.132994     0.101060
Rotational constants in MHz :  8821.228602  3987.049251  3029.696815

                             ****ORCA TERMINATED NORMALLY****
TOTAL RUN TIME: 0 days 0 hours 0 minutes 30 seconds 861 msec
