                         Program Version 5.0.0 -  RELEASE  -
|  1> !PBE0 D3BJ RIJCOSX def2-TZVPD def2/J TightSCF
|  2> *xyz 0 1
|  3> C          4.60295       -2.44010        2.63478
|  4> C          3.86085       -1.59157        3.62289
|  5> N          2.75650       -2.04616        4.16633
|  6> C          4.25433       -0.36291        3.86046
|  7> H          3.56526        0.31099        4.16898
|  8> H          5.05429       -0.01606        3.33784
|  9> H          2.43970       -2.97389        3.89740
| 10> H          2.06687       -1.41253        4.54981
| 11> C          3.74469       -2.58056        1.36188
| 12> H          5.56156       -1.97135        2.40708
| 13> H          4.81050       -3.42255        3.06310
| 14> H          4.26314       -3.18477        0.64702
| 15> H          3.56325       -1.61180        0.94535
| 16> H          2.81197       -3.04259        1.60980
| 17> *
| 18>
| 19> %MaxCore 64000
| 20>
| 21> %pal nprocs 4
| 22> end
| 23>
| 24> %scf
| 25>   MaxIter 150
| 26> end
| 27>
| 28>
| 29>                          ****END OF INPUT****

CARTESIAN COORDINATES (ANGSTROEM)
---------------------------------
  C      4.602950   -2.440100    2.634780
  C      3.860850   -1.591570    3.622890
  N      2.756500   -2.046160    4.166330
  C      4.254330   -0.362910    3.860460
  H      3.565260    0.310990    4.168980
  H      5.054290   -0.016060    3.337840
  H      2.439700   -2.973890    3.897400
  H      2.066870   -1.412530    4.549810
  C      3.744690   -2.580560    1.361880
  H      5.561560   -1.971350    2.407080
  H      4.810500   -3.422550    3.063100
  H      4.263140   -3.184770    0.647020
  H      3.563250   -1.611800    0.945350
  H      2.811970   -3.042590    1.609800

 Total Charge           Charge          ....    0
 Multiplicity           Mult            ....    1
 Number of Electrons    NEL             ....   40
 Basis Dimension        Dim             ....  266

ORBITAL ENERGIES
----------------

  NO   OCC          E(Eh)            E(eV)
   0   2.0000     -14.384933      -391.4339
   1   2.0000     -10.240537      -278.6592
   2   2.0000     -10.223518      -278.1961
   3   2.0000     -10.208613      -277.7905
   4   2.0000     -10.149762      -276.1891
   5   2.0000      -0.960838       -26.1457
   6   2.0000      -0.804047       -21.8792
   7   2.0000      -0.742984       -20.2176
   8   2.0000      -0.655281       -17.8311
   9   2.0000      -0.587161       -15.9775
  10   2.0000      -0.541567       -14.7368
  11   2.0000      -0.492523       -13.4022
  12   2.0000      -0.452846       -12.3226
  13   2.0000      -0.443353       -12.0643
  14   2.0000      -0.401868       -10.9354
  15   2.0000      -0.393149       -10.6981
  16   2.0000      -0.368697       -10.0327
  17   2.0000      -0.352658        -9.5963
  18   2.0000      -0.337056        -9.1718
  19   2.0000      -0.203545        -5.5387
  20   0.0000       0.007913         0.2153
  21   0.0000       0.031353         0.8532
  22   0.0000       0.043012         1.1704
  23   0.0000       0.045245         1.2312
  24   0.0000       0.054464         1.4821

MULLIKEN ATOMIC CHARGES
-----------------------
   0 C :   -0.147514
   1 C :    0.552339
   2 N :   -0.345091
   3 C :   -0.947834
   4 H :    0.196208
   5 H :    0.205382
   6 H :    0.175072
   7 H :    0.149568
   8 C :   -0.750836
   9 H :    0.112149
  10 H :    0.164131
  11 H :    0.167811
  12 H :    0.239088
  13 H :    0.229527
Sum of atomic charges:   -0.0000000

LOEWDIN ATOMIC CHARGES
----------------------
   0 C :   -0.193369
   1 C :   -0.514731
   2 N :    0.102124
   3 C :    0.013542
   4 H :    0.023483
   5 H :    0.023012
   6 H :    0.108152
   7 H :    0.115468
   8 C :   -0.091710
   9 H :    0.109894
  10 H :    0.109181
  11 H :    0.063296
  12 H :    0.074324
  13 H :    0.057335

  Mayer bond orders larger than 0.100000
B(  0-C ,  1-C ) :   0.9402 B(  0-C ,  8-C ) :   0.8000 B(  0-C ,  9-H ) :   0.9627
B(  0-C , 10-H ) :   0.9690 B(  1-C ,  2-N ) :   1.0898 B(  1-C ,  3-C ) :   1.4981
B(  1-C ,  8-C ) :   0.1049 B(  2-N ,  3-C ) :   0.1024 B(  2-N ,  6-H ) :   0.9632
B(  2-N ,  7-H ) :   0.9941 B(  3-C ,  4-H ) :   1.0434 B(  3-C ,  5-H ) :   1.0101
B(  8-C , 11-H ) :   1.0045 B(  8-C , 12-H ) :   1.0096 B(  8-C , 13-H ) :   0.9441

Dispersion correction           -0.008975199
FINAL SINGLE POINT ENERGY      -212.385939643790

DIPOLE MOMENT
-------------
                                X             Y             Z
Electronic contribution:     -0.48898       0.31224       2.81975
Nuclear contribution   :     -0.12319      -0.83296      -3.13501
                        -----------------------------------------
Total Dipole Moment    :     -0.61217      -0.52073      -0.31526
                        -----------------------------------------
Magnitude (a.u.)       :      0.86331
Magnitude (Debye)      :      2.19435

Rotational constants in cm-1:     0.266453     0.134423     0.106086
Rotational constants in MHz :  7988.053142  4029.892766  3180.375228

                             ****ORCA TERMINATED NORMALLY****
TOTAL RUN TIME: 0 days 0 hours 0 minutes 41 seconds 328 msec
