                         Program Version 5.0.0 -  RELEASE  -
|  1> !PBE0 D3BJ RIJCOSX def2-TZVPD def2/J TightSCF xyzfile
|  2>
|  3> *xyzfile 0 1 D1.xyz
|  4>
|  5> %MaxCore 64000
|  6>
|  7> %pal nprocs 4
|  8> end
|  9>
| 10> %scf
| 11>   MaxIter 150
| 12> end
| 13>
| 14>
| 15>                          ****END OF INPUT****

CARTESIAN COORDINATES (ANGSTROEM)
---------------------------------
  C      4.602954   -2.440100    2.634780
  C     -0.914947    0.615112    2.505538
  C     -0.059146    1.503524    3.410578
  H      0.365364    2.344315    2.861161
  H     -0.692261    1.920207    4.198985
  C      1.083027    0.749640    4.085705
  C      3.860851   -1.591565    3.622893
  C      2.756502   -2.046159    4.166333
  N      4.254325   -0.362905    3.860455
  H      3.565256    0.310994    4.168983
  H      5.054292   -0.016059    3.337838
  H      2.439696   -2.973894    3.897395
  H      2.066869   -1.412532    4.549813
  F      2.228167    1.263475    4.019826
  O      0.810034   -0.345411    4.636269
  C      3.744685   -2.580557    1.361882
  C      0.772139    0.636882    0.562129
  C     -0.130740   -0.193985    1.470763
  H     -0.840563   -0.760165    0.856377
  H      0.466691   -0.938942    2.006959
  H     -1.647961    1.245963    1.991076
  H     -1.478180   -0.081046    3.130424
  C      3.203721   -1.256004    0.826211
  H      2.898939   -3.239289    1.583074
  H      4.334962   -3.095523    0.600188
  C      2.107815   -1.442385   -0.216865
  H      2.786775   -0.672760    1.650711
  H      4.021008   -0.652993    0.414046
  C      1.390662   -0.145912   -0.602422
  H      1.372179   -2.152184    0.176151
  H      2.523302   -1.906787   -1.117115
  H      1.561361    1.100094    1.161831
  H      0.195516    1.468325    0.142758
  H      0.602893   -0.398214   -1.319716
  H      2.087247    0.508272   -1.137335
  H      5.561557   -1.971347    2.407084
  H      4.810498   -3.422552    3.063099

 Total Charge           Charge          ....    0
 Multiplicity           Mult            ....    1
 Number of Electrons    NEL             ....  118
 Basis Dimension        Dim             ....  759

ORBITAL ENERGIES
----------------

  NO   OCC          E(Eh)            E(eV)
   0   2.0000     -24.867407      -676.6765
   1   2.0000     -19.224987      -523.1385
   2   2.0000     -14.361593      -390.7988
   3   2.0000     -10.414087      -283.3817
   4   2.0000     -10.259286      -279.1694
   5   2.0000     -10.237972      -278.5894
   6   2.0000     -10.222255      -278.1617
   7   2.0000     -10.221945      -278.1533
   8   2.0000     -10.218745      -278.0662
   9   2.0000     -10.217262      -278.0258
  10   2.0000     -10.210841      -277.8511
  11   2.0000     -10.209374      -277.8112
  12   2.0000     -10.209030      -277.8018
  13   2.0000     -10.206815      -277.7416
  14   2.0000     -10.116979      -275.2970
  15   2.0000      -1.380795       -37.5733
  16   2.0000      -1.082084       -29.4450
  17   2.0000      -0.943645       -25.6779
  18   2.0000      -0.855535       -23.2803
  19   2.0000      -0.830171       -22.5901
  20   2.0000      -0.804962       -21.9041
  21   2.0000      -0.767634       -20.8884
  22   2.0000      -0.743006       -20.2182
  23   2.0000      -0.713491       -19.4151
  24   2.0000      -0.698553       -19.0086
  25   2.0000      -0.667754       -18.1705
  26   2.0000      -0.632371       -17.2077
  27   2.0000      -0.608915       -16.5694
  28   2.0000      -0.593350       -16.1459
  29   2.0000      -0.585357       -15.9284
  30   2.0000      -0.571346       -15.5471
  31   2.0000      -0.556946       -15.1553
  32   2.0000      -0.543382       -14.7862
  33   2.0000      -0.514154       -13.9909
  34   2.0000      -0.496778       -13.5180
  35   2.0000      -0.494412       -13.4536
  36   2.0000      -0.484663       -13.1883
  37   2.0000      -0.465759       -12.6739
  38   2.0000      -0.459227       -12.4962
  39   2.0000      -0.441582       -12.0161
  40   2.0000      -0.438399       -11.9294
  41   2.0000      -0.423092       -11.5129
  42   2.0000      -0.417533       -11.3617
  43   2.0000      -0.404003       -10.9935
  44   2.0000      -0.400163       -10.8890
  45   2.0000      -0.385901       -10.5009
  46   2.0000      -0.382512       -10.4087
  47   2.0000      -0.373189       -10.1550
  48   2.0000      -0.365712        -9.9515
  49   2.0000      -0.356447        -9.6994
  50   2.0000      -0.353723        -9.6253
  51   2.0000      -0.345970        -9.4143
  52   2.0000      -0.335428        -9.1275
  53   2.0000      -0.331877        -9.0308
  54   2.0000      -0.323233        -8.7956
  55   2.0000      -0.320472        -8.7205
  56   2.0000      -0.314683        -8.5630
  57   2.0000      -0.288751        -7.8573
  58   2.0000      -0.180786        -4.9194
  59   0.0000      -0.042337        -1.1521
  60   0.0000       0.003109         0.0846
  61   0.0000       0.017495         0.4761
  62   0.0000       0.019867         0.5406
  63   0.0000       0.023630         0.6430

MULLIKEN ATOMIC CHARGES
-----------------------
   0 C :   -0.318961
   1 C :   -0.283559
   2 C :   -0.237049
   3 H :    0.239380
   4 H :    0.122765
   5 C :    0.566958
   6 C :    0.003310
   7 C :   -1.305121
   8 N :   -0.150000
   9 H :    0.261116
  10 H :    0.222941
  11 H :    0.291888
  12 H :    0.615842
  13 F :   -0.276475
  14 O :   -0.516124
  15 C :   -0.457578
  16 C :   -0.167910
  17 C :   -0.302103
  18 H :    0.185584
  19 H :    0.154090
  20 H :    0.105869
  21 H :    0.183037
  22 C :    0.442367
  23 H :    0.187553
  24 H :    0.145654
  25 C :   -0.330755
  26 H :   -0.340366
  27 H :    0.118133
  28 C :   -0.439032
  29 H :    0.180553
  30 H :    0.163052
  31 H :    0.218747
  32 H :    0.130678
  33 H :    0.148181
  34 H :    0.146727
  35 H :    0.205276
  36 H :    0.085332
Sum of atomic charges:   -0.0000000

LOEWDIN ATOMIC CHARGES
----------------------
   0 C :   -0.142857
   1 C :   -0.192552
   2 C :   -0.100096
   3 H :    0.114032
   4 H :    0.130062
   5 C :   -0.439765
   6 C :   -0.501222
   7 C :    0.027578
   8 N :    0.116503
   9 H :    0.070456
  10 H :    0.110841
  11 H :    0.039688
  12 H :   -0.021600
  13 F :    0.191202
  14 O :    0.081986
  15 C :   -0.196493
  16 C :   -0.218041
  17 C :   -0.208426
  18 H :    0.123904
  19 H :    0.108289
  20 H :    0.117330
  21 H :    0.116457
  22 C :   -0.217210
  23 H :    0.110443
  24 H :    0.110827
  25 C :   -0.218815
  26 H :    0.085605
  27 H :    0.124945
  28 C :   -0.210381
  29 H :    0.109561
  30 H :    0.114708
  31 H :    0.101985
  32 H :    0.116670
  33 H :    0.109711
  34 H :    0.110356
  35 H :    0.107173
  36 H :    0.117146

  Mayer bond orders larger than 0.100000
B(  0-C ,  6-C ) :   0.9935 B(  0-C , 15-C ) :   0.9269 B(  0-C , 35-H ) :   0.9260
B(  0-C , 36-H ) :   0.9730 B(  1-C ,  2-C ) :   0.9505 B(  1-C ,  5-C ) :   0.1844
B(  1-C , 16-C ) :   0.1924 B(  1-C , 17-C ) :   1.1225 B(  1-C , 19-H ) :   0.1117
B(  1-C , 20-H ) :   0.9382 B(  1-C , 21-H ) :   0.8891 B(  2-C ,  3-H ) :   0.9377
B(  2-C ,  4-H ) :   0.8688 B(  2-C ,  5-C ) :   1.0236 B(  2-C , 16-C ) :   0.1795
B(  5-C , 13-F ) :   0.8651 B(  5-C , 14-O ) :   1.7398 B(  5-C , 17-C ) :   0.1024
B(  6-C ,  7-C ) :   1.5955 B(  6-C ,  8-N ) :   1.2549 B(  6-C , 15-C ) :   0.1696
B(  7-C , 11-H ) :   1.0224 B(  7-C , 12-H ) :   0.7809 B(  7-C , 15-C ) :   0.1164
B(  8-N ,  9-H ) :   0.7975 B(  8-N , 10-H ) :   0.8481 B( 12-H , 14-O ) :  -0.2190
B( 13-F , 14-O ) :   0.1068 B( 15-C , 22-C ) :   0.7659 B( 15-C , 23-H ) :   0.8333
B( 15-C , 24-H ) :   0.9573 B( 15-C , 25-C ) :   0.4727 B( 15-C , 26-H ) :   0.1561
B( 15-C , 27-H ) :  -0.1455 B( 16-C , 17-C ) :   0.6851 B( 16-C , 19-H ) :  -0.1288
B( 16-C , 22-C ) :   0.1507 B( 16-C , 28-C ) :   1.0698 B( 16-C , 31-H ) :   1.0033
B( 16-C , 32-H ) :   0.8804 B( 17-C , 18-H ) :   0.8195 B( 17-C , 19-H ) :   1.1804
B( 17-C , 25-C ) :   0.1522 B( 17-C , 28-C ) :   0.2686 B( 17-C , 29-H ) :   0.1084
B( 17-C , 31-H ) :  -0.1098 B( 22-C , 25-C ) :   0.6676 B( 22-C , 26-H ) :   1.5528
B( 22-C , 27-H ) :   0.8110 B( 22-C , 28-C ) :   0.2030 B( 23-H , 25-C ) :   0.1139
B( 25-C , 27-H ) :  -0.1270 B( 25-C , 28-C ) :   1.0754 B( 25-C , 29-H ) :   0.8811
B( 25-C , 30-H ) :   0.9321 B( 26-H , 27-H ) :   0.1035 B( 28-C , 33-H ) :   0.9224
B( 28-C , 34-H ) :   0.9426

Dispersion correction           -0.037672616
FINAL SINGLE POINT ENERGY      -699.773376468211

DIPOLE MOMENT
-------------
                                X             Y             Z
Electronic contribution:      1.17942       7.37626      14.95971
Nuclear contribution   :     -1.66567      -5.90236     -15.95042
                        -----------------------------------------
Total Dipole Moment    :     -0.48624       1.47390      -0.99071
                        -----------------------------------------
Magnitude (a.u.)       :      1.84128
Magnitude (Debye)      :      4.68016

Rotational constants in cm-1:     0.021600     0.017292     0.011381
Rotational constants in MHz :   647.565282   518.410024   341.193038

                             ****ORCA TERMINATED NORMALLY****
TOTAL RUN TIME: 0 days 0 hours 8 minutes 58 seconds 275 msec
