                         Program Version 5.0.0 -  RELEASE  -
|  1> !PBE0 D3BJ RIJCOSX def2-TZVPD def2/J TightSCF xyzfile
|  2>
|  3> *xyzfile 0 1 D2.xyz
|  4>
|  5> %MaxCore 64000
|  6>
|  7> %pal nprocs 4
|  8> end
|  9>
| 10> %scf
| 11>   MaxIter 150
| 12> end
| 13>
| 14>
| 15>                          ****END OF INPUT****

CARTESIAN COORDINATES (ANGSTROEM)
---------------------------------
  C      4.602954   -2.440100    2.634780
  C     -0.914947    0.615112    2.505538
  C     -0.059146    1.503524    3.410578
  H      0.365364    2.344315    2.861161
  H     -0.692261    1.920207    4.198985
  C      1.083027    0.749640    4.085705
  C      3.860851   -1.591565    3.622893
  N      2.756502   -2.046159    4.166333
  C      4.254325   -0.362905    3.860455
  H      3.565256    0.310994    4.168983
  H      5.054292   -0.016059    3.337838
  H      2.439696   -2.973894    3.897395
  H      2.066869   -1.412532    4.549813
  F      2.228167    1.263475    4.019826
  O      0.810034   -0.345411    4.636269
  C      3.744685   -2.580557    1.361882
  C      0.772139    0.636882    0.562129
  C     -0.130740   -0.193985    1.470763
  H     -0.840563   -0.760165    0.856377
  H      0.466691   -0.938942    2.006959
  H     -1.647961    1.245963    1.991076
  H     -1.478180   -0.081046    3.130424
  C      3.203721   -1.256004    0.826211
  H      2.898939   -3.239289    1.583074
  H      4.334962   -3.095523    0.600188
  C      2.107815   -1.442385   -0.216865
  H      2.786775   -0.672760    1.650711
  H      4.021008   -0.652993    0.414046
  C      1.390662   -0.145912   -0.602422
  H      1.372179   -2.152184    0.176151
  H      2.523302   -1.906787   -1.117115
  H      1.561361    1.100094    1.161831
  H      0.195516    1.468325    0.142758
  H      0.602893   -0.398214   -1.319716
  H      2.087247    0.508272   -1.137335
  H      5.561557   -1.971347    2.407084
  H      4.810498   -3.422552    3.063099

 Total Charge           Charge          ....    0
 Multiplicity           Mult            ....    1
 Number of Electrons    NEL             ....  118
 Basis Dimension        Dim             ....  759

ORBITAL ENERGIES
----------------

  NO   OCC          E(Eh)            E(eV)
   0   2.0000     -24.857964      -676.4196
   1   2.0000     -19.236016      -523.4386
   2   2.0000     -14.350031      -390.4842
   3   2.0000     -10.421521      -283.5840
   4   2.0000     -10.262255      -279.2502
   5   2.0000     -10.241587      -278.6877
   6   2.0000     -10.225887      -278.2605
   7   2.0000     -10.223115      -278.1851
   8   2.0000     -10.221008      -278.1278
   9   2.0000     -10.217788      -278.0401
  10   2.0000     -10.212721      -277.9023
  11   2.0000     -10.211343      -277.8648
  12   2.0000     -10.208154      -277.7780
  13   2.0000     -10.205135      -277.6958
  14   2.0000     -10.125318      -275.5239
  15   2.0000      -1.372739       -37.3541
  16   2.0000      -1.092503       -29.7285
  17   2.0000      -0.936048       -25.4712
  18   2.0000      -0.858358       -23.3571
  19   2.0000      -0.830884       -22.6095
  20   2.0000      -0.804181       -21.8829
  21   2.0000      -0.769427       -20.9372
  22   2.0000      -0.738496       -20.0955
  23   2.0000      -0.724823       -19.7234
  24   2.0000      -0.692095       -18.8329
  25   2.0000      -0.669032       -18.2053
  26   2.0000      -0.631606       -17.1869
  27   2.0000      -0.604730       -16.4555
  28   2.0000      -0.586956       -15.9719
  29   2.0000      -0.580692       -15.8014
  30   2.0000      -0.574521       -15.6335
  31   2.0000      -0.565928       -15.3997
  32   2.0000      -0.544492       -14.8164
  33   2.0000      -0.515023       -14.0145
  34   2.0000      -0.499974       -13.6050
  35   2.0000      -0.493991       -13.4422
  36   2.0000      -0.477595       -12.9960
  37   2.0000      -0.468359       -12.7447
  38   2.0000      -0.458235       -12.4692
  39   2.0000      -0.448902       -12.2152
  40   2.0000      -0.438184       -11.9236
  41   2.0000      -0.424318       -11.5463
  42   2.0000      -0.421028       -11.4567
  43   2.0000      -0.408792       -11.1238
  44   2.0000      -0.394792       -10.7428
  45   2.0000      -0.387919       -10.5558
  46   2.0000      -0.382715       -10.4142
  47   2.0000      -0.380296       -10.3484
  48   2.0000      -0.365463        -9.9447
  49   2.0000      -0.361001        -9.8233
  50   2.0000      -0.354757        -9.6534
  51   2.0000      -0.341397        -9.2899
  52   2.0000      -0.335752        -9.1363
  53   2.0000      -0.332051        -9.0356
  54   2.0000      -0.326097        -8.8735
  55   2.0000      -0.323409        -8.8004
  56   2.0000      -0.315301        -8.5798
  57   2.0000      -0.305277        -8.3070
  58   2.0000      -0.182309        -4.9609
  59   0.0000      -0.047774        -1.3000
  60   0.0000       0.004352         0.1184
  61   0.0000       0.014493         0.3944
  62   0.0000       0.020234         0.5506
  63   0.0000       0.023353         0.6355

MULLIKEN ATOMIC CHARGES
-----------------------
   0 C :   -0.346652
   1 C :   -0.286758
   2 C :   -0.204128
   3 H :    0.241175
   4 H :    0.130166
   5 C :    0.556829
   6 C :    0.166441
   7 N :   -0.141844
   8 C :   -1.212917
   9 H :    0.497792
  10 H :    0.222722
  11 H :    0.220331
  12 H :    0.195326
  13 F :   -0.214206
  14 O :   -0.612130
  15 C :   -0.373225
  16 C :   -0.188950
  17 C :   -0.313762
  18 H :    0.198533
  19 H :    0.150392
  20 H :    0.115325
  21 H :    0.172223
  22 C :    0.492799
  23 H :    0.184878
  24 H :    0.089422
  25 C :   -0.314636
  26 H :   -0.403847
  27 H :    0.118926
  28 C :   -0.409936
  29 H :    0.183513
  30 H :    0.131125
  31 H :    0.226509
  32 H :    0.138058
  33 H :    0.149702
  34 H :    0.150749
  35 H :    0.170273
  36 H :    0.119782
Sum of atomic charges:   -0.0000000

LOEWDIN ATOMIC CHARGES
----------------------
   0 C :   -0.143635
   1 C :   -0.193327
   2 C :   -0.096928
   3 H :    0.116430
   4 H :    0.131128
   5 C :   -0.433518
   6 C :   -0.504157
   7 N :    0.131160
   8 C :    0.016704
   9 H :   -0.001933
  10 H :    0.032463
  11 H :    0.113466
  12 H :    0.043350
  13 F :    0.188789
  14 O :    0.082069
  15 C :   -0.196374
  16 C :   -0.216652
  17 C :   -0.210336
  18 H :    0.123731
  19 H :    0.105737
  20 H :    0.117976
  21 H :    0.115626
  22 C :   -0.213602
  23 H :    0.104280
  24 H :    0.112565
  25 C :   -0.221296
  26 H :    0.086095
  27 H :    0.129788
  28 C :   -0.209652
  29 H :    0.107375
  30 H :    0.114185
  31 H :    0.104162
  32 H :    0.117092
  33 H :    0.109503
  34 H :    0.111293
  35 H :    0.114173
  36 H :    0.112272

  Mayer bond orders larger than 0.100000
B(  0-C ,  6-C ) :   1.0477 B(  0-C , 15-C ) :   0.9371 B(  0-C , 24-H ) :   0.1190
B(  0-C , 35-H ) :   0.8423 B(  0-C , 36-H ) :   1.0339 B(  1-C ,  2-C ) :   0.9724
B(  1-C ,  5-C ) :   0.1885 B(  1-C , 16-C ) :   0.1927 B(  1-C , 17-C ) :   1.1331
B(  1-C , 19-H ) :   0.1159 B(  1-C , 20-H ) :   0.9231 B(  1-C , 21-H ) :   0.8879
B(  2-C ,  3-H ) :   0.9272 B(  2-C ,  4-H ) :   0.8537 B(  2-C ,  5-C ) :   1.0331
B(  2-C , 16-C ) :   0.1810 B(  5-C , 13-F ) :   0.9254 B(  5-C , 14-O ) :   1.6192
B(  5-C , 17-C ) :   0.1113 B(  6-C ,  7-N ) :   1.1171 B(  6-C ,  8-C ) :   1.7887
B(  6-C , 10-H ) :  -0.1261 B(  7-N , 11-H ) :   0.8648 B(  7-N , 12-H ) :   0.8254
B(  8-C ,  9-H ) :   0.8110 B(  8-C , 10-H ) :   1.1015 B( 13-F , 14-O ) :   0.1081
B( 15-C , 22-C ) :   0.7751 B( 15-C , 23-H ) :   0.8421 B( 15-C , 24-H ) :   0.9677
B( 15-C , 25-C ) :   0.4606 B( 15-C , 26-H ) :   0.1903 B( 15-C , 27-H ) :  -0.1455
B( 16-C , 17-C ) :   0.6889 B( 16-C , 19-H ) :  -0.1292 B( 16-C , 22-C ) :   0.1497
B( 16-C , 28-C ) :   1.0748 B( 16-C , 31-H ) :   1.0121 B( 16-C , 32-H ) :   0.8784
B( 17-C , 18-H ) :   0.8064 B( 17-C , 19-H ) :   1.1813 B( 17-C , 25-C ) :   0.1534
B( 17-C , 28-C ) :   0.2654 B( 17-C , 29-H ) :   0.1117 B( 17-C , 31-H ) :  -0.1179
B( 22-C , 25-C ) :   0.7161 B( 22-C , 26-H ) :   1.5465 B( 22-C , 27-H ) :   0.7691
B( 22-C , 28-C ) :   0.1874 B( 25-C , 27-H ) :  -0.1310 B( 25-C , 28-C ) :   1.0682
B( 25-C , 29-H ) :   0.8736 B( 25-C , 30-H ) :   0.9581 B( 26-H , 27-H ) :   0.1880
B( 28-C , 33-H ) :   0.9266 B( 28-C , 34-H ) :   0.9398

Dispersion correction           -0.037629083
FINAL SINGLE POINT ENERGY      -699.783422528815

DIPOLE MOMENT
-------------
                                X             Y             Z
Electronic contribution:      0.06203       6.24743      15.12692
Nuclear contribution   :     -1.39991      -5.60370     -16.00470
                        -----------------------------------------
Total Dipole Moment    :     -1.33787       0.64372      -0.87777
                        -----------------------------------------
Magnitude (a.u.)       :      1.72475
Magnitude (Debye)      :      4.38397

Rotational constants in cm-1:     0.021622     0.017313     0.011402
Rotational constants in MHz :   648.226014   519.043632   341.814105

                             ****ORCA TERMINATED NORMALLY****
TOTAL RUN TIME: 0 days 0 hours 9 minutes 19 seconds 670 msec
