                         Program Version 5.0.0 -  RELEASE  -
|  1> !PBE0 D3BJ RIJCOSX def2-TZVPD def2/J TightSCF xyzfile
|  2>
|  3> *xyzfile 0 1 D3.xyz
|  4>
|  5> %MaxCore 64000
|  6>
|  7> %pal nprocs 4
|  8> end
|  9>
| 10> %scf
| 11>   MaxIter 150
| 12> end
| 13>
| 14>
| 15>                          ****END OF INPUT****

CARTESIAN COORDINATES (ANGSTROEM)
---------------------------------
  C      4.602954   -2.440100    2.634780
  C     -0.914947    0.615112    2.505538
  C     -0.059146    1.503524    3.410578
  H      0.365364    2.344315    2.861161
  H     -0.692261    1.920207    4.198985
  C      1.083027    0.749640    4.085705
  C      3.860851   -1.591565    3.622893
  C      2.756502   -2.046159    4.166333
  N      4.254325   -0.362905    3.860455
  H      3.565256    0.310994    4.168983
  H      5.054292   -0.016059    3.337838
  H      2.439696   -2.973894    3.897395
  H      2.066869   -1.412532    4.549813
  O      2.228167    1.263475    4.019826
  F      0.810034   -0.345411    4.636269
  C      3.744685   -2.580557    1.361882
  C      0.772139    0.636882    0.562129
  C     -0.130740   -0.193985    1.470763
  H     -0.840563   -0.760165    0.856377
  H      0.466691   -0.938942    2.006959
  H     -1.647961    1.245963    1.991076
  H     -1.478180   -0.081046    3.130424
  C      3.203721   -1.256004    0.826211
  H      2.898939   -3.239289    1.583074
  H      4.334962   -3.095523    0.600188
  C      2.107815   -1.442385   -0.216865
  H      2.786775   -0.672760    1.650711
  H      4.021008   -0.652993    0.414046
  C      1.390662   -0.145912   -0.602422
  H      1.372179   -2.152184    0.176151
  H      2.523302   -1.906787   -1.117115
  H      1.561361    1.100094    1.161831
  H      0.195516    1.468325    0.142758
  H      0.602893   -0.398214   -1.319716
  H      2.087247    0.508272   -1.137335
  H      5.561557   -1.971347    2.407084
  H      4.810498   -3.422552    3.063099

 Total Charge           Charge          ....    0
 Multiplicity           Mult            ....    1
 Number of Electrons    NEL             ....  118
 Basis Dimension        Dim             ....  759

ORBITAL ENERGIES
----------------

  NO   OCC          E(Eh)            E(eV)
   0   2.0000     -24.857073      -676.3953
   1   2.0000     -19.234459      -523.3962
   2   2.0000     -14.348211      -390.4347
   3   2.0000     -10.419871      -283.5391
   4   2.0000     -10.260425      -279.2003
   5   2.0000     -10.242798      -278.7207
   6   2.0000     -10.226569      -278.2791
   7   2.0000     -10.221030      -278.1284
   8   2.0000     -10.220286      -278.1081
   9   2.0000     -10.216127      -277.9949
  10   2.0000     -10.210021      -277.8288
  11   2.0000     -10.209023      -277.8016
  12   2.0000     -10.208452      -277.7861
  13   2.0000     -10.204346      -277.6744
  14   2.0000     -10.125052      -275.5167
  15   2.0000      -1.372316       -37.3426
  16   2.0000      -1.089586       -29.6491
  17   2.0000      -0.935022       -25.4432
  18   2.0000      -0.859291       -23.3825
  19   2.0000      -0.830305       -22.5937
  20   2.0000      -0.803651       -21.8685
  21   2.0000      -0.768202       -20.9038
  22   2.0000      -0.735467       -20.0131
  23   2.0000      -0.717655       -19.5284
  24   2.0000      -0.692209       -18.8360
  25   2.0000      -0.669277       -18.2120
  26   2.0000      -0.633784       -17.2461
  27   2.0000      -0.607985       -16.5441
  28   2.0000      -0.587754       -15.9936
  29   2.0000      -0.584263       -15.8986
  30   2.0000      -0.573461       -15.6047
  31   2.0000      -0.559597       -15.2274
  32   2.0000      -0.538718       -14.6593
  33   2.0000      -0.508834       -13.8461
  34   2.0000      -0.498487       -13.5645
  35   2.0000      -0.493553       -13.4303
  36   2.0000      -0.483047       -13.1444
  37   2.0000      -0.462772       -12.5927
  38   2.0000      -0.458978       -12.4894
  39   2.0000      -0.445329       -12.1180
  40   2.0000      -0.437514       -11.9054
  41   2.0000      -0.423719       -11.5300
  42   2.0000      -0.421623       -11.4730
  43   2.0000      -0.404834       -11.0161
  44   2.0000      -0.399083       -10.8596
  45   2.0000      -0.389109       -10.5882
  46   2.0000      -0.384872       -10.4729
  47   2.0000      -0.378356       -10.2956
  48   2.0000      -0.365322        -9.9409
  49   2.0000      -0.355006        -9.6602
  50   2.0000      -0.352569        -9.5939
  51   2.0000      -0.346435        -9.4270
  52   2.0000      -0.334528        -9.1030
  53   2.0000      -0.330495        -8.9932
  54   2.0000      -0.322878        -8.7860
  55   2.0000      -0.320523        -8.7219
  56   2.0000      -0.313290        -8.5250
  57   2.0000      -0.305248        -8.3062
  58   2.0000      -0.181019        -4.9258
  59   0.0000      -0.043381        -1.1805
  60   0.0000       0.003617         0.0984
  61   0.0000       0.018718         0.5093
  62   0.0000       0.019995         0.5441
  63   0.0000       0.023891         0.6501

MULLIKEN ATOMIC CHARGES
-----------------------
   0 C :   -0.299823
   1 C :   -0.344966
   2 C :   -0.140503
   3 H :    0.197624
   4 H :    0.143651
   5 C :    0.523160
   6 C :    0.062873
   7 C :   -1.261585
   8 N :   -0.137875
   9 H :    0.249019
  10 H :    0.214569
  11 H :    0.294947
  12 H :    0.520106
  13 O :   -0.584652
  14 F :   -0.247193
  15 C :   -0.466884
  16 C :   -0.195482
  17 C :   -0.221145
  18 H :    0.181260
  19 H :    0.114232
  20 H :    0.110381
  21 H :    0.188010
  22 C :    0.440781
  23 H :    0.184700
  24 H :    0.141126
  25 C :   -0.331202
  26 H :   -0.312054
  27 H :    0.109392
  28 C :   -0.427101
  29 H :    0.175750
  30 H :    0.158102
  31 H :    0.241488
  32 H :    0.131933
  33 H :    0.144904
  34 H :    0.147681
  35 H :    0.202580
  36 H :    0.092195
Sum of atomic charges:    0.0000000

LOEWDIN ATOMIC CHARGES
----------------------
   0 C :   -0.141280
   1 C :   -0.197854
   2 C :   -0.093512
   3 H :    0.123204
   4 H :    0.129105
   5 C :   -0.437144
   6 C :   -0.499298
   7 C :    0.021355
   8 N :    0.120624
   9 H :    0.043897
  10 H :    0.111465
  11 H :    0.035474
  12 H :   -0.003260
  13 O :    0.078563
  14 F :    0.191122
  15 C :   -0.197100
  16 C :   -0.215098
  17 C :   -0.209893
  18 H :    0.123455
  19 H :    0.106909
  20 H :    0.117508
  21 H :    0.113365
  22 C :   -0.215896
  23 H :    0.109243
  24 H :    0.110819
  25 C :   -0.219577
  26 H :    0.086939
  27 H :    0.126059
  28 C :   -0.210049
  29 H :    0.108412
  30 H :    0.114464
  31 H :    0.105367
  32 H :    0.117181
  33 H :    0.109032
  34 H :    0.111050
  35 H :    0.108379
  36 H :    0.116969

  Mayer bond orders larger than 0.100000
B(  0-C ,  6-C ) :   1.0050 B(  0-C , 15-C ) :   0.9242 B(  0-C , 35-H ) :   0.9161
B(  0-C , 36-H ) :   0.9772 B(  1-C ,  2-C ) :   0.9171 B(  1-C ,  5-C ) :   0.1809
B(  1-C , 16-C ) :   0.2006 B(  1-C , 17-C ) :   1.0619 B(  1-C , 19-H ) :   0.1103
B(  1-C , 20-H ) :   0.9251 B(  1-C , 21-H ) :   0.9264 B(  2-C ,  3-H ) :   0.9567
B(  2-C ,  4-H ) :   0.8767 B(  2-C ,  5-C ) :   1.0148 B(  2-C , 16-C ) :   0.1852
B(  5-C , 13-O ) :   1.6460 B(  5-C , 14-F ) :   0.9399 B(  6-C ,  7-C ) :   1.6038
B(  6-C ,  8-N ) :   1.2393 B(  6-C , 15-C ) :   0.1678 B(  7-C , 11-H ) :   1.0117
B(  7-C , 12-H ) :   0.7926 B(  7-C , 15-C ) :   0.1227 B(  8-N ,  9-H ) :   0.8184
B(  8-N , 10-H ) :   0.8438 B( 15-C , 22-C ) :   0.7495 B( 15-C , 23-H ) :   0.8358
B( 15-C , 24-H ) :   0.9562 B( 15-C , 25-C ) :   0.4709 B( 15-C , 26-H ) :   0.1780
B( 15-C , 27-H ) :  -0.1457 B( 16-C , 17-C ) :   0.7159 B( 16-C , 19-H ) :  -0.1097
B( 16-C , 22-C ) :   0.1364 B( 16-C , 26-H ) :   0.1024 B( 16-C , 28-C ) :   1.0558
B( 16-C , 31-H ) :   0.9925 B( 16-C , 32-H ) :   0.8791 B( 17-C , 18-H ) :   0.8463
B( 17-C , 19-H ) :   1.1563 B( 17-C , 22-C ) :  -0.1006 B( 17-C , 25-C ) :   0.1575
B( 17-C , 28-C ) :   0.2609 B( 17-C , 29-H ) :   0.1138 B( 22-C , 25-C ) :   0.6498
B( 22-C , 26-H ) :   1.5734 B( 22-C , 27-H ) :   0.7894 B( 22-C , 28-C ) :   0.1971
B( 23-H , 25-C ) :   0.1153 B( 25-C , 27-H ) :  -0.1240 B( 25-C , 28-C ) :   1.0735
B( 25-C , 29-H ) :   0.8834 B( 25-C , 30-H ) :   0.9350 B( 26-H , 27-H ) :   0.1309
B( 28-C , 33-H ) :   0.9251 B( 28-C , 34-H ) :   0.9389

Dispersion correction           -0.037675010
FINAL SINGLE POINT ENERGY      -699.784539080268

DIPOLE MOMENT
-------------
                                X             Y             Z
Electronic contribution:     -1.22142       4.75669      15.95988
Nuclear contribution   :      0.05905      -3.94566     -16.70013
                        -----------------------------------------
Total Dipole Moment    :     -1.16237       0.81103      -0.74026
                        -----------------------------------------
Magnitude (a.u.)       :      1.59902
Magnitude (Debye)      :      4.06438

Rotational constants in cm-1:     0.021602     0.017295     0.011353
Rotational constants in MHz :   647.614981   518.478934   340.359556

                             ****ORCA TERMINATED NORMALLY****
TOTAL RUN TIME: 0 days 0 hours 9 minutes 18 seconds 22 msec
