                         Program Version 5.0.0 -  RELEASE  -
|  1> !PBE0 D3BJ RIJCOSX def2-TZVPD def2/J TightSCF xyzfile
|  2>
|  3> *xyzfile 0 1 D4.xyz
|  4>
|  5> %MaxCore 64000
|  6>
|  7> %pal nprocs 4
|  8> end
|  9>
| 10> %scf
| 11>   MaxIter 150
| 12> end
| 13>
| 14>
| 15>                          ****END OF INPUT****

CARTESIAN COORDINATES (ANGSTROEM)
---------------------------------
  C      4.602954   -2.440100    2.634780
  C     -0.914947    0.615112    2.505538
  C     -0.059146    1.503524    3.410578
  H      0.365364    2.344315    2.861161
  H     -0.692261    1.920207    4.198985
  C      1.083027    0.749640    4.085705
  C      3.860851   -1.591565    3.622893
  N      2.756502   -2.046159    4.166333
  C      4.254325   -0.362905    3.860455
  H      3.565256    0.310994    4.168983
  H      5.054292   -0.016059    3.337838
  H      2.439696   -2.973894    3.897395
  H      2.066869   -1.412532    4.549813
  O      2.228167    1.263475    4.019826
  F      0.810034   -0.345411    4.636269
  C      3.744685   -2.580557    1.361882
  C      0.772139    0.636882    0.562129
  C     -0.130740   -0.193985    1.470763
  H     -0.840563   -0.760165    0.856377
  H      0.466691   -0.938942    2.006959
  H     -1.647961    1.245963    1.991076
  H     -1.478180   -0.081046    3.130424
  C      3.203721   -1.256004    0.826211
  H      2.898939   -3.239289    1.583074
  H      4.334962   -3.095523    0.600188
  C      2.107815   -1.442385   -0.216865
  H      2.786775   -0.672760    1.650711
  H      4.021008   -0.652993    0.414046
  C      1.390662   -0.145912   -0.602422
  H      1.372179   -2.152184    0.176151
  H      2.523302   -1.906787   -1.117115
  H      1.561361    1.100094    1.161831
  H      0.195516    1.468325    0.142758
  H      0.602893   -0.398214   -1.319716
  H      2.087247    0.508272   -1.137335
  H      5.561557   -1.971347    2.407084
  H      4.810498   -3.422552    3.063099

 Total Charge           Charge          ....    0
 Multiplicity           Mult            ....    1
 Number of Electrons    NEL             ....  118
 Basis Dimension        Dim             ....  759

ORBITAL ENERGIES
----------------

  NO   OCC          E(Eh)            E(eV)
   0   2.0000     -24.869170      -676.7245
   1   2.0000     -19.226056      -523.1676
   2   2.0000     -14.362764      -390.8307
   3   2.0000     -10.415370      -283.4166
   4   2.0000     -10.259866      -279.1851
   5   2.0000     -10.243870      -278.7499
   6   2.0000     -10.229401      -278.3561
   7   2.0000     -10.220390      -278.1110
   8   2.0000     -10.216962      -278.0177
   9   2.0000     -10.216111      -277.9945
  10   2.0000     -10.211393      -277.8661
  11   2.0000     -10.210220      -277.8342
  12   2.0000     -10.206741      -277.7395
  13   2.0000     -10.202628      -277.6276
  14   2.0000     -10.115444      -275.2552
  15   2.0000      -1.383277       -37.6409
  16   2.0000      -1.082150       -29.4468
  17   2.0000      -0.942946       -25.6589
  18   2.0000      -0.860110       -23.4048
  19   2.0000      -0.830236       -22.5919
  20   2.0000      -0.804156       -21.8822
  21   2.0000      -0.767039       -20.8722
  22   2.0000      -0.740911       -20.1612
  23   2.0000      -0.716281       -19.4910
  24   2.0000      -0.701519       -19.0893
  25   2.0000      -0.667545       -18.1648
  26   2.0000      -0.634088       -17.2544
  27   2.0000      -0.606134       -16.4938
  28   2.0000      -0.599967       -16.3259
  29   2.0000      -0.590363       -16.0646
  30   2.0000      -0.571551       -15.5527
  31   2.0000      -0.561222       -15.2716
  32   2.0000      -0.537502       -14.6262
  33   2.0000      -0.517445       -14.0804
  34   2.0000      -0.500706       -13.6249
  35   2.0000      -0.497215       -13.5299
  36   2.0000      -0.475290       -12.9333
  37   2.0000      -0.461868       -12.5681
  38   2.0000      -0.455581       -12.3970
  39   2.0000      -0.450426       -12.2567
  40   2.0000      -0.434531       -11.8242
  41   2.0000      -0.428072       -11.6484
  42   2.0000      -0.422453       -11.4955
  43   2.0000      -0.403556       -10.9813
  44   2.0000      -0.396473       -10.7886
  45   2.0000      -0.388988       -10.5849
  46   2.0000      -0.386004       -10.5037
  47   2.0000      -0.373994       -10.1769
  48   2.0000      -0.368658       -10.0317
  49   2.0000      -0.360878        -9.8200
  50   2.0000      -0.356482        -9.7004
  51   2.0000      -0.341479        -9.2921
  52   2.0000      -0.335531        -9.1303
  53   2.0000      -0.333616        -9.0782
  54   2.0000      -0.323123        -8.7926
  55   2.0000      -0.319629        -8.6975
  56   2.0000      -0.313533        -8.5317
  57   2.0000      -0.283596        -7.7170
  58   2.0000      -0.180870        -4.9217
  59   0.0000      -0.041212        -1.1214
  60   0.0000       0.000142         0.0039
  61   0.0000       0.013652         0.3715
  62   0.0000       0.019573         0.5326
  63   0.0000       0.023861         0.6493

MULLIKEN ATOMIC CHARGES
-----------------------
   0 C :   -0.360036
   1 C :   -0.347122
   2 C :   -0.132109
   3 H :    0.195322
   4 H :    0.142077
   5 C :    0.489054
   6 C :    0.101938
   7 N :   -0.164902
   8 C :   -1.210639
   9 H :    0.577306
  10 H :    0.207884
  11 H :    0.228402
  12 H :    0.239403
  13 O :   -0.490580
  14 F :   -0.311492
  15 C :   -0.366601
  16 C :   -0.219169
  17 C :   -0.223742
  18 H :    0.194018
  19 H :    0.100118
  20 H :    0.118875
  21 H :    0.184686
  22 C :    0.470026
  23 H :    0.177240
  24 H :    0.084110
  25 C :   -0.322588
  26 H :   -0.360448
  27 H :    0.118793
  28 C :   -0.395431
  29 H :    0.179118
  30 H :    0.128630
  31 H :    0.248551
  32 H :    0.138358
  33 H :    0.145897
  34 H :    0.151792
  35 H :    0.165707
  36 H :    0.117552
Sum of atomic charges:   -0.0000000

LOEWDIN ATOMIC CHARGES
----------------------
   0 C :   -0.145232
   1 C :   -0.200320
   2 C :   -0.094604
   3 H :    0.124183
   4 H :    0.128326
   5 C :   -0.441801
   6 C :   -0.505402
   7 N :    0.128587
   8 C :    0.021728
   9 H :   -0.022129
  10 H :    0.036058
  11 H :    0.112734
  12 H :    0.069025
  13 O :    0.080357
  14 F :    0.194800
  15 C :   -0.197978
  16 C :   -0.213765
  17 C :   -0.212108
  18 H :    0.123005
  19 H :    0.104005
  20 H :    0.117525
  21 H :    0.111896
  22 C :   -0.212095
  23 H :    0.102724
  24 H :    0.112183
  25 C :   -0.222176
  26 H :    0.087872
  27 H :    0.130762
  28 C :   -0.209506
  29 H :    0.106128
  30 H :    0.113920
  31 H :    0.107362
  32 H :    0.117647
  33 H :    0.108777
  34 H :    0.111868
  35 H :    0.114762
  36 H :    0.110883

  Mayer bond orders larger than 0.100000
B(  0-C ,  6-C ) :   1.0416 B(  0-C , 15-C ) :   0.9343 B(  0-C , 24-H ) :   0.1204
B(  0-C , 35-H ) :   0.8412 B(  0-C , 36-H ) :   1.0496 B(  1-C ,  2-C ) :   0.9152
B(  1-C ,  5-C ) :   0.1756 B(  1-C , 16-C ) :   0.2025 B(  1-C , 17-C ) :   1.0695
B(  1-C , 19-H ) :   0.1090 B(  1-C , 20-H ) :   0.9188 B(  1-C , 21-H ) :   0.9227
B(  2-C ,  3-H ) :   0.9496 B(  2-C ,  4-H ) :   0.8698 B(  2-C ,  5-C ) :   1.0410
B(  2-C , 16-C ) :   0.1888 B(  5-C , 13-O ) :   1.7259 B(  5-C , 14-F ) :   0.8317
B(  5-C , 17-C ) :   0.1064 B(  6-C ,  7-N ) :   1.1432 B(  6-C ,  8-C ) :   1.7668
B(  6-C , 10-H ) :  -0.1248 B(  7-N , 11-H ) :   0.8690 B(  7-N , 12-H ) :   0.8032
B(  8-C ,  9-H ) :   0.8277 B(  8-C , 10-H ) :   1.1215 B(  9-H , 13-O ) :  -0.2241
B( 13-O , 14-F ) :   0.1160 B( 15-C , 22-C ) :   0.7507 B( 15-C , 23-H ) :   0.8483
B( 15-C , 24-H ) :   0.9676 B( 15-C , 25-C ) :   0.4599 B( 15-C , 26-H ) :   0.1947
B( 15-C , 27-H ) :  -0.1437 B( 16-C , 17-C ) :   0.7241 B( 16-C , 19-H ) :  -0.1111
B( 16-C , 22-C ) :   0.1359 B( 16-C , 28-C ) :   1.0571 B( 16-C , 31-H ) :   1.0014
B( 16-C , 32-H ) :   0.8762 B( 17-C , 18-H ) :   0.8291 B( 17-C , 19-H ) :   1.1647
B( 17-C , 25-C ) :   0.1593 B( 17-C , 28-C ) :   0.2574 B( 17-C , 29-H ) :   0.1144
B( 22-C , 25-C ) :   0.6993 B( 22-C , 26-H ) :   1.5685 B( 22-C , 27-H ) :   0.7574
B( 22-C , 28-C ) :   0.1851 B( 25-C , 27-H ) :  -0.1285 B( 25-C , 28-C ) :   1.0658
B( 25-C , 29-H ) :   0.8758 B( 25-C , 30-H ) :   0.9585 B( 26-H , 27-H ) :   0.1997
B( 28-C , 33-H ) :   0.9289 B( 28-C , 34-H ) :   0.9357

Dispersion correction           -0.037635911
FINAL SINGLE POINT ENERGY      -699.772043793247

DIPOLE MOMENT
-------------
                                X             Y             Z
Electronic contribution:     -2.26451       3.58905      16.19883
Nuclear contribution   :      0.32481      -3.64700     -16.75441
                        -----------------------------------------
Total Dipole Moment    :     -1.93970      -0.05795      -0.55557
                        -----------------------------------------
Magnitude (a.u.)       :      2.01853
Magnitude (Debye)      :      5.13069

Rotational constants in cm-1:     0.021629     0.017327     0.011372
Rotational constants in MHz :   648.414821   519.443407   340.925013

                             ****ORCA TERMINATED NORMALLY****
TOTAL RUN TIME: 0 days 0 hours 8 minutes 49 seconds 214 msec
