                         Program Version 5.0.0 -  RELEASE  -
|  1> !TPSS D3BJ RIJCOSX def2-TZVPD def2/J TightSCF
|  2>
|  3> *xyz -1 1
|  4> C          2.95263        1.86308       -3.57485
|  5> C          4.12921        0.89839       -3.41895
|  6> H          3.73369       -0.10060       -3.23763
|  7> H          4.71910        0.86256       -4.33901
|  8> C          5.01734        1.31521       -2.22130
|  9> O          4.73706        0.85411       -1.12283
| 10> O          5.92815        2.16811       -2.49136
| 11> H          2.35067        1.56005       -4.40594
| 12> H          3.32277        2.85258       -3.74453
| 13> H          2.36134        1.85149       -2.68315
| 14> *
| 15> %MaxCore 64000
| 16>
| 17> %pal nprocs 4
| 18> end
| 19>
| 20> %scf
| 21>   MaxIter 150
| 22> end
| 23>
| 24>
| 25>                          ****END OF INPUT****

CARTESIAN COORDINATES (ANGSTROEM)
---------------------------------
  C      2.952630    1.863080   -3.574850
  C      4.129210    0.898390   -3.418950
  H      3.733690   -0.100600   -3.237630
  H      4.719100    0.862560   -4.339010
  C      5.017340    1.315210   -2.221300
  O      4.737060    0.854110   -1.122830
  O      5.928150    2.168110   -2.491360
  H      2.350670    1.560050   -4.405940
  H      3.322770    2.852580   -3.744530
  H      2.361340    1.851490   -2.683150

 Total Charge           Charge          ....   -1
 Multiplicity           Mult            ....    1
 Number of Electrons    NEL             ....   40
 Basis Dimension        Dim             ....  236

ORBITAL ENERGIES
----------------

  NO   OCC          E(Eh)            E(eV)
   0   2.0000     -18.624726      -506.8046
   1   2.0000     -18.615290      -506.5478
   2   2.0000      -9.856839      -268.2182
   3   2.0000      -9.821781      -267.2643
   4   2.0000      -9.806721      -266.8544
   5   2.0000      -0.755011       -20.5449
   6   2.0000      -0.662909       -18.0387
   7   2.0000      -0.547765       -14.9054
   8   2.0000      -0.418664       -11.3924
   9   2.0000      -0.274265        -7.4631
  10   2.0000      -0.248403        -6.7594
  11   2.0000      -0.215409        -5.8616
  12   2.0000      -0.186011        -5.0616
  13   2.0000      -0.168093        -4.5740
  14   2.0000      -0.166711        -4.5364
  15   2.0000      -0.135061        -3.6752
  16   2.0000      -0.125300        -3.4096
  17   2.0000      -0.012788        -0.3480
  18   2.0000       0.002135         0.0581
  19   2.0000       0.015073         0.4101
  20   0.0000       0.126264         3.4358
  21   0.0000       0.151743         4.1291
  22   0.0000       0.162907         4.4329
  23   0.0000       0.172837         4.7031
  24   0.0000       0.200055         5.4438

MULLIKEN ATOMIC CHARGES
-----------------------
   0 C :   -0.986306
   1 C :   -0.085101
   2 H :    0.170340
   3 H :    0.176462
   4 C :    0.608161
   5 O :   -0.765985
   6 O :   -0.837132
   7 H :    0.196709
   8 H :    0.263153
   9 H :    0.259700
Sum of atomic charges:   -1.0000000

LOEWDIN ATOMIC CHARGES
----------------------
   0 C :   -0.128006
   1 C :   -0.209419
   2 H :    0.078962
   3 H :    0.082591
   4 C :   -0.782447
   5 O :   -0.065825
   6 O :   -0.126352
   7 H :    0.037744
   8 H :    0.056160
   9 H :    0.056591

  Mayer bond orders larger than 0.100000
B(  0-C ,  1-C ) :   0.7736 B(  0-C ,  4-C ) :   0.2214 B(  0-C ,  7-H ) :   0.9536
B(  0-C ,  8-H ) :   0.9654 B(  0-C ,  9-H ) :   0.9617 B(  1-C ,  2-H ) :   0.9656
B(  1-C ,  3-H ) :   0.9544 B(  1-C ,  4-C ) :   0.9237 B(  4-C ,  5-O ) :   1.2709
B(  4-C ,  6-O ) :   1.1751

Dispersion correction           -0.008081358
FINAL SINGLE POINT ENERGY      -267.989011971334

DIPOLE MOMENT
-------------
                                X             Y             Z
Electronic contribution:      4.47711      -0.18442       3.96368
Nuclear contribution   :     -5.85873      -0.10793      -5.24103
                        -----------------------------------------
Total Dipole Moment    :     -1.38162      -0.29235      -1.27735
                        -----------------------------------------
Magnitude (a.u.)       :      1.90420
Magnitude (Debye)      :      4.84009

Rotational constants in cm-1:     0.292505     0.135951     0.110253
Rotational constants in MHz :  8769.065873  4075.717001  3305.311891

                             ****ORCA TERMINATED NORMALLY****
TOTAL RUN TIME: 0 days 0 hours 0 minutes 18 seconds 205 msec
