                         Program Version 5.0.0 -  RELEASE  -
|  1> !TPSS D3BJ RIJCOSX def2-TZVPD def2/J TightSCF
|  2>
|  3> *xyz 1 1
|  4> C          3.34350        3.35457       -3.59200
|  5> C          2.95263        1.86308       -3.57485
|  6> C          4.25587        3.70385       -4.72605
|  7> N          3.73403        4.29378       -5.80077
|  8> N          5.51504        3.40725       -4.63718
|  9> H          6.14919        3.60120       -5.39905
| 10> H          5.81358        2.89950       -3.80879
| 11> H          2.74138        4.51311       -5.82470
| 12> H          4.28755        4.52126       -6.61434
| 13> H          3.86125        3.59725       -2.66298
| 14> H          2.44649        3.97346       -3.65656
| 15> H          2.44395        1.61721       -4.48352
| 16> H          2.30781        1.67290       -2.74242
| 17> H          3.83491        1.26414       -3.48670
| 18> *
| 19> %MaxCore 64000
| 20>
| 21> %pal nprocs 4
| 22> end
| 23>
| 24> %scf
| 25>   MaxIter 150
| 26> end
| 27>
| 28>
| 29>                          ****END OF INPUT****

CARTESIAN COORDINATES (ANGSTROEM)
---------------------------------
  C      3.343500    3.354570   -3.592000
  C      2.952630    1.863080   -3.574850
  C      4.255870    3.703850   -4.726050
  N      3.734030    4.293780   -5.800770
  N      5.515040    3.407250   -4.637180
  H      6.149190    3.601200   -5.399050
  H      5.813580    2.899500   -3.808790
  H      2.741380    4.513110   -5.824700
  H      4.287550    4.521260   -6.614340
  H      3.861250    3.597250   -2.662980
  H      2.446490    3.973460   -3.656560
  H      2.443950    1.617210   -4.483520
  H      2.307810    1.672900   -2.742420
  H      3.834910    1.264140   -3.486700

 Total Charge           Charge          ....    1
 Multiplicity           Mult            ....    1
 Number of Electrons    NEL             ....   40
 Basis Dimension        Dim             ....  266

ORBITAL ENERGIES
----------------

  NO   OCC          E(Eh)            E(eV)
   0   2.0000     -14.348886      -390.4530
   1   2.0000     -14.344787      -390.3415
   2   2.0000     -10.296255      -280.1753
   3   2.0000     -10.184118      -277.1239
   4   2.0000     -10.141854      -275.9739
   5   2.0000      -1.138693       -30.9854
   6   2.0000      -1.050405       -28.5830
   7   2.0000      -0.911996       -24.8167
   8   2.0000      -0.810460       -22.0537
   9   2.0000      -0.766802       -20.8657
  10   2.0000      -0.730350       -19.8738
  11   2.0000      -0.706355       -19.2209
  12   2.0000      -0.659494       -17.9457
  13   2.0000      -0.604939       -16.4612
  14   2.0000      -0.584149       -15.8955
  15   2.0000      -0.571440       -15.5497
  16   2.0000      -0.507164       -13.8006
  17   2.0000      -0.500162       -13.6101
  18   2.0000      -0.493719       -13.4348
  19   2.0000      -0.455964       -12.4074
  20   0.0000      -0.236459        -6.4344
  21   0.0000      -0.181245        -4.9319
  22   0.0000      -0.139187        -3.7875
  23   0.0000      -0.134453        -3.6587
  24   0.0000      -0.108519        -2.9529

MULLIKEN ATOMIC CHARGES
-----------------------
   0 C :   -0.333341
   1 C :   -0.854585
   2 C :    0.879325
   3 N :   -0.358575
   4 N :   -0.329271
   5 H :    0.187466
   6 H :    0.220155
   7 H :    0.213469
   8 H :    0.168260
   9 H :    0.211946
  10 H :    0.187142
  11 H :    0.284341
  12 H :    0.230645
  13 H :    0.293023
Sum of atomic charges:    1.0000000

LOEWDIN ATOMIC CHARGES
----------------------
   0 C :   -0.140923
   1 C :   -0.043552
   2 C :   -0.367668
   3 N :    0.230390
   4 N :    0.239922
   5 H :    0.150696
   6 H :    0.155773
   7 H :    0.147412
   8 H :    0.140889
   9 H :    0.128548
  10 H :    0.123181
  11 H :    0.079341
  12 H :    0.083561
  13 H :    0.072429

  Mayer bond orders larger than 0.100000
B(  0-C ,  1-C ) :   0.8659 B(  0-C ,  2-C ) :   0.8983 B(  0-C ,  4-N ) :   0.1005
B(  0-C ,  9-H ) :   0.9281 B(  0-C , 10-H ) :   0.9530 B(  1-C ,  2-C ) :   0.1281
B(  1-C , 11-H ) :   0.9547 B(  1-C , 12-H ) :   0.9893 B(  1-C , 13-H ) :   0.8936
B(  2-C ,  3-N ) :   1.0647 B(  2-C ,  4-N ) :   1.1728 B(  3-N ,  4-N ) :   0.1220
B(  3-N ,  7-H ) :   0.9692 B(  3-N ,  8-H ) :   1.0604 B(  4-N ,  5-H ) :   1.0240
B(  4-N ,  6-H ) :   0.9585

Dispersion correction           -0.012436221
FINAL SINGLE POINT ENERGY      -229.164471167047

DIPOLE MOMENT
-------------
                                X             Y             Z
Electronic contribution:      2.36862       2.56549      -2.28101
Nuclear contribution   :     -1.74195      -2.09431       1.58516
                        -----------------------------------------
Total Dipole Moment    :      0.62668       0.47118      -0.69585
                        -----------------------------------------
Magnitude (a.u.)       :      1.04831
Magnitude (Debye)      :      2.66458

Rotational constants in cm-1:     0.258965     0.126500     0.098780
Rotational constants in MHz :  7763.584551  3792.383135  2961.336502

                             ****ORCA TERMINATED NORMALLY****
TOTAL RUN TIME: 0 days 0 hours 0 minutes 22 seconds 192 msec
