                         Program Version 5.0.0 -  RELEASE  -
|  1> !TPSS D3BJ RIJCOSX def2-TZVPD def2/J TightSCF xyzfile
|  2>
|  3> *xyzfile 0 1 B.xyz
|  4>
|  5> %MaxCore 64000
|  6>
|  7> %pal nprocs 4
|  8> end
|  9>
| 10> %scf
| 11>   MaxIter 150
| 12> end
| 13>
| 14>
| 15>                          ****END OF INPUT****

CARTESIAN COORDINATES (ANGSTROEM)
---------------------------------
  C      3.343500    3.354571   -3.591998
  C      2.952633    1.863077   -3.574849
  C      4.129209    0.898394   -3.418950
  H      3.733687   -0.100605   -3.237633
  H      4.719095    0.862556   -4.339005
  C      5.017344    1.315212   -2.221305
  C      4.255868    3.703851   -4.726054
  N      3.734032    4.293783   -5.800770
  N      5.515039    3.407255   -4.637185
  H      6.149187    3.601203   -5.399053
  H      5.813584    2.899504   -3.808785
  H      2.741380    4.513109   -5.824701
  H      4.287548    4.521260   -6.614341
  H      2.278938    1.735250   -2.725496
  H      2.377466    1.625787   -4.475869
  O      4.737055    0.854112   -1.122825
  O      5.928146    2.168108   -2.491365
  H      3.861246    3.597252   -2.662979
  H      2.446493    3.973461   -3.656556

 Total Charge           Charge          ....    0
 Multiplicity           Mult            ....    1
 Number of Electrons    NEL             ....   70
 Basis Dimension        Dim             ....  429

ORBITAL ENERGIES
----------------

  NO   OCC          E(Eh)            E(eV)
   0   2.0000     -18.795634      -511.4552
   1   2.0000     -18.781149      -511.0610
   2   2.0000     -14.198179      -386.3521
   3   2.0000     -14.158620      -385.2756
   4   2.0000     -10.135238      -275.7939
   5   2.0000     -10.029151      -272.9071
   6   2.0000     -10.023298      -272.7478
   7   2.0000     -10.004474      -272.2356
   8   2.0000      -9.964118      -271.1374
   9   2.0000      -0.978140       -26.6166
  10   2.0000      -0.923730       -25.1360
  11   2.0000      -0.888758       -24.1843
  12   2.0000      -0.838931       -22.8285
  13   2.0000      -0.765037       -20.8177
  14   2.0000      -0.683268       -18.5927
  15   2.0000      -0.625805       -17.0290
  16   2.0000      -0.582649       -15.8547
  17   2.0000      -0.571355       -15.5473
  18   2.0000      -0.541010       -14.7216
  19   2.0000      -0.497477       -13.5370
  20   2.0000      -0.456566       -12.4238
  21   2.0000      -0.439927       -11.9710
  22   2.0000      -0.420496       -11.4423
  23   2.0000      -0.404497       -11.0069
  24   2.0000      -0.383281       -10.4296
  25   2.0000      -0.355317        -9.6687
  26   2.0000      -0.339009        -9.2249
  27   2.0000      -0.330838        -9.0026
  28   2.0000      -0.324837        -8.8393
  29   2.0000      -0.299598        -8.1525
  30   2.0000      -0.292809        -7.9677
  31   2.0000      -0.288576        -7.8526
  32   2.0000      -0.184050        -5.0083
  33   2.0000      -0.173057        -4.7091
  34   2.0000      -0.150451        -4.0940
  35   0.0000      -0.079801        -2.1715
  36   0.0000      -0.054797        -1.4911
  37   0.0000      -0.017610        -0.4792
  38   0.0000       0.000968         0.0263
  39   0.0000       0.010185         0.2771

MULLIKEN ATOMIC CHARGES
-----------------------
   0 C :   -0.487610
   1 C :   -0.290597
   2 C :   -0.341164
   3 H :    0.080127
   4 H :    0.262809
   5 C :    0.695381
   6 C :    0.809640
   7 N :   -0.422853
   8 N :   -0.276300
   9 H :    0.139041
  10 H :    0.327424
  11 H :    0.196979
  12 H :    0.141719
  13 H :    0.198850
  14 H :    0.091413
  15 O :   -0.714985
  16 O :   -0.866027
  17 H :    0.322981
  18 H :    0.133171
Sum of atomic charges:    0.0000000

LOEWDIN ATOMIC CHARGES
----------------------
   0 C :   -0.101464
   1 C :   -0.169394
   2 C :   -0.124936
   3 H :    0.107224
   4 H :    0.097820
   5 C :   -0.697635
   6 C :   -0.366289
   7 N :    0.187750
   8 N :    0.233791
   9 H :    0.137484
  10 H :    0.022923
  11 H :    0.127823
  12 H :    0.122846
  13 H :    0.117688
  14 H :    0.105166
  15 O :    0.022141
  16 O :   -0.068077
  17 H :    0.131202
  18 H :    0.113937

  Mayer bond orders larger than 0.100000
B(  0-C ,  1-C ) :   0.9263 B(  0-C ,  6-C ) :   0.8528 B(  0-C , 17-H ) :   0.8619
B(  0-C , 18-H ) :   0.9654 B(  1-C ,  2-C ) :   1.0170 B(  1-C ,  5-C ) :   0.1006
B(  1-C ,  6-C ) :   0.1822 B(  1-C , 13-H ) :   0.8674 B(  1-C , 14-H ) :   0.9503
B(  2-C ,  3-H ) :   1.0134 B(  2-C ,  4-H ) :   0.8621 B(  2-C ,  5-C ) :   0.9619
B(  2-C ,  8-N ) :   0.1414 B(  2-C , 14-H ) :   0.1015 B(  2-C , 16-O ) :   0.1143
B(  5-C , 15-O ) :   1.3327 B(  5-C , 16-O ) :   1.0604 B(  6-C ,  7-N ) :   0.9379
B(  6-C ,  8-N ) :   1.2399 B(  7-N ,  8-N ) :   0.1139 B(  7-N , 11-H ) :   1.0031
B(  7-N , 12-H ) :   1.0778 B(  8-N ,  9-H ) :   1.0563 B(  8-N , 10-H ) :   0.7611
B( 10-H , 16-O ) :   0.1061

Dispersion correction           -0.023479983
FINAL SINGLE POINT ENERGY      -456.778869753398

DIPOLE MOMENT
-------------
                                X             Y             Z
Electronic contribution:      3.96043      -0.02802       2.73018
Nuclear contribution   :     -5.42217       2.65262      -7.07590
                        -----------------------------------------
Total Dipole Moment    :     -1.46174       2.62460      -4.34572
                        -----------------------------------------
Magnitude (a.u.)       :      5.28304
Magnitude (Debye)      :     13.42843

Rotational constants in cm-1:     0.107541     0.035862     0.030371
Rotational constants in MHz :  3223.996852  1075.120464   910.508313

                             ****ORCA TERMINATED NORMALLY****
TOTAL RUN TIME: 0 days 0 hours 1 minutes 2 seconds 271 msec
