                         Program Version 5.0.0 -  RELEASE  -
|  1> !TPSS D3BJ RIJCOSX def2-TZVPD def2/J TightSCF
|  2>
|  3> *xyz 0 1
|  4> C          2.95263        1.86308       -3.57485
|  5> C          4.12921        0.89839       -3.41895
|  6> H          3.73369       -0.10060       -3.23763
|  7> H          4.71910        0.86256       -4.33901
|  8> C          5.01734        1.31521       -2.22130
|  9> F          4.73706        0.85411       -1.12283
| 10> O          5.92815        2.16811       -2.49136
| 11> H          2.35067        1.56005       -4.40594
| 12> H          3.32277        2.85258       -3.74453
| 13> H          2.36134        1.85149       -2.68315
| 14> *
| 15> %MaxCore 64000
| 16>
| 17> %pal nprocs 4
| 18> end
| 19>
| 20> %scf
| 21>   MaxIter 150
| 22> end
| 23>
| 24>
| 25>                          ****END OF INPUT****

CARTESIAN COORDINATES (ANGSTROEM)
---------------------------------
  C      2.952630    1.863080   -3.574850
  C      4.129210    0.898390   -3.418950
  H      3.733690   -0.100600   -3.237630
  H      4.719100    0.862560   -4.339010
  C      5.017340    1.315210   -2.221300
  F      4.737060    0.854110   -1.122830
  O      5.928150    2.168110   -2.491360
  H      2.350670    1.560050   -4.405940
  H      3.322770    2.852580   -3.744530
  H      2.361340    1.851490   -2.683150

 Total Charge           Charge          ....    0
 Multiplicity           Mult            ....    1
 Number of Electrons    NEL             ....   40
 Basis Dimension        Dim             ....  236

ORBITAL ENERGIES
----------------

  NO   OCC          E(Eh)            E(eV)
   0   2.0000     -24.491106      -666.4369
   1   2.0000     -18.883970      -513.8590
   2   2.0000     -10.153807      -276.2991
   3   2.0000     -10.015126      -272.5254
   4   2.0000      -9.993257      -271.9303
   5   2.0000      -1.263375       -34.3782
   6   2.0000      -0.950487       -25.8641
   7   2.0000      -0.743562       -20.2334
   8   2.0000      -0.636970       -17.3328
   9   2.0000      -0.594277       -16.1711
  10   2.0000      -0.506645       -13.7865
  11   2.0000      -0.492582       -13.4038
  12   2.0000      -0.457693       -12.4545
  13   2.0000      -0.423034       -11.5113
  14   2.0000      -0.391916       -10.6646
  15   2.0000      -0.359308        -9.7773
  16   2.0000      -0.338877        -9.2213
  17   2.0000      -0.332853        -9.0574
  18   2.0000      -0.304782        -8.2935
  19   2.0000      -0.240007        -6.5309
  20   0.0000      -0.061658        -1.6778
  21   0.0000      -0.007840        -0.2133
  22   0.0000       0.020043         0.5454
  23   0.0000       0.029232         0.7954
  24   0.0000       0.039092         1.0637

MULLIKEN ATOMIC CHARGES
-----------------------
   0 C :   -0.956672
   1 C :    0.003127
   2 H :    0.181418
   3 H :    0.166881
   4 C :    0.580788
   5 F :   -0.187370
   6 O :   -0.545354
   7 H :    0.195310
   8 H :    0.277623
   9 H :    0.284249
Sum of atomic charges:    0.0000000

LOEWDIN ATOMIC CHARGES
----------------------
   0 C :   -0.084633
   1 C :   -0.150923
   2 H :    0.101664
   3 H :    0.113722
   4 C :   -0.509712
   5 F :    0.255359
   6 O :    0.065293
   7 H :    0.066591
   8 H :    0.072855
   9 H :    0.069786

  Mayer bond orders larger than 0.100000
B(  0-C ,  1-C ) :   0.8304 B(  0-C ,  4-C ) :   0.2157 B(  0-C ,  7-H ) :   0.9779
B(  0-C ,  8-H ) :   0.9613 B(  0-C ,  9-H ) :   0.9196 B(  1-C ,  2-H ) :   0.9369
B(  1-C ,  3-H ) :   0.9452 B(  1-C ,  4-C ) :   0.9033 B(  4-C ,  5-F ) :   1.0060
B(  4-C ,  6-O ) :   1.5869

Dispersion correction           -0.007641014
FINAL SINGLE POINT ENERGY      -292.548097393262

DIPOLE MOMENT
-------------
                                X             Y             Z
Electronic contribution:      5.07902      -1.15618       6.53760
Nuclear contribution   :     -6.06116       0.51860      -6.80802
                        -----------------------------------------
Total Dipole Moment    :     -0.98214      -0.63758      -0.27042
                        -----------------------------------------
Magnitude (a.u.)       :      1.20176
Magnitude (Debye)      :      3.05463

Rotational constants in cm-1:     0.276196     0.132056     0.105465
Rotational constants in MHz :  8280.156449  3958.940601  3161.775929

                             ****ORCA TERMINATED NORMALLY****
TOTAL RUN TIME: 0 days 0 hours 0 minutes 16 seconds 764 msec
