                         Program Version 5.0.0 -  RELEASE  -
|  1> !TPSS D3BJ RIJCOSX def2-TZVPD def2/J TightSCF
|  2>
|  3> *xyz 0 1
|  4> C          3.34350        3.35457       -3.59200
|  5> C          2.95263        1.86308       -3.57485
|  6> C          4.25587        3.70385       -4.72605
|  7> C          3.73403        4.29378       -5.80077
|  8> N          5.51504        3.40725       -4.63718
|  9> H          6.14919        3.60120       -5.39905
| 10> H          5.81358        2.89950       -3.80879
| 11> H          2.74138        4.51311       -5.82470
| 12> H          4.28755        4.52126       -6.61434
| 13> H          3.86125        3.59725       -2.66298
| 14> H          2.44649        3.97346       -3.65656
| 15> H          2.44395        1.61721       -4.48352
| 16> H          2.30781        1.67290       -2.74242
| 17> H          3.83491        1.26414       -3.48670
| 18> *
| 19> %MaxCore 64000
| 20>
| 21> %pal nprocs 4
| 22> end
| 23>
| 24> %scf
| 25>   MaxIter 150
| 26> end
| 27>
| 28>
| 29>                          ****END OF INPUT****

CARTESIAN COORDINATES (ANGSTROEM)
---------------------------------
  C      3.343500    3.354570   -3.592000
  C      2.952630    1.863080   -3.574850
  C      4.255870    3.703850   -4.726050
  C      3.734030    4.293780   -5.800770
  N      5.515040    3.407250   -4.637180
  H      6.149190    3.601200   -5.399050
  H      5.813580    2.899500   -3.808790
  H      2.741380    4.513110   -5.824700
  H      4.287550    4.521260   -6.614340
  H      3.861250    3.597250   -2.662980
  H      2.446490    3.973460   -3.656560
  H      2.443950    1.617210   -4.483520
  H      2.307810    1.672900   -2.742420
  H      3.834910    1.264140   -3.486700

 Total Charge           Charge          ....    0
 Multiplicity           Mult            ....    1
 Number of Electrons    NEL             ....   40
 Basis Dimension        Dim             ....  266

ORBITAL ENERGIES
----------------

  NO   OCC          E(Eh)            E(eV)
   0   2.0000     -14.106223      -383.8498
   1   2.0000      -9.997622      -272.0491
   2   2.0000      -9.984432      -271.6902
   3   2.0000      -9.971375      -271.3349
   4   2.0000      -9.915536      -269.8154
   5   2.0000      -0.874693       -23.8016
   6   2.0000      -0.721233       -19.6258
   7   2.0000      -0.658786       -17.9265
   8   2.0000      -0.586269       -15.9532
   9   2.0000      -0.522596       -14.2206
  10   2.0000      -0.489016       -13.3068
  11   2.0000      -0.435329       -11.8459
  12   2.0000      -0.397515       -10.8169
  13   2.0000      -0.379582       -10.3290
  14   2.0000      -0.352468        -9.5911
  15   2.0000      -0.343516        -9.3475
  16   2.0000      -0.318433        -8.6650
  17   2.0000      -0.296482        -8.0677
  18   2.0000      -0.292625        -7.9627
  19   2.0000      -0.157241        -4.2787
  20   0.0000      -0.009475        -0.2578
  21   0.0000       0.014476         0.3939
  22   0.0000       0.025119         0.6835
  23   0.0000       0.030916         0.8413
  24   0.0000       0.038526         1.0483

MULLIKEN ATOMIC CHARGES
-----------------------
   0 C :   -0.338772
   1 C :   -0.838161
   2 C :    0.901574
   3 C :   -1.199923
   4 N :   -0.473453
   5 H :    0.147286
   6 H :    0.165925
   7 H :    0.254590
   8 H :    0.243589
   9 H :    0.214582
  10 H :    0.162349
  11 H :    0.276771
  12 H :    0.218743
  13 H :    0.264900
Sum of atomic charges:    0.0000000

LOEWDIN ATOMIC CHARGES
----------------------
   0 C :   -0.194236
   1 C :   -0.083296
   2 C :   -0.508997
   3 C :    0.024233
   4 N :    0.111730
   5 H :    0.116486
   6 H :    0.112567
   7 H :    0.017270
   8 H :    0.011721
   9 H :    0.103619
  10 H :    0.106193
  11 H :    0.067360
  12 H :    0.058460
  13 H :    0.056890

  Mayer bond orders larger than 0.100000
B(  0-C ,  1-C ) :   0.8319 B(  0-C ,  2-C ) :   0.8528 B(  0-C ,  4-N ) :   0.1238
B(  0-C ,  9-H ) :   0.9579 B(  0-C , 10-H ) :   0.9327 B(  1-C ,  2-C ) :   0.1019
B(  1-C , 11-H ) :   0.9753 B(  1-C , 12-H ) :   0.9761 B(  1-C , 13-H ) :   0.9211
B(  2-C ,  3-C ) :   1.2105 B(  2-C ,  4-N ) :   0.8759 B(  3-C ,  4-N ) :   0.1259
B(  3-C ,  7-H ) :   0.9821 B(  3-C ,  8-H ) :   1.0241 B(  4-N ,  5-H ) :   1.0441
B(  4-N ,  6-H ) :   1.0344

Dispersion correction           -0.012939304
FINAL SINGLE POINT ENERGY      -212.687665909464

DIPOLE MOMENT
-------------
                                X             Y             Z
Electronic contribution:      2.34081       1.48299      -0.86848
Nuclear contribution   :     -1.79713      -1.86925       1.28073
                        -----------------------------------------
Total Dipole Moment    :      0.54369      -0.38625       0.41226
                        -----------------------------------------
Magnitude (a.u.)       :      0.78405
Magnitude (Debye)      :      1.99291

Rotational constants in cm-1:     0.269040     0.129645     0.102087
Rotational constants in MHz :  8065.609820  3886.645139  3060.489045

                             ****ORCA TERMINATED NORMALLY****
TOTAL RUN TIME: 0 days 0 hours 0 minutes 23 seconds 639 msec
