                         Program Version 5.0.0 -  RELEASE  -
|  1> !TPSS D3BJ RIJCOSX def2-TZVPD def2/J TightSCF
|  2>
|  3> *xyz 0 1
|  4> C          2.95263        1.86308       -3.57485
|  5> C          4.12921        0.89839       -3.41895
|  6> H          3.73369       -0.10060       -3.23763
|  7> H          4.71910        0.86256       -4.33901
|  8> C          5.01734        1.31521       -2.22130
|  9> O          4.73706        0.85411       -1.12283
| 10> F          5.92815        2.16811       -2.49136
| 11> H          2.35067        1.56005       -4.40594
| 12> H          3.32277        2.85258       -3.74453
| 13> H          2.36134        1.85149       -2.68315
| 14> *
| 15> %MaxCore 64000
| 16>
| 17> %pal nprocs 4
| 18> end
| 19>
| 20> %scf
| 21>   MaxIter 150
| 22> end
| 23>
| 24>
| 25>                          ****END OF INPUT****

CARTESIAN COORDINATES (ANGSTROEM)
---------------------------------
  C      2.952630    1.863080   -3.574850
  C      4.129210    0.898390   -3.418950
  H      3.733690   -0.100600   -3.237630
  H      4.719100    0.862560   -4.339010
  C      5.017340    1.315210   -2.221300
  O      4.737060    0.854110   -1.122830
  F      5.928150    2.168110   -2.491360
  H      2.350670    1.560050   -4.405940
  H      3.322770    2.852580   -3.744530
  H      2.361340    1.851490   -2.683150

 Total Charge           Charge          ....    0
 Multiplicity           Mult            ....    1
 Number of Electrons    NEL             ....   40
 Basis Dimension        Dim             ....  236

ORBITAL ENERGIES
----------------

  NO   OCC          E(Eh)            E(eV)
   0   2.0000     -24.470617      -665.8793
   1   2.0000     -18.892608      -514.0940
   2   2.0000     -10.149476      -276.1813
   3   2.0000     -10.014834      -272.5175
   4   2.0000      -9.993567      -271.9388
   5   2.0000      -1.224059       -33.3083
   6   2.0000      -0.982802       -26.7434
   7   2.0000      -0.743457       -20.2305
   8   2.0000      -0.628333       -17.0978
   9   2.0000      -0.580862       -15.8060
  10   2.0000      -0.489195       -13.3117
  11   2.0000      -0.473682       -12.8896
  12   2.0000      -0.455382       -12.3916
  13   2.0000      -0.421442       -11.4680
  14   2.0000      -0.393660       -10.7120
  15   2.0000      -0.361013        -9.8237
  16   2.0000      -0.344731        -9.3806
  17   2.0000      -0.334386        -9.0991
  18   2.0000      -0.320780        -8.7289
  19   2.0000      -0.251726        -6.8498
  20   0.0000      -0.056741        -1.5440
  21   0.0000      -0.007172        -0.1952
  22   0.0000       0.020268         0.5515
  23   0.0000       0.030168         0.8209
  24   0.0000       0.039005         1.0614

MULLIKEN ATOMIC CHARGES
-----------------------
   0 C :   -0.956366
   1 C :    0.002403
   2 H :    0.160509
   3 H :    0.188305
   4 C :    0.556437
   5 O :   -0.491992
   6 F :   -0.214772
   7 H :    0.193959
   8 H :    0.282004
   9 H :    0.279514
Sum of atomic charges:   -0.0000000

LOEWDIN ATOMIC CHARGES
----------------------
   0 C :   -0.084562
   1 C :   -0.148945
   2 H :    0.110257
   3 H :    0.105970
   4 C :   -0.503122
   5 O :    0.118792
   6 F :    0.192295
   7 H :    0.066596
   8 H :    0.069387
   9 H :    0.073332

  Mayer bond orders larger than 0.100000
B(  0-C ,  1-C ) :   0.8298 B(  0-C ,  4-C ) :   0.2130 B(  0-C ,  7-H ) :   0.9778
B(  0-C ,  8-H ) :   0.9242 B(  0-C ,  9-H ) :   0.9570 B(  1-C ,  2-H ) :   0.9487
B(  1-C ,  3-H ) :   0.9319 B(  1-C ,  4-C ) :   0.8997 B(  4-C ,  5-O ) :   1.6610
B(  4-C ,  6-F ) :   0.9393

Dispersion correction           -0.007640549
FINAL SINGLE POINT ENERGY      -292.563811711203

DIPOLE MOMENT
-------------
                                X             Y             Z
Electronic contribution:      7.04361       1.01314       4.26812
Nuclear contribution   :     -7.35982      -0.91407      -5.31589
                        -----------------------------------------
Total Dipole Moment    :     -0.31621       0.09906      -1.04777
                        -----------------------------------------
Magnitude (a.u.)       :      1.09892
Magnitude (Debye)      :      2.79323

Rotational constants in cm-1:     0.275433     0.132201     0.105422
Rotational constants in MHz :  8257.268192  3963.279062  3160.465566

                             ****ORCA TERMINATED NORMALLY****
TOTAL RUN TIME: 0 days 0 hours 0 minutes 18 seconds 571 msec
