                         Program Version 5.0.0 -  RELEASE  -
|  1> !TPSS D3BJ RIJCOSX def2-TZVPD def2/J TightSCF
|  2>
|  3> *xyz 0 1
|  4> C          3.34350        3.35457       -3.59200
|  5> C          2.95263        1.86308       -3.57485
|  6> C          4.25587        3.70385       -4.72605
|  7> N          3.73403        4.29378       -5.80077
|  8> C          5.51504        3.40725       -4.63718
|  9> H          6.14919        3.60120       -5.39905
| 10> H          5.81358        2.89950       -3.80879
| 11> H          2.74138        4.51311       -5.82470
| 12> H          4.28755        4.52126       -6.61434
| 13> H          3.86125        3.59725       -2.66298
| 14> H          2.44649        3.97346       -3.65656
| 15> H          2.44395        1.61721       -4.48352
| 16> H          2.30781        1.67290       -2.74242
| 17> H          3.83491        1.26414       -3.48670
| 18> *
| 19> %MaxCore 64000
| 20>
| 21> %pal nprocs 4
| 22> end
| 23>
| 24> %scf
| 25>   MaxIter 150
| 26> end
| 27>
| 28>
| 29>                          ****END OF INPUT****

CARTESIAN COORDINATES (ANGSTROEM)
---------------------------------
  C      3.343500    3.354570   -3.592000
  C      2.952630    1.863080   -3.574850
  C      4.255870    3.703850   -4.726050
  N      3.734030    4.293780   -5.800770
  C      5.515040    3.407250   -4.637180
  H      6.149190    3.601200   -5.399050
  H      5.813580    2.899500   -3.808790
  H      2.741380    4.513110   -5.824700
  H      4.287550    4.521260   -6.614340
  H      3.861250    3.597250   -2.662980
  H      2.446490    3.973460   -3.656560
  H      2.443950    1.617210   -4.483520
  H      2.307810    1.672900   -2.742420
  H      3.834910    1.264140   -3.486700

 Total Charge           Charge          ....    0
 Multiplicity           Mult            ....    1
 Number of Electrons    NEL             ....   40
 Basis Dimension        Dim             ....  266

ORBITAL ENERGIES
----------------

  NO   OCC          E(Eh)            E(eV)
   0   2.0000     -14.102587      -383.7509
   1   2.0000      -9.995460      -271.9903
   2   2.0000      -9.984086      -271.6808
   3   2.0000      -9.969356      -271.2800
   4   2.0000      -9.913683      -269.7650
   5   2.0000      -0.860670       -23.4200
   6   2.0000      -0.723608       -19.6904
   7   2.0000      -0.662564       -18.0293
   8   2.0000      -0.587242       -15.9797
   9   2.0000      -0.516611       -14.0577
  10   2.0000      -0.477253       -12.9867
  11   2.0000      -0.439185       -11.9508
  12   2.0000      -0.398816       -10.8523
  13   2.0000      -0.373023       -10.1505
  14   2.0000      -0.353408        -9.6167
  15   2.0000      -0.343901        -9.3580
  16   2.0000      -0.314540        -8.5591
  17   2.0000      -0.300747        -8.1837
  18   2.0000      -0.288036        -7.8379
  19   2.0000      -0.160887        -4.3779
  20   0.0000      -0.007546        -0.2053
  21   0.0000       0.014451         0.3932
  22   0.0000       0.024946         0.6788
  23   0.0000       0.031206         0.8492
  24   0.0000       0.040212         1.0942

MULLIKEN ATOMIC CHARGES
-----------------------
   0 C :   -0.323116
   1 C :   -0.868295
   2 C :    0.925954
   3 N :   -0.488506
   4 C :   -1.167035
   5 H :    0.234914
   6 H :    0.269017
   7 H :    0.163305
   8 H :    0.122926
   9 H :    0.192182
  10 H :    0.177999
  11 H :    0.246962
  12 H :    0.220524
  13 H :    0.293167
Sum of atomic charges:   -0.0000000

LOEWDIN ATOMIC CHARGES
----------------------
   0 C :   -0.193187
   1 C :   -0.082140
   2 C :   -0.496730
   3 N :    0.104186
   4 C :    0.014627
   5 H :    0.022457
   6 H :    0.030204
   7 H :    0.101784
   8 H :    0.105529
   9 H :    0.108536
  10 H :    0.099608
  11 H :    0.064508
  12 H :    0.057844
  13 H :    0.062774

  Mayer bond orders larger than 0.100000
B(  0-C ,  1-C ) :   0.8134 B(  0-C ,  2-C ) :   0.8130 B(  0-C ,  9-H ) :   0.9160
B(  0-C , 10-H ) :   1.0108 B(  1-C ,  2-C ) :   0.1239 B(  1-C , 11-H ) :   0.9624
B(  1-C , 12-H ) :   0.9685 B(  1-C , 13-H ) :   0.9295 B(  2-C ,  3-N ) :   0.7705
B(  2-C ,  4-C ) :   1.2984 B(  3-N ,  4-C ) :   0.1246 B(  3-N ,  7-H ) :   1.0440
B(  3-N ,  8-H ) :   1.0902 B(  4-C ,  5-H ) :   1.0152 B(  4-C ,  6-H ) :   0.9512

Dispersion correction           -0.012951692
FINAL SINGLE POINT ENERGY      -212.687913925324

DIPOLE MOMENT
-------------
                                X             Y             Z
Electronic contribution:      0.78877       2.27194      -1.87305
Nuclear contribution   :     -1.38463      -2.07457       1.55023
                        -----------------------------------------
Total Dipole Moment    :     -0.59585       0.19737      -0.32282
                        -----------------------------------------
Magnitude (a.u.)       :      0.70584
Magnitude (Debye)      :      1.79410

Rotational constants in cm-1:     0.272312     0.128195     0.101724
Rotational constants in MHz :  8163.717141  3843.180148  3049.598073

                             ****ORCA TERMINATED NORMALLY****
TOTAL RUN TIME: 0 days 0 hours 0 minutes 23 seconds 111 msec
