                         Program Version 5.0.0 -  RELEASE  -
|  1> !TPSS D3BJ RIJCOSX def2-TZVPD def2/J TightSCF xyzfile
|  2>
|  3> *xyzfile 0 1 D1.xyz
|  4>
|  5> %MaxCore 64000
|  6>
|  7> %pal nprocs 4
|  8> end
|  9>
| 10> %scf
| 11>   MaxIter 150
| 12> end
| 13>
| 14>
| 15>                          ****END OF INPUT****

CARTESIAN COORDINATES (ANGSTROEM)
---------------------------------
  C      3.343500    3.354571   -3.591998
  C      2.952633    1.863077   -3.574849
  C      4.129209    0.898394   -3.418950
  H      3.733687   -0.100605   -3.237633
  H      4.719095    0.862556   -4.339005
  C      5.017344    1.315212   -2.221305
  C      4.255868    3.703851   -4.726054
  C      3.734032    4.293783   -5.800770
  N      5.515039    3.407255   -4.637185
  H      6.149187    3.601203   -5.399053
  H      5.813584    2.899504   -3.808785
  H      2.741380    4.513109   -5.824701
  H      4.287548    4.521260   -6.614341
  H      2.278938    1.735250   -2.725496
  H      2.377466    1.625787   -4.475869
  F      4.737055    0.854112   -1.122825
  O      5.928146    2.168108   -2.491365
  H      3.861246    3.597252   -2.662979
  H      2.446493    3.973461   -3.656556

 Total Charge           Charge          ....    0
 Multiplicity           Mult            ....    1
 Number of Electrons    NEL             ....   70
 Basis Dimension        Dim             ....  429

ORBITAL ENERGIES
----------------

  NO   OCC          E(Eh)            E(eV)
   0   2.0000     -24.512918      -667.0304
   1   2.0000     -18.912960      -514.6478
   2   2.0000     -14.069561      -382.8522
   3   2.0000     -10.181284      -277.0468
   4   2.0000     -10.024855      -272.7902
   5   2.0000     -10.008057      -272.3331
   6   2.0000      -9.988216      -271.7932
   7   2.0000      -9.987470      -271.7729
   8   2.0000      -9.906003      -269.5561
   9   2.0000      -1.284503       -34.9531
  10   2.0000      -0.989061       -26.9137
  11   2.0000      -0.853589       -23.2273
  12   2.0000      -0.764522       -20.8037
  13   2.0000      -0.694963       -18.9109
  14   2.0000      -0.653511       -17.7829
  15   2.0000      -0.623960       -16.9788
  16   2.0000      -0.580173       -15.7873
  17   2.0000      -0.528517       -14.3817
  18   2.0000      -0.521391       -14.1878
  19   2.0000      -0.501213       -13.6387
  20   2.0000      -0.495718       -13.4892
  21   2.0000      -0.461200       -12.5499
  22   2.0000      -0.440344       -11.9824
  23   2.0000      -0.417141       -11.3510
  24   2.0000      -0.401116       -10.9149
  25   2.0000      -0.385215       -10.4822
  26   2.0000      -0.353721        -9.6252
  27   2.0000      -0.346770        -9.4361
  28   2.0000      -0.335981        -9.1425
  29   2.0000      -0.333668        -9.0796
  30   2.0000      -0.321858        -8.7582
  31   2.0000      -0.291238        -7.9250
  32   2.0000      -0.283887        -7.7250
  33   2.0000      -0.263650        -7.1743
  34   2.0000      -0.144092        -3.9209
  35   0.0000      -0.087520        -2.3815
  36   0.0000      -0.013655        -0.3716
  37   0.0000       0.009262         0.2520
  38   0.0000       0.015877         0.4320
  39   0.0000       0.018138         0.4936

MULLIKEN ATOMIC CHARGES
-----------------------
   0 C :   -0.428430
   1 C :   -0.256246
   2 C :   -0.212821
   3 H :    0.115742
   4 H :    0.264745
   5 C :    0.642596
   6 C :    0.775158
   7 C :   -1.272036
   8 N :   -0.453462
   9 H :    0.078977
  10 H :    0.333929
  11 H :    0.273244
  12 H :    0.253459
  13 H :    0.154738
  14 H :    0.157285
  15 F :   -0.219971
  16 O :   -0.625960
  17 H :    0.307225
  18 H :    0.111826
Sum of atomic charges:    0.0000000

LOEWDIN ATOMIC CHARGES
----------------------
   0 C :   -0.137099
   1 C :   -0.166558
   2 C :   -0.087123
   3 H :    0.109613
   4 H :    0.121419
   5 C :   -0.452782
   6 C :   -0.487902
   7 C :    0.019986
   8 N :    0.124317
   9 H :    0.119928
  10 H :    0.017528
  11 H :    0.012073
  12 H :    0.010474
  13 H :    0.107666
  14 H :    0.119362
  15 F :    0.279625
  16 O :    0.064161
  17 H :    0.110583
  18 H :    0.114731

  Mayer bond orders larger than 0.100000
B(  0-C ,  1-C ) :   0.9582 B(  0-C ,  5-C ) :   0.1039 B(  0-C ,  6-C ) :   0.9199
B(  0-C , 17-H ) :   0.7894 B(  0-C , 18-H ) :   0.9852 B(  1-C ,  2-C ) :   1.0199
B(  1-C ,  5-C ) :   0.1335 B(  1-C ,  6-C ) :   0.1285 B(  1-C , 13-H ) :   0.8900
B(  1-C , 14-H ) :   0.9213 B(  2-C ,  3-H ) :   0.9735 B(  2-C ,  4-H ) :   0.8975
B(  2-C ,  5-C ) :   0.9489 B(  2-C ,  8-N ) :   0.1942 B(  5-C , 15-F ) :   0.9923
B(  5-C , 16-O ) :   1.4812 B(  6-C ,  7-C ) :   1.2344 B(  6-C ,  8-N ) :   0.8685
B(  7-C ,  8-N ) :   0.1537 B(  7-C , 11-H ) :   0.9975 B(  7-C , 12-H ) :   0.9926
B(  8-N ,  9-H ) :   1.1001 B(  8-N , 10-H ) :   0.8196

Dispersion correction           -0.023497205
FINAL SINGLE POINT ENERGY      -464.693480665537

DIPOLE MOMENT
-------------
                                X             Y             Z
Electronic contribution:      5.57682      -5.91836      10.55572
Nuclear contribution   :     -5.86483       4.68058     -10.07545
                        -----------------------------------------
Total Dipole Moment    :     -0.28801      -1.23778       0.48027
                        -----------------------------------------
Magnitude (a.u.)       :      1.35857
Magnitude (Debye)      :      3.45320

Rotational constants in cm-1:     0.107256     0.035474     0.030113
Rotational constants in MHz :  3215.453922  1063.481574   902.777619

                             ****ORCA TERMINATED NORMALLY****
TOTAL RUN TIME: 0 days 0 hours 0 minutes 52 seconds 990 msec
