                         Program Version 5.0.0 -  RELEASE  -
|  1> !TPSS D3BJ RIJCOSX def2-TZVPD def2/J TightSCF xyzfile
|  2>
|  3> *xyzfile 0 1 D2.xyz
|  4>
|  5> %MaxCore 64000
|  6>
|  7> %pal nprocs 4
|  8> end
|  9>
| 10> %scf
| 11>   MaxIter 150
| 12> end
| 13>
| 14>
| 15>                          ****END OF INPUT****

CARTESIAN COORDINATES (ANGSTROEM)
---------------------------------
  C      3.343500    3.354571   -3.591998
  C      2.952633    1.863077   -3.574849
  C      4.129209    0.898394   -3.418950
  H      3.733687   -0.100605   -3.237633
  H      4.719095    0.862556   -4.339005
  C      5.017344    1.315212   -2.221305
  C      4.255868    3.703851   -4.726054
  N      3.734032    4.293783   -5.800770
  C      5.515039    3.407255   -4.637185
  H      6.149187    3.601203   -5.399053
  H      5.813584    2.899504   -3.808785
  H      2.741380    4.513109   -5.824701
  H      4.287548    4.521260   -6.614341
  H      2.278938    1.735250   -2.725496
  H      2.377466    1.625787   -4.475869
  F      4.737055    0.854112   -1.122825
  O      5.928146    2.168108   -2.491365
  H      3.861246    3.597252   -2.662979
  H      2.446493    3.973461   -3.656556

 Total Charge           Charge          ....    0
 Multiplicity           Mult            ....    1
 Number of Electrons    NEL             ....   70
 Basis Dimension        Dim             ....  429

ORBITAL ENERGIES
----------------

  NO   OCC          E(Eh)            E(eV)
   0   2.0000     -24.494018      -666.5161
   1   2.0000     -18.886489      -513.9275
   2   2.0000     -14.093995      -383.5171
   3   2.0000     -10.158971      -276.4397
   4   2.0000     -10.012026      -272.4411
   5   2.0000     -10.004132      -272.2263
   6   2.0000      -9.987178      -271.7649
   7   2.0000      -9.984538      -271.6931
   8   2.0000      -9.884672      -268.9756
   9   2.0000      -1.266237       -34.4561
  10   2.0000      -0.963520       -26.2187
  11   2.0000      -0.852840       -23.2070
  12   2.0000      -0.758174       -20.6310
  13   2.0000      -0.693025       -18.8582
  14   2.0000      -0.646132       -17.5821
  15   2.0000      -0.620339       -16.8803
  16   2.0000      -0.569889       -15.5075
  17   2.0000      -0.520994       -14.1770
  18   2.0000      -0.506598       -13.7852
  19   2.0000      -0.490740       -13.3537
  20   2.0000      -0.481342       -13.0980
  21   2.0000      -0.453609       -12.3433
  22   2.0000      -0.435360       -11.8467
  23   2.0000      -0.421817       -11.4782
  24   2.0000      -0.401516       -10.9258
  25   2.0000      -0.372529       -10.1370
  26   2.0000      -0.352011        -9.5787
  27   2.0000      -0.349620        -9.5136
  28   2.0000      -0.324290        -8.8244
  29   2.0000      -0.316259        -8.6059
  30   2.0000      -0.310055        -8.4370
  31   2.0000      -0.287344        -7.8190
  32   2.0000      -0.280677        -7.6376
  33   2.0000      -0.225610        -6.1392
  34   2.0000      -0.149525        -4.0688
  35   0.0000      -0.068056        -1.8519
  36   0.0000      -0.010894        -0.2964
  37   0.0000       0.006216         0.1692
  38   0.0000       0.012913         0.3514
  39   0.0000       0.020505         0.5580

MULLIKEN ATOMIC CHARGES
-----------------------
   0 C :   -0.545832
   1 C :   -0.211650
   2 C :   -0.306558
   3 H :    0.111246
   4 H :    0.377195
   5 C :    0.601960
   6 C :    0.936615
   7 N :   -0.515202
   8 C :   -1.560522
   9 H :    0.171769
  10 H :    0.796540
  11 H :    0.163552
  12 H :    0.113782
  13 H :    0.150409
  14 H :    0.100650
  15 F :   -0.240191
  16 O :   -0.569962
  17 H :    0.282422
  18 H :    0.143776
Sum of atomic charges:    0.0000000

LOEWDIN ATOMIC CHARGES
----------------------
   0 C :   -0.134652
   1 C :   -0.168682
   2 C :   -0.088603
   3 H :    0.107573
   4 H :    0.119959
   5 C :   -0.462342
   6 C :   -0.467442
   7 N :    0.098963
   8 C :    0.031513
   9 H :    0.034000
  10 H :   -0.039652
  11 H :    0.097166
  12 H :    0.104036
  13 H :    0.106944
  14 H :    0.115204
  15 F :    0.268549
  16 O :    0.055658
  17 H :    0.113860
  18 H :    0.107949

  Mayer bond orders larger than 0.100000
B(  0-C ,  1-C ) :   0.9756 B(  0-C ,  5-C ) :   0.1044 B(  0-C ,  6-C ) :   0.8735
B(  0-C , 17-H ) :   0.8121 B(  0-C , 18-H ) :   1.0292 B(  1-C ,  2-C ) :   1.0006
B(  1-C ,  5-C ) :   0.1323 B(  1-C ,  8-C ) :  -0.1032 B(  1-C , 13-H ) :   0.8844
B(  1-C , 14-H ) :   0.9403 B(  2-C ,  3-H ) :   0.9768 B(  2-C ,  4-H ) :   0.8403
B(  2-C ,  5-C ) :   0.9450 B(  2-C ,  6-C ) :   0.1024 B(  2-C ,  8-C ) :   0.2300
B(  5-C , 15-F ) :   0.9691 B(  5-C , 16-O ) :   1.5704 B(  6-C ,  7-N ) :   0.6886
B(  6-C ,  8-C ) :   0.9896 B(  6-C ,  9-H ) :  -0.1280 B(  7-N ,  8-C ) :   0.1338
B(  7-N , 11-H ) :   1.0596 B(  7-N , 12-H ) :   1.1040 B(  8-C ,  9-H ) :   1.1482
B(  8-C , 10-H ) :   0.6756 B(  8-C , 16-O ) :   0.1474 B(  9-H , 10-H ) :   0.1042
B( 10-H , 16-O ) :  -0.4071

Dispersion correction           -0.023637212
FINAL SINGLE POINT ENERGY      -464.669132733202

DIPOLE MOMENT
-------------
                                X             Y             Z
Electronic contribution:      4.33935      -5.09283       9.55242
Nuclear contribution   :     -5.64491       4.57111      -9.93176
                        -----------------------------------------
Total Dipole Moment    :     -1.30556      -0.52172      -0.37934
                        -----------------------------------------
Magnitude (a.u.)       :      1.45622
Magnitude (Debye)      :      3.70141

Rotational constants in cm-1:     0.109825     0.034347     0.029470
Rotational constants in MHz :  3292.465653  1029.684117   883.494260

                             ****ORCA TERMINATED NORMALLY****
TOTAL RUN TIME: 0 days 0 hours 0 minutes 53 seconds 313 msec
