                         Program Version 5.0.0 -  RELEASE  -
|  1> !TPSS D3BJ RIJCOSX def2-TZVPD def2/J TightSCF xyzfile
|  2>
|  3> *xyzfile 0 1 D3.xyz
|  4>
|  5> %MaxCore 64000
|  6>
|  7> %pal nprocs 4
|  8> end
|  9>
| 10> %scf
| 11>   MaxIter 150
| 12> end
| 13>
| 14>
| 15>                          ****END OF INPUT****

CARTESIAN COORDINATES (ANGSTROEM)
---------------------------------
  C      3.343500    3.354571   -3.591998
  C      2.952633    1.863077   -3.574849
  C      4.129209    0.898394   -3.418950
  H      3.733687   -0.100605   -3.237633
  H      4.719095    0.862556   -4.339005
  C      5.017344    1.315212   -2.221305
  C      4.255868    3.703851   -4.726054
  C      3.734032    4.293783   -5.800770
  N      5.515039    3.407255   -4.637185
  H      6.149187    3.601203   -5.399053
  H      5.813584    2.899504   -3.808785
  H      2.741380    4.513109   -5.824701
  H      4.287548    4.521260   -6.614341
  H      2.278938    1.735250   -2.725496
  H      2.377466    1.625787   -4.475869
  O      4.737055    0.854112   -1.122825
  F      5.928146    2.168108   -2.491365
  H      3.861246    3.597252   -2.662979
  H      2.446493    3.973461   -3.656556

 Total Charge           Charge          ....    0
 Multiplicity           Mult            ....    1
 Number of Electrons    NEL             ....   70
 Basis Dimension        Dim             ....  429

ORBITAL ENERGIES
----------------

  NO   OCC          E(Eh)            E(eV)
   0   2.0000     -24.501895      -666.7305
   1   2.0000     -18.909527      -514.5544
   2   2.0000     -14.095689      -383.5632
   3   2.0000     -10.166952      -276.6568
   4   2.0000     -10.021373      -272.6954
   5   2.0000     -10.007196      -272.3097
   6   2.0000     -10.001465      -272.1537
   7   2.0000      -9.996140      -272.0088
   8   2.0000      -9.918970      -269.9089
   9   2.0000      -1.260821       -34.3087
  10   2.0000      -0.999510       -27.1981
  11   2.0000      -0.875149       -23.8140
  12   2.0000      -0.764932       -20.8149
  13   2.0000      -0.701218       -19.0811
  14   2.0000      -0.661014       -17.9871
  15   2.0000      -0.624517       -16.9940
  16   2.0000      -0.587848       -15.9961
  17   2.0000      -0.535752       -14.5785
  18   2.0000      -0.517690       -14.0870
  19   2.0000      -0.501446       -13.6450
  20   2.0000      -0.479416       -13.0456
  21   2.0000      -0.459132       -12.4936
  22   2.0000      -0.441257       -12.0072
  23   2.0000      -0.427433       -11.6310
  24   2.0000      -0.404930       -11.0187
  25   2.0000      -0.379462       -10.3257
  26   2.0000      -0.363289        -9.8856
  27   2.0000      -0.354981        -9.6595
  28   2.0000      -0.347767        -9.4632
  29   2.0000      -0.339748        -9.2450
  30   2.0000      -0.324437        -8.8284
  31   2.0000      -0.299783        -8.1575
  32   2.0000      -0.296343        -8.0639
  33   2.0000      -0.265804        -7.2329
  34   2.0000      -0.159351        -4.3362
  35   0.0000      -0.074051        -2.0150
  36   0.0000      -0.011410        -0.3105
  37   0.0000       0.004368         0.1189
  38   0.0000       0.013910         0.3785
  39   0.0000       0.015173         0.4129

MULLIKEN ATOMIC CHARGES
-----------------------
   0 C :   -0.473050
   1 C :   -0.222060
   2 C :   -0.224910
   3 H :    0.068000
   4 H :    0.291976
   5 C :    0.595184
   6 C :    0.819006
   7 C :   -1.235241
   8 N :   -0.483962
   9 H :    0.082097
  10 H :    0.364827
  11 H :    0.267747
  12 H :    0.244966
  13 H :    0.168177
  14 H :    0.159017
  15 O :   -0.515274
  16 F :   -0.306815
  17 H :    0.294274
  18 H :    0.106041
Sum of atomic charges:    0.0000000

LOEWDIN ATOMIC CHARGES
----------------------
   0 C :   -0.135285
   1 C :   -0.165621
   2 C :   -0.093470
   3 H :    0.117051
   4 H :    0.112843
   5 C :   -0.479142
   6 C :   -0.486441
   7 C :    0.028748
   8 N :    0.126261
   9 H :    0.123273
  10 H :    0.049746
  11 H :    0.016738
  12 H :    0.013162
  13 H :    0.112301
  14 H :    0.118477
  15 O :    0.141876
  16 F :    0.170952
  17 H :    0.112186
  18 H :    0.116344

  Mayer bond orders larger than 0.100000
B(  0-C ,  1-C ) :   0.9355 B(  0-C ,  5-C ) :   0.1110 B(  0-C ,  6-C ) :   0.8677
B(  0-C , 17-H ) :   0.8158 B(  0-C , 18-H ) :   0.9757 B(  1-C ,  2-C ) :   0.9971
B(  1-C ,  5-C ) :   0.1376 B(  1-C ,  6-C ) :   0.1252 B(  1-C , 13-H ) :   0.8889
B(  1-C , 14-H ) :   0.9200 B(  2-C ,  3-H ) :   0.9841 B(  2-C ,  4-H ) :   0.8831
B(  2-C ,  5-C ) :   0.9146 B(  2-C ,  8-N ) :   0.2002 B(  5-C , 15-O ) :   1.6381
B(  5-C , 16-F ) :   0.8324 B(  6-C ,  7-C ) :   1.2284 B(  6-C ,  8-N ) :   0.8421
B(  7-C ,  8-N ) :   0.1440 B(  7-C , 11-H ) :   0.9950 B(  7-C , 12-H ) :   1.0017
B(  8-N ,  9-H ) :   1.1060 B(  8-N , 10-H ) :   0.8428

Dispersion correction           -0.023282824
FINAL SINGLE POINT ENERGY      -464.698087862957

DIPOLE MOMENT
-------------
                                X             Y             Z
Electronic contribution:      7.46706      -3.57880       8.07365
Nuclear contribution   :     -7.21688       3.18902      -8.52197
                        -----------------------------------------
Total Dipole Moment    :      0.25018      -0.38978      -0.44832
                        -----------------------------------------
Magnitude (a.u.)       :      0.64460
Magnitude (Debye)      :      1.63844

Rotational constants in cm-1:     0.103917     0.036987     0.030872
Rotational constants in MHz :  3115.342573  1108.839114   925.506342

                             ****ORCA TERMINATED NORMALLY****
TOTAL RUN TIME: 0 days 0 hours 0 minutes 54 seconds 921 msec
