                         Program Version 5.0.0 -  RELEASE  -
|  1> !TPSS D3BJ RIJCOSX def2-TZVPD def2/J TightSCF xyzfile
|  2>
|  3> *xyzfile 0 1 D4.xyz
|  4>
|  5> %MaxCore 64000
|  6>
|  7> %pal nprocs 4
|  8> end
|  9>
| 10> %scf
| 11>   MaxIter 150
| 12> end
| 13>
| 14>
| 15>                          ****END OF INPUT****

CARTESIAN COORDINATES (ANGSTROEM)
---------------------------------
  C      3.343500    3.354571   -3.591998
  C      2.952633    1.863077   -3.574849
  C      4.129209    0.898394   -3.418950
  H      3.733687   -0.100605   -3.237633
  H      4.719095    0.862556   -4.339005
  C      5.017344    1.315212   -2.221305
  C      4.255868    3.703851   -4.726054
  N      3.734032    4.293783   -5.800770
  C      5.515039    3.407255   -4.637185
  H      6.149187    3.601203   -5.399053
  H      5.813584    2.899504   -3.808785
  H      2.741380    4.513109   -5.824701
  H      4.287548    4.521260   -6.614341
  H      2.278938    1.735250   -2.725496
  H      2.377466    1.625787   -4.475869
  O      4.737055    0.854112   -1.122825
  F      5.928146    2.168108   -2.491365
  H      3.861246    3.597252   -2.662979
  H      2.446493    3.973461   -3.656556

 Total Charge           Charge          ....    0
 Multiplicity           Mult            ....    1
 Number of Electrons    NEL             ....   70
 Basis Dimension        Dim             ....  429

ORBITAL ENERGIES
----------------

  NO   OCC          E(Eh)            E(eV)
   0   2.0000     -24.472990      -665.9439
   1   2.0000     -18.893870      -514.1283
   2   2.0000     -14.106244      -383.8504
   3   2.0000     -10.150813      -276.2177
   4   2.0000     -10.009747      -272.3791
   5   2.0000     -10.004585      -272.2386
   6   2.0000      -9.999548      -272.1015
   7   2.0000      -9.996102      -272.0078
   8   2.0000      -9.906454      -269.5683
   9   2.0000      -1.233921       -33.5767
  10   2.0000      -0.984275       -26.7835
  11   2.0000      -0.865281       -23.5455
  12   2.0000      -0.761527       -20.7222
  13   2.0000      -0.698740       -19.0137
  14   2.0000      -0.656006       -17.8508
  15   2.0000      -0.617240       -16.7960
  16   2.0000      -0.568664       -15.4741
  17   2.0000      -0.534602       -14.5473
  18   2.0000      -0.490323       -13.3424
  19   2.0000      -0.485315       -13.2061
  20   2.0000      -0.476802       -12.9744
  21   2.0000      -0.458511       -12.4767
  22   2.0000      -0.438033       -11.9195
  23   2.0000      -0.419135       -11.4052
  24   2.0000      -0.404513       -11.0073
  25   2.0000      -0.375275       -10.2117
  26   2.0000      -0.358025        -9.7424
  27   2.0000      -0.345614        -9.4046
  28   2.0000      -0.337936        -9.1957
  29   2.0000      -0.325981        -8.8704
  30   2.0000      -0.313259        -8.5242
  31   2.0000      -0.295737        -8.0474
  32   2.0000      -0.291993        -7.9455
  33   2.0000      -0.251760        -6.8507
  34   2.0000      -0.164538        -4.4773
  35   0.0000      -0.059032        -1.6063
  36   0.0000      -0.012715        -0.3460
  37   0.0000       0.005861         0.1595
  38   0.0000       0.009682         0.2635
  39   0.0000       0.018133         0.4934

MULLIKEN ATOMIC CHARGES
-----------------------
   0 C :   -0.579425
   1 C :   -0.181695
   2 C :   -0.307296
   3 H :    0.059901
   4 H :    0.404631
   5 C :    0.580417
   6 C :    0.979383
   7 N :   -0.502295
   8 C :   -1.699544
   9 H :    0.170448
  10 H :    0.888867
  11 H :    0.166249
  12 H :    0.115606
  13 H :    0.168404
  14 H :    0.102460
  15 O :   -0.541725
  16 F :   -0.236723
  17 H :    0.276007
  18 H :    0.136330
Sum of atomic charges:   -0.0000000

LOEWDIN ATOMIC CHARGES
----------------------
   0 C :   -0.132249
   1 C :   -0.167124
   2 C :   -0.093557
   3 H :    0.115416
   4 H :    0.112436
   5 C :   -0.481515
   6 C :   -0.466146
   7 N :    0.106744
   8 C :    0.031386
   9 H :    0.035081
  10 H :   -0.012697
  11 H :    0.101303
  12 H :    0.106439
  13 H :    0.111769
  14 H :    0.114638
  15 O :    0.132041
  16 F :    0.160075
  17 H :    0.116135
  18 H :    0.109825

  Mayer bond orders larger than 0.100000
B(  0-C ,  1-C ) :   0.9603 B(  0-C ,  5-C ) :   0.1081 B(  0-C ,  6-C ) :   0.8406
B(  0-C , 17-H ) :   0.8259 B(  0-C , 18-H ) :   1.0248 B(  1-C ,  2-C ) :   0.9790
B(  1-C ,  5-C ) :   0.1405 B(  1-C , 13-H ) :   0.8870 B(  1-C , 14-H ) :   0.9367
B(  2-C ,  3-H ) :   0.9906 B(  2-C ,  4-H ) :   0.8176 B(  2-C ,  5-C ) :   0.9081
B(  2-C ,  8-C ) :   0.2692 B(  5-C , 15-O ) :   1.6117 B(  5-C , 16-F ) :   0.9025
B(  6-C ,  7-N ) :   0.7039 B(  6-C ,  8-C ) :   0.9972 B(  6-C ,  9-H ) :  -0.1102
B(  7-N ,  8-C ) :   0.1261 B(  7-N , 11-H ) :   1.0527 B(  7-N , 12-H ) :   1.1012
B(  8-C ,  9-H ) :   1.1181 B(  8-C , 10-H ) :   0.4529 B(  8-C , 16-F ) :   0.1133
B(  9-H , 10-H ) :   0.1126 B( 10-H , 16-F ) :  -0.3755

Dispersion correction           -0.023415450
FINAL SINGLE POINT ENERGY      -464.685604699830

DIPOLE MOMENT
-------------
                                X             Y             Z
Electronic contribution:      6.20246      -2.80343       7.12032
Nuclear contribution   :     -6.99695       3.07955      -8.37829
                        -----------------------------------------
Total Dipole Moment    :     -0.79449       0.27612      -1.25797
                        -----------------------------------------
Magnitude (a.u.)       :      1.51325
Magnitude (Debye)      :      3.84638

Rotational constants in cm-1:     0.106302     0.035771     0.030198
Rotational constants in MHz :  3186.860872  1072.397550   905.318354

                             ****ORCA TERMINATED NORMALLY****
TOTAL RUN TIME: 0 days 0 hours 0 minutes 52 seconds 588 msec
