                         Program Version 5.0.0 -  RELEASE  -
|  1> !wB97X-D3 RIJCOSX def2-TZVPD def2/J TightSCF
|  2> *xyz -1 1
|  3> C         -5.57236       -5.80780       -0.81644
|  4> S         -6.90318       -4.61903       -0.52846
|  5> O         -8.11485       -5.25093       -0.95701
|  6> O         -6.53271       -3.42684       -1.31485
|  7> O         -6.86563       -4.29496        0.91412
|  8> C         -4.45780       -5.94187        0.22919
|  9> H         -5.17735       -5.54257       -1.79771
| 10> H         -6.07420       -6.76889       -0.92127
| 11> H         -3.75515       -6.68239       -0.09144
| 12> H         -4.88182       -6.23486        1.16689
| 13> H         -3.95908       -5.00189        0.34143
| 14> *
| 15> %MaxCore 64000
| 16>
| 17> %pal nprocs 4
| 18> end
| 19>
| 20> %scf
| 21>   MaxIter 150
| 22> end
| 23>
| 24>                          ****END OF INPUT****

CARTESIAN COORDINATES (ANGSTROEM)
---------------------------------
  C     -5.572360   -5.807800   -0.816440
  S     -6.903180   -4.619030   -0.528460
  O     -8.114850   -5.250930   -0.957010
  O     -6.532710   -3.426840   -1.314850
  O     -6.865630   -4.294960    0.914120
  C     -4.457800   -5.941870    0.229190
  H     -5.177350   -5.542570   -1.797710
  H     -6.074200   -6.768890   -0.921270
  H     -3.755150   -6.682390   -0.091440
  H     -4.881820   -6.234860    1.166890
  H     -3.959080   -5.001890    0.341430

 Total Charge           Charge          ....   -1
 Multiplicity           Mult            ....    1
 Number of Electrons    NEL             ....   58
 Basis Dimension        Dim             ....  285

ORBITAL ENERGIES
----------------

  NO   OCC          E(Eh)            E(eV)
   0   2.0000     -88.935451     -2420.0566
   1   2.0000     -19.014744      -517.4175
   2   2.0000     -19.000790      -517.0378
   3   2.0000     -19.000039      -517.0174
   4   2.0000     -10.138795      -275.8906
   5   2.0000     -10.133487      -275.7462
   6   2.0000      -7.998233      -217.6430
   7   2.0000      -5.952548      -161.9771
   8   2.0000      -5.951210      -161.9407
   9   2.0000      -5.950932      -161.9331
  10   2.0000      -1.037789       -28.2397
  11   2.0000      -0.905006       -24.6265
  12   2.0000      -0.881658       -23.9911
  13   2.0000      -0.749354       -20.3910
  14   2.0000      -0.622617       -16.9423
  15   2.0000      -0.488037       -13.2802
  16   2.0000      -0.421115       -11.4591
  17   2.0000      -0.415466       -11.3054
  18   2.0000      -0.376183       -10.2365
  19   2.0000      -0.359482        -9.7820
  20   2.0000      -0.357235        -9.7209
  21   2.0000      -0.322156        -8.7663
  22   2.0000      -0.315778        -8.5928
  23   2.0000      -0.247394        -6.7319
  24   2.0000      -0.245887        -6.6909
  25   2.0000      -0.210427        -5.7260
  26   2.0000      -0.198134        -5.3915
  27   2.0000      -0.194469        -5.2918
  28   2.0000      -0.156343        -4.2543
  29   0.0000       0.174037         4.7358
  30   0.0000       0.185472         5.0469
  31   0.0000       0.187306         5.0969
  32   0.0000       0.194110         5.2820
  33   0.0000       0.220451         5.9988

MULLIKEN ATOMIC CHARGES
-----------------------
   0 C :   -0.449842
   1 S :    1.179273
   2 O :   -0.693490
   3 O :   -0.727787
   4 O :   -0.727705
   5 C :   -1.039863
   6 H :    0.287708
   7 H :    0.277387
   8 H :    0.331074
   9 H :    0.281504
  10 H :    0.281741
Sum of atomic charges:   -1.0000000

LOEWDIN ATOMIC CHARGES
----------------------
   0 C :   -0.318336
   1 S :    0.364133
   2 O :   -0.386366
   3 O :   -0.423438
   4 O :   -0.416811
   5 C :   -0.143938
   6 H :    0.078860
   7 H :    0.074926
   8 H :    0.049741
   9 H :    0.057957
  10 H :    0.063271

  Mayer bond orders larger than 0.100000
B(  0-C ,  1-S ) :   0.8791 B(  0-C ,  2-O ) :   0.1313 B(  0-C ,  3-O ) :   0.1340
B(  0-C ,  5-C ) :   0.6453 B(  0-C ,  6-H ) :   0.9685 B(  0-C ,  7-H ) :   0.9648
B(  1-S ,  2-O ) :   1.5355 B(  1-S ,  3-O ) :   1.5034 B(  1-S ,  4-O ) :   1.4982
B(  5-C ,  8-H ) :   0.9146 B(  5-C ,  9-H ) :   0.9919 B(  5-C , 10-H ) :   0.9832

Dispersion correction           -0.002821806
FINAL SINGLE POINT ENERGY      -703.218835593483

DIPOLE MOMENT
-------------
                                X             Y             Z
Electronic contribution:     -6.65825       4.29198      -0.92104
Nuclear contribution   :      8.13140      -5.68016       0.80206
                        -----------------------------------------
Total Dipole Moment    :      1.47315      -1.38818      -0.11898
                        -----------------------------------------
Magnitude (a.u.)       :      2.02765
Magnitude (Debye)      :      5.15388

Rotational constants in cm-1:     0.162101     0.080498     0.079099
Rotational constants in MHz :  4859.669771  2413.267251  2371.338602

                             ****ORCA TERMINATED NORMALLY****
TOTAL RUN TIME: 0 days 0 hours 1 minutes 8 seconds 708 msec
