                         Program Version 5.0.0 -  RELEASE  -
|  1> !wB97X-D3 RIJCOSX def2-TZVPD def2/J TightSCF
|  2> *xyz 1 1
|  3> C         -4.38262       -1.67089        1.21620
|  4> N         -5.76354       -1.91517        0.70501
|  5> C         -3.28173       -2.19127        0.29436
|  6> H         -5.84081       -2.11520       -0.30065
|  7> H         -6.40882       -1.14866        0.93612
|  8> H         -6.17478       -2.79061        1.05143
|  9> H         -4.32862       -2.13922        2.19810
| 10> H         -4.26158       -0.59740        1.35725
| 11> H         -3.36057       -1.71407       -0.66008
| 12> H         -3.38775       -3.24919        0.17403
| 13> H         -2.32559       -1.97514        0.72329
| 14> *
| 15> %MaxCore 64000
| 16>
| 17> %pal nprocs 4
| 18> end
| 19>
| 20> %scf
| 21>   MaxIter 150
| 22> end
| 23>
| 24>                          ****END OF INPUT****

CARTESIAN COORDINATES (ANGSTROEM)
---------------------------------
  C     -4.382620   -1.670890    1.216200
  N     -5.763540   -1.915170    0.705010
  C     -3.281730   -2.191270    0.294360
  H     -5.840810   -2.115200   -0.300650
  H     -6.408820   -1.148660    0.936120
  H     -6.174780   -2.790610    1.051430
  H     -4.328620   -2.139220    2.198100
  H     -4.261580   -0.597400    1.357250
  H     -3.360570   -1.714070   -0.660080
  H     -3.387750   -3.249190    0.174030
  H     -2.325590   -1.975140    0.723290

 Total Charge           Charge          ....    1
 Multiplicity           Mult            ....    1
 Number of Electrons    NEL             ....   26
 Basis Dimension        Dim             ....  183

ORBITAL ENERGIES
----------------

  NO   OCC          E(Eh)            E(eV)
   0   2.0000     -14.757950      -401.5842
   1   2.0000     -10.529438      -286.5206
   2   2.0000     -10.447081      -284.2795
   3   2.0000      -1.332376       -36.2558
   4   2.0000      -1.082243       -29.4493
   5   2.0000      -0.959586       -26.1117
   6   2.0000      -0.899260       -24.4701
   7   2.0000      -0.877841       -23.8873
   8   2.0000      -0.802309       -21.8319
   9   2.0000      -0.740048       -20.1377
  10   2.0000      -0.679429       -18.4882
  11   2.0000      -0.661683       -18.0053
  12   2.0000      -0.643371       -17.5070
  13   0.0000      -0.121976        -3.3191
  14   0.0000      -0.069125        -1.8810
  15   0.0000      -0.064743        -1.7618
  16   0.0000      -0.057054        -1.5525
  17   0.0000      -0.029860        -0.8125

MULLIKEN ATOMIC CHARGES
-----------------------
   0 C :   -0.335130
   1 N :   -0.327767
   2 C :   -1.178065
   3 H :    0.360904
   4 H :    0.369321
   5 H :    0.392901
   6 H :    0.305540
   7 H :    0.322048
   8 H :    0.378969
   9 H :    0.372923
  10 H :    0.338355
Sum of atomic charges:    1.0000000

LOEWDIN ATOMIC CHARGES
----------------------
   0 C :   -0.190581
   1 N :    0.179103
   2 C :   -0.058305
   3 H :    0.179762
   4 H :    0.183826
   5 H :    0.181410
   6 H :    0.134299
   7 H :    0.133292
   8 H :    0.082807
   9 H :    0.082244
  10 H :    0.092144

  Mayer bond orders larger than 0.100000
B(  0-C ,  1-N ) :   0.9980 B(  0-C ,  2-C ) :   0.7042 B(  0-C ,  6-H ) :   0.9285
B(  0-C ,  7-H ) :   0.8880 B(  1-N ,  3-H ) :   0.8462 B(  1-N ,  4-H ) :   0.8507
B(  1-N ,  5-H ) :   0.8295 B(  2-C ,  8-H ) :   0.9075 B(  2-C ,  9-H ) :   0.9301
B(  2-C , 10-H ) :   0.9430

Dispersion correction           -0.001548224
FINAL SINGLE POINT ENERGY      -135.547193248041

DIPOLE MOMENT
-------------
                                X             Y             Z
Electronic contribution:     -1.80328       0.23942       0.30596
Nuclear contribution   :      0.19437      -0.25358      -0.32106
                        -----------------------------------------
Total Dipole Moment    :     -1.60891      -0.01416      -0.01510
                        -----------------------------------------
Magnitude (a.u.)       :      1.60904
Magnitude (Debye)      :      4.08987

Rotational constants in cm-1:     1.030014     0.272489     0.242697
Rotational constants in MHz : 30879.030706  8169.007780  7275.865152

                             ****ORCA TERMINATED NORMALLY****
TOTAL RUN TIME: 0 days 0 hours 0 minutes 25 seconds 843 msec
