                         Program Version 5.0.0 -  RELEASE  -
|  1> !wB97X-D3 RIJCOSX def2-TZVPD def2/J TightSCF
|  2> *xyz 0 1
|  3> C         -5.57236       -5.80780       -0.81644
|  4> S         -6.90318       -4.61903       -0.52846
|  5> F         -8.11485       -5.25093       -0.95701
|  6> O         -6.53271       -3.42684       -1.31485
|  7> O         -6.86563       -4.29496        0.91412
|  8> C         -4.45780       -5.94187        0.22919
|  9> H         -5.17735       -5.54257       -1.79771
| 10> H         -6.07420       -6.76889       -0.92127
| 11> H         -3.75515       -6.68239       -0.09144
| 12> H         -4.88182       -6.23486        1.16689
| 13> H         -3.95908       -5.00189        0.34143
| 14> *
| 15> %MaxCore 64000
| 16>
| 17> %pal nprocs 4
| 18> end
| 19>
| 20> %scf
| 21>   MaxIter 150
| 22> end
| 23>
| 24>                          ****END OF INPUT****

CARTESIAN COORDINATES (ANGSTROEM)
---------------------------------
  C     -5.572360   -5.807800   -0.816440
  S     -6.903180   -4.619030   -0.528460
  F     -8.114850   -5.250930   -0.957010
  O     -6.532710   -3.426840   -1.314850
  O     -6.865630   -4.294960    0.914120
  C     -4.457800   -5.941870    0.229190
  H     -5.177350   -5.542570   -1.797710
  H     -6.074200   -6.768890   -0.921270
  H     -3.755150   -6.682390   -0.091440
  H     -4.881820   -6.234860    1.166890
  H     -3.959080   -5.001890    0.341430

 Total Charge           Charge          ....    0
 Multiplicity           Mult            ....    1
 Number of Electrons    NEL             ....   58
 Basis Dimension        Dim             ....  285

ORBITAL ENERGIES
----------------

  NO   OCC          E(Eh)            E(eV)
   0   2.0000     -89.198661     -2427.2190
   1   2.0000     -24.914515      -677.9584
   2   2.0000     -19.235321      -523.4197
   3   2.0000     -19.235189      -523.4161
   4   2.0000     -10.340821      -281.3880
   5   2.0000     -10.294925      -280.1391
   6   2.0000      -8.261955      -224.8192
   7   2.0000      -6.219258      -169.2346
   8   2.0000      -6.213053      -169.0658
   9   2.0000      -6.212518      -169.0512
  10   2.0000      -1.511374       -41.1266
  11   2.0000      -1.210131       -32.9293
  12   2.0000      -1.111581       -30.2477
  13   2.0000      -0.939135       -25.5552
  14   2.0000      -0.853171       -23.2160
  15   2.0000      -0.790827       -21.5195
  16   2.0000      -0.701071       -19.0771
  17   2.0000      -0.698724       -19.0132
  18   2.0000      -0.660866       -17.9831
  19   2.0000      -0.596075       -16.2200
  20   2.0000      -0.581340       -15.8191
  21   2.0000      -0.543381       -14.7862
  22   2.0000      -0.527003       -14.3405
  23   2.0000      -0.503483       -13.7005
  24   2.0000      -0.487687       -13.2706
  25   2.0000      -0.478280       -13.0147
  26   2.0000      -0.420446       -11.4409
  27   2.0000      -0.418183       -11.3793
  28   2.0000      -0.396549       -10.7907
  29   0.0000       0.048323         1.3149
  30   0.0000       0.061554         1.6750
  31   0.0000       0.067981         1.8499
  32   0.0000       0.073959         2.0125
  33   0.0000       0.095851         2.6082

MULLIKEN ATOMIC CHARGES
-----------------------
   0 C :   -0.458961
   1 S :    1.191257
   2 F :   -0.120436
   3 O :   -0.597289
   4 O :   -0.602218
   5 C :   -1.101455
   6 H :    0.346025
   7 H :    0.356392
   8 H :    0.345866
   9 H :    0.317937
  10 H :    0.322881
Sum of atomic charges:   -0.0000000

LOEWDIN ATOMIC CHARGES
----------------------
   0 C :   -0.275588
   1 S :    0.614591
   2 F :   -0.046036
   3 O :   -0.304991
   4 O :   -0.303060
   5 C :   -0.101524
   6 H :    0.099179
   7 H :    0.091386
   8 H :    0.074819
   9 H :    0.072510
  10 H :    0.078714

  Mayer bond orders larger than 0.100000
B(  0-C ,  1-S ) :   0.8675 B(  0-C ,  3-O ) :   0.1102 B(  0-C ,  5-C ) :   0.7324
B(  0-C ,  6-H ) :   0.9255 B(  0-C ,  7-H ) :   0.8638 B(  1-S ,  2-F ) :   1.0233
B(  1-S ,  3-O ) :   1.6572 B(  1-S ,  4-O ) :   1.6509 B(  5-C ,  8-H ) :   0.9072
B(  5-C ,  9-H ) :   0.9572 B(  5-C , 10-H ) :   0.9543

Dispersion correction           -0.002828600
FINAL SINGLE POINT ENERGY      -727.731192311584

DIPOLE MOMENT
-------------
                                X             Y             Z
Electronic contribution:     -9.40255       3.56223      -1.86512
Nuclear contribution   :      9.80704      -5.24335       1.35017
                        -----------------------------------------
Total Dipole Moment    :      0.40449      -1.68112      -0.51495
                        -----------------------------------------
Magnitude (a.u.)       :      1.80415
Magnitude (Debye)      :      4.58579

Rotational constants in cm-1:     0.156316     0.078308     0.076228
Rotational constants in MHz :  4686.224999  2347.601204  2285.245115

                             ****ORCA TERMINATED NORMALLY****
TOTAL RUN TIME: 0 days 0 hours 1 minutes 6 seconds 479 msec
