                         Program Version 5.0.0 -  RELEASE  -
|  1> !wB97X-D3 RIJCOSX def2-TZVPD def2/J TightSCF
|  2> *xyz 0 1
|  3> C         -4.38262       -1.67089        1.21620
|  4> C         -5.76354       -1.91517        0.70501
|  5> C         -3.28173       -2.19127        0.29436
|  6> H         -5.84081       -2.11520       -0.30065
|  7> H         -6.40882       -1.14866        0.93612
|  8> H         -6.17478       -2.79061        1.05143
|  9> H         -4.32862       -2.13922        2.19810
| 10> H         -4.26158       -0.59740        1.35725
| 11> H         -3.36057       -1.71407       -0.66008
| 12> H         -3.38775       -3.24919        0.17403
| 13> H         -2.32559       -1.97514        0.72329
| 14> *
| 15> %MaxCore 64000
| 16>
| 17> %pal nprocs 4
| 18> end
| 19>
| 20> %scf
| 21>   MaxIter 150
| 22> end
| 23>
| 24>                          ****END OF INPUT****

CARTESIAN COORDINATES (ANGSTROEM)
---------------------------------
  C     -4.382620   -1.670890    1.216200
  C     -5.763540   -1.915170    0.705010
  C     -3.281730   -2.191270    0.294360
  H     -5.840810   -2.115200   -0.300650
  H     -6.408820   -1.148660    0.936120
  H     -6.174780   -2.790610    1.051430
  H     -4.328620   -2.139220    2.198100
  H     -4.261580   -0.597400    1.357250
  H     -3.360570   -1.714070   -0.660080
  H     -3.387750   -3.249190    0.174030
  H     -2.325590   -1.975140    0.723290

 Total Charge           Charge          ....    0
 Multiplicity           Mult            ....    1
 Number of Electrons    NEL             ....   26
 Basis Dimension        Dim             ....  183

ORBITAL ENERGIES
----------------

  NO   OCC          E(Eh)            E(eV)
   0   2.0000     -10.261389      -279.2266
   1   2.0000     -10.251009      -278.9441
   2   2.0000     -10.231156      -278.4039
   3   2.0000      -0.904982       -24.6258
   4   2.0000      -0.805865       -21.9287
   5   2.0000      -0.699873       -19.0445
   6   2.0000      -0.564340       -15.3565
   7   2.0000      -0.542260       -14.7556
   8   2.0000      -0.507685       -13.8148
   9   2.0000      -0.482211       -13.1216
  10   2.0000      -0.434144       -11.8137
  11   2.0000      -0.426815       -11.6142
  12   2.0000      -0.414386       -11.2760
  13   0.0000       0.077228         2.1015
  14   0.0000       0.096220         2.6183
  15   0.0000       0.099075         2.6960
  16   0.0000       0.129605         3.5267
  17   0.0000       0.152347         4.1456

MULLIKEN ATOMIC CHARGES
-----------------------
   0 C :    0.044145
   1 C :   -1.400479
   2 C :   -1.216037
   3 H :    0.398879
   4 H :    0.348738
   5 H :    0.371051
   6 H :    0.233751
   7 H :    0.259027
   8 H :    0.325385
   9 H :    0.319732
  10 H :    0.315808
Sum of atomic charges:    0.0000000

LOEWDIN ATOMIC CHARGES
----------------------
   0 C :   -0.307514
   1 C :   -0.128521
   2 C :   -0.117450
   3 H :    0.052345
   4 H :    0.053019
   5 H :    0.052106
   6 H :    0.101692
   7 H :    0.100122
   8 H :    0.066594
   9 H :    0.066940
  10 H :    0.060668

  Mayer bond orders larger than 0.100000
B(  0-C ,  1-C ) :   0.6647 B(  0-C ,  2-C ) :   0.5864 B(  0-C ,  6-H ) :   0.9696
B(  0-C ,  7-H ) :   0.9548 B(  1-C ,  2-C ) :   0.2550 B(  1-C ,  3-H ) :   0.8589
B(  1-C ,  4-H ) :   0.9089 B(  1-C ,  5-H ) :   0.9383 B(  2-C ,  8-H ) :   0.9704
B(  2-C ,  9-H ) :   0.9728 B(  2-C , 10-H ) :   0.9559

Dispersion correction           -0.001494968
FINAL SINGLE POINT ENERGY      -119.135689123882

DIPOLE MOMENT
-------------
                                X             Y             Z
Electronic contribution:      0.18628       0.23736       0.33823
Nuclear contribution   :     -0.21528      -0.24783      -0.32864
                        -----------------------------------------
Total Dipole Moment    :     -0.02899      -0.01047       0.00958
                        -----------------------------------------
Magnitude (a.u.)       :      0.03228
Magnitude (Debye)      :      0.08205

Rotational constants in cm-1:     1.037566     0.286459     0.254172
Rotational constants in MHz : 31105.431429  8587.814531  7619.871198

                             ****ORCA TERMINATED NORMALLY****
TOTAL RUN TIME: 0 days 0 hours 0 minutes 24 seconds 497 msec
