                         Program Version 5.0.0 -  RELEASE  -
|  1> !wB97X-D3 RIJCOSX def2-TZVPD def2/J TightSCF
|  2> *xyz 0 1
|  3> C         -5.57236       -5.80780       -0.81644
|  4> S         -6.90318       -4.61903       -0.52846
|  5> O         -8.11485       -5.25093       -0.95701
|  6> F         -6.53271       -3.42684       -1.31485
|  7> O         -6.86563       -4.29496        0.91412
|  8> C         -4.45780       -5.94187        0.22919
|  9> H         -5.17735       -5.54257       -1.79771
| 10> H         -6.07420       -6.76889       -0.92127
| 11> H         -3.75515       -6.68239       -0.09144
| 12> H         -4.88182       -6.23486        1.16689
| 13> H         -3.95908       -5.00189        0.34143
| 14> *
| 15> %MaxCore 64000
| 16>
| 17> %pal nprocs 4
| 18> end
| 19>
| 20> %scf
| 21>   MaxIter 150
| 22> end
| 23>
| 24>                          ****END OF INPUT****

CARTESIAN COORDINATES (ANGSTROEM)
---------------------------------
  C     -5.572360   -5.807800   -0.816440
  S     -6.903180   -4.619030   -0.528460
  O     -8.114850   -5.250930   -0.957010
  F     -6.532710   -3.426840   -1.314850
  O     -6.865630   -4.294960    0.914120
  C     -4.457800   -5.941870    0.229190
  H     -5.177350   -5.542570   -1.797710
  H     -6.074200   -6.768890   -0.921270
  H     -3.755150   -6.682390   -0.091440
  H     -4.881820   -6.234860    1.166890
  H     -3.959080   -5.001890    0.341430

 Total Charge           Charge          ....    0
 Multiplicity           Mult            ....    1
 Number of Electrons    NEL             ....   58
 Basis Dimension        Dim             ....  285

ORBITAL ENERGIES
----------------

  NO   OCC          E(Eh)            E(eV)
   0   2.0000     -89.196310     -2427.1550
   1   2.0000     -24.891739      -677.3386
   2   2.0000     -19.249580      -523.8077
   3   2.0000     -19.234902      -523.4083
   4   2.0000     -10.340107      -281.3686
   5   2.0000     -10.294489      -280.1273
   6   2.0000      -8.259620      -224.7557
   7   2.0000      -6.217058      -169.1747
   8   2.0000      -6.210854      -169.0059
   9   2.0000      -6.210060      -168.9843
  10   2.0000      -1.474450       -40.1218
  11   2.0000      -1.227285       -33.3961
  12   2.0000      -1.127015       -30.6676
  13   2.0000      -0.938842       -25.5472
  14   2.0000      -0.839424       -22.8419
  15   2.0000      -0.782661       -21.2973
  16   2.0000      -0.684413       -18.6238
  17   2.0000      -0.672936       -18.3115
  18   2.0000      -0.656365       -17.8606
  19   2.0000      -0.594524       -16.1778
  20   2.0000      -0.582152       -15.8412
  21   2.0000      -0.555195       -15.1076
  22   2.0000      -0.530474       -14.4349
  23   2.0000      -0.500528       -13.6201
  24   2.0000      -0.498512       -13.5652
  25   2.0000      -0.480480       -13.0745
  26   2.0000      -0.433652       -11.8003
  27   2.0000      -0.421804       -11.4779
  28   2.0000      -0.409360       -11.1393
  29   0.0000       0.051527         1.4021
  30   0.0000       0.063349         1.7238
  31   0.0000       0.068353         1.8600
  32   0.0000       0.072635         1.9765
  33   0.0000       0.097275         2.6470

MULLIKEN ATOMIC CHARGES
-----------------------
   0 C :   -0.457507
   1 S :    1.199922
   2 O :   -0.579522
   3 F :   -0.159195
   4 O :   -0.604973
   5 C :   -1.090158
   6 H :    0.378711
   7 H :    0.331198
   8 H :    0.345224
   9 H :    0.317877
  10 H :    0.318423
Sum of atomic charges:   -0.0000000

LOEWDIN ATOMIC CHARGES
----------------------
   0 C :   -0.270637
   1 S :    0.615216
   2 O :   -0.271643
   3 F :   -0.081542
   4 O :   -0.302187
   5 C :   -0.107128
   6 H :    0.095493
   7 H :    0.101142
   8 H :    0.073687
   9 H :    0.073710
  10 H :    0.073888

  Mayer bond orders larger than 0.100000
B(  0-C ,  1-S ) :   0.8643 B(  0-C ,  2-O ) :   0.1178 B(  0-C ,  5-C ) :   0.7120
B(  0-C ,  6-H ) :   0.8533 B(  0-C ,  7-H ) :   0.9281 B(  1-S ,  2-O ) :   1.6847
B(  1-S ,  3-F ) :   0.9798 B(  1-S ,  4-O ) :   1.6443 B(  5-C ,  8-H ) :   0.9173
B(  5-C ,  9-H ) :   0.9743 B(  5-C , 10-H ) :   0.9425

Dispersion correction           -0.002806319
FINAL SINGLE POINT ENERGY      -727.749889764785

DIPOLE MOMENT
-------------
                                X             Y             Z
Electronic contribution:     -6.70960       6.68266      -2.49481
Nuclear contribution   :      8.15840      -7.14411       1.72305
                        -----------------------------------------
Total Dipole Moment    :      1.44880      -0.46144      -0.77175
                        -----------------------------------------
Magnitude (a.u.)       :      1.70516
Magnitude (Debye)      :      4.33417

Rotational constants in cm-1:     0.153926     0.078297     0.077402
Rotational constants in MHz :  4614.585804  2347.272644  2320.438903

                             ****ORCA TERMINATED NORMALLY****
TOTAL RUN TIME: 0 days 0 hours 1 minutes 8 seconds 376 msec
