                         Program Version 5.0.0 -  RELEASE  -
|  1> !wB97X-D3 RIJCOSX def2-TZVPD def2/J TightSCF
|  2> *xyz 0 1
|  3> C         -5.57236       -5.80780       -0.81644
|  4> S         -6.90318       -4.61903       -0.52846
|  5> O         -8.11485       -5.25093       -0.95701
|  6> O         -6.53271       -3.42684       -1.31485
|  7> F         -6.86563       -4.29496        0.91412
|  8> C         -4.45780       -5.94187        0.22919
|  9> H         -5.17735       -5.54257       -1.79771
| 10> H         -6.07420       -6.76889       -0.92127
| 11> H         -3.75515       -6.68239       -0.09144
| 12> H         -4.88182       -6.23486        1.16689
| 13> H         -3.95908       -5.00189        0.34143
| 14> *
| 15> %MaxCore 64000
| 16>
| 17> %pal nprocs 4
| 18> end
| 19>
| 20> %scf
| 21>   MaxIter 150
| 22> end
| 23>
| 24>                          ****END OF INPUT****

CARTESIAN COORDINATES (ANGSTROEM)
---------------------------------
  C     -5.572360   -5.807800   -0.816440
  S     -6.903180   -4.619030   -0.528460
  O     -8.114850   -5.250930   -0.957010
  O     -6.532710   -3.426840   -1.314850
  F     -6.865630   -4.294960    0.914120
  C     -4.457800   -5.941870    0.229190
  H     -5.177350   -5.542570   -1.797710
  H     -6.074200   -6.768890   -0.921270
  H     -3.755150   -6.682390   -0.091440
  H     -4.881820   -6.234860    1.166890
  H     -3.959080   -5.001890    0.341430

 Total Charge           Charge          ....    0
 Multiplicity           Mult            ....    1
 Number of Electrons    NEL             ....   58
 Basis Dimension        Dim             ....  285

ORBITAL ENERGIES
----------------

  NO   OCC          E(Eh)            E(eV)
   0   2.0000     -89.195772     -2427.1403
   1   2.0000     -24.890464      -677.3040
   2   2.0000     -19.249246      -523.7986
   3   2.0000     -19.234202      -523.3892
   4   2.0000     -10.339402      -281.3494
   5   2.0000     -10.301691      -280.3233
   6   2.0000      -8.259123      -224.7422
   7   2.0000      -6.216662      -169.1640
   8   2.0000      -6.210156      -168.9869
   9   2.0000      -6.209674      -168.9738
  10   2.0000      -1.471613       -40.0446
  11   2.0000      -1.227854       -33.4116
  12   2.0000      -1.127702       -30.6863
  13   2.0000      -0.941809       -25.6279
  14   2.0000      -0.836456       -22.7611
  15   2.0000      -0.787327       -21.4242
  16   2.0000      -0.689658       -18.7666
  17   2.0000      -0.672050       -18.2874
  18   2.0000      -0.648409       -17.6441
  19   2.0000      -0.599387       -16.3102
  20   2.0000      -0.575261       -15.6536
  21   2.0000      -0.551567       -15.0089
  22   2.0000      -0.544615       -14.8197
  23   2.0000      -0.510965       -13.9041
  24   2.0000      -0.494965       -13.4687
  25   2.0000      -0.484474       -13.1832
  26   2.0000      -0.433922       -11.8076
  27   2.0000      -0.420493       -11.4422
  28   2.0000      -0.408909       -11.1270
  29   0.0000       0.050531         1.3750
  30   0.0000       0.063081         1.7165
  31   0.0000       0.069994         1.9046
  32   0.0000       0.072437         1.9711
  33   0.0000       0.099622         2.7108

MULLIKEN ATOMIC CHARGES
-----------------------
   0 C :   -0.388587
   1 S :    1.212127
   2 O :   -0.578096
   3 O :   -0.607589
   4 F :   -0.169038
   5 C :   -1.147637
   6 H :    0.334949
   7 H :    0.333574
   8 H :    0.334177
   9 H :    0.342252
  10 H :    0.333869
Sum of atomic charges:    0.0000000

LOEWDIN ATOMIC CHARGES
----------------------
   0 C :   -0.266830
   1 S :    0.613969
   2 O :   -0.271521
   3 O :   -0.306616
   4 F :   -0.080658
   5 C :   -0.109651
   6 H :    0.105335
   7 H :    0.097051
   8 H :    0.074461
   9 H :    0.069652
  10 H :    0.074807

  Mayer bond orders larger than 0.100000
B(  0-C ,  1-S ) :   0.8484 B(  0-C ,  2-O ) :   0.1115 B(  0-C ,  3-O ) :   0.1057
B(  0-C ,  5-C ) :   0.6682 B(  0-C ,  6-H ) :   0.9218 B(  0-C ,  7-H ) :   0.9227
B(  1-S ,  2-O ) :   1.6867 B(  1-S ,  3-O ) :   1.6516 B(  1-S ,  4-F ) :   0.9756
B(  5-C ,  8-H ) :   0.9325 B(  5-C ,  9-H ) :   0.9295 B(  5-C , 10-H ) :   0.9478

Dispersion correction           -0.002793676
FINAL SINGLE POINT ENERGY      -727.750139125916

DIPOLE MOMENT
-------------
                                X             Y             Z
Electronic contribution:     -7.25814       5.16855       1.31478
Nuclear contribution   :      8.50531      -6.23950      -0.59960
                        -----------------------------------------
Total Dipole Moment    :      1.24717      -1.07095       0.71518
                        -----------------------------------------
Magnitude (a.u.)       :      1.79272
Magnitude (Debye)      :      4.55673

Rotational constants in cm-1:     0.152799     0.080212     0.076962
Rotational constants in MHz :  4580.804531  2404.707790  2307.252710

                             ****ORCA TERMINATED NORMALLY****
TOTAL RUN TIME: 0 days 0 hours 1 minutes 6 seconds 828 msec
