                         Program Version 5.0.0 -  RELEASE  -
|  1> !wB97X-D3 RIJCOSX def2-TZVPD def2/J TightSCF xyzfile
|  2>
|  3> *xyzfile 0 1 D1.xyz
|  4>
|  5> %MaxCore 64000
|  6>
|  7> %pal nprocs 18
|  8> end
|  9>
| 10> %scf
| 11>   MaxIter 150
| 12> end
| 13>
| 14>
| 15>                          ****END OF INPUT****

CARTESIAN COORDINATES (ANGSTROEM)
---------------------------------
  C     -4.382623   -1.670889    1.216201
  C     -5.763539   -1.915170    0.705012
  C     -3.281728   -2.191272    0.294361
  C     -5.572364   -5.807798   -0.816445
  S     -6.903179   -4.619033   -0.528458
  H     -5.840812   -2.115205   -0.300646
  H     -6.408823   -1.148656    0.936124
  H     -6.174781   -2.790606    1.051433
  F     -8.114853   -5.250932   -0.957007
  O     -6.532715   -3.426838   -1.314848
  H     -4.328618   -2.139223    2.198103
  H     -4.261583   -0.597399    1.357248
  O     -6.865632   -4.294957    0.914118
  C     -3.474641   -3.605898   -0.259608
  H     -2.354548   -2.127602    0.871433
  H     -3.166611   -1.499693   -0.545037
  C     -3.827078   -4.661097    0.786174
  H     -2.560559   -3.889391   -0.788050
  H     -4.255932   -3.570040   -1.019300
  C     -4.457800   -5.941875    0.229195
  H     -5.177347   -5.542575   -1.797714
  H     -6.074202   -6.768894   -0.921272
  H     -4.530506   -4.253640    1.511979
  H     -2.933400   -4.932302    1.356825
  H     -3.681064   -6.562236   -0.229885
  H     -4.843942   -6.512728    1.075805

 Total Charge           Charge          ....    0
 Multiplicity           Mult            ....    1
 Number of Electrons    NEL             ....   98
 Basis Dimension        Dim             ....  560

ORBITAL ENERGIES
----------------

  NO   OCC          E(Eh)            E(eV)
   0   2.0000     -89.206290     -2427.4266
   1   2.0000     -24.919667      -678.0986
   2   2.0000     -19.243710      -523.6480
   3   2.0000     -19.242739      -523.6215
   4   2.0000     -10.342173      -281.4248
   5   2.0000     -10.304113      -280.3892
   6   2.0000     -10.270943      -279.4866
   7   2.0000     -10.260172      -279.1935
   8   2.0000     -10.251685      -278.9625
   9   2.0000     -10.237098      -278.5656
  10   2.0000     -10.177174      -276.9350
  11   2.0000      -8.269873      -225.0347
  12   2.0000      -6.227051      -169.4467
  13   2.0000      -6.220985      -169.2816
  14   2.0000      -6.220527      -169.2692
  15   2.0000      -1.516827       -41.2750
  16   2.0000      -1.224109       -33.3097
  17   2.0000      -1.125708       -30.6321
  18   2.0000      -0.953726       -25.9522
  19   2.0000      -0.912459       -24.8293
  20   2.0000      -0.869574       -23.6623
  21   2.0000      -0.841834       -22.9075
  22   2.0000      -0.804747       -21.8983
  23   2.0000      -0.757787       -20.6204
  24   2.0000      -0.722506       -19.6604
  25   2.0000      -0.708110       -19.2687
  26   2.0000      -0.693742       -18.8777
  27   2.0000      -0.661837       -18.0095
  28   2.0000      -0.647970       -17.6322
  29   2.0000      -0.598961       -16.2986
  30   2.0000      -0.596665       -16.2361
  31   2.0000      -0.572746       -15.5852
  32   2.0000      -0.568339       -15.4653
  33   2.0000      -0.541440       -14.7333
  34   2.0000      -0.532751       -14.4969
  35   2.0000      -0.515420       -14.0253
  36   2.0000      -0.507728       -13.8160
  37   2.0000      -0.483209       -13.1488
  38   2.0000      -0.476013       -12.9530
  39   2.0000      -0.471935       -12.8420
  40   2.0000      -0.441303       -12.0085
  41   2.0000      -0.436613       -11.8809
  42   2.0000      -0.430733       -11.7208
  43   2.0000      -0.426240       -11.5986
  44   2.0000      -0.417358       -11.3569
  45   2.0000      -0.403267       -10.9735
  46   2.0000      -0.385688       -10.4951
  47   2.0000      -0.379516       -10.3272
  48   2.0000      -0.358191        -9.7469
  49   0.0000       0.038224         1.0401
  50   0.0000       0.058931         1.6036
  51   0.0000       0.060888         1.6568
  52   0.0000       0.074940         2.0392
  53   0.0000       0.089423         2.4333

MULLIKEN ATOMIC CHARGES
-----------------------
   0 C :   -0.177390
   1 C :   -1.534453
   2 C :   -0.889144
   3 C :   -0.855728
   4 S :    1.138891
   5 H :    0.536971
   6 H :    0.436118
   7 H :    0.403880
   8 F :   -0.068237
   9 O :   -0.680276
  10 H :    0.305415
  11 H :    0.262957
  12 O :   -0.687302
  13 C :   -0.308685
  14 H :    0.264307
  15 H :    0.296881
  16 C :   -0.390193
  17 H :    0.322231
  18 H :    0.221657
  19 C :   -0.676692
  20 H :    0.450994
  21 H :    0.383600
  22 H :    0.291979
  23 H :    0.311051
  24 H :    0.305649
  25 H :    0.335520
Sum of atomic charges:   -0.0000000

LOEWDIN ATOMIC CHARGES
----------------------
   0 C :   -0.241798
   1 C :   -0.126710
   2 C :   -0.204800
   3 C :   -0.214546
   4 S :    0.673613
   5 H :    0.021813
   6 H :    0.067156
   7 H :   -0.007660
   8 F :   -0.033412
   9 O :   -0.307948
  10 H :    0.103591
  11 H :    0.103749
  12 O :   -0.297877
  13 C :   -0.201651
  14 H :    0.105578
  15 H :    0.112835
  16 C :   -0.199825
  17 H :    0.114644
  18 H :    0.084282
  19 C :   -0.204493
  20 H :    0.106281
  21 H :    0.097529
  22 H :    0.094375
  23 H :    0.120807
  24 H :    0.119711
  25 H :    0.114755

  Mayer bond orders larger than 0.100000
B(  0-C ,  1-C ) :   0.4867 B(  0-C ,  2-C ) :   0.8978 B(  0-C , 10-H ) :   0.8714
B(  0-C , 11-H ) :   0.9603 B(  0-C , 16-C ) :   0.2203 B(  1-C ,  2-C ) :   0.2062
B(  1-C ,  5-H ) :   0.8146 B(  1-C ,  6-H ) :   0.8079 B(  1-C ,  7-H ) :   1.0524
B(  1-C ,  9-O ) :   0.1048 B(  1-C , 12-O ) :   0.1000 B(  2-C , 13-C ) :   0.9388
B(  2-C , 14-H ) :   0.9161 B(  2-C , 15-H ) :   0.9199 B(  2-C , 16-C ) :   0.2989
B(  2-C , 18-H ) :   0.1501 B(  3-C ,  4-S ) :   0.8438 B(  3-C ,  8-F ) :   0.1113
B(  3-C ,  9-O ) :   0.1321 B(  3-C , 13-C ) :   0.1607 B(  3-C , 19-C ) :   0.9444
B(  3-C , 20-H ) :   0.8186 B(  3-C , 21-H ) :   0.8629 B(  4-S ,  8-F ) :   0.8781
B(  4-S ,  9-O ) :   1.6946 B(  4-S , 12-O ) :   1.7211 B(  5-H ,  9-O ) :  -0.1327
B(  7-H , 12-O ) :  -0.2097 B(  9-O , 12-O ) :   0.1770 B( 13-C , 16-C ) :   0.4187
B( 13-C , 17-H ) :   0.8792 B( 13-C , 18-H ) :   1.0459 B( 13-C , 19-C ) :   0.3166
B( 16-C , 19-C ) :   0.9615 B( 16-C , 22-H ) :   0.9957 B( 16-C , 23-H ) :   0.8806
B( 19-C , 24-H ) :   0.9017 B( 19-C , 25-H ) :   0.8930

Dispersion correction           -0.012979686
FINAL SINGLE POINT ENERGY      -924.265174708455

DIPOLE MOMENT
-------------
                                X             Y             Z
Electronic contribution:    -18.97909      -8.68827      -6.74094
Nuclear contribution   :     19.08524       6.89775       6.14221
                        -----------------------------------------
Total Dipole Moment    :      0.10615      -1.79052      -0.59873
                        -----------------------------------------
Magnitude (a.u.)       :      1.89095
Magnitude (Debye)      :      4.80642

Rotational constants in cm-1:     0.049343     0.024787     0.019726
Rotational constants in MHz :  1479.262779   743.087234   591.370705

                             ****ORCA TERMINATED NORMALLY****
TOTAL RUN TIME: 0 days 0 hours 1 minutes 48 seconds 852 msec
