                         Program Version 5.0.0 -  RELEASE  -
|  1> !wB97X-D3 RIJCOSX def2-TZVPD def2/J TightSCF xyzfile
|  2>
|  3> *xyzfile 0 1 D3.xyz
|  4>
|  5> %MaxCore 64000
|  6>
|  7> %pal nprocs 18
|  8> end
|  9>
| 10> %scf
| 11>   MaxIter 150
| 12> end
| 13>
| 14>
| 15>                          ****END OF INPUT****

CARTESIAN COORDINATES (ANGSTROEM)
---------------------------------
  C     -4.382623   -1.670889    1.216201
  C     -5.763539   -1.915170    0.705012
  C     -3.281728   -2.191272    0.294361
  C     -5.572364   -5.807798   -0.816445
  S     -6.903179   -4.619033   -0.528458
  H     -5.840812   -2.115205   -0.300646
  H     -6.408823   -1.148656    0.936124
  H     -6.174781   -2.790606    1.051433
  O     -8.114853   -5.250932   -0.957007
  O     -6.532715   -3.426838   -1.314848
  H     -4.328618   -2.139223    2.198103
  H     -4.261583   -0.597399    1.357248
  F     -6.865632   -4.294957    0.914118
  C     -3.474641   -3.605898   -0.259608
  H     -2.354548   -2.127602    0.871433
  H     -3.166611   -1.499693   -0.545037
  C     -3.827078   -4.661097    0.786174
  H     -2.560559   -3.889391   -0.788050
  H     -4.255932   -3.570040   -1.019300
  C     -4.457800   -5.941875    0.229195
  H     -5.177347   -5.542575   -1.797714
  H     -6.074202   -6.768894   -0.921272
  H     -4.530506   -4.253640    1.511979
  H     -2.933400   -4.932302    1.356825
  H     -3.681064   -6.562236   -0.229885
  H     -4.843942   -6.512728    1.075805

 Total Charge           Charge          ....    0
 Multiplicity           Mult            ....    1
 Number of Electrons    NEL             ....   98
 Basis Dimension        Dim             ....  560

ORBITAL ENERGIES
----------------

  NO   OCC          E(Eh)            E(eV)
   0   2.0000     -89.200334     -2427.2645
   1   2.0000     -24.895855      -677.4507
   2   2.0000     -19.253125      -523.9042
   3   2.0000     -19.237445      -523.4775
   4   2.0000     -10.339470      -281.3513
   5   2.0000     -10.308632      -280.5121
   6   2.0000     -10.285037      -279.8701
   7   2.0000     -10.269873      -279.4575
   8   2.0000     -10.262981      -279.2699
   9   2.0000     -10.252937      -278.9966
  10   2.0000     -10.202211      -277.6163
  11   2.0000      -8.264036      -224.8759
  12   2.0000      -6.221603      -169.2984
  13   2.0000      -6.214990      -169.1185
  14   2.0000      -6.214512      -169.1055
  15   2.0000      -1.482296       -40.3353
  16   2.0000      -1.233759       -33.5723
  17   2.0000      -1.136234       -30.9185
  18   2.0000      -0.959436       -26.1076
  19   2.0000      -0.920642       -25.0519
  20   2.0000      -0.871937       -23.7266
  21   2.0000      -0.843358       -22.9489
  22   2.0000      -0.807176       -21.9644
  23   2.0000      -0.768994       -20.9254
  24   2.0000      -0.731282       -19.8992
  25   2.0000      -0.693261       -18.8646
  26   2.0000      -0.687085       -18.6965
  27   2.0000      -0.660266       -17.9667
  28   2.0000      -0.650641       -17.7048
  29   2.0000      -0.599851       -16.3228
  30   2.0000      -0.593663       -16.1544
  31   2.0000      -0.576681       -15.6923
  32   2.0000      -0.560414       -15.2496
  33   2.0000      -0.553121       -15.0512
  34   2.0000      -0.546807       -14.8794
  35   2.0000      -0.525920       -14.3110
  36   2.0000      -0.504258       -13.7216
  37   2.0000      -0.491788       -13.3822
  38   2.0000      -0.487654       -13.2697
  39   2.0000      -0.487225       -13.2581
  40   2.0000      -0.456681       -12.4269
  41   2.0000      -0.450537       -12.2597
  42   2.0000      -0.442343       -12.0368
  43   2.0000      -0.426919       -11.6171
  44   2.0000      -0.426423       -11.6036
  45   2.0000      -0.416651       -11.3377
  46   2.0000      -0.398604       -10.8466
  47   2.0000      -0.396338       -10.7849
  48   2.0000      -0.380541       -10.3550
  49   0.0000       0.047872         1.3027
  50   0.0000       0.059998         1.6326
  51   0.0000       0.066712         1.8153
  52   0.0000       0.072349         1.9687
  53   0.0000       0.087942         2.3930

MULLIKEN ATOMIC CHARGES
-----------------------
   0 C :   -0.142398
   1 C :   -1.736800
   2 C :   -0.913363
   3 C :   -0.726571
   4 S :    1.174293
   5 H :    0.640247
   6 H :    0.459724
   7 H :    0.444062
   8 O :   -0.589007
   9 O :   -0.665595
  10 H :    0.309733
  11 H :    0.263592
  12 F :   -0.238023
  13 C :   -0.281869
  14 H :    0.270538
  15 H :    0.305380
  16 C :   -0.360296
  17 H :    0.321979
  18 H :    0.246447
  19 C :   -0.754016
  20 H :    0.449390
  21 H :    0.315284
  22 H :    0.250436
  23 H :    0.308398
  24 H :    0.309420
  25 H :    0.339014
Sum of atomic charges:    0.0000000

LOEWDIN ATOMIC CHARGES
----------------------
   0 C :   -0.240563
   1 C :   -0.121710
   2 C :   -0.202973
   3 C :   -0.205618
   4 S :    0.654803
   5 H :    0.022193
   6 H :    0.069637
   7 H :    0.009920
   8 O :   -0.255157
   9 O :   -0.308337
  10 H :    0.103244
  11 H :    0.106519
  12 F :   -0.099993
  13 C :   -0.201639
  14 H :    0.107019
  15 H :    0.114704
  16 C :   -0.203007
  17 H :    0.117000
  18 H :    0.085082
  19 C :   -0.212663
  20 H :    0.112463
  21 H :    0.102925
  22 H :    0.092247
  23 H :    0.121928
  24 H :    0.119061
  25 H :    0.112916

  Mayer bond orders larger than 0.100000
B(  0-C ,  1-C ) :   0.4613 B(  0-C ,  2-C ) :   0.8916 B(  0-C , 10-H ) :   0.8710
B(  0-C , 11-H ) :   0.9571 B(  0-C , 16-C ) :   0.1947 B(  1-C ,  2-C ) :   0.2211
B(  1-C ,  4-S ) :   0.1174 B(  1-C ,  5-H ) :   0.6626 B(  1-C ,  6-H ) :   0.7471
B(  1-C ,  7-H ) :   0.9799 B(  1-C ,  9-O ) :   0.1867 B(  1-C , 12-F ) :   0.1738
B(  2-C , 13-C ) :   0.9483 B(  2-C , 14-H ) :   0.9172 B(  2-C , 15-H ) :   0.9125
B(  2-C , 16-C ) :   0.3205 B(  2-C , 18-H ) :   0.1419 B(  3-C ,  4-S ) :   0.7982
B(  3-C ,  8-O ) :   0.1781 B(  3-C ,  9-O ) :   0.1417 B(  3-C , 13-C ) :   0.1374
B(  3-C , 19-C ) :   0.9093 B(  3-C , 20-H ) :   0.8042 B(  3-C , 21-H ) :   0.9944
B(  4-S ,  8-O ) :   1.4220 B(  4-S ,  9-O ) :   1.6555 B(  4-S , 12-F ) :   1.0868
B(  4-S , 19-C ) :   0.1153 B(  5-H ,  9-O ) :  -0.1767 B(  7-H , 12-F ) :  -0.1868
B( 13-C , 16-C ) :   0.3921 B( 13-C , 17-H ) :   0.8736 B( 13-C , 18-H ) :   1.0471
B( 13-C , 19-C ) :   0.2867 B( 16-C , 19-C ) :   0.8982 B( 16-C , 22-H ) :   1.0224
B( 16-C , 23-H ) :   0.8841 B( 19-C , 24-H ) :   0.8932 B( 19-C , 25-H ) :   0.9280

Dispersion correction           -0.012917554
FINAL SINGLE POINT ENERGY      -924.282418041297

DIPOLE MOMENT
-------------
                                X             Y             Z
Electronic contribution:    -16.53999      -6.85667      -3.43987
Nuclear contribution   :     17.63907       5.79106       3.97609
                        -----------------------------------------
Total Dipole Moment    :      1.09908      -1.06560       0.53622
                        -----------------------------------------
Magnitude (a.u.)       :      1.62204
Magnitude (Debye)      :      4.12291

Rotational constants in cm-1:     0.048663     0.025472     0.020259
Rotational constants in MHz :  1458.892793   763.621130   607.350055

                             ****ORCA TERMINATED NORMALLY****
TOTAL RUN TIME: 0 days 0 hours 2 minutes 15 seconds 806 msec
