                         Program Version 5.0.0 -  RELEASE  -
|  1> !wB97X-D3 RIJCOSX def2-TZVPD def2/J TightSCF
|  2> *xyz -1 1
|  3> C         -0.46129        2.23469       -4.98962
|  4> C          0.84888        2.66797       -4.30235
|  5> C          2.09343        1.86104       -4.65684
|  6> H          2.44481        2.04157       -5.67499
|  7> H          2.90175        2.13786       -3.98034
|  8> S          1.87964        0.07859       -4.46297
|  9> O          3.20757       -0.46611       -4.42026
| 10> O          1.07506       -0.05616       -3.26876
| 11> O          1.13166       -0.31996       -5.67903
| 12> H          0.66843        2.55943       -3.23285
| 13> H          1.03407        3.72943       -4.49708
| 14> H         -0.35183        2.31783       -6.05075
| 15> H         -1.26108        2.86600       -4.66300
| 16> H         -0.68032        1.21949       -4.73211
| 17> *
| 18>
| 19> %MaxCore 64000
| 20>
| 21> %pal nprocs 8
| 22> end
| 23>
| 24> %scf
| 25>   MaxIter 150
| 26> end
| 27>
| 28>
| 29>                          ****END OF INPUT****

CARTESIAN COORDINATES (ANGSTROEM)
---------------------------------
  C     -0.461290    2.234690   -4.989620
  C      0.848880    2.667970   -4.302350
  C      2.093430    1.861040   -4.656840
  H      2.444810    2.041570   -5.674990
  H      2.901750    2.137860   -3.980340
  S      1.879640    0.078590   -4.462970
  O      3.207570   -0.466110   -4.420260
  O      1.075060   -0.056160   -3.268760
  O      1.131660   -0.319960   -5.679030
  H      0.668430    2.559430   -3.232850
  H      1.034070    3.729430   -4.497080
  H     -0.351830    2.317830   -6.050750
  H     -1.261080    2.866000   -4.663000
  H     -0.680320    1.219490   -4.732110

 Total Charge           Charge          ....   -1
 Multiplicity           Mult            ....    1
 Number of Electrons    NEL             ....   66
 Basis Dimension        Dim             ....  340

ORBITAL ENERGIES
----------------

  NO   OCC          E(Eh)            E(eV)
   0   2.0000     -88.936427     -2420.0832
   1   2.0000     -19.015789      -517.4459
   2   2.0000     -19.013669      -517.3882
   3   2.0000     -19.000281      -517.0239
   4   2.0000     -10.140367      -275.9334
   5   2.0000     -10.133804      -275.7548
   6   2.0000     -10.117538      -275.3122
   7   2.0000      -7.999558      -217.6790
   8   2.0000      -5.953911      -162.0142
   9   2.0000      -5.952569      -161.9776
  10   2.0000      -5.952150      -161.9662
  11   2.0000      -1.045574       -28.4515
  12   2.0000      -0.915393       -24.9091
  13   2.0000      -0.889906       -24.2156
  14   2.0000      -0.767250       -20.8779
  15   2.0000      -0.674719       -18.3600
  16   2.0000      -0.575183       -15.6515
  17   2.0000      -0.486337       -13.2339
  18   2.0000      -0.433751       -11.8030
  19   2.0000      -0.415558       -11.3079
  20   2.0000      -0.392096       -10.6695
  21   2.0000      -0.378368       -10.2959
  22   2.0000      -0.360890        -9.8203
  23   2.0000      -0.347116        -9.4455
  24   2.0000      -0.317409        -8.6371
  25   2.0000      -0.305503        -8.3132
  26   2.0000      -0.288168        -7.8414
  27   2.0000      -0.253841        -6.9074
  28   2.0000      -0.251038        -6.8311
  29   2.0000      -0.217026        -5.9056
  30   2.0000      -0.205555        -5.5934
  31   2.0000      -0.193520        -5.2659
  32   2.0000      -0.163621        -4.4524
  33   0.0000       0.174445         4.7469
  34   0.0000       0.182076         4.9545
  35   0.0000       0.184156         5.0111
  36   0.0000       0.188670         5.1340
  37   0.0000       0.211350         5.7511

MULLIKEN ATOMIC CHARGES
-----------------------
   0 C :   -1.229263
   1 C :   -0.261338
   2 C :   -0.613578
   3 H :    0.314114
   4 H :    0.247697
   5 S :    1.194517
   6 O :   -0.702618
   7 O :   -0.710156
   8 O :   -0.724521
   9 H :    0.246722
  10 H :    0.265734
  11 H :    0.288345
  12 H :    0.315746
  13 H :    0.368600
Sum of atomic charges:   -1.0000000

LOEWDIN ATOMIC CHARGES
----------------------
   0 C :   -0.126077
   1 C :   -0.296932
   2 C :   -0.281295
   3 H :    0.090638
   4 H :    0.082871
   5 S :    0.355331
   6 O :   -0.383025
   7 O :   -0.378138
   8 O :   -0.411550
   9 H :    0.093292
  10 H :    0.091625
  11 H :    0.062462
  12 H :    0.051020
  13 H :    0.049779

  Mayer bond orders larger than 0.100000
B(  0-C ,  1-C ) :   0.6909 B(  0-C ,  2-C ) :   0.1131 B(  0-C , 11-H ) :   0.9687
B(  0-C , 12-H ) :   0.9323 B(  0-C , 13-H ) :   0.9342 B(  1-C ,  2-C ) :   0.9290
B(  1-C ,  5-S ) :   0.1023 B(  1-C ,  9-H ) :   0.9347 B(  1-C , 10-H ) :   0.9464
B(  2-C ,  3-H ) :   0.9092 B(  2-C ,  4-H ) :   0.9866 B(  2-C ,  5-S ) :   0.8268
B(  2-C ,  6-O ) :   0.1459 B(  2-C ,  8-O ) :   0.1351 B(  5-S ,  6-O ) :   1.4664
B(  5-S ,  7-O ) :   1.5307 B(  5-S ,  8-O ) :   1.4959

Dispersion correction           -0.004656562
FINAL SINGLE POINT ENERGY      -742.540830456888

DIPOLE MOMENT
-------------
                                X             Y             Z
Electronic contribution:      4.88037      -9.08572       1.04097
Nuclear contribution   :     -5.21326      11.14780      -1.06438
                        -----------------------------------------
Total Dipole Moment    :     -0.33289       2.06209      -0.02341
                        -----------------------------------------
Magnitude (a.u.)       :      2.08892
Magnitude (Debye)      :      5.30960

Rotational constants in cm-1:     0.135673     0.057896     0.054396
Rotational constants in MHz :  4067.361083  1735.682437  1630.763840

                             ****ORCA TERMINATED NORMALLY****
TOTAL RUN TIME: 0 days 0 hours 0 minutes 47 seconds 476 msec
