                         Program Version 5.0.0 -  RELEASE  -
|  1> !wB97X-D3 RIJCOSX def2-TZVPD def2/J TightSCF
|  2> *xyz 1 1
|  3> C         -0.46129        2.23469       -4.98962
|  4> C          0.84888        2.66797       -4.30235
|  5> C          2.09343        1.86104       -4.65684
|  6> C         -0.42384        2.39877       -6.47432
|  7> N         -0.95947        3.49265       -7.00740
|  8> N          0.14558        1.48689       -7.20399
|  9> H          0.56537        0.69681       -6.72386
| 10> H          0.22068        1.58177       -8.20752
| 11> H         -1.40624        4.18151       -6.40326
| 12> H         -0.93421        3.68160       -7.99947
| 13> H          0.66843        2.55943       -3.23285
| 14> H          1.03407        3.72943       -4.49708
| 15> H         -1.28888        2.82674       -4.59500
| 16> H         -0.65170        1.18634       -4.75655
| 17> H          2.29129        1.95234       -5.70442
| 18> H          1.93270        0.83176       -4.41261
| 19> H          2.92953        2.23285       -4.10223
| 20> *
| 21>
| 22> %MaxCore 64000
| 23>
| 24> %pal nprocs 8
| 25> end
| 26>
| 27> %scf
| 28>   MaxIter 150
| 29> end
| 30>
| 31>
| 32>                          ****END OF INPUT****

CARTESIAN COORDINATES (ANGSTROEM)
---------------------------------
  C     -0.461290    2.234690   -4.989620
  C      0.848880    2.667970   -4.302350
  C      2.093430    1.861040   -4.656840
  C     -0.423840    2.398770   -6.474320
  N     -0.959470    3.492650   -7.007400
  N      0.145580    1.486890   -7.203990
  H      0.565370    0.696810   -6.723860
  H      0.220680    1.581770   -8.207520
  H     -1.406240    4.181510   -6.403260
  H     -0.934210    3.681600   -7.999470
  H      0.668430    2.559430   -3.232850
  H      1.034070    3.729430   -4.497080
  H     -1.288880    2.826740   -4.595000
  H     -0.651700    1.186340   -4.756550
  H      2.291290    1.952340   -5.704420
  H      1.932700    0.831760   -4.412610
  H      2.929530    2.232850   -4.102230

 Total Charge           Charge          ....    1
 Multiplicity           Mult            ....    1
 Number of Electrons    NEL             ....   48
 Basis Dimension        Dim             ....  321

ORBITAL ENERGIES
----------------

  NO   OCC          E(Eh)            E(eV)
   0   2.0000     -14.664764      -399.0485
   1   2.0000     -14.661174      -398.9508
   2   2.0000     -10.596133      -288.3354
   3   2.0000     -10.468746      -284.8691
   4   2.0000     -10.435375      -283.9610
   5   2.0000     -10.401273      -283.0330
   6   2.0000      -1.318945       -35.8903
   7   2.0000      -1.221271       -33.2325
   8   2.0000      -1.089535       -29.6478
   9   2.0000      -1.003690       -27.3118
  10   2.0000      -0.939229       -25.5577
  11   2.0000      -0.892383       -24.2830
  12   2.0000      -0.873306       -23.7639
  13   2.0000      -0.837249       -22.7827
  14   2.0000      -0.795501       -21.6467
  15   2.0000      -0.754227       -20.5236
  16   2.0000      -0.721875       -19.6432
  17   2.0000      -0.704693       -19.1757
  18   2.0000      -0.671431       -18.2706
  19   2.0000      -0.657191       -17.8831
  20   2.0000      -0.602217       -16.3871
  21   2.0000      -0.591670       -16.1002
  22   2.0000      -0.590210       -16.0604
  23   2.0000      -0.576323       -15.6825
  24   0.0000      -0.123839        -3.3698
  25   0.0000      -0.089537        -2.4364
  26   0.0000      -0.052556        -1.4301
  27   0.0000      -0.046084        -1.2540
  28   0.0000      -0.029339        -0.7983

MULLIKEN ATOMIC CHARGES
-----------------------
   0 C :   -0.613589
   1 C :   -0.144150
   2 C :   -1.337597
   3 C :    0.705578
   4 N :   -0.420057
   5 N :   -0.392889
   6 H :    0.287444
   7 H :    0.196294
   8 H :    0.257944
   9 H :    0.200367
  10 H :    0.303041
  11 H :    0.315992
  12 H :    0.280384
  13 H :    0.332019
  14 H :    0.343826
  15 H :    0.363977
  16 H :    0.321417
Sum of atomic charges:    1.0000000

LOEWDIN ATOMIC CHARGES
----------------------
   0 C :   -0.111654
   1 C :   -0.222113
   2 C :   -0.094626
   3 C :   -0.351257
   4 N :    0.219563
   5 N :    0.230861
   6 H :    0.149144
   7 H :    0.154641
   8 H :    0.151756
   9 H :    0.143897
  10 H :    0.120671
  11 H :    0.120072
  12 H :    0.130034
  13 H :    0.137276
  14 H :    0.060463
  15 H :    0.078329
  16 H :    0.082944

  Mayer bond orders larger than 0.100000
B(  0-C ,  1-C ) :   0.7411 B(  0-C ,  2-C ) :   0.1509 B(  0-C ,  3-C ) :   0.7898
B(  0-C , 12-H ) :   0.9910 B(  0-C , 13-H ) :   0.9363 B(  1-C ,  2-C ) :   0.5381
B(  1-C ,  3-C ) :   0.1903 B(  1-C , 10-H ) :   0.9582 B(  1-C , 11-H ) :   0.9227
B(  2-C ,  3-C ) :   0.1116 B(  2-C , 14-H ) :   0.9286 B(  2-C , 15-H ) :   0.9484
B(  2-C , 16-H ) :   0.9617 B(  3-C ,  4-N ) :   1.0947 B(  3-C ,  5-N ) :   1.1903
B(  4-N ,  5-N ) :   0.1065 B(  4-N ,  8-H ) :   0.9440 B(  4-N ,  9-H ) :   1.0537
B(  5-N ,  6-H ) :   0.9137 B(  5-N ,  7-H ) :   1.0604

Dispersion correction           -0.004586189
FINAL SINGLE POINT ENERGY      -268.377926191047

DIPOLE MOMENT
-------------
                                X             Y             Z
Electronic contribution:     -3.54838       0.62644      -4.29509
Nuclear contribution   :      2.80679      -0.44323       2.95915
                        -----------------------------------------
Total Dipole Moment    :     -0.74159       0.18321      -1.33593
                        -----------------------------------------
Magnitude (a.u.)       :      1.53891
Magnitude (Debye)      :      3.91159

Rotational constants in cm-1:     0.187834     0.079484     0.065778
Rotational constants in MHz :  5631.136036  2382.861517  1971.985559

                             ****ORCA TERMINATED NORMALLY****
TOTAL RUN TIME: 0 days 0 hours 0 minutes 47 seconds 992 msec
