                         Program Version 5.0.0 -  RELEASE  -
|  1> !wB97X-D3 RIJCOSX def2-TZVPD def2/J TightSCF xyzfile
|  2>
|  3> *xyzfile 0 1 B.xyz
|  4>
|  5> %MaxCore 64000
|  6>
|  7> %pal nprocs 18
|  8> end
|  9>
| 10> %scf
| 11>   MaxIter 150
| 12> end
| 13>
| 14>
| 15>                          ****END OF INPUT****

CARTESIAN COORDINATES (ANGSTROEM)
---------------------------------
  C     -0.461293    2.234686   -4.989619
  C      0.848883    2.667967   -4.302351
  C      2.093434    1.861037   -4.656845
  H      2.444814    2.041567   -5.674990
  H      2.901748    2.137864   -3.980338
  S      1.879644    0.078594   -4.462965
  C     -0.423841    2.398772   -6.474317
  N     -0.959467    3.492647   -7.007401
  N      0.145585    1.486891   -7.203987
  H      0.565371    0.696807   -6.723858
  H      0.220682    1.581768   -8.207520
  H     -1.406243    4.181507   -6.403261
  H     -0.934215    3.681601   -7.999468
  O      3.207574   -0.466111   -4.420259
  O      1.075064   -0.056160   -3.268758
  O      1.131661   -0.319960   -5.679031
  H      0.668432    2.559427   -3.232850
  H      1.034074    3.729426   -4.497081
  H     -1.288884    2.826737   -4.594997
  H     -0.651696    1.186343   -4.756552

 Total Charge           Charge          ....    0
 Multiplicity           Mult            ....    1
 Number of Electrons    NEL             ....   88
 Basis Dimension        Dim             ....  478

ORBITAL ENERGIES
----------------

  NO   OCC          E(Eh)            E(eV)
   0   2.0000     -89.085893     -2424.1504
   1   2.0000     -19.168414      -521.5991
   2   2.0000     -19.155043      -521.2352
   3   2.0000     -19.153180      -521.1845
   4   2.0000     -14.531487      -395.4219
   5   2.0000     -14.499425      -394.5494
   6   2.0000     -10.453680      -284.4591
   7   2.0000     -10.327162      -281.0164
   8   2.0000     -10.306646      -280.4581
   9   2.0000     -10.282443      -279.7995
  10   2.0000      -8.149028      -221.7463
  11   2.0000      -6.103648      -166.0887
  12   2.0000      -6.102420      -166.0553
  13   2.0000      -6.100973      -166.0159
  14   2.0000      -1.195004       -32.5177
  15   2.0000      -1.176395       -32.0113
  16   2.0000      -1.080988       -29.4152
  17   2.0000      -1.054716       -28.7003
  18   2.0000      -1.052971       -28.6528
  19   2.0000      -0.952353       -25.9148
  20   2.0000      -0.871249       -23.7079
  21   2.0000      -0.803402       -21.8617
  22   2.0000      -0.758725       -20.6460
  23   2.0000      -0.735474       -20.0133
  24   2.0000      -0.711199       -19.3527
  25   2.0000      -0.664948       -18.0942
  26   2.0000      -0.626255       -17.0413
  27   2.0000      -0.617802       -16.8113
  28   2.0000      -0.586526       -15.9602
  29   2.0000      -0.572984       -15.5917
  30   2.0000      -0.546773       -14.8784
  31   2.0000      -0.536504       -14.5990
  32   2.0000      -0.514302       -13.9949
  33   2.0000      -0.506701       -13.7880
  34   2.0000      -0.487409       -13.2631
  35   2.0000      -0.470279       -12.7969
  36   2.0000      -0.454257       -12.3610
  37   2.0000      -0.439989       -11.9727
  38   2.0000      -0.403861       -10.9896
  39   2.0000      -0.398481       -10.8432
  40   2.0000      -0.365665        -9.9503
  41   2.0000      -0.355965        -9.6863
  42   2.0000      -0.345321        -9.3967
  43   2.0000      -0.314941        -8.5700
  44   0.0000       0.013891         0.3780
  45   0.0000       0.017885         0.4867
  46   0.0000       0.053038         1.4432
  47   0.0000       0.069654         1.8954
  48   0.0000       0.073665         2.0045

MULLIKEN ATOMIC CHARGES
-----------------------
   0 C :   -0.541831
   1 C :   -0.445886
   2 C :   -0.786430
   3 H :    0.341439
   4 H :    0.307036
   5 S :    1.272861
   6 C :    0.555619
   7 N :   -0.430629
   8 N :   -0.293654
   9 H :    0.318577
  10 H :    0.174797
  11 H :    0.248987
  12 H :    0.177665
  13 O :   -0.671783
  14 O :   -0.698200
  15 O :   -0.822601
  16 H :    0.349132
  17 H :    0.256789
  18 H :    0.300774
  19 H :    0.387338
Sum of atomic charges:   -0.0000000

LOEWDIN ATOMIC CHARGES
----------------------
   0 C :   -0.111400
   1 C :   -0.204675
   2 C :   -0.247226
   3 H :    0.095703
   4 H :    0.102545
   5 S :    0.425646
   6 C :   -0.351586
   7 N :    0.185162
   8 N :    0.230198
   9 H :    0.037654
  10 H :    0.146017
  11 H :    0.137138
  12 H :    0.129786
  13 O :   -0.329059
  14 O :   -0.336794
  15 O :   -0.385623
  16 H :    0.116760
  17 H :    0.113703
  18 H :    0.123682
  19 H :    0.122369

  Mayer bond orders larger than 0.100000
B(  0-C ,  1-C ) :   0.7633 B(  0-C ,  6-C ) :   0.7503 B(  0-C , 18-H ) :   0.9243
B(  0-C , 19-H ) :   0.9313 B(  1-C ,  2-C ) :   0.9723 B(  1-C ,  6-C ) :   0.2987
B(  1-C , 16-H ) :   0.8606 B(  1-C , 17-H ) :   0.9505 B(  2-C ,  3-H ) :   0.8661
B(  2-C ,  4-H ) :   0.9737 B(  2-C ,  5-S ) :   0.8261 B(  2-C , 13-O ) :   0.1682
B(  2-C , 15-O ) :   0.1583 B(  5-S , 13-O ) :   1.4788 B(  5-S , 14-O ) :   1.5434
B(  5-S , 15-O ) :   1.3263 B(  6-C ,  7-N ) :   1.0410 B(  6-C ,  8-N ) :   1.3316
B(  7-N , 11-H ) :   0.9554 B(  7-N , 12-H ) :   1.0675 B(  8-N ,  9-H ) :   0.7632
B(  8-N , 10-H ) :   1.0537 B(  9-H , 15-O ) :   0.1101

Dispersion correction           -0.008674276
FINAL SINGLE POINT ENERGY      -891.911583224184

DIPOLE MOMENT
-------------
                                X             Y             Z
Electronic contribution:      3.08137      -7.63029       1.07480
Nuclear contribution   :     -5.91573      12.15027      -4.18945
                        -----------------------------------------
Total Dipole Moment    :     -2.83436       4.51999      -3.11465
                        -----------------------------------------
Magnitude (a.u.)       :      6.17778
Magnitude (Debye)      :     15.70266

Rotational constants in cm-1:     0.082044     0.024757     0.022371
Rotational constants in MHz :  2459.631375   742.181961   670.660570

                             ****ORCA TERMINATED NORMALLY****
TOTAL RUN TIME: 0 days 0 hours 0 minutes 56 seconds 627 msec
