                         Program Version 5.0.0 -  RELEASE  -
|  1> !wB97X-D3 RIJCOSX def2-TZVPD def2/J TightSCF
|  2> *xyz 0 1
|  3> C         -0.46129        2.23469       -4.98962
|  4> C          0.84888        2.66797       -4.30235
|  5> C          2.09343        1.86104       -4.65684
|  6> H          2.44481        2.04157       -5.67499
|  7> H          2.90175        2.13786       -3.98034
|  8> S          1.87964        0.07859       -4.46297
|  9> F          3.20757       -0.46611       -4.42026
| 10> O          1.07506       -0.05616       -3.26876
| 11> O          1.13166       -0.31996       -5.67903
| 12> H          0.66843        2.55943       -3.23285
| 13> H          1.03407        3.72943       -4.49708
| 14> H         -0.35183        2.31783       -6.05075
| 15> H         -1.26108        2.86600       -4.66300
| 16> H         -0.68032        1.21949       -4.73211
| 17> *
| 18>
| 19> %MaxCore 64000
| 20>
| 21> %pal nprocs 8
| 22> end
| 23>
| 24> %scf
| 25>   MaxIter 150
| 26> end
| 27>
| 28>
| 29>                          ****END OF INPUT****

CARTESIAN COORDINATES (ANGSTROEM)
---------------------------------
  C     -0.461290    2.234690   -4.989620
  C      0.848880    2.667970   -4.302350
  C      2.093430    1.861040   -4.656840
  H      2.444810    2.041570   -5.674990
  H      2.901750    2.137860   -3.980340
  S      1.879640    0.078590   -4.462970
  F      3.207570   -0.466110   -4.420260
  O      1.075060   -0.056160   -3.268760
  O      1.131660   -0.319960   -5.679030
  H      0.668430    2.559430   -3.232850
  H      1.034070    3.729430   -4.497080
  H     -0.351830    2.317830   -6.050750
  H     -1.261080    2.866000   -4.663000
  H     -0.680320    1.219490   -4.732110

 Total Charge           Charge          ....    0
 Multiplicity           Mult            ....    1
 Number of Electrons    NEL             ....   66
 Basis Dimension        Dim             ....  340

ORBITAL ENERGIES
----------------

  NO   OCC          E(Eh)            E(eV)
   0   2.0000     -89.196722     -2427.1662
   1   2.0000     -24.912653      -677.9078
   2   2.0000     -19.245427      -523.6947
   3   2.0000     -19.232567      -523.3448
   4   2.0000     -10.332737      -281.1681
   5   2.0000     -10.298806      -280.2448
   6   2.0000     -10.259194      -279.1669
   7   2.0000      -8.260400      -224.7769
   8   2.0000      -6.217557      -169.1883
   9   2.0000      -6.211498      -169.0234
  10   2.0000      -6.211061      -169.0116
  11   2.0000      -1.508170       -41.0394
  12   2.0000      -1.222064       -33.2541
  13   2.0000      -1.120677       -30.4952
  14   2.0000      -0.942358       -25.6429
  15   2.0000      -0.867252       -23.5991
  16   2.0000      -0.818242       -22.2655
  17   2.0000      -0.742804       -20.2127
  18   2.0000      -0.698332       -19.0026
  19   2.0000      -0.688212       -18.7272
  20   2.0000      -0.659178       -17.9371
  21   2.0000      -0.594600       -16.1799
  22   2.0000      -0.582838       -15.8598
  23   2.0000      -0.552780       -15.0419
  24   2.0000      -0.546058       -14.8590
  25   2.0000      -0.519528       -14.1371
  26   2.0000      -0.486435       -13.2366
  27   2.0000      -0.465732       -12.6732
  28   2.0000      -0.462933       -12.5970
  29   2.0000      -0.442703       -12.0466
  30   2.0000      -0.430843       -11.7238
  31   2.0000      -0.411081       -11.1861
  32   2.0000      -0.403314       -10.9747
  33   0.0000       0.047341         1.2882
  34   0.0000       0.063189         1.7195
  35   0.0000       0.066579         1.8117
  36   0.0000       0.074473         2.0265
  37   0.0000       0.096276         2.6198

MULLIKEN ATOMIC CHARGES
-----------------------
   0 C :   -1.267188
   1 C :   -0.328998
   2 C :   -0.601903
   3 H :    0.375187
   4 H :    0.338566
   5 S :    1.177711
   6 F :   -0.095833
   7 O :   -0.593627
   8 O :   -0.598605
   9 H :    0.279592
  10 H :    0.289928
  11 H :    0.317090
  12 H :    0.326004
  13 H :    0.382076
Sum of atomic charges:   -0.0000000

LOEWDIN ATOMIC CHARGES
----------------------
   0 C :   -0.102332
   1 C :   -0.266467
   2 C :   -0.240439
   3 H :    0.108113
   4 H :    0.098696
   5 S :    0.602879
   6 F :   -0.044306
   7 O :   -0.271812
   8 O :   -0.301552
   9 H :    0.105416
  10 H :    0.114376
  11 H :    0.073071
  12 H :    0.069241
  13 H :    0.055116

  Mayer bond orders larger than 0.100000
B(  0-C ,  1-C ) :   0.7109 B(  0-C ,  2-C ) :   0.1028 B(  0-C , 11-H ) :   0.9571
B(  0-C , 12-H ) :   0.9457 B(  0-C , 13-H ) :   0.9101 B(  1-C ,  2-C ) :   0.9811
B(  1-C ,  5-S ) :   0.1001 B(  1-C ,  9-H ) :   0.9207 B(  1-C , 10-H ) :   0.9274
B(  2-C ,  3-H ) :   0.8609 B(  2-C ,  4-H ) :   0.8753 B(  2-C ,  5-S ) :   0.8159
B(  2-C ,  8-O ) :   0.1062 B(  5-S ,  6-F ) :   0.9834 B(  5-S ,  7-O ) :   1.6939
B(  5-S ,  8-O ) :   1.6570

Dispersion correction           -0.004635921
FINAL SINGLE POINT ENERGY      -767.053457367500

DIPOLE MOMENT
-------------
                                X             Y             Z
Electronic contribution:      8.10387     -11.25883       1.23465
Nuclear contribution   :     -7.07796      12.41139      -1.18012
                        -----------------------------------------
Total Dipole Moment    :      1.02591       1.15256       0.05453
                        -----------------------------------------
Magnitude (a.u.)       :      1.54398
Magnitude (Debye)      :      3.92449

Rotational constants in cm-1:     0.134396     0.055628     0.052255
Rotational constants in MHz :  4029.100214  1667.685325  1566.551712

                             ****ORCA TERMINATED NORMALLY****
TOTAL RUN TIME: 0 days 0 hours 0 minutes 50 seconds 549 msec
