                         Program Version 5.0.0 -  RELEASE  -
|  1> !wB97X-D3 RIJCOSX def2-TZVPD def2/J TightSCF
|  2> *xyz 0 1
|  3> C         -0.46129        2.23469       -4.98962
|  4> C          0.84888        2.66797       -4.30235
|  5> C          2.09343        1.86104       -4.65684
|  6> C         -0.42384        2.39877       -6.47432
|  7> C         -0.95947        3.49265       -7.00740
|  8> N          0.14558        1.48689       -7.20399
|  9> H          0.56537        0.69681       -6.72386
| 10> H          0.22068        1.58177       -8.20752
| 11> H         -1.40624        4.18151       -6.40326
| 12> H         -0.93421        3.68160       -7.99947
| 13> H          0.66843        2.55943       -3.23285
| 14> H          1.03407        3.72943       -4.49708
| 15> H         -1.28888        2.82674       -4.59500
| 16> H         -0.65170        1.18634       -4.75655
| 17> H          2.29129        1.95234       -5.70442
| 18> H          1.93270        0.83176       -4.41261
| 19> H          2.92953        2.23285       -4.10223
| 20> *
| 21>
| 22> %MaxCore 64000
| 23>
| 24> %pal nprocs 8
| 25> end
| 26>
| 27> %scf
| 28>   MaxIter 150
| 29> end
| 30>
| 31>
| 32>                          ****END OF INPUT****

CARTESIAN COORDINATES (ANGSTROEM)
---------------------------------
  C     -0.461290    2.234690   -4.989620
  C      0.848880    2.667970   -4.302350
  C      2.093430    1.861040   -4.656840
  C     -0.423840    2.398770   -6.474320
  C     -0.959470    3.492650   -7.007400
  N      0.145580    1.486890   -7.203990
  H      0.565370    0.696810   -6.723860
  H      0.220680    1.581770   -8.207520
  H     -1.406240    4.181510   -6.403260
  H     -0.934210    3.681600   -7.999470
  H      0.668430    2.559430   -3.232850
  H      1.034070    3.729430   -4.497080
  H     -1.288880    2.826740   -4.595000
  H     -0.651700    1.186340   -4.756550
  H      2.291290    1.952340   -5.704420
  H      1.932700    0.831760   -4.412610
  H      2.929530    2.232850   -4.102230

 Total Charge           Charge          ....    0
 Multiplicity           Mult            ....    1
 Number of Electrons    NEL             ....   48
 Basis Dimension        Dim             ....  321

ORBITAL ENERGIES
----------------

  NO   OCC          E(Eh)            E(eV)
   0   2.0000     -14.422811      -392.4646
   1   2.0000     -10.295062      -280.1429
   2   2.0000     -10.273006      -279.5427
   3   2.0000     -10.270682      -279.4795
   4   2.0000     -10.256825      -279.1024
   5   2.0000     -10.202239      -277.6170
   6   2.0000      -1.053439       -28.6655
   7   2.0000      -0.910243       -24.7690
   8   2.0000      -0.850605       -23.1461
   9   2.0000      -0.793992       -21.6056
  10   2.0000      -0.716115       -19.4865
  11   2.0000      -0.670307       -18.2400
  12   2.0000      -0.629142       -17.1198
  13   2.0000      -0.588513       -16.0142
  14   2.0000      -0.551915       -15.0184
  15   2.0000      -0.533349       -14.5132
  16   2.0000      -0.507548       -13.8111
  17   2.0000      -0.486885       -13.2488
  18   2.0000      -0.471367       -12.8266
  19   2.0000      -0.456958       -12.4345
  20   2.0000      -0.431872       -11.7518
  21   2.0000      -0.419467       -11.4143
  22   2.0000      -0.416209       -11.3256
  23   2.0000      -0.273523        -7.4429
  24   0.0000       0.066947         1.8217
  25   0.0000       0.088691         2.4134
  26   0.0000       0.090617         2.4658
  27   0.0000       0.093616         2.5474
  28   0.0000       0.114824         3.1245

MULLIKEN ATOMIC CHARGES
-----------------------
   0 C :   -0.639914
   1 C :   -0.097000
   2 C :   -1.337438
   3 C :    0.918825
   4 C :   -1.602283
   5 N :   -0.461787
   6 H :    0.244241
   7 H :    0.156020
   8 H :    0.330013
   9 H :    0.351680
  10 H :    0.252168
  11 H :    0.314942
  12 H :    0.254295
  13 H :    0.325010
  14 H :    0.350977
  15 H :    0.325175
  16 H :    0.315076
Sum of atomic charges:   -0.0000000

LOEWDIN ATOMIC CHARGES
----------------------
   0 C :   -0.161560
   1 C :   -0.245359
   2 C :   -0.116261
   3 C :   -0.501015
   4 C :    0.017730
   5 N :    0.103506
   6 H :    0.110137
   7 H :    0.121488
   8 H :    0.023323
   9 H :    0.016512
  10 H :    0.100691
  11 H :    0.112201
  12 H :    0.114011
  13 H :    0.115111
  14 H :    0.057930
  15 H :    0.066649
  16 H :    0.064906

  Mayer bond orders larger than 0.100000
B(  0-C ,  1-C ) :   0.7426 B(  0-C ,  2-C ) :   0.1926 B(  0-C ,  3-C ) :   0.7403
B(  0-C , 12-H ) :   1.0120 B(  0-C , 13-H ) :   0.9455 B(  1-C ,  2-C ) :   0.5179
B(  1-C ,  3-C ) :   0.1800 B(  1-C , 10-H ) :   0.9661 B(  1-C , 11-H ) :   0.9264
B(  2-C ,  5-N ) :   0.1438 B(  2-C , 14-H ) :   0.9541 B(  2-C , 15-H ) :   0.9691
B(  2-C , 16-H ) :   0.9470 B(  3-C ,  4-C ) :   0.9002 B(  3-C ,  5-N ) :   1.0014
B(  3-C ,  9-H ) :  -0.1177 B(  4-C ,  5-N ) :   0.1594 B(  4-C ,  8-H ) :   0.9622
B(  4-C ,  9-H ) :   0.9626 B(  5-N ,  6-H ) :   0.9550 B(  5-N ,  7-H ) :   1.0470

Dispersion correction           -0.004595727
FINAL SINGLE POINT ENERGY      -251.902715765000

DIPOLE MOMENT
-------------
                                X             Y             Z
Electronic contribution:     -2.07605      -0.45258      -2.62063
Nuclear contribution   :      2.52905      -0.17478       2.67366
                        -----------------------------------------
Total Dipole Moment    :      0.45300      -0.62736       0.05303
                        -----------------------------------------
Magnitude (a.u.)       :      0.77563
Magnitude (Debye)      :      1.97149

Rotational constants in cm-1:     0.190920     0.082419     0.067855
Rotational constants in MHz :  5723.626725  2470.870287  2034.242308

                             ****ORCA TERMINATED NORMALLY****
TOTAL RUN TIME: 0 days 0 hours 0 minutes 48 seconds 827 msec
