                         Program Version 5.0.0 -  RELEASE  -
|  1> !wB97X-D3 RIJCOSX def2-TZVPD def2/J TightSCF
|  2> *xyz 0 1
|  3> C         -0.46129        2.23469       -4.98962
|  4> C          0.84888        2.66797       -4.30235
|  5> C          2.09343        1.86104       -4.65684
|  6> H          2.44481        2.04157       -5.67499
|  7> H          2.90175        2.13786       -3.98034
|  8> S          1.87964        0.07859       -4.46297
|  9> O          3.20757       -0.46611       -4.42026
| 10> F          1.07506       -0.05616       -3.26876
| 11> O          1.13166       -0.31996       -5.67903
| 12> H          0.66843        2.55943       -3.23285
| 13> H          1.03407        3.72943       -4.49708
| 14> H         -0.35183        2.31783       -6.05075
| 15> H         -1.26108        2.86600       -4.66300
| 16> H         -0.68032        1.21949       -4.73211
| 17> *
| 18>
| 19> %MaxCore 64000
| 20>
| 21> %pal nprocs 8
| 22> end
| 23>
| 24> %scf
| 25>   MaxIter 150
| 26> end
| 27>
| 28>
| 29>                          ****END OF INPUT****

CARTESIAN COORDINATES (ANGSTROEM)
---------------------------------
  C     -0.461290    2.234690   -4.989620
  C      0.848880    2.667970   -4.302350
  C      2.093430    1.861040   -4.656840
  H      2.444810    2.041570   -5.674990
  H      2.901750    2.137860   -3.980340
  S      1.879640    0.078590   -4.462970
  O      3.207570   -0.466110   -4.420260
  F      1.075060   -0.056160   -3.268760
  O      1.131660   -0.319960   -5.679030
  H      0.668430    2.559430   -3.232850
  H      1.034070    3.729430   -4.497080
  H     -0.351830    2.317830   -6.050750
  H     -1.261080    2.866000   -4.663000
  H     -0.680320    1.219490   -4.732110

 Total Charge           Charge          ....    0
 Multiplicity           Mult            ....    1
 Number of Electrons    NEL             ....   66
 Basis Dimension        Dim             ....  340

ORBITAL ENERGIES
----------------

  NO   OCC          E(Eh)            E(eV)
   0   2.0000     -89.195516     -2427.1334
   1   2.0000     -24.907275      -677.7614
   2   2.0000     -19.247817      -523.7597
   3   2.0000     -19.231280      -523.3097
   4   2.0000     -10.332400      -281.1589
   5   2.0000     -10.305409      -280.4244
   6   2.0000     -10.270799      -279.4826
   7   2.0000      -8.259165      -224.7433
   8   2.0000      -6.216662      -169.1640
   9   2.0000      -6.210164      -168.9871
  10   2.0000      -6.209635      -168.9728
  11   2.0000      -1.499732       -40.8098
  12   2.0000      -1.224884       -33.3308
  13   2.0000      -1.122835       -30.5539
  14   2.0000      -0.949360       -25.8334
  15   2.0000      -0.864723       -23.5303
  16   2.0000      -0.820881       -22.3373
  17   2.0000      -0.745054       -20.2740
  18   2.0000      -0.700245       -19.0546
  19   2.0000      -0.692412       -18.8415
  20   2.0000      -0.648996       -17.6601
  21   2.0000      -0.593396       -16.1471
  22   2.0000      -0.582389       -15.8476
  23   2.0000      -0.560834       -15.2611
  24   2.0000      -0.544604       -14.8194
  25   2.0000      -0.530493       -14.4355
  26   2.0000      -0.490325       -13.3424
  27   2.0000      -0.482377       -13.1262
  28   2.0000      -0.470393       -12.8000
  29   2.0000      -0.452999       -12.3267
  30   2.0000      -0.428282       -11.6541
  31   2.0000      -0.413075       -11.2403
  32   2.0000      -0.402308       -10.9474
  33   0.0000       0.050867         1.3842
  34   0.0000       0.061709         1.6792
  35   0.0000       0.070276         1.9123
  36   0.0000       0.071515         1.9460
  37   0.0000       0.096737         2.6323

MULLIKEN ATOMIC CHARGES
-----------------------
   0 C :   -1.208016
   1 C :   -0.363466
   2 C :   -0.522765
   3 H :    0.363709
   4 H :    0.308346
   5 S :    1.179983
   6 O :   -0.584720
   7 F :   -0.144014
   8 O :   -0.594902
   9 H :    0.280852
  10 H :    0.287259
  11 H :    0.314535
  12 H :    0.324772
  13 H :    0.358426
Sum of atomic charges:    0.0000000

LOEWDIN ATOMIC CHARGES
----------------------
   0 C :   -0.105333
   1 C :   -0.275260
   2 C :   -0.230775
   3 H :    0.117884
   4 H :    0.101972
   5 S :    0.598262
   6 O :   -0.269666
   7 F :   -0.047820
   8 O :   -0.300656
   9 H :    0.101581
  10 H :    0.113518
  11 H :    0.075889
  12 H :    0.069375
  13 H :    0.051029

  Mayer bond orders larger than 0.100000
B(  0-C ,  1-C ) :   0.7043 B(  0-C , 11-H ) :   0.9709 B(  0-C , 12-H ) :   0.9633
B(  0-C , 13-H ) :   0.9095 B(  1-C ,  2-C ) :   0.9153 B(  1-C ,  9-H ) :   0.9405
B(  1-C , 10-H ) :   0.9351 B(  2-C ,  3-H ) :   0.8668 B(  2-C ,  4-H ) :   0.9494
B(  2-C ,  5-S ) :   0.8021 B(  2-C ,  6-O ) :   0.1151 B(  5-S ,  6-O ) :   1.6323
B(  5-S ,  7-F ) :   1.0022 B(  5-S ,  8-O ) :   1.6681

Dispersion correction           -0.004631075
FINAL SINGLE POINT ENERGY      -767.057119284219

DIPOLE MOMENT
-------------
                                X             Y             Z
Electronic contribution:      4.40400     -10.48984       3.17950
Nuclear contribution   :     -4.78457      11.97051      -2.41849
                        -----------------------------------------
Total Dipole Moment    :     -0.38057       1.48067       0.76100
                        -----------------------------------------
Magnitude (a.u.)       :      1.70773
Magnitude (Debye)      :      4.34070

Rotational constants in cm-1:     0.129206     0.056639     0.054229
Rotational constants in MHz :  3873.509495  1697.990779  1625.734877

                             ****ORCA TERMINATED NORMALLY****
TOTAL RUN TIME: 0 days 0 hours 0 minutes 49 seconds 903 msec
