                         Program Version 5.0.0 -  RELEASE  -
|  1> !wB97X-D3 RIJCOSX def2-TZVPD def2/J TightSCF
|  2> *xyz 0 1
|  3> C         -0.46129        2.23469       -4.98962
|  4> C          0.84888        2.66797       -4.30235
|  5> C          2.09343        1.86104       -4.65684
|  6> C         -0.42384        2.39877       -6.47432
|  7> N         -0.95947        3.49265       -7.00740
|  8> C          0.14558        1.48689       -7.20399
|  9> H          0.56537        0.69681       -6.72386
| 10> H          0.22068        1.58177       -8.20752
| 11> H         -1.40624        4.18151       -6.40326
| 12> H         -0.93421        3.68160       -7.99947
| 13> H          0.66843        2.55943       -3.23285
| 14> H          1.03407        3.72943       -4.49708
| 15> H         -1.28888        2.82674       -4.59500
| 16> H         -0.65170        1.18634       -4.75655
| 17> H          2.29129        1.95234       -5.70442
| 18> H          1.93270        0.83176       -4.41261
| 19> H          2.92953        2.23285       -4.10223
| 20> *
| 21>
| 22> %MaxCore 64000
| 23>
| 24> %pal nprocs 8
| 25> end
| 26>
| 27> %scf
| 28>   MaxIter 150
| 29> end
| 30>
| 31>
| 32>                          ****END OF INPUT****

CARTESIAN COORDINATES (ANGSTROEM)
---------------------------------
  C     -0.461290    2.234690   -4.989620
  C      0.848880    2.667970   -4.302350
  C      2.093430    1.861040   -4.656840
  C     -0.423840    2.398770   -6.474320
  N     -0.959470    3.492650   -7.007400
  C      0.145580    1.486890   -7.203990
  H      0.565370    0.696810   -6.723860
  H      0.220680    1.581770   -8.207520
  H     -1.406240    4.181510   -6.403260
  H     -0.934210    3.681600   -7.999470
  H      0.668430    2.559430   -3.232850
  H      1.034070    3.729430   -4.497080
  H     -1.288880    2.826740   -4.595000
  H     -0.651700    1.186340   -4.756550
  H      2.291290    1.952340   -5.704420
  H      1.932700    0.831760   -4.412610
  H      2.929530    2.232850   -4.102230

 Total Charge           Charge          ....    0
 Multiplicity           Mult            ....    1
 Number of Electrons    NEL             ....   48
 Basis Dimension        Dim             ....  321

ORBITAL ENERGIES
----------------

  NO   OCC          E(Eh)            E(eV)
   0   2.0000     -14.420139      -392.3919
   1   2.0000     -10.292404      -280.0705
   2   2.0000     -10.272511      -279.5292
   3   2.0000     -10.269396      -279.4445
   4   2.0000     -10.246831      -278.8304
   5   2.0000     -10.200796      -277.5778
   6   2.0000      -1.040670       -28.3181
   7   2.0000      -0.910274       -24.7698
   8   2.0000      -0.847308       -23.0564
   9   2.0000      -0.799733       -21.7618
  10   2.0000      -0.706897       -19.2356
  11   2.0000      -0.668654       -18.1950
  12   2.0000      -0.621702       -16.9174
  13   2.0000      -0.581876       -15.8337
  14   2.0000      -0.553013       -15.0483
  15   2.0000      -0.534915       -14.5558
  16   2.0000      -0.491973       -13.3873
  17   2.0000      -0.489044       -13.3076
  18   2.0000      -0.470668       -12.8075
  19   2.0000      -0.457753       -12.4561
  20   2.0000      -0.427281       -11.6269
  21   2.0000      -0.417703       -11.3663
  22   2.0000      -0.409952       -11.1554
  23   2.0000      -0.278829        -7.5873
  24   0.0000       0.067838         1.8460
  25   0.0000       0.088921         2.4197
  26   0.0000       0.089904         2.4464
  27   0.0000       0.095878         2.6090
  28   0.0000       0.113076         3.0770

MULLIKEN ATOMIC CHARGES
-----------------------
   0 C :   -0.589015
   1 C :   -0.097414
   2 C :   -1.343484
   3 C :    0.990727
   4 N :   -0.465904
   5 C :   -1.679599
   6 H :    0.398945
   7 H :    0.330713
   8 H :    0.197926
   9 H :    0.156745
  10 H :    0.241068
  11 H :    0.281596
  12 H :    0.258509
  13 H :    0.297944
  14 H :    0.373586
  15 H :    0.327829
  16 H :    0.319828
Sum of atomic charges:    0.0000000

LOEWDIN ATOMIC CHARGES
----------------------
   0 C :   -0.159465
   1 C :   -0.245945
   2 C :   -0.114117
   3 C :   -0.488433
   4 N :    0.094903
   5 C :    0.007329
   6 H :    0.031173
   7 H :    0.029800
   8 H :    0.107820
   9 H :    0.109480
  10 H :    0.100233
  11 H :    0.108853
  12 H :    0.108186
  13 H :    0.119159
  14 H :    0.057420
  15 H :    0.070004
  16 H :    0.063601

  Mayer bond orders larger than 0.100000
B(  0-C ,  1-C ) :   0.7535 B(  0-C ,  2-C ) :   0.1293 B(  0-C ,  3-C ) :   0.7264
B(  0-C ,  4-N ) :   0.1093 B(  0-C , 12-H ) :   1.0438 B(  0-C , 13-H ) :   0.9334
B(  1-C ,  2-C ) :   0.5760 B(  1-C ,  3-C ) :   0.1921 B(  1-C , 10-H ) :   0.9711
B(  1-C , 11-H ) :   0.9309 B(  2-C ,  5-C ) :   0.1505 B(  2-C , 14-H ) :   0.9572
B(  2-C , 15-H ) :   0.9667 B(  2-C , 16-H ) :   0.9359 B(  3-C ,  4-N ) :   0.9118
B(  3-C ,  5-C ) :   0.8762 B(  3-C ,  7-H ) :  -0.1127 B(  3-C , 12-H ) :  -0.1089
B(  4-N ,  5-C ) :   0.1020 B(  4-N ,  8-H ) :   1.0080 B(  4-N ,  9-H ) :   1.0579
B(  5-C ,  6-H ) :   0.8812 B(  5-C ,  7-H ) :   1.0316

Dispersion correction           -0.004539968
FINAL SINGLE POINT ENERGY      -251.902743358599

DIPOLE MOMENT
-------------
                                X             Y             Z
Electronic contribution:     -3.06466       1.27919      -2.48295
Nuclear contribution   :      2.79043      -0.64920       2.62716
                        -----------------------------------------
Total Dipole Moment    :     -0.27423       0.62998       0.14421
                        -----------------------------------------
Magnitude (a.u.)       :      0.70205
Magnitude (Debye)      :      1.78447

Rotational constants in cm-1:     0.196182     0.080190     0.067215
Rotational constants in MHz :  5881.393438  2404.041106  2015.067205

                             ****ORCA TERMINATED NORMALLY****
TOTAL RUN TIME: 0 days 0 hours 0 minutes 48 seconds 691 msec
