                         Program Version 5.0.0 -  RELEASE  -
|  1> !wB97X-D3 RIJCOSX def2-TZVPD def2/J TightSCF
|  2> *xyz 0 1
|  3> C         -0.46129        2.23469       -4.98962
|  4> C          0.84888        2.66797       -4.30235
|  5> C          2.09343        1.86104       -4.65684
|  6> H          2.44481        2.04157       -5.67499
|  7> H          2.90175        2.13786       -3.98034
|  8> S          1.87964        0.07859       -4.46297
|  9> O          3.20757       -0.46611       -4.42026
| 10> O          1.07506       -0.05616       -3.26876
| 11> F          1.13166       -0.31996       -5.67903
| 12> H          0.66843        2.55943       -3.23285
| 13> H          1.03407        3.72943       -4.49708
| 14> H         -0.35183        2.31783       -6.05075
| 15> H         -1.26108        2.86600       -4.66300
| 16> H         -0.68032        1.21949       -4.73211
| 17> *
| 18>
| 19> %MaxCore 64000
| 20>
| 21> %pal nprocs 8
| 22> end
| 23>
| 24> %scf
| 25>   MaxIter 150
| 26> end
| 27>
| 28>
| 29>                          ****END OF INPUT****

CARTESIAN COORDINATES (ANGSTROEM)
---------------------------------
  C     -0.461290    2.234690   -4.989620
  C      0.848880    2.667970   -4.302350
  C      2.093430    1.861040   -4.656840
  H      2.444810    2.041570   -5.674990
  H      2.901750    2.137860   -3.980340
  S      1.879640    0.078590   -4.462970
  O      3.207570   -0.466110   -4.420260
  O      1.075060   -0.056160   -3.268760
  F      1.131660   -0.319960   -5.679030
  H      0.668430    2.559430   -3.232850
  H      1.034070    3.729430   -4.497080
  H     -0.351830    2.317830   -6.050750
  H     -1.261080    2.866000   -4.663000
  H     -0.680320    1.219490   -4.732110

 Total Charge           Charge          ....    0
 Multiplicity           Mult            ....    1
 Number of Electrons    NEL             ....   66
 Basis Dimension        Dim             ....  340

ORBITAL ENERGIES
----------------

  NO   OCC          E(Eh)            E(eV)
   0   2.0000     -89.193833     -2427.0876
   1   2.0000     -24.887704      -677.2289
   2   2.0000     -19.247635      -523.7548
   3   2.0000     -19.244227      -523.6621
   4   2.0000     -10.331885      -281.1449
   5   2.0000     -10.300465      -280.2899
   6   2.0000     -10.273396      -279.5533
   7   2.0000      -8.257475      -224.6973
   8   2.0000      -6.214959      -169.1176
   9   2.0000      -6.208704      -168.9474
  10   2.0000      -6.207846      -168.9241
  11   2.0000      -1.468868       -39.9699
  12   2.0000      -1.233629       -33.5687
  13   2.0000      -1.141944       -31.0739
  14   2.0000      -0.946360       -25.7518
  15   2.0000      -0.861530       -23.4434
  16   2.0000      -0.809425       -22.0256
  17   2.0000      -0.742796       -20.2125
  18   2.0000      -0.675786       -18.3891
  19   2.0000      -0.670442       -18.2436
  20   2.0000      -0.654280       -17.8039
  21   2.0000      -0.600425       -16.3384
  22   2.0000      -0.577461       -15.7135
  23   2.0000      -0.558463       -15.1966
  24   2.0000      -0.550512       -14.9802
  25   2.0000      -0.533284       -14.5114
  26   2.0000      -0.496024       -13.4975
  27   2.0000      -0.480282       -13.0691
  28   2.0000      -0.467975       -12.7343
  29   2.0000      -0.450199       -12.2505
  30   2.0000      -0.437095       -11.8940
  31   2.0000      -0.421534       -11.4705
  32   2.0000      -0.418969       -11.4007
  33   0.0000       0.055455         1.5090
  34   0.0000       0.062374         1.6973
  35   0.0000       0.069572         1.8931
  36   0.0000       0.072132         1.9628
  37   0.0000       0.099272         2.7013

MULLIKEN ATOMIC CHARGES
-----------------------
   0 C :   -1.276460
   1 C :   -0.254308
   2 C :   -0.624416
   3 H :    0.392669
   4 H :    0.308720
   5 S :    1.207569
   6 O :   -0.595290
   7 O :   -0.591838
   8 F :   -0.160224
   9 H :    0.282756
  10 H :    0.300547
  11 H :    0.330640
  12 H :    0.320500
  13 H :    0.359135
Sum of atomic charges:    0.0000000

LOEWDIN ATOMIC CHARGES
----------------------
   0 C :   -0.104765
   1 C :   -0.273128
   2 C :   -0.232087
   3 H :    0.107403
   4 H :    0.110180
   5 S :    0.599201
   6 O :   -0.270427
   7 O :   -0.270427
   8 F :   -0.079648
   9 H :    0.106218
  10 H :    0.113017
  11 H :    0.070918
  12 H :    0.071203
  13 H :    0.052343

  Mayer bond orders larger than 0.100000
B(  0-C ,  1-C ) :   0.6288 B(  0-C ,  2-C ) :   0.1525 B(  0-C , 11-H ) :   0.9617
B(  0-C , 12-H ) :   0.9548 B(  0-C , 13-H ) :   0.9075 B(  1-C ,  2-C ) :   0.9155
B(  1-C ,  9-H ) :   0.9347 B(  1-C , 10-H ) :   0.9312 B(  2-C ,  3-H ) :   0.8466
B(  2-C ,  4-H ) :   0.9267 B(  2-C ,  5-S ) :   0.8111 B(  2-C ,  6-O ) :   0.1232
B(  5-S ,  6-O ) :   1.6150 B(  5-S ,  7-O ) :   1.6916 B(  5-S ,  8-F ) :   0.9660

Dispersion correction           -0.004617727
FINAL SINGLE POINT ENERGY      -767.073521820314

DIPOLE MOMENT
-------------
                                X             Y             Z
Electronic contribution:      4.48689     -10.95415      -0.94228
Nuclear contribution   :     -4.84544      12.25421       0.17361
                        -----------------------------------------
Total Dipole Moment    :     -0.35855       1.30007      -0.76867
                        -----------------------------------------
Magnitude (a.u.)       :      1.55228
Magnitude (Debye)      :      3.94559

Rotational constants in cm-1:     0.128954     0.057447     0.053381
Rotational constants in MHz :  3865.954571  1722.226669  1600.330369

                             ****ORCA TERMINATED NORMALLY****
TOTAL RUN TIME: 0 days 0 hours 0 minutes 48 seconds 692 msec
