                         Program Version 5.0.0 -  RELEASE  -
|  1> !wB97X-D3 RIJCOSX def2-SVPD def2/J TightSCF
|  2> *xyz 1 1
|  3> C         -0.70169        4.07250       -4.00392
|  4> N          0.68053        4.61482       -4.04800
|  5> H          0.69993        5.58489       -4.38827
|  6> H          1.27804        4.05598       -4.66824
|  7> H          1.08573        4.53358       -3.10652
|  8> C         -1.70347        5.09320       -3.47740
|  9> H         -0.99590        3.74039       -5.00065
| 10> H         -0.64358        3.20191       -3.35153
| 11> H         -1.73704        5.93384       -4.13853
| 12> H         -1.40338        5.41759       -2.50291
| 13> H         -2.67335        4.64479       -3.42108
| 14> *
| 15> %MaxCore 64000
| 16>
| 17> %pal nprocs 18
| 18> end
| 19>
| 20> %scf
| 21>   MaxIter 150
| 22> end
| 23>
| 24>
| 25>                          ****END OF INPUT****

CARTESIAN COORDINATES (ANGSTROEM)
---------------------------------
  C     -0.701690    4.072500   -4.003920
  N      0.680530    4.614820   -4.048000
  H      0.699930    5.584890   -4.388270
  H      1.278040    4.055980   -4.668240
  H      1.085730    4.533580   -3.106520
  C     -1.703470    5.093200   -3.477400
  H     -0.995900    3.740390   -5.000650
  H     -0.643580    3.201910   -3.351530
  H     -1.737040    5.933840   -4.138530
  H     -1.403380    5.417590   -2.502910
  H     -2.673350    4.644790   -3.421080

 Total Charge           Charge          ....    1
 Multiplicity           Mult            ....    1
 Number of Electrons    NEL             ....   26
 Basis Dimension        Dim             ....  124

ORBITAL ENERGIES
----------------

  NO   OCC          E(Eh)            E(eV)
   0   2.0000     -14.775606      -402.0647
   1   2.0000     -10.544533      -286.9313
   2   2.0000     -10.465153      -284.7713
   3   2.0000      -1.327457       -36.1219
   4   2.0000      -1.075861       -29.2757
   5   2.0000      -0.952322       -25.9140
   6   2.0000      -0.909921       -24.7602
   7   2.0000      -0.891169       -24.2499
   8   2.0000      -0.798168       -21.7193
   9   2.0000      -0.743665       -20.2362
  10   2.0000      -0.680871       -18.5274
  11   2.0000      -0.664341       -18.0776
  12   2.0000      -0.646672       -17.5968
  13   0.0000      -0.112966        -3.0740
  14   0.0000      -0.053421        -1.4537
  15   0.0000      -0.050873        -1.3843
  16   0.0000      -0.043953        -1.1960
  17   0.0000      -0.014200        -0.3864

MULLIKEN ATOMIC CHARGES
-----------------------
   0 C :    0.112468
   1 N :   -0.868570
   2 H :    0.429793
   3 H :    0.388076
   4 H :    0.441957
   5 C :    0.468835
   6 H :   -0.017883
   7 H :   -0.028733
   8 H :    0.004942
   9 H :    0.029783
  10 H :    0.039333
Sum of atomic charges:    1.0000000

LOEWDIN ATOMIC CHARGES
----------------------
   0 C :    0.050901
   1 N :    0.324991
   2 H :    0.109482
   3 H :    0.108528
   4 H :    0.111264
   5 C :    0.167224
   6 H :    0.054351
   7 H :    0.052862
   8 H :    0.001809
   9 H :    0.001951
  10 H :    0.016636

  Mayer bond orders larger than 0.100000
B(  0-C ,  1-N ) :   0.7517 B(  0-C ,  5-C ) :   1.3014 B(  0-C ,  6-H ) :   0.9716
B(  0-C ,  7-H ) :   0.9430 B(  0-C ,  8-H ) :   0.1381 B(  0-C ,  9-H ) :   0.1286
B(  0-C , 10-H ) :   0.1650 B(  1-N ,  2-H ) :   0.6858 B(  1-N ,  3-H ) :   0.7520
B(  1-N ,  4-H ) :   0.6836 B(  1-N ,  7-H ) :   0.1107 B(  5-C ,  8-H ) :   0.8605
B(  5-C ,  9-H ) :   0.8528 B(  5-C , 10-H ) :   0.8461

Dispersion correction           -0.001512076
FINAL SINGLE POINT ENERGY      -135.408612180791

DIPOLE MOMENT
-------------
                                X             Y             Z
Electronic contribution:      1.77583      -0.32823      -0.45693
Nuclear contribution   :     -0.23930       0.27560       0.19485
                        -----------------------------------------
Total Dipole Moment    :      1.53653      -0.05263      -0.26208
                        -----------------------------------------
Magnitude (a.u.)       :      1.55961
Magnitude (Debye)      :      3.96420

Rotational constants in cm-1:     1.018556     0.279088     0.248454
Rotational constants in MHz : 30535.536069  8366.847891  7448.451392

                             ****ORCA TERMINATED NORMALLY****
TOTAL RUN TIME: 0 days 0 hours 0 minutes 5 seconds 170 msec
