                         Program Version 5.0.0 -  RELEASE  -
|  1> !wB97X-D3 RIJCOSX def2-SVPD def2/J TightSCF
|  2> *xyz 0 1
|  3> C          1.44442        5.26658       -0.97546
|  4> F          1.56525        4.23349       -1.86489
|  5> C          0.14812        5.21087       -0.13809
|  6> H          1.47425        6.26464       -1.47692
|  7> H          2.28962        5.30327       -0.26445
|  8> H         -0.69779        5.17417       -0.79230
|  9> H          0.08430        6.08276        0.47887
| 10> H          0.15965        4.33708        0.47938
| 11> *
| 12> %MaxCore 64000
| 13>
| 14> %pal nprocs 18
| 15> end
| 16>
| 17> %scf
| 18>   MaxIter 150
| 19> end
| 20>
| 21>
| 22>                          ****END OF INPUT****

CARTESIAN COORDINATES (ANGSTROEM)
---------------------------------
  C      1.444420    5.266580   -0.975460
  F      1.565250    4.233490   -1.864890
  C      0.148120    5.210870   -0.138090
  H      1.474250    6.264640   -1.476920
  H      2.289620    5.303270   -0.264450
  H     -0.697790    5.174170   -0.792300
  H      0.084300    6.082760    0.478870
  H      0.159650    4.337080    0.479380

 Total Charge           Charge          ....    0
 Multiplicity           Mult            ....    1
 Number of Electrons    NEL             ....   26
 Basis Dimension        Dim             ....  103

ORBITAL ENERGIES
----------------

  NO   OCC          E(Eh)            E(eV)
   0   2.0000     -24.791090      -674.5998
   1   2.0000     -10.372558      -282.2517
   2   2.0000     -10.287313      -279.9320
   3   2.0000      -1.300917       -35.3997
   4   2.0000      -0.874287       -23.7906
   5   2.0000      -0.739193       -20.1145
   6   2.0000      -0.614399       -16.7186
   7   2.0000      -0.600941       -16.3524
   8   2.0000      -0.563530       -15.3344
   9   2.0000      -0.507102       -13.7990
  10   2.0000      -0.500324       -13.6145
  11   2.0000      -0.435024       -11.8376
  12   2.0000      -0.427688       -11.6380
  13   0.0000       0.093869         2.5543
  14   0.0000       0.124393         3.3849
  15   0.0000       0.155023         4.2184
  16   0.0000       0.160005         4.3540
  17   0.0000       0.186869         5.0850

MULLIKEN ATOMIC CHARGES
-----------------------
   0 C :    0.367694
   1 F :   -0.460872
   2 C :    0.227678
   3 H :   -0.016023
   4 H :   -0.047968
   5 H :   -0.035209
   6 H :   -0.006852
   7 H :   -0.028449
Sum of atomic charges:    0.0000000

LOEWDIN ATOMIC CHARGES
----------------------
   0 C :    0.068295
   1 F :   -0.222650
   2 C :    0.132187
   3 H :    0.034558
   4 H :    0.027891
   5 H :   -0.013565
   6 H :   -0.012338
   7 H :   -0.014378

  Mayer bond orders larger than 0.100000
B(  0-C ,  1-F ) :   0.7380 B(  0-C ,  2-C ) :   1.3081 B(  0-C ,  3-H ) :   0.9561
B(  0-C ,  4-H ) :   0.9641 B(  0-C ,  5-H ) :   0.1226 B(  0-C ,  6-H ) :   0.1038
B(  0-C ,  7-H ) :   0.1159 B(  2-C ,  5-H ) :   0.9114 B(  2-C ,  6-H ) :   0.8788
B(  2-C ,  7-H ) :   0.9107

Dispersion correction           -0.000873893
FINAL SINGLE POINT ENERGY      -178.888024918299

DIPOLE MOMENT
-------------
                                X             Y             Z
Electronic contribution:      2.29676      -2.72473      -3.68387
Nuclear contribution   :     -2.43357       3.25919       4.19687
                        -----------------------------------------
Total Dipole Moment    :     -0.13681       0.53447       0.51300
                        -----------------------------------------
Magnitude (a.u.)       :      0.75335
Magnitude (Debye)      :      1.91487

Rotational constants in cm-1:     1.264662     0.300144     0.266170
Rotational constants in MHz : 37913.611527  8998.095216  7979.576054

                             ****ORCA TERMINATED NORMALLY****
TOTAL RUN TIME: 0 days 0 hours 0 minutes 4 seconds 212 msec
