                         Program Version 5.0.0 -  RELEASE  -
|  1> !wB97X-D3 RIJCOSX def2-SVPD def2/J TightSCF
|  2> *xyz 0 1
|  3> C         -0.70169        4.07250       -4.00392
|  4> C          0.68053        4.61482       -4.04800
|  5> H          0.69993        5.58489       -4.38827
|  6> H          1.27804        4.05598       -4.66824
|  7> H          1.08573        4.53358       -3.10652
|  8> C         -1.70347        5.09320       -3.47740
|  9> H         -0.99590        3.74039       -5.00065
| 10> H         -0.64358        3.20191       -3.35153
| 11> H         -1.73704        5.93384       -4.13853
| 12> H         -1.40338        5.41759       -2.50291
| 13> H         -2.67335        4.64479       -3.42108
| 14> *
| 15> %MaxCore 64000
| 16>
| 17> %pal nprocs 18
| 18> end
| 19>
| 20> %scf
| 21>   MaxIter 150
| 22> end
| 23>
| 24>
| 25>                          ****END OF INPUT****

CARTESIAN COORDINATES (ANGSTROEM)
---------------------------------
  C     -0.701690    4.072500   -4.003920
  C      0.680530    4.614820   -4.048000
  H      0.699930    5.584890   -4.388270
  H      1.278040    4.055980   -4.668240
  H      1.085730    4.533580   -3.106520
  C     -1.703470    5.093200   -3.477400
  H     -0.995900    3.740390   -5.000650
  H     -0.643580    3.201910   -3.351530
  H     -1.737040    5.933840   -4.138530
  H     -1.403380    5.417590   -2.502910
  H     -2.673350    4.644790   -3.421080

 Total Charge           Charge          ....    0
 Multiplicity           Mult            ....    1
 Number of Electrons    NEL             ....   26
 Basis Dimension        Dim             ....  124

ORBITAL ENERGIES
----------------

  NO   OCC          E(Eh)            E(eV)
   0   2.0000     -10.275585      -279.6129
   1   2.0000     -10.267742      -279.3995
   2   2.0000     -10.249596      -278.9057
   3   2.0000      -0.902812       -24.5668
   4   2.0000      -0.798212       -21.7205
   5   2.0000      -0.689109       -18.7516
   6   2.0000      -0.572278       -15.5725
   7   2.0000      -0.546272       -14.8648
   8   2.0000      -0.500612       -13.6223
   9   2.0000      -0.488906       -13.3038
  10   2.0000      -0.431386       -11.7386
  11   2.0000      -0.427913       -11.6441
  12   2.0000      -0.419305       -11.4099
  13   0.0000       0.097917         2.6644
  14   0.0000       0.124604         3.3906
  15   0.0000       0.132147         3.5959
  16   0.0000       0.162133         4.4119
  17   0.0000       0.181060         4.9269

MULLIKEN ATOMIC CHARGES
-----------------------
   0 C :   -0.646425
   1 C :    0.858031
   2 H :   -0.204322
   3 H :   -0.156408
   4 H :   -0.124711
   5 C :    0.556285
   6 H :   -0.089851
   7 H :   -0.067567
   8 H :   -0.022377
   9 H :   -0.043361
  10 H :   -0.059294
Sum of atomic charges:   -0.0000000

LOEWDIN ATOMIC CHARGES
----------------------
   0 C :   -0.122546
   1 C :    0.108840
   2 H :   -0.029087
   3 H :   -0.032761
   4 H :   -0.026989
   5 C :    0.111486
   6 H :    0.020853
   7 H :    0.020743
   8 H :   -0.015678
   9 H :   -0.014301
  10 H :   -0.020560

  Mayer bond orders larger than 0.100000
B(  0-C ,  1-C ) :   1.2594 B(  0-C ,  2-H ) :   0.1875 B(  0-C ,  3-H ) :   0.1922
B(  0-C ,  4-H ) :   0.2499 B(  0-C ,  5-C ) :   1.2350 B(  0-C ,  6-H ) :   0.9775
B(  0-C ,  7-H ) :   0.9562 B(  0-C ,  8-H ) :   0.1474 B(  0-C ,  9-H ) :   0.1729
B(  0-C , 10-H ) :   0.1731 B(  1-C ,  2-H ) :   0.7766 B(  1-C ,  3-H ) :   0.7505
B(  1-C ,  4-H ) :   0.7132 B(  1-C ,  7-H ) :   0.1156 B(  5-C ,  8-H ) :   0.8492
B(  5-C ,  9-H ) :   0.8554 B(  5-C , 10-H ) :   0.8464

Dispersion correction           -0.001459471
FINAL SINGLE POINT ENERGY      -119.012645624017

DIPOLE MOMENT
-------------
                                X             Y             Z
Electronic contribution:     -0.13444      -0.30822      -0.13675
Nuclear contribution   :      0.16058       0.27975       0.12812
                        -----------------------------------------
Total Dipole Moment    :      0.02614      -0.02847      -0.00863
                        -----------------------------------------
Magnitude (a.u.)       :      0.03960
Magnitude (Debye)      :      0.10065

Rotational constants in cm-1:     1.027122     0.293327     0.260229
Rotational constants in MHz : 30792.337141  8793.723318  7801.458329

                             ****ORCA TERMINATED NORMALLY****
TOTAL RUN TIME: 0 days 0 hours 0 minutes 5 seconds 450 msec
