                         Program Version 5.0.0 -  RELEASE  -
|  1> !wB97X-D3 RIJCOSX def2-SVPD def2/J TightSCF xyzfile
|  2>
|  3> *xyzfile 0 1 D.xyz
|  4>
|  5> %MaxCore 64000
|  6>
|  7> %pal nprocs 18
|  8> end
|  9>
| 10> %scf
| 11>   MaxIter 150
| 12> end
| 13>
| 14>
| 15>                          ****END OF INPUT****

CARTESIAN COORDINATES (ANGSTROEM)
---------------------------------
  C     -0.701686    4.072499   -4.003920
  C      0.680528    4.614820   -4.048005
  C      1.444422    5.266576   -0.975463
  F      1.565248    4.233493   -1.864885
  H      0.699926    5.584890   -4.388272
  H      1.278044    4.055977   -4.668235
  H      1.085729    4.533581   -3.106524
  C     -1.703475    5.093197   -3.477396
  H     -0.995895    3.740394   -5.000654
  H     -0.643580    3.201910   -3.351533
  C     -1.313997    5.785995   -2.169271
  H     -1.877057    5.850103   -4.251154
  H     -2.653264    4.564475   -3.354796
  H     -2.097137    6.509395   -1.929558
  H     -0.416875    6.387594   -2.339097
  C     -1.073895    4.844728   -0.979904
  H     -1.968893    4.809608   -0.352568
  C      0.148120    5.210874   -0.138092
  H     -0.909754    3.827531   -1.338975
  H      1.474250    6.264638   -1.476917
  H      2.289622    5.303267   -0.264450
  H      0.261827    4.450942    0.640711
  H     -0.002516    6.171031    0.371483

 Total Charge           Charge          ....    0
 Multiplicity           Mult            ....    1
 Number of Electrons    NEL             ....   66
 Basis Dimension        Dim             ....  283

ORBITAL ENERGIES
----------------

  NO   OCC          E(Eh)            E(eV)
   0   2.0000     -24.810119      -675.1177
   1   2.0000     -10.379705      -282.4461
   2   2.0000     -10.300846      -280.3003
   3   2.0000     -10.285906      -279.8937
   4   2.0000     -10.279319      -279.7145
   5   2.0000     -10.272180      -279.5202
   6   2.0000     -10.259403      -279.1726
   7   2.0000     -10.204531      -277.6794
   8   2.0000      -1.333863       -36.2963
   9   2.0000      -0.926788       -25.2192
  10   2.0000      -0.895331       -24.3632
  11   2.0000      -0.833000       -22.6671
  12   2.0000      -0.799635       -21.7592
  13   2.0000      -0.738073       -20.0840
  14   2.0000      -0.703200       -19.1350
  15   2.0000      -0.646987       -17.6054
  16   2.0000      -0.642537       -17.4843
  17   2.0000      -0.626980       -17.0610
  18   2.0000      -0.598535       -16.2870
  19   2.0000      -0.562211       -15.2985
  20   2.0000      -0.555215       -15.1082
  21   2.0000      -0.529378       -14.4051
  22   2.0000      -0.514508       -14.0005
  23   2.0000      -0.488015       -13.2796
  24   2.0000      -0.478140       -13.0109
  25   2.0000      -0.465762       -12.6740
  26   2.0000      -0.456174       -12.4131
  27   2.0000      -0.434874       -11.8335
  28   2.0000      -0.425022       -11.5654
  29   2.0000      -0.408603       -11.1187
  30   2.0000      -0.395814       -10.7706
  31   2.0000      -0.392669       -10.6851
  32   2.0000      -0.370425       -10.0798
  33   0.0000       0.090426         2.4606
  34   0.0000       0.104618         2.8468
  35   0.0000       0.110145         2.9972
  36   0.0000       0.118532         3.2254
  37   0.0000       0.135047         3.6748

MULLIKEN ATOMIC CHARGES
-----------------------
   0 C :   -0.246127
   1 C :    2.594303
   2 C :    0.701553
   3 F :   -0.587964
   4 H :   -0.176455
   5 H :    0.054029
   6 H :   -1.992029
   7 C :    0.248907
   8 H :   -0.334440
   9 H :    0.070289
  10 C :   -0.021167
  11 H :    0.108400
  12 H :   -0.114213
  13 H :   -0.179850
  14 H :   -0.002193
  15 C :    0.145572
  16 H :   -0.213562
  17 C :    0.045102
  18 H :    0.042212
  19 H :    0.241809
  20 H :   -0.294811
  21 H :   -0.001902
  22 H :   -0.087462
Sum of atomic charges:   -0.0000000

LOEWDIN ATOMIC CHARGES
----------------------
   0 C :   -0.058914
   1 C :    0.138859
   2 C :    0.157608
   3 F :   -0.184365
   4 H :   -0.022846
   5 H :   -0.023390
   6 H :   -0.173981
   7 C :   -0.036211
   8 H :    0.019085
   9 H :    0.011829
  10 C :   -0.017605
  11 H :    0.025787
  12 H :    0.019010
  13 H :    0.019258
  14 H :   -0.004125
  15 C :   -0.017141
  16 H :    0.022643
  17 C :   -0.013853
  18 H :    0.007451
  19 H :    0.039046
  20 H :    0.034600
  21 H :    0.023415
  22 H :    0.033841

  Mayer bond orders larger than 0.100000
B(  0-C ,  1-C ) :   0.7606 B(  0-C ,  4-H ) :   0.3340 B(  0-C ,  5-H ) :   0.1555
B(  0-C ,  6-H ) :   0.6668 B(  0-C ,  7-C ) :   1.1561 B(  0-C ,  8-H ) :   1.0440
B(  0-C ,  9-H ) :   0.7640 B(  0-C , 11-H ) :   0.1317 B(  0-C , 12-H ) :   0.1595
B(  1-C ,  3-F ) :  -0.2861 B(  1-C ,  5-H ) :   0.6615 B(  1-C ,  6-H ) :  -2.8566
B(  1-C ,  9-H ) :   0.2063 B(  2-C ,  3-F ) :   0.6032 B(  2-C ,  6-H ) :   0.1647
B(  2-C , 17-C ) :   1.2312 B(  2-C , 19-H ) :   0.7630 B(  2-C , 20-H ) :   1.0153
B(  3-F ,  6-H ) :   0.5389 B(  4-H ,  5-H ) :  -0.2181 B(  4-H ,  6-H ) :   0.7769
B(  4-H ,  8-H ) :   0.1946 B(  5-H ,  6-H ) :   0.1855 B(  5-H ,  8-H ) :  -0.1171
B(  7-C ,  9-H ) :   0.1596 B(  7-C , 10-C ) :   1.2523 B(  7-C , 11-H ) :   0.7114
B(  7-C , 12-H ) :   0.8783 B(  7-C , 13-H ) :   0.1312 B(  7-C , 14-H ) :   0.1218
B(  8-H ,  9-H ) :  -0.1819 B( 10-C , 11-H ) :   0.1913 B( 10-C , 12-H ) :   0.1415
B( 10-C , 13-H ) :   0.8290 B( 10-C , 14-H ) :   0.8866 B( 10-C , 15-C ) :   1.1762
B( 10-C , 16-H ) :   0.2034 B( 13-H , 15-C ) :   0.1463 B( 15-C , 16-H ) :   0.8816
B( 15-C , 17-C ) :   1.2228 B( 15-C , 18-H ) :   0.8423 B( 15-C , 21-H ) :   0.1843
B( 17-C , 20-H ) :   0.1563 B( 17-C , 21-H ) :   0.7712 B( 17-C , 22-H ) :   0.9302

Dispersion correction           -0.008769184
FINAL SINGLE POINT ENERGY      -375.217041207411

DIPOLE MOMENT
-------------
                                X             Y             Z
Electronic contribution:      5.13062      -2.25564       2.79501
Nuclear contribution   :     -5.08831       2.68947      -1.99048
                        -----------------------------------------
Total Dipole Moment    :      0.04231       0.43383       0.80454
                        -----------------------------------------
Magnitude (a.u.)       :      0.91503
Magnitude (Debye)      :      2.32582

Rotational constants in cm-1:     0.084646     0.055672     0.038419
Rotational constants in MHz :  2537.625105  1668.992890  1151.781380

                             ****ORCA TERMINATED NORMALLY****
TOTAL RUN TIME: 0 days 0 hours 0 minutes 27 seconds 778 msec
