                         Program Version 5.0.0 -  RELEASE  -
|  1> !wB97X-D3 RIJCOSX def2-TZVP def2/J TightSCF
|  2> *xyz -1 1
|  3> C         -1.10433        0.25137       -2.86006
|  4> C         -0.71189        0.84252       -4.21834
|  5> H          0.15463        1.49980       -4.13091
|  6> H         -1.53813        1.45922       -4.58267
|  7> C         -0.39762       -0.20587       -5.28802
|  8> O          0.61717       -0.00535       -5.99827
|  9> O         -1.13317       -1.22138       -5.34147
| 10> H         -1.95489       -0.38644       -2.98099
| 11> H         -1.34603        1.04362       -2.18269
| 12> H         -0.28606       -0.31581       -2.46809
| 13> *
| 14>
| 15> %MaxCore 64000
| 16>
| 17> %pal nprocs 4
| 18> end
| 19>
| 20> %scf
| 21>   MaxIter 150
| 22> end
| 23>
| 24>
| 25>                          ****END OF INPUT****

CARTESIAN COORDINATES (ANGSTROEM)
---------------------------------
  C     -1.104330    0.251370   -2.860060
  C     -0.711890    0.842520   -4.218340
  H      0.154630    1.499800   -4.130910
  H     -1.538130    1.459220   -4.582670
  C     -0.397620   -0.205870   -5.288020
  O      0.617170   -0.005350   -5.998270
  O     -1.133170   -1.221380   -5.341470
  H     -1.954890   -0.386440   -2.980990
  H     -1.346030    1.043620   -2.182690
  H     -0.286060   -0.315810   -2.468090

 Total Charge           Charge          ....   -1
 Multiplicity           Mult            ....    1
 Number of Electrons    NEL             ....   40
 Basis Dimension        Dim             ....  185

ORBITAL ENERGIES
----------------

  NO   OCC          E(Eh)            E(eV)
   0   2.0000     -18.952849      -515.7333
   1   2.0000     -18.951547      -515.6978
   2   2.0000     -10.149195      -276.1736
   3   2.0000     -10.105951      -274.9969
   4   2.0000     -10.095807      -274.7209
   5   2.0000      -0.927284       -25.2327
   6   2.0000      -0.832143       -22.6438
   7   2.0000      -0.717129       -19.5141
   8   2.0000      -0.582336       -15.8462
   9   2.0000      -0.418492       -11.3878
  10   2.0000      -0.390908       -10.6371
  11   2.0000      -0.356608        -9.7038
  12   2.0000      -0.323273        -8.7967
  13   2.0000      -0.307862        -8.3774
  14   2.0000      -0.298876        -8.1328
  15   2.0000      -0.268521        -7.3068
  16   2.0000      -0.250586        -6.8188
  17   2.0000      -0.132293        -3.5999
  18   2.0000      -0.127069        -3.4577
  19   2.0000      -0.114612        -3.1188
  20   0.0000       0.263015         7.1570
  21   0.0000       0.305219         8.3054
  22   0.0000       0.322530         8.7765
  23   0.0000       0.329831         8.9751
  24   0.0000       0.344441         9.3727

MULLIKEN ATOMIC CHARGES
-----------------------
   0 C :   -0.305914
   1 C :   -0.141015
   2 H :    0.049246
   3 H :    0.038130
   4 C :    0.252527
   5 O :   -0.563453
   6 O :   -0.565913
   7 H :    0.100374
   8 H :    0.052319
   9 H :    0.083699
Sum of atomic charges:   -1.0000000

LOEWDIN ATOMIC CHARGES
----------------------
   0 C :   -0.324905
   1 C :   -0.290528
   2 H :    0.119568
   3 H :    0.121163
   4 C :   -0.695423
   5 O :   -0.121087
   6 O :   -0.118975
   7 H :    0.111466
   8 H :    0.091792
   9 H :    0.106930

  Mayer bond orders larger than 0.100000
B(  0-C ,  1-C ) :   0.9555 B(  0-C ,  7-H ) :   0.9753 B(  0-C ,  8-H ) :   0.9757
B(  0-C ,  9-H ) :   0.9841 B(  1-C ,  2-H ) :   0.9687 B(  1-C ,  3-H ) :   0.9622
B(  1-C ,  4-C ) :   0.9527 B(  4-C ,  5-O ) :   1.8516 B(  4-C ,  6-O ) :   1.8134

Dispersion correction           -0.001932078
FINAL SINGLE POINT ENERGY      -267.866305656799

DIPOLE MOMENT
-------------
                                X             Y             Z
Electronic contribution:      1.56155      -2.38439      -5.25872
Nuclear contribution   :     -2.09607       3.44215       6.87744
                        -----------------------------------------
Total Dipole Moment    :     -0.53452       1.05776       1.61872
                        -----------------------------------------
Magnitude (a.u.)       :      2.00620
Magnitude (Debye)      :      5.09934

Rotational constants in cm-1:     0.324698     0.133739     0.103466
Rotational constants in MHz :  9734.203431  4009.406827  3101.846422

                             ****ORCA TERMINATED NORMALLY****
TOTAL RUN TIME: 0 days 0 hours 0 minutes 27 seconds 673 msec
