                         Program Version 5.0.0 -  RELEASE  -
|  1> !wB97X-D3 RIJCOSX def2-TZVP def2/J TightSCF
|  2> *xyz 1 1
|  3> C          2.23447       -2.98975       -2.39762
|  4> N          2.75680       -2.94555       -3.76503
|  5> C          1.98721       -2.59045       -4.81898
|  6> N          0.74322       -3.01749       -4.91352
|  7> N          2.49964       -1.84860       -5.80324
|  8> H          3.30978       -1.29282       -5.55895
|  9> H          1.80103       -1.30430       -6.28913
| 10> H          3.71612       -2.62880       -3.82953
| 11> H          0.39583       -3.62775       -4.18502
| 12> H          0.03920       -2.45438       -5.37137
| 13> C          2.19120       -1.61950       -1.71549
| 14> H          2.87278       -3.66637       -1.82801
| 15> H          1.24619       -3.44744       -2.40784
| 16> H          1.56387       -0.96046       -2.27853
| 17> H          3.18033       -1.21449       -1.66568
| 18> H          1.79916       -1.72608       -0.72562
| 19> *
| 20>
| 21> %MaxCore 64000
| 22>
| 23> %pal nprocs 4
| 24> end
| 25>
| 26> %scf
| 27>   MaxIter 150
| 28> end
| 29>
| 30>
| 31>                          ****END OF INPUT****

CARTESIAN COORDINATES (ANGSTROEM)
---------------------------------
  C      2.234470   -2.989750   -2.397620
  N      2.756800   -2.945550   -3.765030
  C      1.987210   -2.590450   -4.818980
  N      0.743220   -3.017490   -4.913520
  N      2.499640   -1.848600   -5.803240
  H      3.309780   -1.292820   -5.558950
  H      1.801030   -1.304300   -6.289130
  H      3.716120   -2.628800   -3.829530
  H      0.395830   -3.627750   -4.185020
  H      0.039200   -2.454380   -5.371370
  C      2.191200   -1.619500   -1.715490
  H      2.872780   -3.666370   -1.828010
  H      1.246190   -3.447440   -2.407840
  H      1.563870   -0.960460   -2.278530
  H      3.180330   -1.214490   -1.665680
  H      1.799160   -1.726080   -0.725620

 Total Charge           Charge          ....    1
 Multiplicity           Mult            ....    1
 Number of Electrons    NEL             ....   48
 Basis Dimension        Dim             ....  246

ORBITAL ENERGIES
----------------

  NO   OCC          E(Eh)            E(eV)
   0   2.0000     -14.651618      -398.6908
   1   2.0000     -14.647654      -398.5829
   2   2.0000     -14.645610      -398.5273
   3   2.0000     -10.618650      -288.9482
   4   2.0000     -10.484582      -285.3000
   5   2.0000     -10.414154      -283.3835
   6   2.0000      -1.340297       -36.4713
   7   2.0000      -1.223605       -33.2960
   8   2.0000      -1.219197       -33.1760
   9   2.0000      -1.044705       -28.4279
  10   2.0000      -0.953791       -25.9540
  11   2.0000      -0.914448       -24.8834
  12   2.0000      -0.890181       -24.2231
  13   2.0000      -0.845282       -23.0013
  14   2.0000      -0.803101       -21.8535
  15   2.0000      -0.784662       -21.3517
  16   2.0000      -0.750347       -20.4180
  17   2.0000      -0.722459       -19.6591
  18   2.0000      -0.702854       -19.1256
  19   2.0000      -0.667615       -18.1667
  20   2.0000      -0.631882       -17.1944
  21   2.0000      -0.611918       -16.6511
  22   2.0000      -0.584459       -15.9039
  23   2.0000      -0.543647       -14.7934
  24   0.0000      -0.111353        -3.0301
  25   0.0000      -0.070879        -1.9287
  26   0.0000      -0.037930        -1.0321
  27   0.0000      -0.024015        -0.6535
  28   0.0000      -0.005520        -0.1502

MULLIKEN ATOMIC CHARGES
-----------------------
   0 C :   -0.143120
   1 N :   -0.297086
   2 C :    0.441211
   3 N :   -0.416555
   4 N :   -0.389544
   5 H :    0.284685
   6 H :    0.283103
   7 H :    0.261810
   8 H :    0.293774
   9 H :    0.299932
  10 C :   -0.334904
  11 H :    0.176800
  12 H :    0.114098
  13 H :    0.118093
  14 H :    0.140592
  15 H :    0.167111
Sum of atomic charges:    1.0000000

LOEWDIN ATOMIC CHARGES
----------------------
   0 C :   -0.283829
   1 N :    0.148667
   2 C :   -0.395285
   3 N :    0.083806
   4 N :    0.057287
   5 H :    0.197406
   6 H :    0.200881
   7 H :    0.207224
   8 H :    0.199508
   9 H :    0.201420
  10 C :   -0.282184
  11 H :    0.150525
  12 H :    0.133377
  13 H :    0.118677
  14 H :    0.125078
  15 H :    0.137443

  Mayer bond orders larger than 0.100000
B(  0-C ,  1-N ) :   0.8716 B(  0-C , 10-C ) :   0.9750 B(  0-C , 11-H ) :   0.9583
B(  0-C , 12-H ) :   0.9824 B(  1-N ,  2-C ) :   1.3481 B(  1-N ,  7-H ) :   0.9050
B(  2-C ,  3-N ) :   1.3430 B(  2-C ,  4-N ) :   1.3313 B(  3-N ,  8-H ) :   0.8942
B(  3-N ,  9-H ) :   0.8841 B(  4-N ,  5-H ) :   0.8945 B(  4-N ,  6-H ) :   0.8918
B( 10-C , 13-H ) :   0.9622 B( 10-C , 14-H ) :   0.9690 B( 10-C , 15-H ) :   0.9660

Dispersion correction           -0.003912956
FINAL SINGLE POINT ENERGY      -284.418303653296

DIPOLE MOMENT
-------------
                                X             Y             Z
Electronic contribution:      0.17721      -1.65819      -5.20536
Nuclear contribution   :     -0.59121       2.30298       4.63196
                        -----------------------------------------
Total Dipole Moment    :     -0.41399       0.64479      -0.57340
                        -----------------------------------------
Magnitude (a.u.)       :      0.95705
Magnitude (Debye)      :      2.43262

Rotational constants in cm-1:     0.205874     0.074757     0.066901
Rotational constants in MHz :  6171.937773  2241.151057  2005.629823

                             ****ORCA TERMINATED NORMALLY****
TOTAL RUN TIME: 0 days 0 hours 0 minutes 52 seconds 682 msec
