                         Program Version 5.0.0 -  RELEASE  -
|  1> !wB97X-D3 RIJCOSX def2-TZVP def2/J TightSCF
|  2> *xyz 0 1
|  3> C         -1.10433        0.25137       -2.86006
|  4> C         -0.71189        0.84252       -4.21834
|  5> H          0.15463        1.49980       -4.13091
|  6> H         -1.53813        1.45922       -4.58267
|  7> C         -0.39762       -0.20587       -5.28802
|  8> F          0.61717       -0.00535       -5.99827
|  9> O         -1.13317       -1.22138       -5.34147
| 10> H         -1.95489       -0.38644       -2.98099
| 11> H         -1.34603        1.04362       -2.18269
| 12> H         -0.28606       -0.31581       -2.46809
| 13> *
| 14>
| 15> %MaxCore 64000
| 16>
| 17> %pal nprocs 4
| 18> end
| 19>
| 20> %scf
| 21>   MaxIter 150
| 22> end
| 23>
| 24>
| 25>                          ****END OF INPUT****

CARTESIAN COORDINATES (ANGSTROEM)
---------------------------------
  C     -1.104330    0.251370   -2.860060
  C     -0.711890    0.842520   -4.218340
  H      0.154630    1.499800   -4.130910
  H     -1.538130    1.459220   -4.582670
  C     -0.397620   -0.205870   -5.288020
  F      0.617170   -0.005350   -5.998270
  O     -1.133170   -1.221380   -5.341470
  H     -1.954890   -0.386440   -2.980990
  H     -1.346030    1.043620   -2.182690
  H     -0.286060   -0.315810   -2.468090

 Total Charge           Charge          ....    0
 Multiplicity           Mult            ....    1
 Number of Electrons    NEL             ....   40
 Basis Dimension        Dim             ....  185

ORBITAL ENERGIES
----------------

  NO   OCC          E(Eh)            E(eV)
   0   2.0000     -24.854689      -676.3305
   1   2.0000     -19.234386      -523.3943
   2   2.0000     -10.454540      -284.4825
   3   2.0000     -10.307700      -280.4868
   4   2.0000     -10.276001      -279.6242
   5   2.0000      -1.435567       -39.0638
   6   2.0000      -1.148124       -31.2420
   7   2.0000      -0.916142       -24.9295
   8   2.0000      -0.803238       -21.8572
   9   2.0000      -0.745366       -20.2824
  10   2.0000      -0.653608       -17.7856
  11   2.0000      -0.639955       -17.4141
  12   2.0000      -0.612291       -16.6613
  13   2.0000      -0.566738       -15.4217
  14   2.0000      -0.533615       -14.5204
  15   2.0000      -0.492378       -13.3983
  16   2.0000      -0.472742       -12.8640
  17   2.0000      -0.470596       -12.8056
  18   2.0000      -0.442234       -12.0338
  19   2.0000      -0.389316       -10.5938
  20   0.0000       0.057897         1.5755
  21   0.0000       0.115459         3.1418
  22   0.0000       0.155776         4.2389
  23   0.0000       0.172158         4.6846
  24   0.0000       0.183057         4.9812

MULLIKEN ATOMIC CHARGES
-----------------------
   0 C :   -0.340752
   1 C :   -0.213053
   2 H :    0.115940
   3 H :    0.128316
   4 C :    0.395631
   5 F :   -0.105485
   6 O :   -0.360670
   7 H :    0.140760
   8 H :    0.121304
   9 H :    0.118009
Sum of atomic charges:   -0.0000000

LOEWDIN ATOMIC CHARGES
----------------------
   0 C :   -0.285801
   1 C :   -0.260686
   2 H :    0.139548
   3 H :    0.154249
   4 C :   -0.492745
   5 F :    0.323624
   6 O :    0.058751
   7 H :    0.125331
   8 H :    0.118184
   9 H :    0.119546

  Mayer bond orders larger than 0.100000
B(  0-C ,  1-C ) :   0.9791 B(  0-C ,  7-H ) :   0.9690 B(  0-C ,  8-H ) :   0.9727
B(  0-C ,  9-H ) :   0.9782 B(  1-C ,  2-H ) :   0.9675 B(  1-C ,  3-H ) :   0.9390
B(  1-C ,  4-C ) :   0.9926 B(  4-C ,  5-F ) :   1.1591 B(  4-C ,  6-O ) :   2.0233

Dispersion correction           -0.001898312
FINAL SINGLE POINT ENERGY      -292.437568217414

DIPOLE MOMENT
-------------
                                X             Y             Z
Electronic contribution:      3.61532      -2.35361      -7.72237
Nuclear contribution   :     -3.36368       3.36392       8.24820
                        -----------------------------------------
Total Dipole Moment    :      0.25164       1.01031       0.52583
                        -----------------------------------------
Magnitude (a.u.)       :      1.16642
Magnitude (Debye)      :      2.96481

Rotational constants in cm-1:     0.315013     0.126712     0.098430
Rotational constants in MHz :  9443.861322  3798.734540  2950.846388

                             ****ORCA TERMINATED NORMALLY****
TOTAL RUN TIME: 0 days 0 hours 0 minutes 27 seconds 351 msec
