                         Program Version 5.0.0 -  RELEASE  -
|  1> !wB97X-D3 RIJCOSX def2-TZVP def2/J TightSCF
|  2> *xyz 0 1
|  3> C          2.23447       -2.98975       -2.39762
|  4> C          2.75680       -2.94555       -3.76503
|  5> C          1.98721       -2.59045       -4.81898
|  6> N          0.74322       -3.01749       -4.91352
|  7> N          2.49964       -1.84860       -5.80324
|  8> H          3.30978       -1.29282       -5.55895
|  9> H          1.80103       -1.30430       -6.28913
| 10> H          3.71612       -2.62880       -3.82953
| 11> H          0.39583       -3.62775       -4.18502
| 12> H          0.03920       -2.45438       -5.37137
| 13> C          2.19120       -1.61950       -1.71549
| 14> H          2.87278       -3.66637       -1.82801
| 15> H          1.24619       -3.44744       -2.40784
| 16> H          1.56387       -0.96046       -2.27853
| 17> H          3.18033       -1.21449       -1.66568
| 18> H          1.79916       -1.72608       -0.72562
| 19> *
| 20>
| 21> %MaxCore 64000
| 22>
| 23> %pal nprocs 4
| 24> end
| 25>
| 26> %scf
| 27>   MaxIter 150
| 28> end
| 29>
| 30>
| 31>                          ****END OF INPUT****

CARTESIAN COORDINATES (ANGSTROEM)
---------------------------------
  C      2.234470   -2.989750   -2.397620
  C      2.756800   -2.945550   -3.765030
  C      1.987210   -2.590450   -4.818980
  N      0.743220   -3.017490   -4.913520
  N      2.499640   -1.848600   -5.803240
  H      3.309780   -1.292820   -5.558950
  H      1.801030   -1.304300   -6.289130
  H      3.716120   -2.628800   -3.829530
  H      0.395830   -3.627750   -4.185020
  H      0.039200   -2.454380   -5.371370
  C      2.191200   -1.619500   -1.715490
  H      2.872780   -3.666370   -1.828010
  H      1.246190   -3.447440   -2.407840
  H      1.563870   -0.960460   -2.278530
  H      3.180330   -1.214490   -1.665680
  H      1.799160   -1.726080   -0.725620

 Total Charge           Charge          ....    0
 Multiplicity           Mult            ....    1
 Number of Electrons    NEL             ....   48
 Basis Dimension        Dim             ....  246

ORBITAL ENERGIES
----------------

  NO   OCC          E(Eh)            E(eV)
   0   2.0000     -14.425982      -392.5509
   1   2.0000     -14.421732      -392.4353
   2   2.0000     -10.324237      -280.9368
   3   2.0000     -10.250459      -278.9292
   4   2.0000     -10.240643      -278.6621
   5   2.0000     -10.195888      -277.4442
   6   2.0000      -1.088850       -29.6291
   7   2.0000      -0.994825       -27.0706
   8   2.0000      -0.889720       -24.2105
   9   2.0000      -0.805334       -21.9143
  10   2.0000      -0.728485       -19.8231
  11   2.0000      -0.685482       -18.6529
  12   2.0000      -0.645650       -17.5690
  13   2.0000      -0.609869       -16.5954
  14   2.0000      -0.567634       -15.4461
  15   2.0000      -0.551913       -15.0183
  16   2.0000      -0.512078       -13.9344
  17   2.0000      -0.493224       -13.4213
  18   2.0000      -0.469378       -12.7724
  19   2.0000      -0.454543       -12.3688
  20   2.0000      -0.420871       -11.4525
  21   2.0000      -0.413394       -11.2490
  22   2.0000      -0.370485       -10.0814
  23   2.0000      -0.245250        -6.6736
  24   0.0000       0.094616         2.5746
  25   0.0000       0.128612         3.4997
  26   0.0000       0.141135         3.8405
  27   0.0000       0.144046         3.9197
  28   0.0000       0.160891         4.3781

MULLIKEN ATOMIC CHARGES
-----------------------
   0 C :   -0.143357
   1 C :   -0.366691
   2 C :    0.331916
   3 N :   -0.491362
   4 N :   -0.473488
   5 H :    0.250953
   6 H :    0.217663
   7 H :    0.073022
   8 H :    0.251628
   9 H :    0.224911
  10 C :   -0.297773
  11 H :    0.094608
  12 H :    0.034443
  13 H :    0.091044
  14 H :    0.098481
  15 H :    0.104002
Sum of atomic charges:    0.0000000

LOEWDIN ATOMIC CHARGES
----------------------
   0 C :   -0.314659
   1 C :   -0.287163
   2 C :   -0.460726
   3 N :   -0.000443
   4 N :   -0.022835
   5 H :    0.176794
   6 H :    0.164571
   7 H :    0.115613
   8 H :    0.178717
   9 H :    0.161518
  10 C :   -0.299621
  11 H :    0.134341
  12 H :    0.121715
  13 H :    0.109996
  14 H :    0.112617
  15 H :    0.109564

  Mayer bond orders larger than 0.100000
B(  0-C ,  1-C ) :   1.0121 B(  0-C , 10-C ) :   0.9478 B(  0-C , 11-H ) :   0.9849
B(  0-C , 12-H ) :   0.9814 B(  1-C ,  2-C ) :   1.6373 B(  1-C ,  7-H ) :   1.0442
B(  2-C ,  3-N ) :   1.1494 B(  2-C ,  4-N ) :   1.1392 B(  3-N ,  8-H ) :   0.9236
B(  3-N ,  9-H ) :   0.9145 B(  4-N ,  5-H ) :   0.9206 B(  4-N ,  6-H ) :   0.9264
B( 10-C , 13-H ) :   0.9820 B( 10-C , 14-H ) :   0.9811 B( 10-C , 15-H ) :   0.9795

Dispersion correction           -0.003907135
FINAL SINGLE POINT ENERGY      -267.934547167761

DIPOLE MOMENT
-------------
                                X             Y             Z
Electronic contribution:     -0.36840      -1.33062      -5.02899
Nuclear contribution   :     -0.44240       2.20379       4.66256
                        -----------------------------------------
Total Dipole Moment    :     -0.81079       0.87317      -0.36643
                        -----------------------------------------
Magnitude (a.u.)       :      1.24663
Magnitude (Debye)      :      3.16867

Rotational constants in cm-1:     0.209447     0.075194     0.066975
Rotational constants in MHz :  6279.068019  2254.272519  2007.845458

                             ****ORCA TERMINATED NORMALLY****
TOTAL RUN TIME: 0 days 0 hours 0 minutes 56 seconds 969 msec
