                         Program Version 5.0.0 -  RELEASE  -
|  1> !wB97X-D3 RIJCOSX def2-TZVP def2/J TightSCF
|  2> *xyz 0 1
|  3> C         -1.10433        0.25137       -2.86006
|  4> C         -0.71189        0.84252       -4.21834
|  5> H          0.15463        1.49980       -4.13091
|  6> H         -1.53813        1.45922       -4.58267
|  7> C         -0.39762       -0.20587       -5.28802
|  8> O          0.61717       -0.00535       -5.99827
|  9> F         -1.13317       -1.22138       -5.34147
| 10> H         -1.95489       -0.38644       -2.98099
| 11> H         -1.34603        1.04362       -2.18269
| 12> H         -0.28606       -0.31581       -2.46809
| 13> *
| 14>
| 15> %MaxCore 64000
| 16>
| 17> %pal nprocs 4
| 18> end
| 19>
| 20> %scf
| 21>   MaxIter 150
| 22> end
| 23>
| 24>
| 25>                          ****END OF INPUT****

CARTESIAN COORDINATES (ANGSTROEM)
---------------------------------
  C     -1.104330    0.251370   -2.860060
  C     -0.711890    0.842520   -4.218340
  H      0.154630    1.499800   -4.130910
  H     -1.538130    1.459220   -4.582670
  C     -0.397620   -0.205870   -5.288020
  O      0.617170   -0.005350   -5.998270
  F     -1.133170   -1.221380   -5.341470
  H     -1.954890   -0.386440   -2.980990
  H     -1.346030    1.043620   -2.182690
  H     -0.286060   -0.315810   -2.468090

 Total Charge           Charge          ....    0
 Multiplicity           Mult            ....    1
 Number of Electrons    NEL             ....   40
 Basis Dimension        Dim             ....  185

ORBITAL ENERGIES
----------------

  NO   OCC          E(Eh)            E(eV)
   0   2.0000     -24.855443      -676.3510
   1   2.0000     -19.233238      -523.3630
   2   2.0000     -10.453797      -284.4623
   3   2.0000     -10.306919      -280.4655
   4   2.0000     -10.281884      -279.7843
   5   2.0000      -1.435997       -39.0755
   6   2.0000      -1.147068       -31.2133
   7   2.0000      -0.920450       -25.0467
   8   2.0000      -0.798209       -21.7204
   9   2.0000      -0.752990       -20.4899
  10   2.0000      -0.655949       -17.8493
  11   2.0000      -0.646991       -17.6055
  12   2.0000      -0.601624       -16.3710
  13   2.0000      -0.568173       -15.4608
  14   2.0000      -0.533869       -14.5273
  15   2.0000      -0.498452       -13.5636
  16   2.0000      -0.481886       -13.1128
  17   2.0000      -0.474229       -12.9044
  18   2.0000      -0.442402       -12.0384
  19   2.0000      -0.384325       -10.4580
  20   0.0000       0.060239         1.6392
  21   0.0000       0.110606         3.0098
  22   0.0000       0.154883         4.2146
  23   0.0000       0.174919         4.7598
  24   0.0000       0.183944         5.0054

MULLIKEN ATOMIC CHARGES
-----------------------
   0 C :   -0.343959
   1 C :   -0.211934
   2 H :    0.140915
   3 H :    0.121577
   4 C :    0.386320
   5 O :   -0.356501
   6 F :   -0.108705
   7 H :    0.120891
   8 H :    0.126524
   9 H :    0.124871
Sum of atomic charges:   -0.0000000

LOEWDIN ATOMIC CHARGES
----------------------
   0 C :   -0.294805
   1 C :   -0.256251
   2 H :    0.152559
   3 H :    0.150332
   4 C :   -0.493961
   5 O :    0.056642
   6 F :    0.326173
   7 H :    0.118831
   8 H :    0.120300
   9 H :    0.120181

  Mayer bond orders larger than 0.100000
B(  0-C ,  1-C ) :   0.9663 B(  0-C ,  7-H ) :   0.9717 B(  0-C ,  8-H ) :   0.9736
B(  0-C ,  9-H ) :   0.9754 B(  1-C ,  2-H ) :   0.9674 B(  1-C ,  3-H ) :   0.9433
B(  1-C ,  4-C ) :   1.0055 B(  4-C ,  5-O ) :   2.0409 B(  4-C ,  6-F ) :   1.1482

Dispersion correction           -0.001893142
FINAL SINGLE POINT ENERGY      -292.436682120761

DIPOLE MOMENT
-------------
                                X             Y             Z
Electronic contribution:      0.67414      -4.37554      -6.59361
Nuclear contribution   :     -1.45527       4.68977       7.53208
                        -----------------------------------------
Total Dipole Moment    :     -0.78113       0.31423       0.93847
                        -----------------------------------------
Magnitude (a.u.)       :      1.26080
Magnitude (Debye)      :      3.20470

Rotational constants in cm-1:     0.298240     0.132464     0.099915
Rotational constants in MHz :  8940.998095  3971.171647  2995.369122

                             ****ORCA TERMINATED NORMALLY****
TOTAL RUN TIME: 0 days 0 hours 0 minutes 22 seconds 527 msec
