                         Program Version 5.0.0 -  RELEASE  -
|  1> !wB97X-D3 RIJCOSX def2-TZVP def2/J TightSCF
|  2> *xyz 0 1
|  3> C          2.23447       -2.98975       -2.39762
|  4> N          2.75680       -2.94555       -3.76503
|  5> C          1.98721       -2.59045       -4.81898
|  6> C          0.74322       -3.01749       -4.91352
|  7> N          2.49964       -1.84860       -5.80324
|  8> H          3.30978       -1.29282       -5.55895
|  9> H          1.80103       -1.30430       -6.28913
| 10> H          3.71612       -2.62880       -3.82953
| 11> H          0.39583       -3.62775       -4.18502
| 12> H          0.03920       -2.45438       -5.37137
| 13> C          2.19120       -1.61950       -1.71549
| 14> H          2.87278       -3.66637       -1.82801
| 15> H          1.24619       -3.44744       -2.40784
| 16> H          1.56387       -0.96046       -2.27853
| 17> H          3.18033       -1.21449       -1.66568
| 18> H          1.79916       -1.72608       -0.72562
| 19> *
| 20>
| 21> %MaxCore 64000
| 22>
| 23> %pal nprocs 4
| 24> end
| 25>
| 26> %scf
| 27>   MaxIter 150
| 28> end
| 29>
| 30>
| 31>                          ****END OF INPUT****

CARTESIAN COORDINATES (ANGSTROEM)
---------------------------------
  C      2.234470   -2.989750   -2.397620
  N      2.756800   -2.945550   -3.765030
  C      1.987210   -2.590450   -4.818980
  C      0.743220   -3.017490   -4.913520
  N      2.499640   -1.848600   -5.803240
  H      3.309780   -1.292820   -5.558950
  H      1.801030   -1.304300   -6.289130
  H      3.716120   -2.628800   -3.829530
  H      0.395830   -3.627750   -4.185020
  H      0.039200   -2.454380   -5.371370
  C      2.191200   -1.619500   -1.715490
  H      2.872780   -3.666370   -1.828010
  H      1.246190   -3.447440   -2.407840
  H      1.563870   -0.960460   -2.278530
  H      3.180330   -1.214490   -1.665680
  H      1.799160   -1.726080   -0.725620

 Total Charge           Charge          ....    0
 Multiplicity           Mult            ....    1
 Number of Electrons    NEL             ....   48
 Basis Dimension        Dim             ....  246

ORBITAL ENERGIES
----------------

  NO   OCC          E(Eh)            E(eV)
   0   2.0000     -14.423030      -392.4706
   1   2.0000     -14.420359      -392.3979
   2   2.0000     -10.321443      -280.8608
   3   2.0000     -10.307461      -280.4803
   4   2.0000     -10.262032      -279.2441
   5   2.0000     -10.187787      -277.2238
   6   2.0000      -1.085681       -29.5429
   7   2.0000      -1.004242       -27.3268
   8   2.0000      -0.871454       -23.7135
   9   2.0000      -0.828502       -22.5447
  10   2.0000      -0.751175       -20.4405
  11   2.0000      -0.668178       -18.1821
  12   2.0000      -0.646202       -17.5840
  13   2.0000      -0.614121       -16.7111
  14   2.0000      -0.561561       -15.2808
  15   2.0000      -0.546802       -14.8792
  16   2.0000      -0.515316       -14.0225
  17   2.0000      -0.494284       -13.4501
  18   2.0000      -0.490911       -13.3584
  19   2.0000      -0.466117       -12.6837
  20   2.0000      -0.455514       -12.3952
  21   2.0000      -0.442438       -12.0393
  22   2.0000      -0.345700        -9.4070
  23   2.0000      -0.263511        -7.1705
  24   0.0000       0.099362         2.7038
  25   0.0000       0.130498         3.5510
  26   0.0000       0.137933         3.7533
  27   0.0000       0.150481         4.0948
  28   0.0000       0.163439         4.4474

MULLIKEN ATOMIC CHARGES
-----------------------
   0 C :   -0.081259
   1 N :   -0.356054
   2 C :    0.340589
   3 C :   -0.474917
   4 N :   -0.473561
   5 H :    0.210144
   6 H :    0.246580
   7 H :    0.194863
   8 H :    0.073620
   9 H :    0.094701
  10 C :   -0.335638
  11 H :    0.111079
  12 H :    0.112153
  13 H :    0.125123
  14 H :    0.098455
  15 H :    0.114121
Sum of atomic charges:    0.0000000

LOEWDIN ATOMIC CHARGES
----------------------
   0 C :   -0.298892
   1 N :    0.095843
   2 C :   -0.461454
   3 C :   -0.319286
   4 N :   -0.025708
   5 H :    0.156876
   6 H :    0.180323
   7 H :    0.174159
   8 H :    0.098784
   9 H :    0.097893
  10 C :   -0.306312
  11 H :    0.127367
  12 H :    0.134548
  13 H :    0.118179
  14 H :    0.110387
  15 H :    0.117294

  Mayer bond orders larger than 0.100000
B(  0-C ,  1-N ) :   0.9247 B(  0-C , 10-C ) :   0.9752 B(  0-C , 11-H ) :   0.9781
B(  0-C , 12-H ) :   0.9776 B(  1-N ,  2-C ) :   1.1297 B(  1-N ,  7-H ) :   0.9354
B(  2-C ,  3-C ) :   1.6403 B(  2-C ,  4-N ) :   1.1412 B(  3-C ,  8-H ) :   1.0216
B(  3-C ,  9-H ) :   0.9830 B(  4-N ,  5-H ) :   0.9253 B(  4-N ,  6-H ) :   0.9195
B( 10-C , 13-H ) :   0.9729 B( 10-C , 14-H ) :   0.9785 B( 10-C , 15-H ) :   0.9760

Dispersion correction           -0.003916130
FINAL SINGLE POINT ENERGY      -267.930572818427

DIPOLE MOMENT
-------------
                                X             Y             Z
Electronic contribution:      1.53658      -1.20919      -3.84110
Nuclear contribution   :     -0.86957       2.18853       4.41892
                        -----------------------------------------
Total Dipole Moment    :      0.66701       0.97934       0.57782
                        -----------------------------------------
Magnitude (a.u.)       :      1.31829
Magnitude (Debye)      :      3.35082

Rotational constants in cm-1:     0.214718     0.075736     0.068547
Rotational constants in MHz :  6437.075121  2270.519635  2054.974198

                             ****ORCA TERMINATED NORMALLY****
TOTAL RUN TIME: 0 days 0 hours 0 minutes 44 seconds 491 msec
