                         Program Version 5.0.0 -  RELEASE  -
|  1> !wB97X-D3 RIJCOSX def2-TZVP def2/J TightSCF
|  2> *xyz 0 1
|  3> C          2.23447       -2.98975       -2.39762
|  4> N          2.75680       -2.94555       -3.76503
|  5> C          1.98721       -2.59045       -4.81898
|  6> N          0.74322       -3.01749       -4.91352
|  7> C          2.49964       -1.84860       -5.80324
|  8> H          3.30978       -1.29282       -5.55895
|  9> H          1.80103       -1.30430       -6.28913
| 10> H          3.71612       -2.62880       -3.82953
| 11> H          0.39583       -3.62775       -4.18502
| 12> H          0.03920       -2.45438       -5.37137
| 13> C          2.19120       -1.61950       -1.71549
| 14> H          2.87278       -3.66637       -1.82801
| 15> H          1.24619       -3.44744       -2.40784
| 16> H          1.56387       -0.96046       -2.27853
| 17> H          3.18033       -1.21449       -1.66568
| 18> H          1.79916       -1.72608       -0.72562
| 19> *
| 20>
| 21> %MaxCore 64000
| 22>
| 23> %pal nprocs 4
| 24> end
| 25>
| 26> %scf
| 27>   MaxIter 150
| 28> end
| 29>
| 30>
| 31>                          ****END OF INPUT****

CARTESIAN COORDINATES (ANGSTROEM)
---------------------------------
  C      2.234470   -2.989750   -2.397620
  N      2.756800   -2.945550   -3.765030
  C      1.987210   -2.590450   -4.818980
  N      0.743220   -3.017490   -4.913520
  C      2.499640   -1.848600   -5.803240
  H      3.309780   -1.292820   -5.558950
  H      1.801030   -1.304300   -6.289130
  H      3.716120   -2.628800   -3.829530
  H      0.395830   -3.627750   -4.185020
  H      0.039200   -2.454380   -5.371370
  C      2.191200   -1.619500   -1.715490
  H      2.872780   -3.666370   -1.828010
  H      1.246190   -3.447440   -2.407840
  H      1.563870   -0.960460   -2.278530
  H      3.180330   -1.214490   -1.665680
  H      1.799160   -1.726080   -0.725620

 Total Charge           Charge          ....    0
 Multiplicity           Mult            ....    1
 Number of Electrons    NEL             ....   48
 Basis Dimension        Dim             ....  246

ORBITAL ENERGIES
----------------

  NO   OCC          E(Eh)            E(eV)
   0   2.0000     -14.423518      -392.4839
   1   2.0000     -14.422316      -392.4512
   2   2.0000     -10.325455      -280.9699
   3   2.0000     -10.316231      -280.7189
   4   2.0000     -10.266179      -279.3569
   5   2.0000     -10.182946      -277.0921
   6   2.0000      -1.087964       -29.6050
   7   2.0000      -1.004556       -27.3353
   8   2.0000      -0.884106       -24.0577
   9   2.0000      -0.821950       -22.3664
  10   2.0000      -0.741215       -20.1695
  11   2.0000      -0.707193       -19.2437
  12   2.0000      -0.642692       -17.4885
  13   2.0000      -0.591933       -16.1073
  14   2.0000      -0.591112       -16.0850
  15   2.0000      -0.537894       -14.6368
  16   2.0000      -0.528222       -14.3737
  17   2.0000      -0.499848       -13.6016
  18   2.0000      -0.473061       -12.8727
  19   2.0000      -0.462735       -12.5916
  20   2.0000      -0.461324       -12.5533
  21   2.0000      -0.450246       -12.2518
  22   2.0000      -0.348504        -9.4833
  23   2.0000      -0.258451        -7.0328
  24   0.0000       0.100553         2.7362
  25   0.0000       0.126974         3.4551
  26   0.0000       0.130871         3.5612
  27   0.0000       0.146628         3.9899
  28   0.0000       0.158993         4.3264

MULLIKEN ATOMIC CHARGES
-----------------------
   0 C :   -0.114515
   1 N :   -0.341562
   2 C :    0.312269
   3 N :   -0.489815
   4 C :   -0.427752
   5 H :    0.065560
   6 H :    0.063028
   7 H :    0.227233
   8 H :    0.225913
   9 H :    0.255905
  10 C :   -0.315279
  11 H :    0.119052
  12 H :    0.079116
  13 H :    0.121076
  14 H :    0.107463
  15 H :    0.112308
Sum of atomic charges:   -0.0000000

LOEWDIN ATOMIC CHARGES
----------------------
   0 C :   -0.313181
   1 N :    0.096954
   2 C :   -0.460474
   3 N :    0.002278
   4 C :   -0.351212
   5 H :    0.094764
   6 H :    0.099650
   7 H :    0.191104
   8 H :    0.163645
   9 H :    0.178875
  10 C :   -0.303150
  11 H :    0.129116
  12 H :    0.121752
  13 H :    0.118406
  14 H :    0.114835
  15 H :    0.116640

  Mayer bond orders larger than 0.100000
B(  0-C ,  1-N ) :   0.9521 B(  0-C , 10-C ) :   0.9644 B(  0-C , 11-H ) :   0.9778
B(  0-C , 12-H ) :   0.9875 B(  1-N ,  2-C ) :   1.1665 B(  1-N ,  7-H ) :   0.9285
B(  2-C ,  3-N ) :   1.1144 B(  2-C ,  4-C ) :   1.7125 B(  3-N ,  8-H ) :   0.9318
B(  3-N ,  9-H ) :   0.9146 B(  4-C ,  5-H ) :   1.0134 B(  4-C ,  6-H ) :   1.0018
B( 10-C , 13-H ) :   0.9725 B( 10-C , 14-H ) :   0.9768 B( 10-C , 15-H ) :   0.9746

Dispersion correction           -0.003936280
FINAL SINGLE POINT ENERGY      -267.924921145939

DIPOLE MOMENT
-------------
                                X             Y             Z
Electronic contribution:     -0.15168      -2.39990      -2.92559
Nuclear contribution   :     -0.49695       2.43650       4.23017
                        -----------------------------------------
Total Dipole Moment    :     -0.64863       0.03660       1.30458
                        -----------------------------------------
Magnitude (a.u.)       :      1.45739
Magnitude (Debye)      :      3.70439

Rotational constants in cm-1:     0.211102     0.077011     0.069221
Rotational constants in MHz :  6328.667765  2308.731604  2075.192956

                             ****ORCA TERMINATED NORMALLY****
TOTAL RUN TIME: 0 days 0 hours 0 minutes 44 seconds 383 msec
