                         Program Version 5.0.0 -  RELEASE  -
|  1> !wB97X-D3 RIJCOSX def2-TZVP def2/J TightSCF xyzfile
|  2>
|  3> *xyzfile 0 1 D2.xyz
|  4>
|  5> %MaxCore 64000
|  6>
|  7> %pal nprocs 18
|  8> end
|  9>
| 10> %scf
| 11>   MaxIter 150
| 12> end
| 13>
| 14>
| 15>                          ****END OF INPUT****

CARTESIAN COORDINATES (ANGSTROEM)
---------------------------------
  C      2.234473   -2.989754   -2.397622
  N      2.756799   -2.945553   -3.765029
  C     -1.104325    0.251374   -2.860056
  C     -0.711893    0.842517   -4.218344
  H      0.154626    1.499800   -4.130909
  H     -1.538134    1.459222   -4.582671
  C     -0.397624   -0.205875   -5.288018
  C      1.987208   -2.590451   -4.818975
  C      0.743221   -3.017493   -4.913524
  N      2.499636   -1.848598   -5.803241
  H      3.309780   -1.292818   -5.558947
  H      1.801025   -1.304298   -6.289129
  H      3.716116   -2.628797   -3.829533
  H      0.395828   -3.627747   -4.185024
  H      0.039201   -2.454383   -5.371367
  F      0.617165   -0.005348   -5.998273
  O     -1.133173   -1.221380   -5.341465
  C      2.191199   -1.619503   -1.715492
  H      2.872783   -3.666368   -1.828014
  H      1.246188   -3.447444   -2.407842
  C      1.298729   -0.554314   -2.359773
  H      1.872917   -1.787955   -0.681310
  H      3.216809   -1.238432   -1.654428
  C     -0.196255   -0.863365   -2.325763
  H      1.612531   -0.371346   -3.393065
  H      1.480944    0.388638   -1.834444
  H     -0.404105   -1.761825   -2.909448
  H     -0.490439   -1.087880   -1.294131
  H     -1.143842    1.066711   -2.129680
  H     -2.114401   -0.156834   -2.930323

 Total Charge           Charge          ....    0
 Multiplicity           Mult            ....    1
 Number of Electrons    NEL             ....  102
 Basis Dimension        Dim             ....  505

ORBITAL ENERGIES
----------------

  NO   OCC          E(Eh)            E(eV)
   0   2.0000     -24.874165      -676.8604
   1   2.0000     -19.242754      -523.6220
   2   2.0000     -14.413531      -392.2121
   3   2.0000     -14.405352      -391.9895
   4   2.0000     -10.463904      -284.7373
   5   2.0000     -10.310476      -280.5623
   6   2.0000     -10.306356      -280.4502
   7   2.0000     -10.302414      -280.3429
   8   2.0000     -10.288543      -279.9655
   9   2.0000     -10.276992      -279.6512
  10   2.0000     -10.276061      -279.6258
  11   2.0000     -10.270149      -279.4650
  12   2.0000     -10.165206      -276.6093
  13   2.0000      -1.456896       -39.6442
  14   2.0000      -1.162188       -31.6247
  15   2.0000      -1.075602       -29.2686
  16   2.0000      -0.996129       -27.1061
  17   2.0000      -0.941761       -25.6266
  18   2.0000      -0.902136       -24.5484
  19   2.0000      -0.850023       -23.1303
  20   2.0000      -0.821714       -22.3600
  21   2.0000      -0.803517       -21.8648
  22   2.0000      -0.773412       -21.0456
  23   2.0000      -0.729317       -19.8457
  24   2.0000      -0.696030       -18.9399
  25   2.0000      -0.674799       -18.3622
  26   2.0000      -0.653992       -17.7960
  27   2.0000      -0.650749       -17.7078
  28   2.0000      -0.634637       -17.2694
  29   2.0000      -0.627822       -17.0839
  30   2.0000      -0.596939       -16.2435
  31   2.0000      -0.584741       -15.9116
  32   2.0000      -0.571706       -15.5569
  33   2.0000      -0.549111       -14.9421
  34   2.0000      -0.544189       -14.8081
  35   2.0000      -0.523022       -14.2321
  36   2.0000      -0.513507       -13.9732
  37   2.0000      -0.506215       -13.7748
  38   2.0000      -0.494983       -13.4692
  39   2.0000      -0.481153       -13.0928
  40   2.0000      -0.470758       -12.8100
  41   2.0000      -0.461284       -12.5522
  42   2.0000      -0.456603       -12.4248
  43   2.0000      -0.449740       -12.2380
  44   2.0000      -0.439301       -11.9540
  45   2.0000      -0.424138       -11.5414
  46   2.0000      -0.414238       -11.2720
  47   2.0000      -0.411249       -11.1906
  48   2.0000      -0.379764       -10.3339
  49   2.0000      -0.335564        -9.1312
  50   2.0000      -0.248560        -6.7637
  51   0.0000       0.045303         1.2328
  52   0.0000       0.098460         2.6792
  53   0.0000       0.116305         3.1648
  54   0.0000       0.125818         3.4237
  55   0.0000       0.136977         3.7273

MULLIKEN ATOMIC CHARGES
-----------------------
   0 C :   -0.127270
   1 N :   -0.318185
   2 C :   -0.186743
   3 C :   -0.227906
   4 H :    0.131459
   5 H :    0.148388
   6 C :    0.395492
   7 C :    0.230621
   8 C :   -0.493610
   9 N :   -0.432715
  10 H :    0.203915
  11 H :    0.236650
  12 H :    0.190919
  13 H :    0.074605
  14 H :    0.138285
  15 F :   -0.138050
  16 O :   -0.337750
  17 C :   -0.226560
  18 H :    0.125233
  19 H :    0.129681
  20 C :   -0.146957
  21 H :    0.099332
  22 H :    0.103078
  23 C :   -0.237356
  24 H :    0.082586
  25 H :    0.103799
  26 H :    0.139864
  27 H :    0.102440
  28 H :    0.113973
  29 H :    0.122781
Sum of atomic charges:    0.0000000

LOEWDIN ATOMIC CHARGES
----------------------
   0 C :   -0.276513
   1 N :    0.098614
   2 C :   -0.254848
   3 C :   -0.235409
   4 H :    0.143135
   5 H :    0.158212
   6 C :   -0.487410
   7 C :   -0.487144
   8 C :   -0.305280
   9 N :   -0.027973
  10 H :    0.152111
  11 H :    0.164991
  12 H :    0.172671
  13 H :    0.095203
  14 H :    0.095040
  15 F :    0.328095
  16 O :    0.092767
  17 C :   -0.271051
  18 H :    0.131287
  19 H :    0.137514
  20 C :   -0.266536
  21 H :    0.138770
  22 H :    0.132900
  23 C :   -0.266302
  24 H :    0.133721
  25 H :    0.136074
  26 H :    0.145180
  27 H :    0.137152
  28 H :    0.139335
  29 H :    0.145697

  Mayer bond orders larger than 0.100000
B(  0-C ,  1-N ) :   0.9106 B(  0-C , 17-C ) :   0.9813 B(  0-C , 18-H ) :   0.9837
B(  0-C , 19-H ) :   0.9831 B(  1-N ,  7-C ) :   1.1289 B(  1-N , 12-H ) :   0.9279
B(  2-C ,  3-C ) :   0.9661 B(  2-C , 23-C ) :   0.9831 B(  2-C , 28-H ) :   0.9738
B(  2-C , 29-H ) :   0.9685 B(  3-C ,  4-H ) :   0.9632 B(  3-C ,  5-H ) :   0.9433
B(  3-C ,  6-C ) :   0.9955 B(  6-C , 15-F ) :   1.0849 B(  6-C , 16-O ) :   1.9987
B(  7-C ,  8-C ) :   1.6035 B(  7-C ,  9-N ) :   1.1564 B(  8-C , 13-H ) :   1.0362
B(  8-C , 14-H ) :   0.9946 B(  9-N , 10-H ) :   0.9282 B(  9-N , 11-H ) :   0.9147
B( 17-C , 20-C ) :   0.9758 B( 17-C , 21-H ) :   0.9747 B( 17-C , 22-H ) :   0.9827
B( 20-C , 23-C ) :   0.9284 B( 20-C , 24-H ) :   0.9590 B( 20-C , 25-H ) :   0.9756
B( 23-C , 26-H ) :   0.9742 B( 23-C , 27-H ) :   0.9741

Dispersion correction           -0.015856260
FINAL SINGLE POINT ENERGY      -637.779389685548

DIPOLE MOMENT
-------------
                                X             Y             Z
Electronic contribution:     -1.45938       2.21351     -13.54643
Nuclear contribution   :      2.00823      -0.28769      14.57028
                        -----------------------------------------
Total Dipole Moment    :      0.54885       1.92582       1.02385
                        -----------------------------------------
Magnitude (a.u.)       :      2.24906
Magnitude (Debye)      :      5.71667

Rotational constants in cm-1:     0.033070     0.023715     0.016943
Rotational constants in MHz :   991.423248   710.957140   507.940500

                             ****ORCA TERMINATED NORMALLY****
TOTAL RUN TIME: 0 days 0 hours 1 minutes 24 seconds 426 msec
