                         Program Version 5.0.0 -  RELEASE  -
|  1> !PBE D3BJ RIJCOSX def2-SVPD def2/J TightSCF
|  2> *xyz -1 1
|  3> C         -0.25875        1.00432       -5.40983
|  4> C          0.39596       -0.37070       -5.33994
|  5> O         -0.32633       -1.39040       -5.49128
|  6> O          1.61941       -0.40073       -5.03683
|  7> H         -1.28979        0.89539       -5.67439
|  8> H          0.23798        1.59877       -6.14792
|  9> H         -0.18395        1.48386       -4.45623
| 10> *
| 11> %MaxCore 64000
| 12>
| 13> %pal nprocs 4
| 14> end
| 15>
| 16> %scf
| 17>   MaxIter 150
| 18> end
| 19>
| 20>
| 21>                          ****END OF INPUT****

CARTESIAN COORDINATES (ANGSTROEM)
---------------------------------
  C     -0.258750    1.004320   -5.409830
  C      0.395960   -0.370700   -5.339940
  O     -0.326330   -1.390400   -5.491280
  O      1.619410   -0.400730   -5.036830
  H     -1.289790    0.895390   -5.674390
  H      0.237980    1.598770   -6.147920
  H     -0.183950    1.483860   -4.456230

 Total Charge           Charge          ....   -1
 Multiplicity           Mult            ....    1
 Number of Electrons    NEL             ....   32
 Basis Dimension        Dim             ....  110

ORBITAL ENERGIES
----------------

  NO   OCC          E(Eh)            E(eV)
   0   2.0000     -18.502778      -503.4862
   1   2.0000     -18.500375      -503.4208
   2   2.0000      -9.771455      -265.8948
   3   2.0000      -9.707933      -264.1663
   4   2.0000      -0.720052       -19.5936
   5   2.0000      -0.630351       -17.1527
   6   2.0000      -0.469498       -12.7757
   7   2.0000      -0.246594        -6.7102
   8   2.0000      -0.212754        -5.7893
   9   2.0000      -0.197002        -5.3607
  10   2.0000      -0.169959        -4.6248
  11   2.0000      -0.132982        -3.6186
  12   2.0000      -0.120608        -3.2819
  13   2.0000      -0.010018        -0.2726
  14   2.0000       0.001878         0.0511
  15   2.0000       0.022523         0.6129
  16   0.0000       0.156164         4.2494
  17   0.0000       0.196181         5.3384
  18   0.0000       0.200043         5.4434
  19   0.0000       0.224600         6.1117
  20   0.0000       0.241224         6.5640

MULLIKEN ATOMIC CHARGES
-----------------------
   0 C :    0.469195
   1 C :   -0.034463
   2 O :   -0.606440
   3 O :   -0.637896
   4 H :   -0.076055
   5 H :   -0.055473
   6 H :   -0.058867
Sum of atomic charges:   -1.0000000

LOEWDIN ATOMIC CHARGES
----------------------
   0 C :    0.139082
   1 C :   -0.354874
   2 O :   -0.324993
   3 O :   -0.331113
   4 H :   -0.048184
   5 H :   -0.041497
   6 H :   -0.038420

  Mayer bond orders larger than 0.100000
B(  0-C ,  1-C ) :   1.2749 B(  0-C ,  4-H ) :   0.8723 B(  0-C ,  5-H ) :   0.8157
B(  0-C ,  6-H ) :   0.8289 B(  1-C ,  2-O ) :   1.4725 B(  1-C ,  3-O ) :   1.4957
B(  1-C ,  4-H ) :   0.2504 B(  1-C ,  5-H ) :   0.1809 B(  1-C ,  6-H ) :   0.1674

Dispersion correction           -0.003677573
FINAL SINGLE POINT ENERGY      -228.123336950070

DIPOLE MOMENT
-------------
                                X             Y             Z
Electronic contribution:      1.56327      -3.31169       0.19534
Nuclear contribution   :     -2.15615       4.52621      -0.30445
                        -----------------------------------------
Total Dipole Moment    :     -0.59287       1.21452      -0.10911
                        -----------------------------------------
Magnitude (a.u.)       :      1.35590
Magnitude (Debye)      :      3.44642

Rotational constants in cm-1:     0.393591     0.332639     0.186460
Rotational constants in MHz : 11799.557437  9972.275109  5589.926304

                             ****ORCA TERMINATED NORMALLY****
TOTAL RUN TIME: 0 days 0 hours 0 minutes 3 seconds 623 msec
