                         Program Version 5.0.0 -  RELEASE  -
|  1> !PBE D3BJ RIJCOSX def2-SVPD def2/J TightSCF
|  2> *xyz 1 1
|  3> C          0.81607       -2.10149       -2.18655
|  4> N          1.10055       -2.46749       -3.59927
|  5> H          1.70061       -1.75723       -4.07838
|  6> H          0.29386       -2.35977       -4.25632
|  7> H          1.50132       -3.42848       -3.69491
|  8> H          0.40947       -1.11246       -2.14929
|  9> H          1.72290       -2.13590       -1.61965
| 10> H          0.11112       -2.79271       -1.77405
| 11> *
| 12> %MaxCore 64000
| 13>
| 14> %pal nprocs 4
| 15> end
| 16>
| 17> %scf
| 18>   MaxIter 150
| 19> end
| 20>
| 21>
| 22>                          ****END OF INPUT****

CARTESIAN COORDINATES (ANGSTROEM)
---------------------------------
  C      0.816070   -2.101490   -2.186550
  N      1.100550   -2.467490   -3.599270
  H      1.700610   -1.757230   -4.078380
  H      0.293860   -2.359770   -4.256320
  H      1.501320   -3.428480   -3.694910
  H      0.409470   -1.112460   -2.149290
  H      1.722900   -2.135900   -1.619650
  H      0.111120   -2.792710   -1.774050

 Total Charge           Charge          ....    1
 Multiplicity           Mult            ....    1
 Number of Electrons    NEL             ....   18
 Basis Dimension        Dim             ....   88

ORBITAL ENERGIES
----------------

  NO   OCC          E(Eh)            E(eV)
   0   2.0000     -14.351140      -390.5144
   1   2.0000     -10.153599      -276.2935
   2   2.0000      -1.134183       -30.8627
   3   2.0000      -0.872676       -23.7467
   4   2.0000      -0.765289       -20.8246
   5   2.0000      -0.731383       -19.9019
   6   2.0000      -0.673457       -18.3257
   7   2.0000      -0.582649       -15.8547
   8   2.0000      -0.577595       -15.7172
   9   0.0000      -0.231992        -6.3128
  10   0.0000      -0.171883        -4.6772
  11   0.0000      -0.165110        -4.4929
  12   0.0000      -0.152920        -4.1612
  13   0.0000      -0.107579        -2.9274

MULLIKEN ATOMIC CHARGES
-----------------------
   0 C :    1.019626
   1 N :   -0.905635
   2 H :    0.374150
   3 H :    0.359050
   4 H :    0.393704
   5 H :   -0.085384
   6 H :   -0.073798
   7 H :   -0.081712
Sum of atomic charges:    1.0000000

LOEWDIN ATOMIC CHARGES
----------------------
   0 C :    0.279126
   1 N :    0.293636
   2 H :    0.114833
   3 H :    0.115495
   4 H :    0.121464
   5 H :    0.025112
   6 H :    0.025667
   7 H :    0.024668

  Mayer bond orders larger than 0.100000
B(  0-C ,  1-N ) :   0.7738 B(  0-C ,  5-H ) :   0.8796 B(  0-C ,  6-H ) :   0.8740
B(  0-C ,  7-H ) :   0.8844 B(  1-N ,  2-H ) :   0.7507 B(  1-N ,  3-H ) :   0.7690
B(  1-N ,  4-H ) :   0.6999 B(  1-N ,  5-H ) :   0.1060 B(  1-N ,  6-H ) :   0.1077
B(  1-N ,  7-H ) :   0.1006

Dispersion correction           -0.003350255
FINAL SINGLE POINT ENERGY       -96.014949767776

DIPOLE MOMENT
-------------
                                X             Y             Z
Electronic contribution:      0.21270      -0.31200      -0.96419
Nuclear contribution   :     -0.05716       0.15480       0.08012
                        -----------------------------------------
Total Dipole Moment    :      0.15555      -0.15720      -0.88407
                        -----------------------------------------
Magnitude (a.u.)       :      0.91131
Magnitude (Debye)      :      2.31637

Rotational constants in cm-1:     2.875975     0.681325     0.670600
Rotational constants in MHz : 86219.567947 20425.600745 20104.086440

                             ****ORCA TERMINATED NORMALLY****
TOTAL RUN TIME: 0 days 0 hours 0 minutes 2 seconds 806 msec
