                         Program Version 5.0.0 -  RELEASE  -
|  1> !PBE D3BJ RIJCOSX def2-SVPD def2/J TightSCF xyzfile
|  2>
|  3> *xyzfile 0 1 B.xyz
|  4>
|  5> %MaxCore 64000
|  6>
|  7> %pal nprocs 4
|  8> end
|  9>
| 10> %scf
| 11>   MaxIter 150
| 12> end
| 13>
| 14>
| 15>                          ****END OF INPUT****

CARTESIAN COORDINATES (ANGSTROEM)
---------------------------------
  C      0.816067   -2.101491   -2.186546
  H      1.696232   -2.368691   -1.600457
  N      1.100552   -2.467492   -3.599269
  C      0.516243   -0.613634   -2.039373
  H     -0.020066   -2.712849   -1.840844
  C     -0.868621   -0.193925   -2.546303
  C     -0.984801    1.284739   -2.928686
  H     -0.764939    1.904116   -2.051568
  H     -2.032613    1.478953   -3.178952
  C     -0.106085    1.769914   -4.089836
  H     -0.347744    2.822196   -4.262942
  H      0.949683    1.745875   -3.808781
  C     -0.258747    1.004323   -5.409829
  C      0.395958   -0.370696   -5.339939
  H      0.239150    1.569393   -6.201253
  H     -1.309360    0.888694   -5.682455
  H      1.700606   -1.757225   -4.078378
  H      0.293855   -2.359766   -4.256324
  H      1.501324   -3.428479   -3.694915
  O     -0.326329   -1.390398   -5.491279
  O      1.619412   -0.400726   -5.036827
  H     -1.607271   -0.412651   -1.768955
  H     -1.157234   -0.796164   -3.409254
  H      1.299044   -0.056805   -2.558982
  H      0.612393   -0.365579   -0.979171

 Total Charge           Charge          ....    0
 Multiplicity           Mult            ....    1
 Number of Electrons    NEL             ....   80
 Basis Dimension        Dim             ....  326

ORBITAL ENERGIES
----------------

  NO   OCC          E(Eh)            E(eV)
   0   2.0000     -18.706696      -509.0351
   1   2.0000     -18.705066      -508.9907
   2   2.0000     -14.084421      -383.2566
   3   2.0000      -9.967686      -271.2345
   4   2.0000      -9.965026      -271.1621
   5   2.0000      -9.911600      -269.7083
   6   2.0000      -9.893816      -269.2244
   7   2.0000      -9.889478      -269.1064
   8   2.0000      -9.882910      -268.9276
   9   2.0000      -9.872880      -268.6547
  10   2.0000      -0.935828       -25.4652
  11   2.0000      -0.890507       -24.2319
  12   2.0000      -0.839054       -22.8318
  13   2.0000      -0.736912       -20.0524
  14   2.0000      -0.696730       -18.9590
  15   2.0000      -0.653076       -17.7711
  16   2.0000      -0.594188       -16.1687
  17   2.0000      -0.564019       -15.3477
  18   2.0000      -0.524151       -14.2629
  19   2.0000      -0.508299       -13.8315
  20   2.0000      -0.486322       -13.2335
  21   2.0000      -0.466144       -12.6844
  22   2.0000      -0.429276       -11.6812
  23   2.0000      -0.419173       -11.4063
  24   2.0000      -0.407667       -11.0932
  25   2.0000      -0.396792       -10.7972
  26   2.0000      -0.378657       -10.3038
  27   2.0000      -0.370435       -10.0800
  28   2.0000      -0.353896        -9.6300
  29   2.0000      -0.346193        -9.4204
  30   2.0000      -0.341904        -9.3037
  31   2.0000      -0.330887        -9.0039
  32   2.0000      -0.310200        -8.4410
  33   2.0000      -0.307474        -8.3668
  34   2.0000      -0.286145        -7.7864
  35   2.0000      -0.272274        -7.4090
  36   2.0000      -0.269342        -7.3292
  37   2.0000      -0.216025        -5.8783
  38   2.0000      -0.197331        -5.3696
  39   2.0000      -0.185358        -5.0439
  40   0.0000      -0.029434        -0.8009
  41   0.0000       0.000436         0.0119
  42   0.0000       0.008373         0.2278
  43   0.0000       0.018706         0.5090
  44   0.0000       0.020415         0.5555

MULLIKEN ATOMIC CHARGES
-----------------------
   0 C :    1.076137
   1 H :   -0.185904
   2 N :   -0.514084
   3 C :    0.054857
   4 H :   -0.193377
   5 C :    0.166637
   6 C :    0.342156
   7 H :   -0.070090
   8 H :    0.070011
   9 C :    0.027514
  10 H :   -0.233340
  11 H :    0.102627
  12 C :    0.307830
  13 C :    0.218376
  14 H :    0.000154
  15 H :   -0.053689
  16 H :    0.303838
  17 H :    0.255522
  18 H :    0.234945
  19 O :   -0.648525
  20 O :   -0.686586
  21 H :   -0.160518
  22 H :   -0.186255
  23 H :    0.031547
  24 H :   -0.259786
Sum of atomic charges:    0.0000000

LOEWDIN ATOMIC CHARGES
----------------------
   0 C :    0.081155
   1 H :    0.030342
   2 N :    0.311020
   3 C :   -0.002732
   4 H :    0.035355
   5 C :   -0.014786
   6 C :   -0.023144
   7 H :    0.021793
   8 H :    0.024521
   9 C :   -0.025825
  10 H :    0.018473
  11 H :    0.011381
  12 C :    0.043888
  13 C :   -0.224998
  14 H :    0.031295
  15 H :    0.024825
  16 H :   -0.029003
  17 H :   -0.026888
  18 H :    0.097700
  19 O :   -0.227937
  20 O :   -0.217749
  21 H :    0.023872
  22 H :   -0.002389
  23 H :    0.011247
  24 H :    0.028583

  Mayer bond orders larger than 0.100000
B(  0-C ,  1-H ) :   0.7116 B(  0-C ,  2-N ) :   0.7209 B(  0-C ,  3-C ) :   1.1519
B(  0-C ,  4-H ) :   0.7691 B(  1-H ,  2-N ) :   0.1121 B(  1-H ,  3-C ) :   0.2294
B(  1-H ,  4-H ) :  -0.1281 B(  2-N ,  4-H ) :   0.2269 B(  2-N , 13-C ) :   0.1215
B(  2-N , 16-H ) :   0.7565 B(  2-N , 17-H ) :   0.8514 B(  2-N , 18-H ) :   0.7885
B(  3-C ,  5-C ) :   1.1890 B(  3-C , 21-H ) :   0.2320 B(  3-C , 22-H ) :   0.1367
B(  3-C , 23-H ) :   0.8677 B(  3-C , 24-H ) :   0.8691 B(  5-C ,  6-C ) :   1.2566
B(  5-C ,  7-H ) :   0.1761 B(  5-C ,  8-H ) :   0.2199 B(  5-C ,  9-C ) :   0.1063
B(  5-C , 21-H ) :   0.7550 B(  5-C , 22-H ) :   0.8309 B(  5-C , 23-H ) :   0.1246
B(  5-C , 24-H ) :   0.1800 B(  6-C ,  7-H ) :   0.7933 B(  6-C ,  8-H ) :   0.6342
B(  6-C ,  9-C ) :   1.2567 B(  6-C , 10-H ) :   0.1578 B(  6-C , 11-H ) :   0.1088
B(  6-C , 21-H ) :   0.1283 B(  6-C , 22-H ) :   0.1080 B(  7-H ,  9-C ) :   0.1674
B(  8-H ,  9-C ) :   0.1680 B(  9-C , 10-H ) :   0.8717 B(  9-C , 11-H ) :   0.7772
B(  9-C , 12-C ) :   1.2578 B(  9-C , 14-H ) :   0.1760 B(  9-C , 15-H ) :   0.1324
B( 10-H , 11-H ) :  -0.1217 B( 10-H , 12-C ) :   0.1237 B( 11-H , 12-C ) :   0.1113
B( 12-C , 13-C ) :   1.1702 B( 12-C , 14-H ) :   0.6888 B( 12-C , 15-H ) :   0.8213
B( 13-C , 14-H ) :   0.1818 B( 13-C , 15-H ) :   0.2638 B( 13-C , 19-O ) :   1.4159
B( 13-C , 20-O ) :   1.3359 B( 16-H , 20-O ) :   0.2257 B( 17-H , 19-O ) :   0.2272
B( 19-O , 20-O ) :   0.1090

Dispersion correction           -0.026802072
FINAL SINGLE POINT ENERGY      -480.108363187679

DIPOLE MOMENT
-------------
                                X             Y             Z
Electronic contribution:      2.29609      -3.07595      -6.30631
Nuclear contribution   :     -2.02598       1.95876       8.24116
                        -----------------------------------------
Total Dipole Moment    :      0.27011      -1.11718       1.93485
                        -----------------------------------------
Magnitude (a.u.)       :      2.25049
Magnitude (Debye)      :      5.72029

Rotational constants in cm-1:     0.052900     0.041948     0.028766
Rotational constants in MHz :  1585.892512  1257.572595   862.390225

                             ****ORCA TERMINATED NORMALLY****
TOTAL RUN TIME: 0 days 0 hours 0 minutes 29 seconds 238 msec
