                         Program Version 5.0.0 -  RELEASE  -
|  1> !PBE D3BJ RIJCOSX def2-SVPD def2/J TightSCF
|  2> *xyz 0 1
|  3> C         -0.25875        1.00432       -5.40983
|  4> C          0.39596       -0.37070       -5.33994
|  5> F         -0.32633       -1.39040       -5.49128
|  6> O          1.61941       -0.40073       -5.03683
|  7> H         -1.28979        0.89539       -5.67439
|  8> H          0.23798        1.59877       -6.14792
|  9> H         -0.18395        1.48386       -4.45623
| 10> *
| 11> %MaxCore 64000
| 12>
| 13> %pal nprocs 4
| 14> end
| 15>
| 16> %scf
| 17>   MaxIter 150
| 18> end
| 19>
| 20>
| 21>                          ****END OF INPUT****

CARTESIAN COORDINATES (ANGSTROEM)
---------------------------------
  C     -0.258750    1.004320   -5.409830
  C      0.395960   -0.370700   -5.339940
  F     -0.326330   -1.390400   -5.491280
  O      1.619410   -0.400730   -5.036830
  H     -1.289790    0.895390   -5.674390
  H      0.237980    1.598770   -6.147920
  H     -0.183950    1.483860   -4.456230

 Total Charge           Charge          ....    0
 Multiplicity           Mult            ....    1
 Number of Electrons    NEL             ....   32
 Basis Dimension        Dim             ....  110

ORBITAL ENERGIES
----------------

  NO   OCC          E(Eh)            E(eV)
   0   2.0000     -24.347627      -662.5326
   1   2.0000     -18.773729      -510.8591
   2   2.0000     -10.072956      -274.0991
   3   2.0000      -9.924024      -270.0464
   4   2.0000      -1.205906       -32.8144
   5   2.0000      -0.938231       -25.5306
   6   2.0000      -0.698910       -19.0183
   7   2.0000      -0.596180       -16.2229
   8   2.0000      -0.493015       -13.4156
   9   2.0000      -0.486708       -13.2440
  10   2.0000      -0.447611       -12.1801
  11   2.0000      -0.401128       -10.9152
  12   2.0000      -0.387931       -10.5561
  13   2.0000      -0.353604        -9.6221
  14   2.0000      -0.315695        -8.5905
  15   2.0000      -0.248452        -6.7607
  16   0.0000      -0.075695        -2.0598
  17   0.0000      -0.005619        -0.1529
  18   0.0000       0.043307         1.1784
  19   0.0000       0.066318         1.8046
  20   0.0000       0.070761         1.9255

MULLIKEN ATOMIC CHARGES
-----------------------
   0 C :    0.432942
   1 C :    0.339798
   2 F :   -0.303071
   3 O :   -0.453421
   4 H :   -0.041589
   5 H :    0.010455
   6 H :    0.014886
Sum of atomic charges:   -0.0000000

LOEWDIN ATOMIC CHARGES
----------------------
   0 C :    0.212199
   1 C :   -0.059782
   2 F :   -0.020458
   3 O :   -0.125983
   4 H :   -0.015174
   5 H :    0.003778
   6 H :    0.005420

  Mayer bond orders larger than 0.100000
B(  0-C ,  1-C ) :   1.2857 B(  0-C ,  4-H ) :   0.8745 B(  0-C ,  5-H ) :   0.7940
B(  0-C ,  6-H ) :   0.8068 B(  1-C ,  2-F ) :   0.8326 B(  1-C ,  3-O ) :   1.8002
B(  1-C ,  4-H ) :   0.1641 B(  1-C ,  5-H ) :   0.1584 B(  1-C ,  6-H ) :   0.1419

Dispersion correction           -0.003399790
FINAL SINGLE POINT ENERGY      -252.640789392924

DIPOLE MOMENT
-------------
                                X             Y             Z
Electronic contribution:      0.47673      -5.07310      -0.08604
Nuclear contribution   :     -1.44986       5.66477      -0.12483
                        -----------------------------------------
Total Dipole Moment    :     -0.97313       0.59167      -0.21087
                        -----------------------------------------
Magnitude (a.u.)       :      1.15824
Magnitude (Debye)      :      2.94401

Rotational constants in cm-1:     0.371735     0.317798     0.176902
Rotational constants in MHz : 11144.324945  9527.341239  5303.391856

                             ****ORCA TERMINATED NORMALLY****
TOTAL RUN TIME: 0 days 0 hours 0 minutes 3 seconds 512 msec
