                         Program Version 5.0.0 -  RELEASE  -
|  1> !PBE D3BJ RIJCOSX def2-SVPD def2/J TightSCF
|  2> *xyz 0 1
|  3> C          0.81607       -2.10149       -2.18655
|  4> C          1.10055       -2.46749       -3.59927
|  5> H          1.70061       -1.75723       -4.07838
|  6> H          0.29386       -2.35977       -4.25632
|  7> H          1.50132       -3.42848       -3.69491
|  8> H          0.40947       -1.11246       -2.14929
|  9> H          1.72290       -2.13590       -1.61965
| 10> H          0.11112       -2.79271       -1.77405
| 11> *
| 12> %MaxCore 64000
| 13>
| 14> %pal nprocs 4
| 15> end
| 16>
| 17> %scf
| 18>   MaxIter 150
| 19> end
| 20>
| 21>
| 22>                          ****END OF INPUT****

CARTESIAN COORDINATES (ANGSTROEM)
---------------------------------
  C      0.816070   -2.101490   -2.186550
  C      1.100550   -2.467490   -3.599270
  H      1.700610   -1.757230   -4.078380
  H      0.293860   -2.359770   -4.256320
  H      1.501320   -3.428480   -3.694910
  H      0.409470   -1.112460   -2.149290
  H      1.722900   -2.135900   -1.619650
  H      0.111120   -2.792710   -1.774050

 Total Charge           Charge          ....    0
 Multiplicity           Mult            ....    1
 Number of Electrons    NEL             ....   18
 Basis Dimension        Dim             ....   88

ORBITAL ENERGIES
----------------

  NO   OCC          E(Eh)            E(eV)
   0   2.0000      -9.875694      -268.7313
   1   2.0000      -9.866793      -268.4891
   2   2.0000      -0.689562       -18.7639
   3   2.0000      -0.556116       -15.1327
   4   2.0000      -0.404896       -11.0178
   5   2.0000      -0.387341       -10.5401
   6   2.0000      -0.333408        -9.0725
   7   2.0000      -0.308134        -8.3848
   8   2.0000      -0.288337        -7.8460
   9   0.0000       0.011414         0.3106
  10   0.0000       0.043492         1.1835
  11   0.0000       0.079879         2.1736
  12   0.0000       0.084544         2.3006
  13   0.0000       0.102112         2.7786

MULLIKEN ATOMIC CHARGES
-----------------------
   0 C :    0.315059
   1 C :    0.402642
   2 H :   -0.175143
   3 H :   -0.190860
   4 H :   -0.159105
   5 H :   -0.056356
   6 H :   -0.065490
   7 H :   -0.070747
Sum of atomic charges:    0.0000000

LOEWDIN ATOMIC CHARGES
----------------------
   0 C :    0.076162
   1 C :    0.065242
   2 H :   -0.032599
   3 H :   -0.033027
   4 H :   -0.024584
   5 H :   -0.016435
   6 H :   -0.016692
   7 H :   -0.018068

  Mayer bond orders larger than 0.100000
B(  0-C ,  1-C ) :   1.4929 B(  0-C ,  2-H ) :   0.1491 B(  0-C ,  3-H ) :   0.1363
B(  0-C ,  4-H ) :   0.1625 B(  0-C ,  5-H ) :   0.8568 B(  0-C ,  6-H ) :   0.8347
B(  0-C ,  7-H ) :   0.8512 B(  1-C ,  2-H ) :   0.7794 B(  1-C ,  3-H ) :   0.7843
B(  1-C ,  4-H ) :   0.8310 B(  1-C ,  5-H ) :   0.1691 B(  1-C ,  6-H ) :   0.1717
B(  1-C ,  7-H ) :   0.1646 B(  2-H ,  3-H ) :   0.2665

Dispersion correction           -0.003341574
FINAL SINGLE POINT ENERGY       -79.635124609135

DIPOLE MOMENT
-------------
                                X             Y             Z
Electronic contribution:      0.00484      -0.07064       0.12655
Nuclear contribution   :     -0.00793       0.09023      -0.16124
                        -----------------------------------------
Total Dipole Moment    :     -0.00309       0.01959      -0.03469
                        -----------------------------------------
Magnitude (a.u.)       :      0.03996
Magnitude (Debye)      :      0.10158

Rotational constants in cm-1:     2.876169     0.710562     0.698917
Rotational constants in MHz : 86225.370734 21302.115394 20952.991121

                             ****ORCA TERMINATED NORMALLY****
TOTAL RUN TIME: 0 days 0 hours 0 minutes 2 seconds 870 msec
