                         Program Version 5.0.0 -  RELEASE  -
|  1> !PBE D3BJ RIJCOSX def2-SVPD def2/J TightSCF
|  2> *xyz 0 1
|  3> C         -0.25875        1.00432       -5.40983
|  4> C          0.39596       -0.37070       -5.33994
|  5> O         -0.32633       -1.39040       -5.49128
|  6> F          1.61941       -0.40073       -5.03683
|  7> H         -1.28979        0.89539       -5.67439
|  8> H          0.23798        1.59877       -6.14792
|  9> H         -0.18395        1.48386       -4.45623
| 10> *
| 11> %MaxCore 64000
| 12>
| 13> %pal nprocs 4
| 14> end
| 15>
| 16> %scf
| 17>   MaxIter 150
| 18> end
| 19>
| 20>
| 21>                          ****END OF INPUT****

CARTESIAN COORDINATES (ANGSTROEM)
---------------------------------
  C     -0.258750    1.004320   -5.409830
  C      0.395960   -0.370700   -5.339940
  O     -0.326330   -1.390400   -5.491280
  F      1.619410   -0.400730   -5.036830
  H     -1.289790    0.895390   -5.674390
  H      0.237980    1.598770   -6.147920
  H     -0.183950    1.483860   -4.456230

 Total Charge           Charge          ....    0
 Multiplicity           Mult            ....    1
 Number of Electrons    NEL             ....   32
 Basis Dimension        Dim             ....  110

ORBITAL ENERGIES
----------------

  NO   OCC          E(Eh)            E(eV)
   0   2.0000     -24.345579      -662.4769
   1   2.0000     -18.775305      -510.9020
   2   2.0000     -10.072755      -274.0936
   3   2.0000      -9.923864      -270.0421
   4   2.0000      -1.203629       -32.7524
   5   2.0000      -0.939635       -25.5688
   6   2.0000      -0.699939       -19.0463
   7   2.0000      -0.594255       -16.1705
   8   2.0000      -0.492402       -13.3989
   9   2.0000      -0.485552       -13.2126
  10   2.0000      -0.447025       -12.1642
  11   2.0000      -0.399891       -10.8816
  12   2.0000      -0.388123       -10.5614
  13   2.0000      -0.353733        -9.6256
  14   2.0000      -0.319896        -8.7048
  15   2.0000      -0.249017        -6.7761
  16   0.0000      -0.073010        -1.9867
  17   0.0000      -0.005270        -0.1434
  18   0.0000       0.043362         1.1799
  19   0.0000       0.066138         1.7997
  20   0.0000       0.073051         1.9878

MULLIKEN ATOMIC CHARGES
-----------------------
   0 C :    0.442511
   1 C :    0.355705
   2 O :   -0.431280
   3 F :   -0.326549
   4 H :   -0.060912
   5 H :    0.008883
   6 H :    0.011642
Sum of atomic charges:   -0.0000000

LOEWDIN ATOMIC CHARGES
----------------------
   0 C :    0.212393
   1 C :   -0.062174
   2 O :   -0.121619
   3 F :   -0.023717
   4 H :   -0.001262
   5 H :   -0.003553
   6 H :   -0.000067

  Mayer bond orders larger than 0.100000
B(  0-C ,  1-C ) :   1.2703 B(  0-C ,  4-H ) :   0.8773 B(  0-C ,  5-H ) :   0.7980
B(  0-C ,  6-H ) :   0.8058 B(  1-C ,  2-O ) :   1.8208 B(  1-C ,  3-F ) :   0.7928
B(  1-C ,  4-H ) :   0.2167 B(  1-C ,  5-H ) :   0.1417 B(  1-C ,  6-H ) :   0.1333

Dispersion correction           -0.003398048
FINAL SINGLE POINT ENERGY      -252.643155692300

DIPOLE MOMENT
-------------
                                X             Y             Z
Electronic contribution:      3.60461      -3.47922       0.64548
Nuclear contribution   :     -3.46039       4.64214      -0.59441
                        -----------------------------------------
Total Dipole Moment    :      0.14422       1.16292       0.05107
                        -----------------------------------------
Magnitude (a.u.)       :      1.17294
Magnitude (Debye)      :      2.98138

Rotational constants in cm-1:     0.366844     0.321935     0.177045
Rotational constants in MHz : 10997.709774  9651.373819  5307.687677

                             ****ORCA TERMINATED NORMALLY****
TOTAL RUN TIME: 0 days 0 hours 0 minutes 3 seconds 572 msec
