                         Program Version 5.0.0 -  RELEASE  -
|  1> !B3LYP D3BJ RIJCOSX def2-SVPD def2/J TightSCF
|  2> *xyz -1 1
|  3> C          1.87218        0.42790       -2.07750
|  4> S          0.57902        0.14047       -3.29794
|  5> O          0.22886       -1.24687       -3.12787
|  6> O         -0.43927        1.11897       -3.01455
|  7> O          1.24788        0.40347       -4.59565
|  8> H          2.66832       -0.27048       -2.23022
|  9> H          1.46951        0.30034       -1.09440
| 10> H          2.24690        1.42458       -2.18288
| 11> *
| 12>
| 13> %MaxCore 64000
| 14>
| 15> %pal nprocs 8
| 16> end
| 17>
| 18> %scf
| 19>   MaxIter 150
| 20> end
| 21>
| 22>
| 23>                          ****END OF INPUT****

CARTESIAN COORDINATES (ANGSTROEM)
---------------------------------
  C      1.872180    0.427900   -2.077500
  S      0.579020    0.140470   -3.297940
  O      0.228860   -1.246870   -3.127870
  O     -0.439270    1.118970   -3.014550
  O      1.247880    0.403470   -4.595650
  H      2.668320   -0.270480   -2.230220
  H      1.469510    0.300340   -1.094400
  H      2.246900    1.424580   -2.182880

 Total Charge           Charge          ....   -1
 Multiplicity           Mult            ....    1
 Number of Electrons    NEL             ....   50
 Basis Dimension        Dim             ....  140

ORBITAL ENERGIES
----------------

  NO   OCC          E(Eh)            E(eV)
   0   2.0000     -88.881567     -2418.5904
   1   2.0000     -18.919692      -514.8310
   2   2.0000     -18.919605      -514.8286
   3   2.0000     -18.905849      -514.4543
   4   2.0000     -10.032893      -273.0089
   5   2.0000      -7.935187      -215.9274
   6   2.0000      -5.904096      -160.6586
   7   2.0000      -5.903962      -160.6550
   8   2.0000      -5.903616      -160.6456
   9   2.0000      -0.931707       -25.3530
  10   2.0000      -0.794905       -21.6305
  11   2.0000      -0.767831       -20.8937
  12   2.0000      -0.575125       -15.6499
  13   2.0000      -0.384541       -10.4639
  14   2.0000      -0.302872        -8.2416
  15   2.0000      -0.288340        -7.8461
  16   2.0000      -0.287452        -7.8220
  17   2.0000      -0.249428        -6.7873
  18   2.0000      -0.246597        -6.7102
  19   2.0000      -0.153018        -4.1638
  20   2.0000      -0.152249        -4.1429
  21   2.0000      -0.117890        -3.2079
  22   2.0000      -0.111170        -3.0251
  23   2.0000      -0.100806        -2.7431
  24   2.0000      -0.065833        -1.7914
  25   0.0000       0.151244         4.1156
  26   0.0000       0.186482         5.0744
  27   0.0000       0.186917         5.0863
  28   0.0000       0.189496         5.1564
  29   0.0000       0.214461         5.8358

MULLIKEN ATOMIC CHARGES
-----------------------
   0 C :    0.715977
   1 S :    1.114141
   2 O :   -0.765956
   3 O :   -0.762751
   4 O :   -0.809577
   5 H :   -0.160626
   6 H :   -0.167288
   7 H :   -0.163920
Sum of atomic charges:   -1.0000000

LOEWDIN ATOMIC CHARGES
----------------------
   0 C :    0.061935
   1 S :    0.835487
   2 O :   -0.581865
   3 O :   -0.580839
   4 O :   -0.603832
   5 H :   -0.042741
   6 H :   -0.045000
   7 H :   -0.043144

  Mayer bond orders larger than 0.100000
B(  0-C ,  1-S ) :   0.9256 B(  0-C ,  5-H ) :   0.8854 B(  0-C ,  6-H ) :   0.8828
B(  0-C ,  7-H ) :   0.8858 B(  1-S ,  2-O ) :   1.3360 B(  1-S ,  3-O ) :   1.3364
B(  1-S ,  4-O ) :   1.2971 B(  1-S ,  5-H ) :   0.1292 B(  1-S ,  6-H ) :   0.1202
B(  1-S ,  7-H ) :   0.1297

Dispersion correction           -0.011105130
FINAL SINGLE POINT ENERGY      -663.323839498981

DIPOLE MOMENT
-------------
                                X             Y             Z
Electronic contribution:     -3.19602      -0.72064      -2.83361
Nuclear contribution   :      4.08143       0.90272       3.93680
                        -----------------------------------------
Total Dipole Moment    :      0.88540       0.18208       1.10319
                        -----------------------------------------
Magnitude (a.u.)       :      1.42623
Magnitude (Debye)      :      3.62518

Rotational constants in cm-1:     0.171796     0.158241     0.155560
Rotational constants in MHz :  5150.307583  4743.954688  4663.569252

                             ****ORCA TERMINATED NORMALLY****
TOTAL RUN TIME: 0 days 0 hours 0 minutes 6 seconds 915 msec
