                         Program Version 5.0.0 -  RELEASE  -
|  1> !B3LYP D3BJ RIJCOSX def2-SVPD def2/J TightSCF
|  2> *xyz 1 1
|  3> C          3.38093        2.08304       -3.35013
|  4> N          4.53592        1.18245       -3.42852
|  5> C          4.67196        0.12227       -4.22060
|  6> N          5.86602       -0.50785       -4.22428
|  7> N          3.69888       -0.31284       -4.98699
|  8> H          2.73141       -0.05009       -4.84900
|  9> H          3.89005       -1.05517       -5.64373
| 10> H          5.25193        1.30346       -2.72101
| 11> H          6.69516       -0.06232       -3.85160
| 12> H          5.97538       -1.39688       -4.69141
| 13> H          2.69962        1.85926       -4.14426
| 14> H          3.71221        3.09654       -3.43937
| 15> H          2.88835        1.95032       -2.40957
| 16> *
| 17>
| 18> %MaxCore 64000
| 19>
| 20> %pal nprocs 8
| 21> end
| 22>
| 23> %scf
| 24>   MaxIter 150
| 25> end
| 26>
| 27>
| 28>                          ****END OF INPUT****

CARTESIAN COORDINATES (ANGSTROEM)
---------------------------------
  C      3.380930    2.083040   -3.350130
  N      4.535920    1.182450   -3.428520
  C      4.671960    0.122270   -4.220600
  N      5.866020   -0.507850   -4.224280
  N      3.698880   -0.312840   -4.986990
  H      2.731410   -0.050090   -4.849000
  H      3.890050   -1.055170   -5.643730
  H      5.251930    1.303460   -2.721010
  H      6.695160   -0.062320   -3.851600
  H      5.975380   -1.396880   -4.691410
  H      2.699620    1.859260   -4.144260
  H      3.712210    3.096540   -3.439370
  H      2.888350    1.950320   -2.409570

 Total Charge           Charge          ....    1
 Multiplicity           Mult            ....    1
 Number of Electrons    NEL             ....   40
 Basis Dimension        Dim             ....  164

ORBITAL ENERGIES
----------------

  NO   OCC          E(Eh)            E(eV)
   0   2.0000     -14.560472      -396.2106
   1   2.0000     -14.558511      -396.1572
   2   2.0000     -14.552361      -395.9899
   3   2.0000     -10.523120      -286.3487
   4   2.0000     -10.390036      -282.7273
   5   2.0000      -1.208870       -32.8950
   6   2.0000      -1.099967       -29.9316
   7   2.0000      -1.084370       -29.5072
   8   2.0000      -0.902525       -24.5589
   9   2.0000      -0.830392       -22.5961
  10   2.0000      -0.791059       -21.5258
  11   2.0000      -0.754818       -20.5397
  12   2.0000      -0.701611       -19.0918
  13   2.0000      -0.699030       -19.0216
  14   2.0000      -0.651639       -17.7320
  15   2.0000      -0.637566       -17.3490
  16   2.0000      -0.592874       -16.1329
  17   2.0000      -0.584029       -15.8923
  18   2.0000      -0.483107       -13.1460
  19   2.0000      -0.456659       -12.4263
  20   0.0000      -0.173741        -4.7277
  21   0.0000      -0.158090        -4.3018
  22   0.0000      -0.124169        -3.3788
  23   0.0000      -0.116435        -3.1684
  24   0.0000      -0.096227        -2.6185

MULLIKEN ATOMIC CHARGES
-----------------------
   0 C :    1.393353
   1 N :   -0.532551
   2 C :    1.275748
   3 N :    0.029305
   4 N :    0.095012
   5 H :   -0.096350
   6 H :   -0.101646
   7 H :   -0.273611
   8 H :   -0.108041
   9 H :   -0.065714
  10 H :   -0.260092
  11 H :   -0.176457
  12 H :   -0.178955
Sum of atomic charges:    1.0000000

LOEWDIN ATOMIC CHARGES
----------------------
   0 C :    0.276403
   1 N :    0.022659
   2 C :   -0.039670
   3 N :    0.264599
   4 N :    0.281465
   5 H :    0.030193
   6 H :    0.041282
   7 H :    0.057222
   8 H :    0.034608
   9 H :    0.031547
  10 H :   -0.016202
  11 H :    0.008577
  12 H :    0.007317

  Mayer bond orders larger than 0.100000
B(  0-C ,  1-N ) :   0.9371 B(  0-C ,  7-H ) :  -0.1720 B(  0-C , 10-H ) :   0.7979
B(  0-C , 11-H ) :   0.7387 B(  0-C , 12-H ) :   0.7580 B(  1-N ,  2-C ) :   1.0345
B(  1-N ,  3-N ) :   0.2420 B(  1-N ,  4-N ) :   0.2446 B(  1-N ,  7-H ) :   1.3195
B(  1-N , 10-H ) :   0.2022 B(  1-N , 11-H ) :   0.2030 B(  1-N , 12-H ) :   0.1781
B(  2-C ,  3-N ) :   0.8490 B(  2-C ,  4-N ) :   1.0175 B(  2-C ,  5-H ) :  -0.1619
B(  2-C ,  6-H ) :  -0.1447 B(  2-C ,  7-H ) :  -0.2376 B(  2-C ,  8-H ) :  -0.1775
B(  2-C ,  9-H ) :  -0.1090 B(  3-N ,  4-N ) :   0.1794 B(  3-N ,  8-H ) :   1.2178
B(  3-N ,  9-H ) :   1.1815 B(  4-N ,  5-H ) :   1.1854 B(  4-N ,  6-H ) :   1.2044
B(  5-H ,  6-H ) :  -0.1897 B(  8-H ,  9-H ) :  -0.1729

Dispersion correction           -0.014826860
FINAL SINGLE POINT ENERGY      -244.790461111629

DIPOLE MOMENT
-------------
                                X             Y             Z
Electronic contribution:      1.68913      -1.97366      -0.72304
Nuclear contribution   :     -1.49827       1.51766       0.59175
                        -----------------------------------------
Total Dipole Moment    :      0.19086      -0.45600      -0.13128
                        -----------------------------------------
Magnitude (a.u.)       :      0.51147
Magnitude (Debye)      :      1.30005

Rotational constants in cm-1:     0.316446     0.130424     0.094259
Rotational constants in MHz :  9486.821695  3910.013387  2825.801764

                             ****ORCA TERMINATED NORMALLY****
TOTAL RUN TIME: 0 days 0 hours 0 minutes 10 seconds 232 msec
