                         Program Version 5.0.0 -  RELEASE  -
|  1> !B3LYP D3BJ RIJCOSX def2-SVPD def2/J TightSCF
|  2> *xyz 0 1
|  3> C          1.87218        0.42790       -2.07750
|  4> S          0.57902        0.14047       -3.29794
|  5> F          0.22886       -1.24687       -3.12787
|  6> O         -0.43927        1.11897       -3.01455
|  7> O          1.24788        0.40347       -4.59565
|  8> H          2.66832       -0.27048       -2.23022
|  9> H          1.46951        0.30034       -1.09440
| 10> H          2.24690        1.42458       -2.18288
| 11> *
| 12>
| 13> %MaxCore 64000
| 14>
| 15> %pal nprocs 8
| 16> end
| 17>
| 18> %scf
| 19>   MaxIter 150
| 20> end
| 21>
| 22>
| 23>                          ****END OF INPUT****

CARTESIAN COORDINATES (ANGSTROEM)
---------------------------------
  C      1.872180    0.427900   -2.077500
  S      0.579020    0.140470   -3.297940
  F      0.228860   -1.246870   -3.127870
  O     -0.439270    1.118970   -3.014550
  O      1.247880    0.403470   -4.595650
  H      2.668320   -0.270480   -2.230220
  H      1.469510    0.300340   -1.094400
  H      2.246900    1.424580   -2.182880

 Total Charge           Charge          ....    0
 Multiplicity           Mult            ....    1
 Number of Electrons    NEL             ....   50
 Basis Dimension        Dim             ....  140

ORBITAL ENERGIES
----------------

  NO   OCC          E(Eh)            E(eV)
   0   2.0000     -89.147167     -2425.8177
   1   2.0000     -24.822134      -675.4446
   2   2.0000     -19.159045      -521.3441
   3   2.0000     -19.144775      -520.9558
   4   2.0000     -10.243453      -278.7385
   5   2.0000      -8.201467      -223.1733
   6   2.0000      -6.174499      -168.0167
   7   2.0000      -6.168014      -167.8402
   8   2.0000      -6.166877      -167.8093
   9   2.0000      -1.384757       -37.6812
  10   2.0000      -1.114893       -30.3378
  11   2.0000      -1.008301       -27.4373
  12   2.0000      -0.800574       -21.7847
  13   2.0000      -0.725052       -19.7297
  14   2.0000      -0.611201       -16.6316
  15   2.0000      -0.597093       -16.2477
  16   2.0000      -0.560693       -15.2572
  17   2.0000      -0.482880       -13.1398
  18   2.0000      -0.481053       -13.0901
  19   2.0000      -0.469238       -12.7686
  20   2.0000      -0.444270       -12.0892
  21   2.0000      -0.393632       -10.7113
  22   2.0000      -0.344942        -9.3864
  23   2.0000      -0.330903        -9.0043
  24   2.0000      -0.312599        -8.5062
  25   0.0000      -0.012807        -0.3485
  26   0.0000       0.027270         0.7421
  27   0.0000       0.034076         0.9273
  28   0.0000       0.044604         1.2137
  29   0.0000       0.045409         1.2356

MULLIKEN ATOMIC CHARGES
-----------------------
   0 C :    0.682253
   1 S :    1.270115
   2 F :   -0.378726
   3 O :   -0.616556
   4 O :   -0.659346
   5 H :   -0.095208
   6 H :   -0.097739
   7 H :   -0.104792
Sum of atomic charges:    0.0000000

LOEWDIN ATOMIC CHARGES
----------------------
   0 C :    0.130547
   1 S :    1.106975
   2 F :   -0.257169
   3 O :   -0.461657
   4 O :   -0.482904
   5 H :   -0.016084
   6 H :   -0.017338
   7 H :   -0.002371

  Mayer bond orders larger than 0.100000
B(  0-C ,  1-S ) :   0.9839 B(  0-C ,  5-H ) :   0.8868 B(  0-C ,  6-H ) :   0.8850
B(  0-C ,  7-H ) :   0.8857 B(  1-S ,  2-F ) :   0.7139 B(  1-S ,  3-O ) :   1.5444
B(  1-S ,  4-O ) :   1.5060 B(  1-S ,  5-H ) :   0.1016 B(  1-S ,  7-H ) :   0.1296

Dispersion correction           -0.010398832
FINAL SINGLE POINT ENERGY      -687.805786582632

DIPOLE MOMENT
-------------
                                X             Y             Z
Electronic contribution:     -3.77939      -3.02437      -2.50892
Nuclear contribution   :      4.52607       2.31146       3.82544
                        -----------------------------------------
Total Dipole Moment    :      0.74668      -0.71291       1.31652
                        -----------------------------------------
Magnitude (a.u.)       :      1.67302
Magnitude (Debye)      :      4.25249

Rotational constants in cm-1:     0.162724     0.156586     0.147157
Rotational constants in MHz :  4878.333818  4694.318771  4411.658495

                             ****ORCA TERMINATED NORMALLY****
TOTAL RUN TIME: 0 days 0 hours 0 minutes 7 seconds 82 msec
