                         Program Version 5.0.0 -  RELEASE  -
|  1> !B3LYP D3BJ RIJCOSX def2-SVPD def2/J TightSCF
|  2> *xyz 0 1
|  3> C          3.38093        2.08304       -3.35013
|  4> C          4.53592        1.18245       -3.42852
|  5> C          4.67196        0.12227       -4.22060
|  6> N          5.86602       -0.50785       -4.22428
|  7> N          3.69888       -0.31284       -4.98699
|  8> H          2.73141       -0.05009       -4.84900
|  9> H          3.89005       -1.05517       -5.64373
| 10> H          5.25193        1.30346       -2.72101
| 11> H          6.69516       -0.06232       -3.85160
| 12> H          5.97538       -1.39688       -4.69141
| 13> H          2.69962        1.85926       -4.14426
| 14> H          3.71221        3.09654       -3.43937
| 15> H          2.88835        1.95032       -2.40957
| 16> *
| 17>
| 18> %MaxCore 64000
| 19>
| 20> %pal nprocs 8
| 21> end
| 22>
| 23> %scf
| 24>   MaxIter 150
| 25> end
| 26>
| 27>
| 28>                          ****END OF INPUT****

CARTESIAN COORDINATES (ANGSTROEM)
---------------------------------
  C      3.380930    2.083040   -3.350130
  C      4.535920    1.182450   -3.428520
  C      4.671960    0.122270   -4.220600
  N      5.866020   -0.507850   -4.224280
  N      3.698880   -0.312840   -4.986990
  H      2.731410   -0.050090   -4.849000
  H      3.890050   -1.055170   -5.643730
  H      5.251930    1.303460   -2.721010
  H      6.695160   -0.062320   -3.851600
  H      5.975380   -1.396880   -4.691410
  H      2.699620    1.859260   -4.144260
  H      3.712210    3.096540   -3.439370
  H      2.888350    1.950320   -2.409570

 Total Charge           Charge          ....    0
 Multiplicity           Mult            ....    1
 Number of Electrons    NEL             ....   40
 Basis Dimension        Dim             ....  164

ORBITAL ENERGIES
----------------

  NO   OCC          E(Eh)            E(eV)
   0   2.0000     -14.331896      -389.9907
   1   2.0000     -14.324214      -389.7817
   2   2.0000     -10.222894      -278.1791
   3   2.0000     -10.147361      -276.1237
   4   2.0000     -10.105547      -274.9859
   5   2.0000      -0.950023       -25.8514
   6   2.0000      -0.858406       -23.3584
   7   2.0000      -0.740571       -20.1520
   8   2.0000      -0.651020       -17.7152
   9   2.0000      -0.583320       -15.8729
  10   2.0000      -0.542278       -14.7561
  11   2.0000      -0.503672       -13.7056
  12   2.0000      -0.479632       -13.0514
  13   2.0000      -0.426394       -11.6028
  14   2.0000      -0.401813       -10.9339
  15   2.0000      -0.371484       -10.1086
  16   2.0000      -0.360358        -9.8058
  17   2.0000      -0.339283        -9.2324
  18   2.0000      -0.263274        -7.1640
  19   2.0000      -0.155673        -4.2361
  20   0.0000       0.013329         0.3627
  21   0.0000       0.041273         1.1231
  22   0.0000       0.053729         1.4621
  23   0.0000       0.077698         2.1143
  24   0.0000       0.080714         2.1963

MULLIKEN ATOMIC CHARGES
-----------------------
   0 C :    1.166967
   1 C :   -0.675865
   2 C :    0.967211
   3 N :    0.113136
   4 N :    0.164413
   5 H :   -0.139591
   6 H :   -0.259560
   7 H :   -0.464437
   8 H :   -0.137795
   9 H :   -0.173170
  10 H :   -0.312468
  11 H :   -0.107001
  12 H :   -0.141841
Sum of atomic charges:    0.0000000

LOEWDIN ATOMIC CHARGES
----------------------
   0 C :    0.107385
   1 C :   -0.059957
   2 C :   -0.231898
   3 N :    0.181200
   4 N :    0.195368
   5 H :   -0.003809
   6 H :   -0.010323
   7 H :   -0.056972
   8 H :   -0.001076
   9 H :   -0.021587
  10 H :   -0.045795
  11 H :   -0.026395
  12 H :   -0.026141

  Mayer bond orders larger than 0.100000
B(  0-C ,  1-C ) :   1.1122 B(  0-C ,  7-H ) :   0.1907 B(  0-C , 10-H ) :   0.6933
B(  0-C , 11-H ) :   0.6442 B(  0-C , 12-H ) :   0.6615 B(  1-C ,  2-C ) :   1.5167
B(  1-C ,  3-N ) :   0.4607 B(  1-C ,  4-N ) :   0.3103 B(  1-C ,  7-H ) :   0.8802
B(  1-C , 10-H ) :   0.4491 B(  1-C , 11-H ) :   0.2368 B(  1-C , 12-H ) :   0.2053
B(  2-C ,  3-N ) :   0.7853 B(  2-C ,  4-N ) :   1.0444 B(  2-C ,  6-H ) :  -0.1452
B(  2-C ,  7-H ) :   0.1559 B(  2-C ,  8-H ) :  -0.1411 B(  2-C , 10-H ) :  -0.1401
B(  3-N ,  4-N ) :   0.1179 B(  3-N ,  8-H ) :   1.2204 B(  3-N ,  9-H ) :   1.1452
B(  4-N ,  5-H ) :   1.1753 B(  4-N ,  6-H ) :   1.2693 B(  5-H ,  6-H ) :  -0.1807
B(  8-H ,  9-H ) :  -0.1647 B( 10-H , 11-H ) :   0.1515

Dispersion correction           -0.015611965
FINAL SINGLE POINT ENERGY      -228.324811334823

DIPOLE MOMENT
-------------
                                X             Y             Z
Electronic contribution:      1.57022      -2.45662      -1.22033
Nuclear contribution   :     -1.47697       1.65537       0.71722
                        -----------------------------------------
Total Dipole Moment    :      0.09326      -0.80125      -0.50311
                        -----------------------------------------
Magnitude (a.u.)       :      0.95070
Magnitude (Debye)      :      2.41648

Rotational constants in cm-1:     0.321284     0.131400     0.095192
Rotational constants in MHz :  9631.850868  3939.260061  2853.789421

                             ****ORCA TERMINATED NORMALLY****
TOTAL RUN TIME: 0 days 0 hours 0 minutes 10 seconds 36 msec
