                         Program Version 5.0.0 -  RELEASE  -
|  1> !B3LYP D3BJ RIJCOSX def2-SVPD def2/J TightSCF
|  2> *xyz 0 1
|  3> C          1.87218        0.42790       -2.07750
|  4> S          0.57902        0.14047       -3.29794
|  5> O          0.22886       -1.24687       -3.12787
|  6> F         -0.43927        1.11897       -3.01455
|  7> O          1.24788        0.40347       -4.59565
|  8> H          2.66832       -0.27048       -2.23022
|  9> H          1.46951        0.30034       -1.09440
| 10> H          2.24690        1.42458       -2.18288
| 11> *
| 12>
| 13> %MaxCore 64000
| 14>
| 15> %pal nprocs 8
| 16> end
| 17>
| 18> %scf
| 19>   MaxIter 150
| 20> end
| 21>
| 22>
| 23>                          ****END OF INPUT****

CARTESIAN COORDINATES (ANGSTROEM)
---------------------------------
  C      1.872180    0.427900   -2.077500
  S      0.579020    0.140470   -3.297940
  O      0.228860   -1.246870   -3.127870
  F     -0.439270    1.118970   -3.014550
  O      1.247880    0.403470   -4.595650
  H      2.668320   -0.270480   -2.230220
  H      1.469510    0.300340   -1.094400
  H      2.246900    1.424580   -2.182880

 Total Charge           Charge          ....    0
 Multiplicity           Mult            ....    1
 Number of Electrons    NEL             ....   50
 Basis Dimension        Dim             ....  140

ORBITAL ENERGIES
----------------

  NO   OCC          E(Eh)            E(eV)
   0   2.0000     -89.147298     -2425.8213
   1   2.0000     -24.822294      -675.4490
   2   2.0000     -19.159150      -521.3470
   3   2.0000     -19.144927      -520.9600
   4   2.0000     -10.243316      -278.7348
   5   2.0000      -8.201572      -223.1761
   6   2.0000      -6.174610      -168.0197
   7   2.0000      -6.168099      -167.8425
   8   2.0000      -6.167004      -167.8127
   9   2.0000      -1.385022       -37.6884
  10   2.0000      -1.114459       -30.3260
  11   2.0000      -1.009137       -27.4600
  12   2.0000      -0.799770       -21.7628
  13   2.0000      -0.725194       -19.7335
  14   2.0000      -0.611425       -16.6377
  15   2.0000      -0.596974       -16.2445
  16   2.0000      -0.560983       -15.2651
  17   2.0000      -0.482282       -13.1236
  18   2.0000      -0.481055       -13.0902
  19   2.0000      -0.469941       -12.7877
  20   2.0000      -0.444386       -12.0923
  21   2.0000      -0.393000       -10.6941
  22   2.0000      -0.344219        -9.3667
  23   2.0000      -0.330912        -9.0046
  24   2.0000      -0.313640        -8.5346
  25   0.0000      -0.012876        -0.3504
  26   0.0000       0.027413         0.7459
  27   0.0000       0.032927         0.8960
  28   0.0000       0.044738         1.2174
  29   0.0000       0.045299         1.2327

MULLIKEN ATOMIC CHARGES
-----------------------
   0 C :    0.682841
   1 S :    1.272369
   2 O :   -0.619650
   3 F :   -0.376731
   4 O :   -0.660937
   5 H :   -0.101705
   6 H :   -0.099011
   7 H :   -0.097176
Sum of atomic charges:    0.0000000

LOEWDIN ATOMIC CHARGES
----------------------
   0 C :    0.130462
   1 S :    1.107237
   2 O :   -0.462719
   3 F :   -0.256025
   4 O :   -0.482994
   5 H :   -0.002125
   6 H :   -0.017772
   7 H :   -0.016064

  Mayer bond orders larger than 0.100000
B(  0-C ,  1-S ) :   0.9845 B(  0-C ,  5-H ) :   0.8849 B(  0-C ,  6-H ) :   0.8841
B(  0-C ,  7-H ) :   0.8884 B(  1-S ,  2-O ) :   1.5447 B(  1-S ,  3-F ) :   0.7122
B(  1-S ,  4-O ) :   1.5050 B(  1-S ,  5-H ) :   0.1289 B(  1-S ,  7-H ) :   0.1022

Dispersion correction           -0.010400738
FINAL SINGLE POINT ENERGY      -687.805779050344

DIPOLE MOMENT
-------------
                                X             Y             Z
Electronic contribution:     -4.88853       0.89957      -2.31821
Nuclear contribution   :      5.19357      -0.05217       3.71223
                        -----------------------------------------
Total Dipole Moment    :      0.30504       0.84739       1.39403
                        -----------------------------------------
Magnitude (a.u.)       :      1.65965
Magnitude (Debye)      :      4.21849

Rotational constants in cm-1:     0.163837     0.155047     0.147593
Rotational constants in MHz :  4911.724022  4648.196128  4424.713532

                             ****ORCA TERMINATED NORMALLY****
TOTAL RUN TIME: 0 days 0 hours 0 minutes 6 seconds 994 msec
