                         Program Version 5.0.0 -  RELEASE  -
|  1> !B3LYP D3BJ RIJCOSX def2-SVPD def2/J TightSCF
|  2> *xyz 0 1
|  3> C          3.38093        2.08304       -3.35013
|  4> N          4.53592        1.18245       -3.42852
|  5> C          4.67196        0.12227       -4.22060
|  6> C          5.86602       -0.50785       -4.22428
|  7> N          3.69888       -0.31284       -4.98699
|  8> H          2.73141       -0.05009       -4.84900
|  9> H          3.89005       -1.05517       -5.64373
| 10> H          5.25193        1.30346       -2.72101
| 11> H          6.69516       -0.06232       -3.85160
| 12> H          5.97538       -1.39688       -4.69141
| 13> H          2.69962        1.85926       -4.14426
| 14> H          3.71221        3.09654       -3.43937
| 15> H          2.88835        1.95032       -2.40957
| 16> *
| 17>
| 18> %MaxCore 64000
| 19>
| 20> %pal nprocs 8
| 21> end
| 22>
| 23> %scf
| 24>   MaxIter 150
| 25> end
| 26>
| 27>
| 28>                          ****END OF INPUT****

CARTESIAN COORDINATES (ANGSTROEM)
---------------------------------
  C      3.380930    2.083040   -3.350130
  N      4.535920    1.182450   -3.428520
  C      4.671960    0.122270   -4.220600
  C      5.866020   -0.507850   -4.224280
  N      3.698880   -0.312840   -4.986990
  H      2.731410   -0.050090   -4.849000
  H      3.890050   -1.055170   -5.643730
  H      5.251930    1.303460   -2.721010
  H      6.695160   -0.062320   -3.851600
  H      5.975380   -1.396880   -4.691410
  H      2.699620    1.859260   -4.144260
  H      3.712210    3.096540   -3.439370
  H      2.888350    1.950320   -2.409570

 Total Charge           Charge          ....    0
 Multiplicity           Mult            ....    1
 Number of Electrons    NEL             ....   40
 Basis Dimension        Dim             ....  164

ORBITAL ENERGIES
----------------

  NO   OCC          E(Eh)            E(eV)
   0   2.0000     -14.333234      -390.0271
   1   2.0000     -14.330097      -389.9418
   2   2.0000     -10.229114      -278.3483
   3   2.0000     -10.216729      -278.0113
   4   2.0000     -10.091277      -274.5976
   5   2.0000      -0.958491       -26.0819
   6   2.0000      -0.876827       -23.8597
   7   2.0000      -0.733470       -19.9587
   8   2.0000      -0.657284       -17.8856
   9   2.0000      -0.600864       -16.3503
  10   2.0000      -0.543223       -14.7818
  11   2.0000      -0.493275       -13.4227
  12   2.0000      -0.478298       -13.0152
  13   2.0000      -0.450581       -12.2609
  14   2.0000      -0.408853       -11.1255
  15   2.0000      -0.393622       -10.7110
  16   2.0000      -0.380984       -10.3671
  17   2.0000      -0.355583        -9.6759
  18   2.0000      -0.254556        -6.9268
  19   2.0000      -0.156363        -4.2548
  20   0.0000       0.010406         0.2832
  21   0.0000       0.044020         1.1979
  22   0.0000       0.045165         1.2290
  23   0.0000       0.070325         1.9137
  24   0.0000       0.087285         2.3751

MULLIKEN ATOMIC CHARGES
-----------------------
   0 C :    1.441743
   1 N :   -0.474650
   2 C :    0.710786
   3 C :    0.553959
   4 N :    0.203620
   5 H :   -0.206020
   6 H :   -0.125801
   7 H :   -0.318470
   8 H :   -0.509672
   9 H :   -0.476528
  10 H :   -0.305136
  11 H :   -0.245305
  12 H :   -0.248526
Sum of atomic charges:   -0.0000000

LOEWDIN ATOMIC CHARGES
----------------------
   0 C :    0.223944
   1 N :   -0.034371
   2 C :   -0.241881
   3 C :    0.145414
   4 N :    0.195866
   5 H :   -0.017902
   6 H :    0.009321
   7 H :    0.031149
   8 H :   -0.113380
   9 H :   -0.117282
  10 H :   -0.034978
  11 H :   -0.022443
  12 H :   -0.023457

  Mayer bond orders larger than 0.100000
B(  0-C ,  1-N ) :   0.9114 B(  0-C ,  7-H ) :  -0.1742 B(  0-C , 10-H ) :   0.7905
B(  0-C , 11-H ) :   0.7210 B(  0-C , 12-H ) :   0.7412 B(  1-N ,  2-C ) :   1.0536
B(  1-N ,  3-C ) :   0.2484 B(  1-N ,  4-N ) :   0.1838 B(  1-N ,  7-H ) :   1.2824
B(  1-N , 10-H ) :   0.2254 B(  1-N , 11-H ) :   0.2101 B(  1-N , 12-H ) :   0.1977
B(  2-C ,  3-C ) :   1.3427 B(  2-C ,  4-N ) :   1.0910 B(  2-C ,  5-H ) :  -0.1044
B(  2-C ,  7-H ) :  -0.2181 B(  2-C ,  9-H ) :   0.1823 B(  3-C ,  4-N ) :   0.2196
B(  3-C ,  8-H ) :   0.8302 B(  3-C ,  9-H ) :   0.7272 B(  4-N ,  5-H ) :   1.1889
B(  4-N ,  6-H ) :   1.1738 B(  5-H ,  6-H ) :  -0.1832

Dispersion correction           -0.015471655
FINAL SINGLE POINT ENERGY      -228.311084388501

DIPOLE MOMENT
-------------
                                X             Y             Z
Electronic contribution:      0.16251      -0.80912      -0.46033
Nuclear contribution   :     -1.20756       1.31300       0.55604
                        -----------------------------------------
Total Dipole Moment    :     -1.04506       0.50388       0.09571
                        -----------------------------------------
Magnitude (a.u.)       :      1.16413
Magnitude (Debye)      :      2.95899

Rotational constants in cm-1:     0.323683     0.135884     0.097747
Rotational constants in MHz :  9703.770798  4073.695357  2930.389562

                             ****ORCA TERMINATED NORMALLY****
TOTAL RUN TIME: 0 days 0 hours 0 minutes 9 seconds 484 msec
