                         Program Version 5.0.0 -  RELEASE  -
|  1> !B3LYP D3BJ RIJCOSX def2-SVPD def2/J TightSCF
|  2> *xyz 0 1
|  3> C          1.87218        0.42790       -2.07750
|  4> S          0.57902        0.14047       -3.29794
|  5> O          0.22886       -1.24687       -3.12787
|  6> O         -0.43927        1.11897       -3.01455
|  7> F          1.24788        0.40347       -4.59565
|  8> H          2.66832       -0.27048       -2.23022
|  9> H          1.46951        0.30034       -1.09440
| 10> H          2.24690        1.42458       -2.18288
| 11> *
| 12>
| 13> %MaxCore 64000
| 14>
| 15> %pal nprocs 8
| 16> end
| 17>
| 18> %scf
| 19>   MaxIter 150
| 20> end
| 21>
| 22>
| 23>                          ****END OF INPUT****

CARTESIAN COORDINATES (ANGSTROEM)
---------------------------------
  C      1.872180    0.427900   -2.077500
  S      0.579020    0.140470   -3.297940
  O      0.228860   -1.246870   -3.127870
  O     -0.439270    1.118970   -3.014550
  F      1.247880    0.403470   -4.595650
  H      2.668320   -0.270480   -2.230220
  H      1.469510    0.300340   -1.094400
  H      2.246900    1.424580   -2.182880

 Total Charge           Charge          ....    0
 Multiplicity           Mult            ....    1
 Number of Electrons    NEL             ....   50
 Basis Dimension        Dim             ....  140

ORBITAL ENERGIES
----------------

  NO   OCC          E(Eh)            E(eV)
   0   2.0000     -89.145133     -2425.7624
   1   2.0000     -24.800991      -674.8693
   2   2.0000     -19.158655      -521.3335
   3   2.0000     -19.158627      -521.3327
   4   2.0000     -10.242334      -278.7081
   5   2.0000      -8.199337      -223.1153
   6   2.0000      -6.172119      -167.9519
   7   2.0000      -6.166110      -167.7884
   8   2.0000      -6.164998      -167.7581
   9   2.0000      -1.348710       -36.7003
  10   2.0000      -1.124758       -30.6062
  11   2.0000      -1.030681       -28.0462
  12   2.0000      -0.797121       -21.6908
  13   2.0000      -0.707161       -19.2428
  14   2.0000      -0.594202       -16.1691
  15   2.0000      -0.571851       -15.5609
  16   2.0000      -0.557356       -15.1664
  17   2.0000      -0.484627       -13.1874
  18   2.0000      -0.481158       -13.0930
  19   2.0000      -0.468036       -12.7359
  20   2.0000      -0.450547       -12.2600
  21   2.0000      -0.399353       -10.8669
  22   2.0000      -0.349731        -9.5167
  23   2.0000      -0.343659        -9.3514
  24   2.0000      -0.328771        -8.9463
  25   0.0000      -0.010208        -0.2778
  26   0.0000       0.029002         0.7892
  27   0.0000       0.032202         0.8763
  28   0.0000       0.045592         1.2406
  29   0.0000       0.046330         1.2607

MULLIKEN ATOMIC CHARGES
-----------------------
   0 C :    0.680936
   1 S :    1.279764
   2 O :   -0.631931
   3 O :   -0.630292
   4 F :   -0.398185
   5 H :   -0.094312
   6 H :   -0.106597
   7 H :   -0.099383
Sum of atomic charges:    0.0000000

LOEWDIN ATOMIC CHARGES
----------------------
   0 C :    0.130900
   1 S :    1.104792
   2 O :   -0.463191
   3 O :   -0.462325
   4 F :   -0.274161
   5 H :   -0.015746
   6 H :   -0.003658
   7 H :   -0.016611

  Mayer bond orders larger than 0.100000
B(  0-C ,  1-S ) :   0.9838 B(  0-C ,  5-H ) :   0.8888 B(  0-C ,  6-H ) :   0.8813
B(  0-C ,  7-H ) :   0.8881 B(  1-S ,  2-O ) :   1.5413 B(  1-S ,  3-O ) :   1.5406
B(  1-S ,  4-F ) :   0.6628 B(  1-S ,  5-H ) :   0.1032 B(  1-S ,  6-H ) :   0.1221
B(  1-S ,  7-H ) :   0.1029 B(  2-O ,  3-O ) :   0.1024

Dispersion correction           -0.010400474
FINAL SINGLE POINT ENERGY      -687.824060841612

DIPOLE MOMENT
-------------
                                X             Y             Z
Electronic contribution:     -2.07237      -0.28341      -4.96605
Nuclear contribution   :      3.50800       0.66266       5.29185
                        -----------------------------------------
Total Dipole Moment    :      1.43564       0.37925       0.32580
                        -----------------------------------------
Magnitude (a.u.)       :      1.52021
Magnitude (Debye)      :      3.86406

Rotational constants in cm-1:     0.163942     0.153101     0.149133
Rotational constants in MHz :  4914.860621  4589.839477  4470.901507

                             ****ORCA TERMINATED NORMALLY****
TOTAL RUN TIME: 0 days 0 hours 0 minutes 6 seconds 982 msec
