                         Program Version 5.0.0 -  RELEASE  -
|  1> !B3LYP D3BJ RIJCOSX def2-SVPD def2/J TightSCF
|  2> *xyz 0 1
|  3> C          3.38093        2.08304       -3.35013
|  4> N          4.53592        1.18245       -3.42852
|  5> C          4.67196        0.12227       -4.22060
|  6> N          5.86602       -0.50785       -4.22428
|  7> C          3.69888       -0.31284       -4.98699
|  8> H          2.73141       -0.05009       -4.84900
|  9> H          3.89005       -1.05517       -5.64373
| 10> H          5.25193        1.30346       -2.72101
| 11> H          6.69516       -0.06232       -3.85160
| 12> H          5.97538       -1.39688       -4.69141
| 13> H          2.69962        1.85926       -4.14426
| 14> H          3.71221        3.09654       -3.43937
| 15> H          2.88835        1.95032       -2.40957
| 16> *
| 17>
| 18> %MaxCore 64000
| 19>
| 20> %pal nprocs 8
| 21> end
| 22>
| 23> %scf
| 24>   MaxIter 150
| 25> end
| 26>
| 27>
| 28>                          ****END OF INPUT****

CARTESIAN COORDINATES (ANGSTROEM)
---------------------------------
  C      3.380930    2.083040   -3.350130
  N      4.535920    1.182450   -3.428520
  C      4.671960    0.122270   -4.220600
  N      5.866020   -0.507850   -4.224280
  C      3.698880   -0.312840   -4.986990
  H      2.731410   -0.050090   -4.849000
  H      3.890050   -1.055170   -5.643730
  H      5.251930    1.303460   -2.721010
  H      6.695160   -0.062320   -3.851600
  H      5.975380   -1.396880   -4.691410
  H      2.699620    1.859260   -4.144260
  H      3.712210    3.096540   -3.439370
  H      2.888350    1.950320   -2.409570

 Total Charge           Charge          ....    0
 Multiplicity           Mult            ....    1
 Number of Electrons    NEL             ....   40
 Basis Dimension        Dim             ....  164

ORBITAL ENERGIES
----------------

  NO   OCC          E(Eh)            E(eV)
   0   2.0000     -14.330688      -389.9579
   1   2.0000     -14.326653      -389.8481
   2   2.0000     -10.226855      -278.2869
   3   2.0000     -10.208317      -277.7824
   4   2.0000     -10.096029      -274.7269
   5   2.0000      -0.952055       -25.9067
   6   2.0000      -0.867406       -23.6033
   7   2.0000      -0.716345       -19.4928
   8   2.0000      -0.690114       -18.7790
   9   2.0000      -0.564905       -15.3719
  10   2.0000      -0.544782       -14.8243
  11   2.0000      -0.514169       -13.9912
  12   2.0000      -0.453377       -12.3370
  13   2.0000      -0.440095       -11.9756
  14   2.0000      -0.419334       -11.4107
  15   2.0000      -0.387108       -10.5337
  16   2.0000      -0.381875       -10.3914
  17   2.0000      -0.354544        -9.6476
  18   2.0000      -0.247326        -6.7301
  19   2.0000      -0.168901        -4.5960
  20   0.0000       0.016014         0.4358
  21   0.0000       0.037527         1.0212
  22   0.0000       0.052838         1.4378
  23   0.0000       0.072890         1.9834
  24   0.0000       0.082101         2.2341

MULLIKEN ATOMIC CHARGES
-----------------------
   0 C :    1.402966
   1 N :   -0.441255
   2 C :    0.893087
   3 N :    0.136152
   4 C :    0.244310
   5 H :   -0.307637
   6 H :   -0.492327
   7 H :   -0.401432
   8 H :   -0.239136
   9 H :   -0.076696
  10 H :   -0.238773
  11 H :   -0.227755
  12 H :   -0.251505
Sum of atomic charges:   -0.0000000

LOEWDIN ATOMIC CHARGES
----------------------
   0 C :    0.232867
   1 N :   -0.044634
   2 C :   -0.242476
   3 N :    0.185366
   4 C :    0.154849
   5 H :   -0.108699
   6 H :   -0.102860
   7 H :    0.014809
   8 H :   -0.017305
   9 H :   -0.001785
  10 H :   -0.029373
  11 H :   -0.020949
  12 H :   -0.019811

  Mayer bond orders larger than 0.100000
B(  0-C ,  1-N ) :   0.9213 B(  0-C ,  7-H ) :  -0.1595 B(  0-C , 10-H ) :   0.8243
B(  0-C , 11-H ) :   0.7085 B(  0-C , 12-H ) :   0.7216 B(  1-N ,  2-C ) :   0.9732
B(  1-N ,  3-N ) :   0.1605 B(  1-N ,  4-C ) :   0.3436 B(  1-N ,  7-H ) :   1.3296
B(  1-N , 10-H ) :   0.1772 B(  1-N , 11-H ) :   0.2144 B(  1-N , 12-H ) :   0.2159
B(  2-C ,  3-N ) :   0.9342 B(  2-C ,  4-C ) :   1.4274 B(  2-C ,  5-H ) :   0.1165
B(  2-C ,  6-H ) :   0.1399 B(  2-C ,  7-H ) :  -0.2336 B(  2-C ,  8-H ) :  -0.1254
B(  3-N ,  4-C ) :   0.2735 B(  3-N ,  8-H ) :   1.2319 B(  3-N ,  9-H ) :   1.1550
B(  4-C ,  5-H ) :   0.7199 B(  4-C ,  6-H ) :   0.8887 B(  8-H ,  9-H ) :  -0.1697

Dispersion correction           -0.015554167
FINAL SINGLE POINT ENERGY      -228.315784420600

DIPOLE MOMENT
-------------
                                X             Y             Z
Electronic contribution:      2.30476      -1.01404       0.23350
Nuclear contribution   :     -1.64651       1.35250       0.40156
                        -----------------------------------------
Total Dipole Moment    :      0.65826       0.33846       0.63505
                        -----------------------------------------
Magnitude (a.u.)       :      0.97527
Magnitude (Debye)      :      2.47894

Rotational constants in cm-1:     0.339624     0.131069     0.096565
Rotational constants in MHz : 10181.679558  3929.342810  2894.941560

                             ****ORCA TERMINATED NORMALLY****
TOTAL RUN TIME: 0 days 0 hours 0 minutes 9 seconds 421 msec
