                         Program Version 5.0.0 -  RELEASE  -
|  1> !B3LYP D3BJ RIJCOSX def2-SVPD def2/J TightSCF xyzfile
|  2>
|  3> *xyzfile 0 1 D5.xyz
|  4>
|  5> %MaxCore 64000
|  6>
|  7> %pal nprocs 4
|  8> end
|  9>
| 10> %scf
| 11>   MaxIter 150
| 12> end
| 13>
| 14>
| 15>                          ****END OF INPUT****

CARTESIAN COORDINATES (ANGSTROEM)
---------------------------------
  C      3.380928    2.083045   -3.350127
  N      4.535924    1.182447   -3.428518
  C      2.495557    1.816150   -2.136364
  C      1.872181    0.427903   -2.077497
  H      2.614270   -0.365825   -2.198894
  H      1.389953    0.273087   -1.112360
  S      0.579024    0.140472   -3.297943
  C      4.671956    0.122273   -4.220598
  C      5.866023   -0.507849   -4.224284
  N      3.698881   -0.312844   -4.986988
  H      2.731405   -0.050091   -4.849000
  H      3.890046   -1.055172   -5.643730
  H      5.251933    1.303459   -2.721014
  H      6.695165   -0.062322   -3.851596
  H      5.975383   -1.396884   -4.691414
  O      0.228860   -1.246868   -3.127871
  F     -0.439269    1.118966   -3.014550
  O      1.247881    0.403474   -4.595647
  H      1.697003    2.561969   -2.141109
  H      3.080787    1.987436   -1.225838
  H      2.806463    1.986511   -4.268484
  H      3.778714    3.098282   -3.307383

 Total Charge           Charge          ....    0
 Multiplicity           Mult            ....    1
 Number of Electrons    NEL             ....   96
 Basis Dimension        Dim             ....  324

ORBITAL ENERGIES
----------------

  NO   OCC          E(Eh)            E(eV)
   0   2.0000     -89.163042     -2426.2497
   1   2.0000     -24.837550      -675.8641
   2   2.0000     -19.174529      -521.7655
   3   2.0000     -19.168625      -521.6048
   4   2.0000     -14.331593      -389.9825
   5   2.0000     -14.302691      -389.1960
   6   2.0000     -10.256538      -279.0946
   7   2.0000     -10.228818      -278.3403
   8   2.0000     -10.224010      -278.2095
   9   2.0000     -10.221109      -278.1305
  10   2.0000     -10.084594      -274.4158
  11   2.0000      -8.216975      -223.5953
  12   2.0000      -6.190008      -168.4387
  13   2.0000      -6.183934      -168.2734
  14   2.0000      -6.181944      -168.2193
  15   2.0000      -1.399570       -38.0842
  16   2.0000      -1.134013       -30.8581
  17   2.0000      -1.034940       -28.1622
  18   2.0000      -0.953385       -25.9429
  19   2.0000      -0.872811       -23.7504
  20   2.0000      -0.835191       -22.7267
  21   2.0000      -0.768789       -20.9198
  22   2.0000      -0.729086       -19.8394
  23   2.0000      -0.685536       -18.6544
  24   2.0000      -0.636641       -17.3239
  25   2.0000      -0.615179       -16.7399
  26   2.0000      -0.611592       -16.6423
  27   2.0000      -0.594651       -16.1813
  28   2.0000      -0.575384       -15.6570
  29   2.0000      -0.542125       -14.7520
  30   2.0000      -0.510123       -13.8812
  31   2.0000      -0.500096       -13.6083
  32   2.0000      -0.490851       -13.3567
  33   2.0000      -0.482769       -13.1368
  34   2.0000      -0.464525       -12.6404
  35   2.0000      -0.454651       -12.3717
  36   2.0000      -0.421616       -11.4728
  37   2.0000      -0.415730       -11.3126
  38   2.0000      -0.409181       -11.1344
  39   2.0000      -0.393448       -10.7063
  40   2.0000      -0.382871       -10.4184
  41   2.0000      -0.368694       -10.0327
  42   2.0000      -0.355243        -9.6667
  43   2.0000      -0.344209        -9.3664
  44   2.0000      -0.341380        -9.2894
  45   2.0000      -0.334425        -9.1002
  46   2.0000      -0.248086        -6.7508
  47   2.0000      -0.150693        -4.1006
  48   0.0000      -0.021063        -0.5731
  49   0.0000       0.006177         0.1681
  50   0.0000       0.023780         0.6471
  51   0.0000       0.024991         0.6800
  52   0.0000       0.026829         0.7301

MULLIKEN ATOMIC CHARGES
-----------------------
   0 C :    1.137864
   1 N :   -0.292974
   2 C :    0.361658
   3 C :    0.269864
   4 H :    0.053319
   5 H :   -0.234028
   6 S :    1.623674
   7 C :    0.469902
   8 C :    0.544888
   9 N :    0.759889
  10 H :   -0.510537
  11 H :   -0.229825
  12 H :   -0.285541
  13 H :   -0.477013
  14 H :   -0.377437
  15 O :   -0.643729
  16 F :   -0.471759
  17 O :   -0.874653
  18 H :   -0.096595
  19 H :   -0.139505
  20 H :   -0.144293
  21 H :   -0.443172
Sum of atomic charges:   -0.0000000

LOEWDIN ATOMIC CHARGES
----------------------
   0 C :    0.076420
   1 N :    0.000253
   2 C :   -0.017721
   3 C :   -0.025208
   4 H :    0.034951
   5 H :    0.019302
   6 S :    1.172626
   7 C :   -0.239861
   8 C :    0.145052
   9 N :    0.235446
  10 H :   -0.146956
  11 H :    0.016189
  12 H :    0.032873
  13 H :   -0.117178
  14 H :   -0.115432
  15 O :   -0.439312
  16 F :   -0.242139
  17 O :   -0.460368
  18 H :    0.021746
  19 H :    0.030981
  20 H :   -0.001543
  21 H :    0.019880

  Mayer bond orders larger than 0.100000
B(  0-C ,  1-N ) :   0.9338 B(  0-C ,  2-C ) :   1.0827 B(  0-C , 12-H ) :  -0.2009
B(  0-C , 18-H ) :   0.1673 B(  0-C , 19-H ) :   0.1519 B(  0-C , 20-H ) :   0.7005
B(  0-C , 21-H ) :   0.7316 B(  1-N ,  7-C ) :   1.0275 B(  1-N ,  8-C ) :   0.2162
B(  1-N ,  9-N ) :   0.1260 B(  1-N , 12-H ) :   1.2359 B(  1-N , 20-H ) :   0.2644
B(  1-N , 21-H ) :   0.1743 B(  2-C ,  3-C ) :   1.2141 B(  2-C ,  4-H ) :   0.1490
B(  2-C ,  5-H ) :   0.1803 B(  2-C , 18-H ) :   0.7817 B(  2-C , 19-H ) :   0.7298
B(  2-C , 20-H ) :   0.1580 B(  2-C , 21-H ) :   0.1030 B(  3-C ,  4-H ) :   0.9188
B(  3-C ,  5-H ) :   0.7385 B(  3-C ,  6-S ) :   0.9582 B(  3-C , 17-O ) :   0.1399
B(  3-C , 18-H ) :   0.1345 B(  3-C , 19-H ) :   0.1360 B(  5-H ,  6-S ) :   0.1001
B(  6-S , 15-O ) :   1.5345 B(  6-S , 16-F ) :   0.6124 B(  6-S , 17-O ) :   1.3449
B(  7-C ,  8-C ) :   1.3697 B(  7-C ,  9-N ) :   1.1241 B(  7-C , 11-H ) :  -0.1027
B(  7-C , 12-H ) :  -0.2085 B(  7-C , 13-H ) :   0.1342 B(  7-C , 14-H ) :   0.2274
B(  8-C ,  9-N ) :   0.1513 B(  8-C , 13-H ) :   0.6882 B(  8-C , 14-H ) :   0.7135
B(  9-N , 10-H ) :   0.8862 B(  9-N , 11-H ) :   1.1347 B(  9-N , 17-O ) :  -0.1037
B(  9-N , 20-H ) :   0.1226 B( 10-H , 11-H ) :  -0.2275 B( 10-H , 17-O ) :   0.1654
B( 13-H , 14-H ) :   0.1495 B( 20-H , 21-H ) :  -0.1633

Dispersion correction           -0.041863904
FINAL SINGLE POINT ENERGY      -954.198371534910

DIPOLE MOMENT
-------------
                                X             Y             Z
Electronic contribution:    -17.82618      -1.19257      -0.17227
Nuclear contribution   :     16.78714       2.58368       1.61768
                        -----------------------------------------
Total Dipole Moment    :     -1.03905       1.39111       1.44541
                        -----------------------------------------
Magnitude (a.u.)       :      2.25921
Magnitude (Debye)      :      5.74245

Rotational constants in cm-1:     0.059928     0.020911     0.017993
Rotational constants in MHz :  1796.610847   626.896941   539.414615

                             ****ORCA TERMINATED NORMALLY****
TOTAL RUN TIME: 0 days 0 hours 1 minutes 33 seconds 914 msec
