                         Program Version 5.0.0 -  RELEASE  -
|  1> !B3LYP D3BJ RIJCOSX def2-SVPD def2/J TightSCF xyzfile
|  2>
|  3> *xyzfile 0 1 D8.xyz
|  4>
|  5> %MaxCore 64000
|  6>
|  7> %pal nprocs 4
|  8> end
|  9>
| 10> %scf
| 11>   MaxIter 150
| 12> end
| 13>
| 14>
| 15>                          ****END OF INPUT****

CARTESIAN COORDINATES (ANGSTROEM)
---------------------------------
  C      3.380928    2.083045   -3.350127
  N      4.535924    1.182447   -3.428518
  C      2.495557    1.816150   -2.136364
  C      1.872181    0.427903   -2.077497
  H      2.614270   -0.365825   -2.198894
  H      1.389953    0.273087   -1.112360
  S      0.579024    0.140472   -3.297943
  C      4.671956    0.122273   -4.220598
  C      5.866023   -0.507849   -4.224284
  N      3.698881   -0.312844   -4.986988
  H      2.731405   -0.050091   -4.849000
  H      3.890046   -1.055172   -5.643730
  H      5.251933    1.303459   -2.721014
  H      6.695165   -0.062322   -3.851596
  H      5.975383   -1.396884   -4.691414
  O      0.228860   -1.246868   -3.127871
  O     -0.439269    1.118966   -3.014550
  F      1.247881    0.403474   -4.595647
  H      1.697003    2.561969   -2.141109
  H      3.080787    1.987436   -1.225838
  H      2.806463    1.986511   -4.268484
  H      3.778714    3.098282   -3.307383

 Total Charge           Charge          ....    0
 Multiplicity           Mult            ....    1
 Number of Electrons    NEL             ....   96
 Basis Dimension        Dim             ....  324

ORBITAL ENERGIES
----------------

  NO   OCC          E(Eh)            E(eV)
   0   2.0000     -89.152892     -2425.9735
   1   2.0000     -24.824659      -675.5133
   2   2.0000     -19.169654      -521.6328
   3   2.0000     -19.168748      -521.6081
   4   2.0000     -14.344124      -390.3234
   5   2.0000     -14.333266      -390.0280
   6   2.0000     -10.252294      -278.9791
   7   2.0000     -10.242426      -278.7106
   8   2.0000     -10.238283      -278.5978
   9   2.0000     -10.222495      -278.1682
  10   2.0000     -10.100639      -274.8524
  11   2.0000      -8.207219      -223.3298
  12   2.0000      -6.180442      -168.1784
  13   2.0000      -6.173911      -168.0007
  14   2.0000      -6.172260      -167.9557
  15   2.0000      -1.375842       -37.4386
  16   2.0000      -1.136452       -30.9244
  17   2.0000      -1.040509       -28.3137
  18   2.0000      -0.971784       -26.4436
  19   2.0000      -0.892317       -24.2812
  20   2.0000      -0.835530       -22.7359
  21   2.0000      -0.771879       -21.0039
  22   2.0000      -0.727873       -19.8064
  23   2.0000      -0.700482       -19.0611
  24   2.0000      -0.643269       -17.5043
  25   2.0000      -0.615938       -16.7605
  26   2.0000      -0.611207       -16.6318
  27   2.0000      -0.596810       -16.2400
  28   2.0000      -0.565697       -15.3934
  29   2.0000      -0.539829       -14.6895
  30   2.0000      -0.518928       -14.1207
  31   2.0000      -0.500899       -13.6302
  32   2.0000      -0.494457       -13.4549
  33   2.0000      -0.488656       -13.2970
  34   2.0000      -0.474103       -12.9010
  35   2.0000      -0.463169       -12.6035
  36   2.0000      -0.430624       -11.7179
  37   2.0000      -0.412999       -11.2383
  38   2.0000      -0.409601       -11.1458
  39   2.0000      -0.396856       -10.7990
  40   2.0000      -0.390248       -10.6192
  41   2.0000      -0.382770       -10.4157
  42   2.0000      -0.363981        -9.9044
  43   2.0000      -0.357524        -9.7287
  44   2.0000      -0.345246        -9.3946
  45   2.0000      -0.338066        -9.1992
  46   2.0000      -0.266792        -7.2598
  47   2.0000      -0.166986        -4.5439
  48   0.0000      -0.013637        -0.3711
  49   0.0000       0.007700         0.2095
  50   0.0000       0.021142         0.5753
  51   0.0000       0.024589         0.6691
  52   0.0000       0.036099         0.9823

MULLIKEN ATOMIC CHARGES
-----------------------
   0 C :    1.122223
   1 N :   -0.280561
   2 C :    0.352933
   3 C :    0.326886
   4 H :    0.040030
   5 H :   -0.243107
   6 S :    1.474707
   7 C :    0.512096
   8 C :    0.536429
   9 N :    0.740849
  10 H :   -0.468134
  11 H :   -0.215221
  12 H :   -0.286828
  13 H :   -0.467951
  14 H :   -0.369072
  15 O :   -0.665974
  16 O :   -0.702826
  17 F :   -0.574060
  18 H :   -0.063865
  19 H :   -0.121455
  20 H :   -0.207860
  21 H :   -0.439242
Sum of atomic charges:    0.0000000

LOEWDIN ATOMIC CHARGES
----------------------
   0 C :    0.075441
   1 N :    0.000275
   2 C :   -0.016541
   3 C :   -0.027309
   4 H :    0.021979
   5 H :    0.032291
   6 S :    1.131779
   7 C :   -0.237437
   8 C :    0.153268
   9 N :    0.230830
  10 H :   -0.109010
  11 H :    0.019536
  12 H :    0.036701
  13 H :   -0.110508
  14 H :   -0.111268
  15 O :   -0.445201
  16 O :   -0.445703
  17 F :   -0.281658
  18 H :    0.026334
  19 H :    0.031960
  20 H :    0.001438
  21 H :    0.022806

  Mayer bond orders larger than 0.100000
B(  0-C ,  1-N ) :   0.9401 B(  0-C ,  2-C ) :   1.0830 B(  0-C , 12-H ) :  -0.2036
B(  0-C , 18-H ) :   0.1604 B(  0-C , 19-H ) :   0.1598 B(  0-C , 20-H ) :   0.6925
B(  0-C , 21-H ) :   0.7442 B(  1-N ,  7-C ) :   1.0233 B(  1-N ,  8-C ) :   0.2165
B(  1-N ,  9-N ) :   0.1262 B(  1-N , 12-H ) :   1.2287 B(  1-N , 20-H ) :   0.2645
B(  1-N , 21-H ) :   0.1732 B(  2-C ,  3-C ) :   1.2251 B(  2-C ,  4-H ) :   0.1626
B(  2-C ,  5-H ) :   0.1895 B(  2-C , 18-H ) :   0.8007 B(  2-C , 19-H ) :   0.7182
B(  2-C , 20-H ) :   0.1513 B(  3-C ,  4-H ) :   0.9100 B(  3-C ,  5-H ) :   0.7046
B(  3-C ,  6-S ) :   0.9847 B(  3-C , 17-F ) :   0.1071 B(  3-C , 18-H ) :   0.1510
B(  3-C , 19-H ) :   0.1491 B(  5-H ,  6-S ) :   0.1277 B(  6-S , 15-O ) :   1.5217
B(  6-S , 16-O ) :   1.5041 B(  6-S , 17-F ) :   0.6225 B(  7-C ,  8-C ) :   1.3647
B(  7-C ,  9-N ) :   1.0940 B(  7-C , 11-H ) :  -0.1122 B(  7-C , 12-H ) :  -0.2127
B(  7-C , 13-H ) :   0.1292 B(  7-C , 14-H ) :   0.2213 B(  7-C , 20-H ) :  -0.1028
B(  8-C ,  9-N ) :   0.1600 B(  8-C , 13-H ) :   0.6937 B(  8-C , 14-H ) :   0.7149
B(  9-N , 10-H ) :   0.9092 B(  9-N , 11-H ) :   1.1467 B(  9-N , 20-H ) :   0.1182
B( 10-H , 11-H ) :  -0.1960 B( 10-H , 17-F ) :   0.1109 B( 13-H , 14-H ) :   0.1440
B( 15-O , 16-O ) :   0.1071 B( 20-H , 21-H ) :  -0.1708

Dispersion correction           -0.041474239
FINAL SINGLE POINT ENERGY      -954.205475444279

DIPOLE MOMENT
-------------
                                X             Y             Z
Electronic contribution:    -14.59987      -2.41726      -2.87620
Nuclear contribution   :     14.93782       3.36795       3.35075
                        -----------------------------------------
Total Dipole Moment    :      0.33795       0.95068       0.47456
                        -----------------------------------------
Magnitude (a.u.)       :      1.11499
Magnitude (Debye)      :      2.83409

Rotational constants in cm-1:     0.059219     0.021387     0.018380
Rotational constants in MHz :  1775.354399   641.172207   551.019443

                             ****ORCA TERMINATED NORMALLY****
TOTAL RUN TIME: 0 days 0 hours 1 minutes 24 seconds 38 msec
