                         Program Version 5.0.0 -  RELEASE  -
|  1> !LC-BLYP RIJCOSX def2-SVPD def2/J TightSCF
|  2> *xyz -1 1
|  3> C          4.08422        1.74208       -2.11472
|  4> C          4.26524        2.50052       -0.79589
|  5> H          4.86853        3.39267       -0.98113
|  6> H          3.30764        2.82457       -0.38781
|  7> C          4.98224        1.65026        0.24742
|  8> O          4.36806        1.38927        1.31371
|  9> O          6.12892        1.23351       -0.04562
| 10> H          3.57911        2.36849       -2.81997
| 11> H          3.50424        0.85965       -1.94198
| 12> H          5.04288        1.46841       -2.50327
| 13> *
| 14> %MaxCore 64000
| 15> %pal nprocs 8
| 16> end
| 17> %scf
| 18>   MaxIter 150
| 19> end
| 20>
| 21>
| 22>                          ****END OF INPUT****

CARTESIAN COORDINATES (ANGSTROEM)
---------------------------------
  C      4.084220    1.742080   -2.114720
  C      4.265240    2.500520   -0.795890
  H      4.868530    3.392670   -0.981130
  H      3.307640    2.824570   -0.387810
  C      4.982240    1.650260    0.247420
  O      4.368060    1.389270    1.313710
  O      6.128920    1.233510   -0.045620
  H      3.579110    2.368490   -2.819970
  H      3.504240    0.859650   -1.941980
  H      5.042880    1.468410   -2.503270

 Total Charge           Charge          ....   -1
 Multiplicity           Mult            ....    1
 Number of Electrons    NEL             ....   40
 Basis Dimension        Dim             ....  146

ORBITAL ENERGIES
----------------

  NO   OCC          E(Eh)            E(eV)
   0   2.0000     -18.696688      -508.7628
   1   2.0000     -18.696431      -508.7557
   2   2.0000      -9.974609      -271.4229
   3   2.0000      -9.925261      -270.0801
   4   2.0000      -9.913372      -269.7566
   5   2.0000      -0.908169       -24.7125
   6   2.0000      -0.812315       -22.1042
   7   2.0000      -0.712250       -19.3813
   8   2.0000      -0.579603       -15.7718
   9   2.0000      -0.428140       -11.6503
  10   2.0000      -0.400923       -10.9097
  11   2.0000      -0.362562        -9.8658
  12   2.0000      -0.338689        -9.2162
  13   2.0000      -0.318517        -8.6673
  14   2.0000      -0.312038        -8.4910
  15   2.0000      -0.280897        -7.6436
  16   2.0000      -0.268692        -7.3115
  17   2.0000      -0.151140        -4.1127
  18   2.0000      -0.144396        -3.9292
  19   2.0000      -0.130049        -3.5388
  20   0.0000       0.205222         5.5844
  21   0.0000       0.237986         6.4759
  22   0.0000       0.249966         6.8019
  23   0.0000       0.273781         7.4500
  24   0.0000       0.298561         8.1243

MULLIKEN ATOMIC CHARGES
-----------------------
   0 C :    0.755230
   1 C :   -0.079956
   2 H :   -0.075303
   3 H :   -0.132845
   4 C :    0.127182
   5 O :   -0.563782
   6 O :   -0.587631
   7 H :   -0.166000
   8 H :   -0.163170
   9 H :   -0.113725
Sum of atomic charges:   -1.0000000

LOEWDIN ATOMIC CHARGES
----------------------
   0 C :    0.091606
   1 C :   -0.052734
   2 H :    0.014012
   3 H :    0.004884
   4 C :   -0.351867
   5 O :   -0.315871
   6 O :   -0.308081
   7 H :   -0.039335
   8 H :   -0.018077
   9 H :   -0.024537

  Mayer bond orders larger than 0.100000
B(  0-C ,  1-C ) :   1.2788 B(  0-C ,  2-H ) :   0.1025 B(  0-C ,  3-H ) :   0.1055
B(  0-C ,  7-H ) :   0.7968 B(  0-C ,  8-H ) :   0.8024 B(  0-C ,  9-H ) :   0.7874
B(  1-C ,  2-H ) :   0.8510 B(  1-C ,  3-H ) :   0.9362 B(  1-C ,  4-C ) :   1.0364
B(  1-C ,  7-H ) :   0.1863 B(  1-C ,  8-H ) :   0.1913 B(  1-C ,  9-H ) :   0.2088
B(  3-H ,  4-C ) :   0.1962 B(  4-C ,  5-O ) :   1.6027 B(  4-C ,  6-O ) :   1.6389

FINAL SINGLE POINT ENERGY      -267.062387477899

DIPOLE MOMENT
-------------
                                X             Y             Z
Electronic contribution:      2.39596      -1.42258       5.04118
Nuclear contribution   :     -3.31311       2.28398      -6.76358
                        -----------------------------------------
Total Dipole Moment    :     -0.91715       0.86140      -1.72240
                        -----------------------------------------
Magnitude (a.u.)       :      2.13303
Magnitude (Debye)      :      5.42174

Rotational constants in cm-1:     0.309287     0.135287     0.107346
Rotational constants in MHz :  9272.201029  4055.789113  3218.155789

                             ****ORCA TERMINATED NORMALLY****
TOTAL RUN TIME: 0 days 0 hours 0 minutes 16 seconds 975 msec
