                         Program Version 5.0.0 -  RELEASE  -
|  1> !LC-BLYP RIJCOSX def2-SVPD def2/J TightSCF
|  2> *xyz 1 1
|  3> C          3.91385       -1.65829        3.01513
|  4> N          5.03927       -0.90115        2.49282
|  5> C          6.21038       -1.41726        2.17824
|  6> N          6.53591       -2.67712        2.55608
|  7> N          7.07675       -0.70082        1.47891
|  8> H          7.95464       -1.12155        1.20755
|  9> H          6.75616        0.10664        0.96028
| 10> H          4.84217        0.01761        2.11519
| 11> H          5.99388       -3.12692        3.28278
| 12> C          3.13916       -2.37657        1.91061
| 13> H          3.26723       -0.93940        3.52069
| 14> H          4.24720       -2.35509        3.79006
| 15> H          7.49844       -2.97548        2.46878
| 16> H          2.82969       -1.66654        1.17238
| 17> H          2.27790       -2.85264        2.33072
| 18> H          3.76754       -3.11338        1.45548
| 19> *
| 20> %MaxCore 64000
| 21> %pal nprocs 8
| 22> end
| 23> %scf
| 24>   MaxIter 150
| 25> end
| 26>
| 27>
| 28>                          ****END OF INPUT****

CARTESIAN COORDINATES (ANGSTROEM)
---------------------------------
  C      3.913850   -1.658290    3.015130
  N      5.039270   -0.901150    2.492820
  C      6.210380   -1.417260    2.178240
  N      6.535910   -2.677120    2.556080
  N      7.076750   -0.700820    1.478910
  H      7.954640   -1.121550    1.207550
  H      6.756160    0.106640    0.960280
  H      4.842170    0.017610    2.115190
  H      5.993880   -3.126920    3.282780
  C      3.139160   -2.376570    1.910610
  H      3.267230   -0.939400    3.520690
  H      4.247200   -2.355090    3.790060
  H      7.498440   -2.975480    2.468780
  H      2.829690   -1.666540    1.172380
  H      2.277900   -2.852640    2.330720
  H      3.767540   -3.113380    1.455480

 Total Charge           Charge          ....    1
 Multiplicity           Mult            ....    1
 Number of Electrons    NEL             ....   48
 Basis Dimension        Dim             ....  200

ORBITAL ENERGIES
----------------

  NO   OCC          E(Eh)            E(eV)
   0   2.0000     -14.415219      -392.2580
   1   2.0000     -14.413583      -392.2135
   2   2.0000     -14.411052      -392.1447
   3   2.0000     -10.425467      -283.6914
   4   2.0000     -10.293998      -280.1139
   5   2.0000     -10.221252      -278.1344
   6   2.0000      -1.312910       -35.7261
   7   2.0000      -1.203515       -32.7493
   8   2.0000      -1.185881       -32.2695
   9   2.0000      -1.036128       -28.1945
  10   2.0000      -0.945328       -25.7237
  11   2.0000      -0.908765       -24.7288
  12   2.0000      -0.895552       -24.3692
  13   2.0000      -0.849473       -23.1153
  14   2.0000      -0.797218       -21.6934
  15   2.0000      -0.788767       -21.4634
  16   2.0000      -0.764800       -20.8113
  17   2.0000      -0.738629       -20.0991
  18   2.0000      -0.706758       -19.2319
  19   2.0000      -0.667332       -18.1590
  20   2.0000      -0.632579       -17.2133
  21   2.0000      -0.611515       -16.6402
  22   2.0000      -0.579571       -15.7709
  23   2.0000      -0.549738       -14.9591
  24   0.0000      -0.097311        -2.6480
  25   0.0000      -0.092900        -2.5279
  26   0.0000      -0.062053        -1.6885
  27   0.0000      -0.055559        -1.5118
  28   0.0000      -0.027527        -0.7490

MULLIKEN ATOMIC CHARGES
-----------------------
   0 C :    0.383146
   1 N :   -0.168906
   2 C :    0.952366
   3 N :    0.216310
   4 N :    0.174796
   5 H :   -0.052240
   6 H :   -0.088591
   7 H :   -0.245015
   8 H :   -0.080527
   9 C :    0.932744
  10 H :   -0.378473
  11 H :   -0.160380
  12 H :   -0.193714
  13 H :   -0.114600
  14 H :   -0.049524
  15 H :   -0.127391
Sum of atomic charges:    1.0000000

LOEWDIN ATOMIC CHARGES
----------------------
   0 C :    0.021479
   1 N :    0.056204
   2 C :   -0.060727
   3 N :    0.290948
   4 N :    0.272424
   5 H :    0.040543
   6 H :    0.042449
   7 H :    0.065984
   8 H :    0.013366
   9 C :    0.151184
  10 H :    0.047403
  11 H :    0.029224
  12 H :    0.035802
  13 H :   -0.001905
  14 H :    0.007423
  15 H :   -0.011801

  Mayer bond orders larger than 0.100000
B(  0-C ,  1-N ) :   1.0515 B(  0-C ,  2-C ) :  -0.1042 B(  0-C ,  7-H ) :  -0.1658
B(  0-C ,  9-C ) :   1.2380 B(  0-C , 10-H ) :   0.8138 B(  0-C , 11-H ) :   0.8621
B(  0-C , 13-H ) :   0.2720 B(  0-C , 14-H ) :   0.1899 B(  0-C , 15-H ) :   0.2116
B(  1-N ,  2-C ) :   1.1501 B(  1-N ,  3-N ) :   0.2067 B(  1-N ,  4-N ) :   0.2474
B(  1-N ,  7-H ) :   1.2622 B(  1-N , 10-H ) :   0.2075 B(  1-N , 11-H ) :   0.1290
B(  2-C ,  3-N ) :   1.0180 B(  2-C ,  4-N ) :   0.9577 B(  2-C ,  6-H ) :  -0.1678
B(  2-C ,  7-H ) :  -0.2736 B(  2-C ,  8-H ) :  -0.1221 B(  2-C , 12-H ) :  -0.1519
B(  3-N ,  4-N ) :   0.1359 B(  3-N ,  8-H ) :   1.0779 B(  3-N , 12-H ) :   1.2379
B(  4-N ,  5-H ) :   1.1436 B(  4-N ,  6-H ) :   1.1948 B(  5-H ,  6-H ) :  -0.1733
B(  8-H , 12-H ) :  -0.2041 B(  9-C , 13-H ) :   0.7286 B(  9-C , 14-H ) :   0.7466
B(  9-C , 15-H ) :   0.7870

FINAL SINGLE POINT ENERGY      -283.482466852413

DIPOLE MOMENT
-------------
                                X             Y             Z
Electronic contribution:      4.70140       1.91270       0.08096
Nuclear contribution   :     -3.67981      -1.62355      -0.28562
                        -----------------------------------------
Total Dipole Moment    :      1.02159       0.28916      -0.20466
                        -----------------------------------------
Magnitude (a.u.)       :      1.08127
Magnitude (Debye)      :      2.74837

Rotational constants in cm-1:     0.222027     0.074735     0.065694
Rotational constants in MHz :  6656.200457  2240.503315  1969.451902

                             ****ORCA TERMINATED NORMALLY****
TOTAL RUN TIME: 0 days 0 hours 0 minutes 24 seconds 129 msec
