                         Program Version 5.0.0 -  RELEASE  -
|  1> !LC-BLYP RIJCOSX def2-SVPD def2/J TightSCF
|  2> *xyz 0 1
|  3> C          4.08422        1.74208       -2.11472
|  4> C          4.26524        2.50052       -0.79589
|  5> H          4.86853        3.39267       -0.98113
|  6> H          3.30764        2.82457       -0.38781
|  7> C          4.98224        1.65026        0.24742
|  8> F          4.36806        1.38927        1.31371
|  9> O          6.12892        1.23351       -0.04562
| 10> H          3.57911        2.36849       -2.81997
| 11> H          3.50424        0.85965       -1.94198
| 12> H          5.04288        1.46841       -2.50327
| 13> *
| 14> %MaxCore 64000
| 15> %pal nprocs 8
| 16> end
| 17> %scf
| 18>   MaxIter 150
| 19> end
| 20>
| 21>
| 22>                          ****END OF INPUT****

CARTESIAN COORDINATES (ANGSTROEM)
---------------------------------
  C      4.084220    1.742080   -2.114720
  C      4.265240    2.500520   -0.795890
  H      4.868530    3.392670   -0.981130
  H      3.307640    2.824570   -0.387810
  C      4.982240    1.650260    0.247420
  F      4.368060    1.389270    1.313710
  O      6.128920    1.233510   -0.045620
  H      3.579110    2.368490   -2.819970
  H      3.504240    0.859650   -1.941980
  H      5.042880    1.468410   -2.503270

 Total Charge           Charge          ....    0
 Multiplicity           Mult            ....    1
 Number of Electrons    NEL             ....   40
 Basis Dimension        Dim             ....  146

ORBITAL ENERGIES
----------------

  NO   OCC          E(Eh)            E(eV)
   0   2.0000     -24.548708      -668.0043
   1   2.0000     -18.969632      -516.1899
   2   2.0000     -10.271887      -279.5123
   3   2.0000     -10.120562      -275.3945
   4   2.0000     -10.093064      -274.6462
   5   2.0000      -1.388185       -37.7744
   6   2.0000      -1.122649       -30.5488
   7   2.0000      -0.908492       -24.7213
   8   2.0000      -0.793859       -21.6020
   9   2.0000      -0.745250       -20.2793
  10   2.0000      -0.661760       -18.0074
  11   2.0000      -0.643251       -17.5037
  12   2.0000      -0.613937       -16.7061
  13   2.0000      -0.573304       -15.6004
  14   2.0000      -0.540702       -14.7132
  15   2.0000      -0.505756       -13.7623
  16   2.0000      -0.482587       -13.1318
  17   2.0000      -0.476506       -12.9664
  18   2.0000      -0.453210       -12.3325
  19   2.0000      -0.399002       -10.8574
  20   0.0000       0.044713         1.2167
  21   0.0000       0.066209         1.8016
  22   0.0000       0.095176         2.5899
  23   0.0000       0.105354         2.8668
  24   0.0000       0.128410         3.4942

MULLIKEN ATOMIC CHARGES
-----------------------
   0 C :    0.797777
   1 C :   -0.120462
   2 H :   -0.014903
   3 H :   -0.111197
   4 C :    0.446812
   5 F :   -0.271772
   6 O :   -0.355721
   7 H :   -0.129305
   8 H :   -0.141430
   9 H :   -0.099798
Sum of atomic charges:   -0.0000000

LOEWDIN ATOMIC CHARGES
----------------------
   0 C :    0.131623
   1 C :   -0.007597
   2 H :    0.045555
   3 H :    0.028128
   4 C :   -0.055110
   5 F :   -0.012610
   6 O :   -0.112316
   7 H :   -0.008295
   8 H :   -0.004473
   9 H :   -0.004904

  Mayer bond orders larger than 0.100000
B(  0-C ,  1-C ) :   1.3101 B(  0-C ,  3-H ) :   0.1059 B(  0-C ,  7-H ) :   0.7993
B(  0-C ,  8-H ) :   0.7968 B(  0-C ,  9-H ) :   0.7839 B(  1-C ,  2-H ) :   0.8446
B(  1-C ,  3-H ) :   0.9388 B(  1-C ,  4-C ) :   1.0910 B(  1-C ,  7-H ) :   0.1800
B(  1-C ,  8-H ) :   0.1795 B(  1-C ,  9-H ) :   0.1915 B(  3-H ,  4-C ) :   0.1094
B(  4-C ,  5-F ) :   0.8832 B(  4-C ,  6-O ) :   1.9591 B(  5-F ,  6-O ) :   0.1087

FINAL SINGLE POINT ENERGY      -291.579978061699

DIPOLE MOMENT
-------------
                                X             Y             Z
Electronic contribution:      1.89729      -2.01772       8.11999
Nuclear contribution   :     -2.87511       2.61564      -8.50037
                        -----------------------------------------
Total Dipole Moment    :     -0.97782       0.59791      -0.38038
                        -----------------------------------------
Magnitude (a.u.)       :      1.20761
Magnitude (Debye)      :      3.06949

Rotational constants in cm-1:     0.297822     0.128965     0.102219
Rotational constants in MHz :  8928.481997  3866.271686  3064.463504

                             ****ORCA TERMINATED NORMALLY****
TOTAL RUN TIME: 0 days 0 hours 0 minutes 16 seconds 329 msec
