                         Program Version 5.0.0 -  RELEASE  -
|  1> !LC-BLYP RIJCOSX def2-SVPD def2/J TightSCF
|  2> *xyz 0 1
|  3> C          3.91385       -1.65829        3.01513
|  4> C          5.03927       -0.90115        2.49282
|  5> C          6.21038       -1.41726        2.17824
|  6> N          6.53591       -2.67712        2.55608
|  7> N          7.07675       -0.70082        1.47891
|  8> H          7.95464       -1.12155        1.20755
|  9> H          6.75616        0.10664        0.96028
| 10> H          4.84217        0.01761        2.11519
| 11> H          5.99388       -3.12692        3.28278
| 12> C          3.13916       -2.37657        1.91061
| 13> H          3.26723       -0.93940        3.52069
| 14> H          4.24720       -2.35509        3.79006
| 15> H          7.49844       -2.97548        2.46878
| 16> H          2.82969       -1.66654        1.17238
| 17> H          2.27790       -2.85264        2.33072
| 18> H          3.76754       -3.11338        1.45548
| 19> *
| 20> %MaxCore 64000
| 21> %pal nprocs 8
| 22> end
| 23> %scf
| 24>   MaxIter 150
| 25> end
| 26>
| 27>
| 28>                          ****END OF INPUT****

CARTESIAN COORDINATES (ANGSTROEM)
---------------------------------
  C      3.913850   -1.658290    3.015130
  C      5.039270   -0.901150    2.492820
  C      6.210380   -1.417260    2.178240
  N      6.535910   -2.677120    2.556080
  N      7.076750   -0.700820    1.478910
  H      7.954640   -1.121550    1.207550
  H      6.756160    0.106640    0.960280
  H      4.842170    0.017610    2.115190
  H      5.993880   -3.126920    3.282780
  C      3.139160   -2.376570    1.910610
  H      3.267230   -0.939400    3.520690
  H      4.247200   -2.355090    3.790060
  H      7.498440   -2.975480    2.468780
  H      2.829690   -1.666540    1.172380
  H      2.277900   -2.852640    2.330720
  H      3.767540   -3.113380    1.455480

 Total Charge           Charge          ....    0
 Multiplicity           Mult            ....    1
 Number of Electrons    NEL             ....   48
 Basis Dimension        Dim             ....  200

ORBITAL ENERGIES
----------------

  NO   OCC          E(Eh)            E(eV)
   0   2.0000     -14.189507      -386.1161
   1   2.0000     -14.187308      -386.0563
   2   2.0000     -10.129716      -275.6436
   3   2.0000     -10.060746      -273.7668
   4   2.0000     -10.049586      -273.4631
   5   2.0000     -10.008624      -272.3485
   6   2.0000      -1.054839       -28.7036
   7   2.0000      -0.963176       -26.2094
   8   2.0000      -0.878055       -23.8931
   9   2.0000      -0.796308       -21.6686
  10   2.0000      -0.719905       -19.5896
  11   2.0000      -0.682461       -18.5707
  12   2.0000      -0.646744       -17.5988
  13   2.0000      -0.614197       -16.7131
  14   2.0000      -0.574449       -15.6315
  15   2.0000      -0.542608       -14.7651
  16   2.0000      -0.526531       -14.3276
  17   2.0000      -0.494854       -13.4657
  18   2.0000      -0.484654       -13.1881
  19   2.0000      -0.457461       -12.4481
  20   2.0000      -0.427362       -11.6291
  21   2.0000      -0.416524       -11.3342
  22   2.0000      -0.367714       -10.0060
  23   2.0000      -0.255656        -6.9568
  24   0.0000       0.070179         1.9097
  25   0.0000       0.095562         2.6004
  26   0.0000       0.102399         2.7864
  27   0.0000       0.114734         3.1221
  28   0.0000       0.134514         3.6603

MULLIKEN ATOMIC CHARGES
-----------------------
   0 C :   -0.028934
   1 C :   -0.358067
   2 C :    0.683543
   3 N :    0.169217
   4 N :    0.190565
   5 H :   -0.174447
   6 H :   -0.077224
   7 H :   -0.315047
   8 H :   -0.064662
   9 C :    0.911218
  10 H :   -0.141045
  11 H :   -0.148996
  12 H :   -0.305786
  13 H :   -0.117464
  14 H :   -0.084592
  15 H :   -0.138282
Sum of atomic charges:    0.0000000

LOEWDIN ATOMIC CHARGES
----------------------
   0 C :   -0.112980
   1 C :   -0.047719
   2 C :   -0.241669
   3 N :    0.213125
   4 N :    0.187737
   5 H :   -0.010456
   6 H :    0.007368
   7 H :   -0.041261
   8 H :   -0.017756
   9 C :    0.110576
  10 H :    0.019789
  11 H :    0.006264
  12 H :   -0.014315
  13 H :   -0.014777
  14 H :   -0.022451
  15 H :   -0.021475

  Mayer bond orders larger than 0.100000
B(  0-C ,  1-C ) :   1.3216 B(  0-C ,  7-H ) :   0.3675 B(  0-C ,  9-C ) :   1.2171
B(  0-C , 10-H ) :   0.7211 B(  0-C , 11-H ) :   0.8252 B(  0-C , 13-H ) :   0.2661
B(  0-C , 14-H ) :   0.2045 B(  0-C , 15-H ) :   0.2216 B(  1-C ,  2-C ) :   1.6533
B(  1-C ,  3-N ) :   0.2540 B(  1-C ,  4-N ) :   0.3495 B(  1-C ,  7-H ) :   0.7848
B(  1-C , 10-H ) :   0.3370 B(  1-C , 11-H ) :   0.2599 B(  2-C ,  3-N ) :   0.9793
B(  2-C ,  4-N ) :   0.8822 B(  2-C ,  6-H ) :  -0.1151 B(  2-C ,  7-H ) :   0.2169
B(  2-C , 11-H ) :  -0.1045 B(  2-C , 12-H ) :  -0.1608 B(  3-N ,  8-H ) :   1.0398
B(  3-N , 12-H ) :   1.2778 B(  4-N ,  5-H ) :   1.1341 B(  4-N ,  6-H ) :   1.1663
B(  5-H ,  6-H ) :  -0.1692 B(  8-H , 12-H ) :  -0.1953 B(  9-C , 13-H ) :   0.7581
B(  9-C , 14-H ) :   0.7434 B(  9-C , 15-H ) :   0.7842

FINAL SINGLE POINT ENERGY      -267.018615990749

DIPOLE MOMENT
-------------
                                X             Y             Z
Electronic contribution:      4.58665       1.23382      -0.02405
Nuclear contribution   :     -3.74303      -1.46908      -0.23637
                        -----------------------------------------
Total Dipole Moment    :      0.84362      -0.23526      -0.26042
                        -----------------------------------------
Magnitude (a.u.)       :      0.91371
Magnitude (Debye)      :      2.32248

Rotational constants in cm-1:     0.225937     0.074877     0.065953
Rotational constants in MHz :  6773.424301  2244.750632  1977.214101

                             ****ORCA TERMINATED NORMALLY****
TOTAL RUN TIME: 0 days 0 hours 0 minutes 24 seconds 554 msec
