                         Program Version 5.0.0 -  RELEASE  -
|  1> !LC-BLYP RIJCOSX def2-SVPD def2/J TightSCF
|  2> *xyz 0 1
|  3> C          4.08422        1.74208       -2.11472
|  4> C          4.26524        2.50052       -0.79589
|  5> H          4.86853        3.39267       -0.98113
|  6> H          3.30764        2.82457       -0.38781
|  7> C          4.98224        1.65026        0.24742
|  8> O          4.36806        1.38927        1.31371
|  9> F          6.12892        1.23351       -0.04562
| 10> H          3.57911        2.36849       -2.81997
| 11> H          3.50424        0.85965       -1.94198
| 12> H          5.04288        1.46841       -2.50327
| 13> *
| 14> %MaxCore 64000
| 15> %pal nprocs 8
| 16> end
| 17> %scf
| 18>   MaxIter 150
| 19> end
| 20>
| 21>
| 22>                          ****END OF INPUT****

CARTESIAN COORDINATES (ANGSTROEM)
---------------------------------
  C      4.084220    1.742080   -2.114720
  C      4.265240    2.500520   -0.795890
  H      4.868530    3.392670   -0.981130
  H      3.307640    2.824570   -0.387810
  C      4.982240    1.650260    0.247420
  O      4.368060    1.389270    1.313710
  F      6.128920    1.233510   -0.045620
  H      3.579110    2.368490   -2.819970
  H      3.504240    0.859650   -1.941980
  H      5.042880    1.468410   -2.503270

 Total Charge           Charge          ....    0
 Multiplicity           Mult            ....    1
 Number of Electrons    NEL             ....   40
 Basis Dimension        Dim             ....  146

ORBITAL ENERGIES
----------------

  NO   OCC          E(Eh)            E(eV)
   0   2.0000     -24.550122      -668.0428
   1   2.0000     -18.968781      -516.1668
   2   2.0000     -10.271530      -279.5026
   3   2.0000     -10.120253      -275.3861
   4   2.0000     -10.097880      -274.7773
   5   2.0000      -1.390917       -37.8488
   6   2.0000      -1.119527       -30.4639
   7   2.0000      -0.912639       -24.8342
   8   2.0000      -0.791298       -21.5323
   9   2.0000      -0.750702       -20.4276
  10   2.0000      -0.664665       -18.0864
  11   2.0000      -0.649563       -17.6755
  12   2.0000      -0.607290       -16.5252
  13   2.0000      -0.573104       -15.5949
  14   2.0000      -0.540939       -14.7197
  15   2.0000      -0.509744       -13.8708
  16   2.0000      -0.487926       -13.2771
  17   2.0000      -0.478465       -13.0197
  18   2.0000      -0.457448       -12.4478
  19   2.0000      -0.393713       -10.7135
  20   0.0000       0.047304         1.2872
  21   0.0000       0.065419         1.7801
  22   0.0000       0.095490         2.5984
  23   0.0000       0.104099         2.8327
  24   0.0000       0.128567         3.4985

MULLIKEN ATOMIC CHARGES
-----------------------
   0 C :    0.784664
   1 C :   -0.090245
   2 H :   -0.034057
   3 H :   -0.114782
   4 C :    0.457235
   5 O :   -0.332004
   6 F :   -0.291221
   7 H :   -0.126072
   8 H :   -0.141237
   9 H :   -0.112283
Sum of atomic charges:   -0.0000000

LOEWDIN ATOMIC CHARGES
----------------------
   0 C :    0.127059
   1 C :   -0.003783
   2 H :    0.040654
   3 H :    0.039360
   4 C :   -0.059736
   5 O :   -0.115070
   6 F :   -0.008459
   7 H :   -0.007680
   8 H :   -0.002634
   9 H :   -0.009711

  Mayer bond orders larger than 0.100000
B(  0-C ,  1-C ) :   1.2889 B(  0-C ,  7-H ) :   0.8077 B(  0-C ,  8-H ) :   0.8099
B(  0-C ,  9-H ) :   0.7743 B(  1-C ,  2-H ) :   0.8452 B(  1-C ,  3-H ) :   0.9532
B(  1-C ,  4-C ) :   1.0660 B(  1-C ,  7-H ) :   0.1790 B(  1-C ,  8-H ) :   0.1765
B(  1-C ,  9-H ) :   0.1843 B(  3-H ,  4-C ) :   0.1450 B(  4-C ,  5-O ) :   1.9506
B(  4-C ,  6-F ) :   0.8610 B(  5-O ,  6-F ) :   0.1161

FINAL SINGLE POINT ENERGY      -291.579112992291

DIPOLE MOMENT
-------------
                                X             Y             Z
Electronic contribution:      4.83334      -2.26910       5.82160
Nuclear contribution   :     -4.79499       2.78546      -7.01827
                        -----------------------------------------
Total Dipole Moment    :      0.03835       0.51637      -1.19667
                        -----------------------------------------
Magnitude (a.u.)       :      1.30389
Magnitude (Debye)      :      3.31423

Rotational constants in cm-1:     0.286098     0.133492     0.103343
Rotational constants in MHz :  8577.003657  4001.981591  3098.148068

                             ****ORCA TERMINATED NORMALLY****
TOTAL RUN TIME: 0 days 0 hours 0 minutes 15 seconds 977 msec
