                         Program Version 5.0.0 -  RELEASE  -
|  1> !LC-BLYP RIJCOSX def2-SVPD def2/J TightSCF
|  2> *xyz 0 1
|  3> C          3.91385       -1.65829        3.01513
|  4> N          5.03927       -0.90115        2.49282
|  5> C          6.21038       -1.41726        2.17824
|  6> C          6.53591       -2.67712        2.55608
|  7> N          7.07675       -0.70082        1.47891
|  8> H          7.95464       -1.12155        1.20755
|  9> H          6.75616        0.10664        0.96028
| 10> H          4.84217        0.01761        2.11519
| 11> H          5.99388       -3.12692        3.28278
| 12> C          3.13916       -2.37657        1.91061
| 13> H          3.26723       -0.93940        3.52069
| 14> H          4.24720       -2.35509        3.79006
| 15> H          7.49844       -2.97548        2.46878
| 16> H          2.82969       -1.66654        1.17238
| 17> H          2.27790       -2.85264        2.33072
| 18> H          3.76754       -3.11338        1.45548
| 19> *
| 20> %MaxCore 64000
| 21> %pal nprocs 8
| 22> end
| 23> %scf
| 24>   MaxIter 150
| 25> end
| 26>
| 27>
| 28>                          ****END OF INPUT****

CARTESIAN COORDINATES (ANGSTROEM)
---------------------------------
  C      3.913850   -1.658290    3.015130
  N      5.039270   -0.901150    2.492820
  C      6.210380   -1.417260    2.178240
  C      6.535910   -2.677120    2.556080
  N      7.076750   -0.700820    1.478910
  H      7.954640   -1.121550    1.207550
  H      6.756160    0.106640    0.960280
  H      4.842170    0.017610    2.115190
  H      5.993880   -3.126920    3.282780
  C      3.139160   -2.376570    1.910610
  H      3.267230   -0.939400    3.520690
  H      4.247200   -2.355090    3.790060
  H      7.498440   -2.975480    2.468780
  H      2.829690   -1.666540    1.172380
  H      2.277900   -2.852640    2.330720
  H      3.767540   -3.113380    1.455480

 Total Charge           Charge          ....    0
 Multiplicity           Mult            ....    1
 Number of Electrons    NEL             ....   48
 Basis Dimension        Dim             ....  200

ORBITAL ENERGIES
----------------

  NO   OCC          E(Eh)            E(eV)
   0   2.0000     -14.193335      -386.2203
   1   2.0000     -14.191125      -386.1602
   2   2.0000     -10.136953      -275.8405
   3   2.0000     -10.118022      -275.3254
   4   2.0000     -10.066861      -273.9332
   5   2.0000      -9.997908      -272.0569
   6   2.0000      -1.068830       -29.0843
   7   2.0000      -0.984805       -26.7979
   8   2.0000      -0.857030       -23.3210
   9   2.0000      -0.809305       -22.0223
  10   2.0000      -0.746595       -20.3159
  11   2.0000      -0.668039       -18.1783
  12   2.0000      -0.658847       -17.9281
  13   2.0000      -0.624558       -16.9951
  14   2.0000      -0.572757       -15.5855
  15   2.0000      -0.544819       -14.8253
  16   2.0000      -0.525717       -14.3055
  17   2.0000      -0.501064       -13.6347
  18   2.0000      -0.479594       -13.0504
  19   2.0000      -0.469092       -12.7646
  20   2.0000      -0.465330       -12.6623
  21   2.0000      -0.442953       -12.0534
  22   2.0000      -0.351515        -9.5652
  23   2.0000      -0.259687        -7.0665
  24   0.0000       0.068402         1.8613
  25   0.0000       0.091431         2.4880
  26   0.0000       0.101773         2.7694
  27   0.0000       0.105941         2.8828
  28   0.0000       0.135758         3.6942

MULLIKEN ATOMIC CHARGES
-----------------------
   0 C :    0.381513
   1 N :   -0.180821
   2 C :    0.506880
   3 C :    0.609248
   4 N :    0.207749
   5 H :   -0.051048
   6 H :   -0.205252
   7 H :   -0.360163
   8 H :   -0.291754
   9 C :    0.934258
  10 H :   -0.434809
  11 H :   -0.053258
  12 H :   -0.645587
  13 H :   -0.153153
  14 H :   -0.098581
  15 H :   -0.165222
Sum of atomic charges:   -0.0000000

LOEWDIN ATOMIC CHARGES
----------------------
   0 C :   -0.001866
   1 N :   -0.008334
   2 C :   -0.253839
   3 C :    0.151501
   4 N :    0.193927
   5 H :    0.008384
   6 H :   -0.007107
   7 H :    0.025509
   8 H :   -0.118528
   9 C :    0.126331
  10 H :    0.023428
  11 H :    0.018804
  12 H :   -0.104472
  13 H :   -0.018238
  14 H :   -0.015646
  15 H :   -0.019856

  Mayer bond orders larger than 0.100000
B(  0-C ,  1-N ) :   1.0133 B(  0-C ,  3-C ) :   0.1042 B(  0-C ,  7-H ) :  -0.1617
B(  0-C ,  9-C ) :   1.1916 B(  0-C , 10-H ) :   0.8555 B(  0-C , 11-H ) :   0.8422
B(  0-C , 13-H ) :   0.2595 B(  0-C , 14-H ) :   0.1991 B(  0-C , 15-H ) :   0.2179
B(  1-N ,  2-C ) :   1.0439 B(  1-N ,  3-C ) :   0.4036 B(  1-N ,  4-N ) :   0.1453
B(  1-N ,  7-H ) :   1.3157 B(  1-N , 10-H ) :   0.1784 B(  1-N , 11-H ) :   0.1126
B(  2-C ,  3-C ) :   1.6523 B(  2-C ,  4-N ) :   0.9378 B(  2-C ,  7-H ) :  -0.2927
B(  2-C ,  8-H ) :   0.3178 B(  2-C , 12-H ) :   0.1734 B(  3-C ,  4-N ) :   0.2335
B(  3-C ,  8-H ) :   0.5884 B(  3-C , 12-H ) :   0.7157 B(  4-N ,  5-H ) :   1.1269
B(  4-N ,  6-H ) :   1.2036 B(  5-H ,  6-H ) :  -0.1717 B(  8-H , 12-H ) :   0.1008
B(  9-C , 13-H ) :   0.7418 B(  9-C , 14-H ) :   0.7619 B(  9-C , 15-H ) :   0.8020
B( 10-H , 11-H ) :  -0.1181

FINAL SINGLE POINT ENERGY      -267.009023332399

DIPOLE MOMENT
-------------
                                X             Y             Z
Electronic contribution:      3.06168       2.80482      -0.20486
Nuclear contribution   :     -3.42552      -1.84584      -0.22295
                        -----------------------------------------
Total Dipole Moment    :     -0.36385       0.95897      -0.42781
                        -----------------------------------------
Magnitude (a.u.)       :      1.11132
Magnitude (Debye)      :      2.82476

Rotational constants in cm-1:     0.233526     0.075277     0.067092
Rotational constants in MHz :  7000.931279  2256.752901  2011.361214

                             ****ORCA TERMINATED NORMALLY****
TOTAL RUN TIME: 0 days 0 hours 0 minutes 28 seconds 550 msec
