                         Program Version 5.0.0 -  RELEASE  -
|  1> !LC-BLYP RIJCOSX def2-SVPD def2/J TightSCF
|  2> *xyz 0 1
|  3> C          3.91385       -1.65829        3.01513
|  4> N          5.03927       -0.90115        2.49282
|  5> C          6.21038       -1.41726        2.17824
|  6> N          6.53591       -2.67712        2.55608
|  7> C          7.07675       -0.70082        1.47891
|  8> H          7.95464       -1.12155        1.20755
|  9> H          6.75616        0.10664        0.96028
| 10> H          4.84217        0.01761        2.11519
| 11> H          5.99388       -3.12692        3.28278
| 12> C          3.13916       -2.37657        1.91061
| 13> H          3.26723       -0.93940        3.52069
| 14> H          4.24720       -2.35509        3.79006
| 15> H          7.49844       -2.97548        2.46878
| 16> H          2.82969       -1.66654        1.17238
| 17> H          2.27790       -2.85264        2.33072
| 18> H          3.76754       -3.11338        1.45548
| 19> *
| 20> %MaxCore 64000
| 21> %pal nprocs 8
| 22> end
| 23> %scf
| 24>   MaxIter 150
| 25> end
| 26>
| 27>
| 28>                          ****END OF INPUT****

CARTESIAN COORDINATES (ANGSTROEM)
---------------------------------
  C      3.913850   -1.658290    3.015130
  N      5.039270   -0.901150    2.492820
  C      6.210380   -1.417260    2.178240
  N      6.535910   -2.677120    2.556080
  C      7.076750   -0.700820    1.478910
  H      7.954640   -1.121550    1.207550
  H      6.756160    0.106640    0.960280
  H      4.842170    0.017610    2.115190
  H      5.993880   -3.126920    3.282780
  C      3.139160   -2.376570    1.910610
  H      3.267230   -0.939400    3.520690
  H      4.247200   -2.355090    3.790060
  H      7.498440   -2.975480    2.468780
  H      2.829690   -1.666540    1.172380
  H      2.277900   -2.852640    2.330720
  H      3.767540   -3.113380    1.455480

 Total Charge           Charge          ....    0
 Multiplicity           Mult            ....    1
 Number of Electrons    NEL             ....   48
 Basis Dimension        Dim             ....  200

ORBITAL ENERGIES
----------------

  NO   OCC          E(Eh)            E(eV)
   0   2.0000     -14.188993      -386.1021
   1   2.0000     -14.188754      -386.0956
   2   2.0000     -10.133450      -275.7452
   3   2.0000     -10.126636      -275.5598
   4   2.0000     -10.074582      -274.1433
   5   2.0000      -9.996069      -272.0069
   6   2.0000      -1.064060       -28.9545
   7   2.0000      -0.976881       -26.5823
   8   2.0000      -0.875262       -23.8171
   9   2.0000      -0.804287       -21.8858
  10   2.0000      -0.733619       -19.9628
  11   2.0000      -0.705605       -19.2005
  12   2.0000      -0.642427       -17.4813
  13   2.0000      -0.603358       -16.4182
  14   2.0000      -0.580646       -15.8002
  15   2.0000      -0.543824       -14.7982
  16   2.0000      -0.538640       -14.6571
  17   2.0000      -0.508201       -13.8288
  18   2.0000      -0.481955       -13.1147
  19   2.0000      -0.472604       -12.8602
  20   2.0000      -0.462995       -12.5987
  21   2.0000      -0.455394       -12.3919
  22   2.0000      -0.355379        -9.6704
  23   2.0000      -0.258315        -7.0291
  24   0.0000       0.066317         1.8046
  25   0.0000       0.095298         2.5932
  26   0.0000       0.099172         2.6986
  27   0.0000       0.103000         2.8028
  28   0.0000       0.135008         3.6738

MULLIKEN ATOMIC CHARGES
-----------------------
   0 C :    0.393215
   1 N :   -0.085120
   2 C :    0.546612
   3 N :    0.288439
   4 C :    0.479464
   5 H :   -0.467076
   6 H :   -0.393129
   7 H :   -0.308196
   8 H :   -0.188006
   9 C :    0.919623
  10 H :   -0.422417
  11 H :   -0.192975
  12 H :   -0.193993
  13 H :   -0.140261
  14 H :   -0.115977
  15 H :   -0.120205
Sum of atomic charges:   -0.0000000

LOEWDIN ATOMIC CHARGES
----------------------
   0 C :   -0.009141
   1 N :   -0.003851
   2 C :   -0.253849
   3 N :    0.212770
   4 C :    0.130854
   5 H :   -0.100120
   6 H :   -0.097654
   7 H :    0.039117
   8 H :   -0.031883
   9 C :    0.123507
  10 H :    0.024041
  11 H :    0.011752
  12 H :    0.003417
  13 H :   -0.013734
  14 H :   -0.016674
  15 H :   -0.018553

  Mayer bond orders larger than 0.100000
B(  0-C ,  1-N ) :   1.0129 B(  0-C ,  7-H ) :  -0.1817 B(  0-C ,  9-C ) :   1.2163
B(  0-C , 10-H ) :   0.8058 B(  0-C , 11-H ) :   0.8595 B(  0-C , 13-H ) :   0.2874
B(  0-C , 14-H ) :   0.2045 B(  0-C , 15-H ) :   0.2063 B(  1-N ,  2-C ) :   1.1402
B(  1-N ,  3-N ) :   0.1321 B(  1-N ,  4-C ) :   0.2850 B(  1-N ,  7-H ) :   1.2173
B(  1-N , 10-H ) :   0.2102 B(  1-N , 11-H ) :   0.1401 B(  2-C ,  3-N ) :   0.9792
B(  2-C ,  4-C ) :   1.3968 B(  2-C ,  5-H ) :   0.1807 B(  2-C ,  7-H ) :  -0.2203
B(  3-N ,  4-C ) :   0.2023 B(  3-N ,  8-H ) :   1.0391 B(  3-N , 12-H ) :   1.1994
B(  4-C ,  5-H ) :   0.7053 B(  4-C ,  6-H ) :   0.8007 B(  5-H ,  6-H ) :   0.1284
B(  8-H , 12-H ) :  -0.2001 B(  9-C , 13-H ) :   0.7250 B(  9-C , 14-H ) :   0.7621
B(  9-C , 15-H ) :   0.7880

FINAL SINGLE POINT ENERGY      -267.008810127529

DIPOLE MOMENT
-------------
                                X             Y             Z
Electronic contribution:      2.51609       0.92220       0.96707
Nuclear contribution   :     -3.31079      -1.42658      -0.45147
                        -----------------------------------------
Total Dipole Moment    :     -0.79469      -0.50438       0.51561
                        -----------------------------------------
Magnitude (a.u.)       :      1.07322
Magnitude (Debye)      :      2.72790

Rotational constants in cm-1:     0.225507     0.077571     0.068070
Rotational constants in MHz :  6760.542142  2325.533779  2040.680522

                             ****ORCA TERMINATED NORMALLY****
TOTAL RUN TIME: 0 days 0 hours 0 minutes 29 seconds 603 msec
