                         Program Version 5.0.0 -  RELEASE  -
|  1> !LC-BLYP RIJCOSX def2-SVPD def2/J TightSCF xyzfile
|  2>
|  3> *xyzfile 0 1 D5.xyz
|  4>
|  5> %MaxCore 64000
|  6>
|  7> %pal nprocs 4
|  8> end
|  9>
| 10> %scf
| 11>   MaxIter 150
| 12> end
| 13>
| 14>
| 15>                          ****END OF INPUT****

CARTESIAN COORDINATES (ANGSTROEM)
---------------------------------
  C      3.913853   -1.658291    3.015134
  N      5.039266   -0.901154    2.492821
  C      4.084215    1.742081   -2.114724
  C      4.265245    2.500518   -0.795890
  H      4.868534    3.392674   -0.981134
  H      3.307640    2.824571   -0.387809
  C      4.982240    1.650257    0.247422
  C      6.210384   -1.417261    2.178244
  C      6.535913   -2.677122    2.556078
  N      7.076754   -0.700820    1.478906
  H      7.954643   -1.121554    1.207554
  H      6.756161    0.106637    0.960278
  H      4.842168    0.017609    2.115191
  H      5.993876   -3.126918    3.282784
  H      7.498441   -2.975482    2.468776
  O      4.368065    1.389270    1.313706
  F      6.128919    1.233512   -0.045620
  C      3.139159   -2.376572    1.910609
  H      3.267235   -0.939401    3.520693
  H      4.247195   -2.355095    3.790065
  C      1.997274    0.430918   -1.399218
  C      3.412746    0.376886   -1.965497
  H      4.047407   -0.246590   -1.326706
  H      3.390774   -0.118719   -2.942839
  H      5.068475    1.598504   -2.565728
  H      3.503356    2.363939   -2.804565
  C      2.399946   -1.389579    1.009490
  H      2.440750   -3.087118    2.362976
  H      3.844475   -2.970462    1.318677
  C      2.070177   -1.936705   -0.372401
  H      1.481611   -1.061542    1.509912
  H      3.008628   -0.490001    0.897451
  C      1.322238   -0.935775   -1.256413
  H      1.472747   -2.850902   -0.283997
  H      3.003539   -2.234041   -0.862535
  H      1.376444    1.058920   -2.047420
  H      2.015341    0.929780   -0.426535
  H      0.316648   -0.787213   -0.848278
  H      1.185611   -1.379252   -2.248613

 Total Charge           Charge          ....    0
 Multiplicity           Mult            ....    1
 Number of Electrons    NEL             ....  126
 Basis Dimension        Dim             ....  510

ORBITAL ENERGIES
----------------

  NO   OCC          E(Eh)            E(eV)
   0   2.0000     -24.593043      -669.2107
   1   2.0000     -19.007442      -517.2188
   2   2.0000     -14.165454      -385.4616
   3   2.0000     -14.153946      -385.1485
   4   2.0000     -10.308631      -280.5121
   5   2.0000     -10.137005      -275.8419
   6   2.0000     -10.117790      -275.3191
   7   2.0000     -10.114139      -275.2197
   8   2.0000     -10.099745      -274.8280
   9   2.0000     -10.095024      -274.6996
  10   2.0000     -10.088958      -274.5345
  11   2.0000     -10.081967      -274.3443
  12   2.0000     -10.074208      -274.1331
  13   2.0000     -10.067538      -273.9516
  14   2.0000     -10.061966      -273.8000
  15   2.0000      -9.977198      -271.4934
  16   2.0000      -1.435792       -39.0699
  17   2.0000      -1.163225       -31.6530
  18   2.0000      -1.043814       -28.4036
  19   2.0000      -0.963092       -26.2071
  20   2.0000      -0.952236       -25.9117
  21   2.0000      -0.915058       -24.9000
  22   2.0000      -0.877348       -23.8738
  23   2.0000      -0.847888       -23.0722
  24   2.0000      -0.813043       -22.1240
  25   2.0000      -0.799193       -21.7472
  26   2.0000      -0.785033       -21.3618
  27   2.0000      -0.756337       -20.5810
  28   2.0000      -0.726429       -19.7671
  29   2.0000      -0.703917       -19.1546
  30   2.0000      -0.700641       -19.0654
  31   2.0000      -0.698364       -19.0035
  32   2.0000      -0.661415       -17.9980
  33   2.0000      -0.657897       -17.9023
  34   2.0000      -0.639198       -17.3935
  35   2.0000      -0.612848       -16.6764
  36   2.0000      -0.607545       -16.5322
  37   2.0000      -0.598897       -16.2968
  38   2.0000      -0.596079       -16.2201
  39   2.0000      -0.574313       -15.6278
  40   2.0000      -0.556469       -15.1423
  41   2.0000      -0.552076       -15.0227
  42   2.0000      -0.537594       -14.6287
  43   2.0000      -0.528438       -14.3795
  44   2.0000      -0.519878       -14.1466
  45   2.0000      -0.519103       -14.1255
  46   2.0000      -0.506776       -13.7901
  47   2.0000      -0.493827       -13.4377
  48   2.0000      -0.491405       -13.3718
  49   2.0000      -0.479432       -13.0460
  50   2.0000      -0.471918       -12.8415
  51   2.0000      -0.460709       -12.5365
  52   2.0000      -0.457605       -12.4521
  53   2.0000      -0.448737       -12.2108
  54   2.0000      -0.442408       -12.0385
  55   2.0000      -0.439212       -11.9516
  56   2.0000      -0.422360       -11.4930
  57   2.0000      -0.415789       -11.3142
  58   2.0000      -0.409669       -11.1477
  59   2.0000      -0.405977       -11.0472
  60   2.0000      -0.401458       -10.9242
  61   2.0000      -0.326321        -8.8797
  62   2.0000      -0.238827        -6.4988
  63   0.0000       0.013537         0.3684
  64   0.0000       0.052956         1.4410
  65   0.0000       0.073920         2.0115
  66   0.0000       0.077332         2.1043
  67   0.0000       0.083707         2.2778

MULLIKEN ATOMIC CHARGES
-----------------------
   0 C :    1.288482
   1 N :    0.623068
   2 C :    0.592596
   3 C :    0.487860
   4 H :   -0.186384
   5 H :    0.061012
   6 C :    0.343897
   7 C :    0.374121
   8 C :    0.746959
   9 N :    0.814050
  10 H :   -0.114966
  11 H :   -0.666283
  12 H :   -1.390626
  13 H :   -0.171236
  14 H :   -0.766204
  15 O :   -0.417003
  16 F :   -0.320931
  17 C :    0.576246
  18 H :   -0.448071
  19 H :   -0.250177
  20 C :    0.080669
  21 C :    0.098697
  22 H :   -0.159616
  23 H :   -0.251570
  24 H :   -0.106633
  25 H :   -0.188306
  26 C :    0.968679
  27 H :   -0.227364
  28 H :   -0.117129
  29 C :    0.214142
  30 H :   -0.104023
  31 H :   -1.244444
  32 C :    0.892228
  33 H :   -0.518341
  34 H :    0.061847
  35 H :   -0.507933
  36 H :    0.083957
  37 H :   -0.057393
  38 H :   -0.093878
Sum of atomic charges:    0.0000000

LOEWDIN ATOMIC CHARGES
----------------------
   0 C :    0.049392
   1 N :    0.027231
   2 C :   -0.026938
   3 C :    0.053625
   4 H :    0.047357
   5 H :    0.040421
   6 C :    0.016240
   7 C :   -0.234911
   8 C :    0.144471
   9 N :    0.223259
  10 H :    0.010288
  11 H :   -0.098769
  12 H :   -0.102554
  13 H :   -0.123223
  14 H :   -0.110707
  15 O :   -0.082406
  16 F :    0.007828
  17 C :   -0.022394
  18 H :    0.030823
  19 H :    0.015047
  20 C :   -0.042281
  21 C :   -0.037700
  22 H :    0.018703
  23 H :    0.040159
  24 H :    0.031246
  25 H :    0.037359
  26 C :   -0.045763
  27 H :    0.028842
  28 H :    0.022930
  29 C :   -0.048467
  30 H :    0.041355
  31 H :   -0.026468
  32 C :   -0.040035
  33 H :    0.031765
  34 H :    0.023827
  35 H :    0.031874
  36 H :    0.011940
  37 H :    0.029524
  38 H :    0.027112

  Mayer bond orders larger than 0.100000
B(  0-C ,  1-N ) :   1.0492 B(  0-C ,  8-C ) :   0.1031 B(  0-C , 12-H ) :  -0.5923
B(  0-C , 17-C ) :   1.0114 B(  0-C , 18-H ) :   0.5837 B(  0-C , 19-H ) :   0.6613
B(  0-C , 26-C ) :   0.2163 B(  1-N ,  7-C ) :   0.9624 B(  1-N ,  8-C ) :   0.4602
B(  1-N , 12-H ) :   0.6033 B(  1-N , 18-H ) :   0.2393 B(  2-C ,  3-C ) :   1.1440
B(  2-C ,  4-H ) :   0.1869 B(  2-C ,  6-C ) :   0.1453 B(  2-C , 21-C ) :   1.2016
B(  2-C , 22-H ) :   0.1083 B(  2-C , 24-H ) :   0.6095 B(  2-C , 25-H ) :   0.7594
B(  3-C ,  4-H ) :   0.5877 B(  3-C ,  5-H ) :   0.7317 B(  3-C ,  6-C ) :   1.1934
B(  3-C , 21-C ) :   0.1490 B(  3-C , 24-H ) :   0.1001 B(  3-C , 25-H ) :   0.1760
B(  4-H ,  6-C ) :   0.2933 B(  5-H ,  6-C ) :   0.2329 B(  6-C , 15-O ) :   1.8635
B(  6-C , 16-F ) :   0.6988 B(  7-C ,  8-C ) :   1.5372 B(  7-C ,  9-N ) :   0.9623
B(  7-C , 11-H ) :  -0.1115 B(  7-C , 12-H ) :  -0.6477 B(  7-C , 13-H ) :   0.3908
B(  7-C , 14-H ) :   0.4032 B(  8-C ,  9-N ) :   0.2335 B(  8-C , 12-H ) :  -0.1293
B(  8-C , 13-H ) :   0.5303 B(  8-C , 14-H ) :   0.4312 B(  9-N , 10-H ) :   1.1171
B(  9-N , 11-H ) :   0.9448 B(  9-N , 12-H ) :  -0.1104 B( 10-H , 11-H ) :  -0.2390
B( 11-H , 12-H ) :   0.1657 B( 11-H , 16-F ) :   0.1264 B( 12-H , 15-O ) :   0.2749
B( 12-H , 18-H ) :   0.1599 B( 13-H , 18-H ) :  -0.1244 B( 13-H , 19-H ) :   0.1597
B( 15-O , 16-F ) :   0.1330 B( 15-O , 31-H ) :   0.1111 B( 17-C , 19-H ) :   0.1922
B( 17-C , 26-C ) :   1.1356 B( 17-C , 27-H ) :   0.8412 B( 17-C , 28-H ) :   0.8608
B( 17-C , 29-C ) :   0.1231 B( 17-C , 30-H ) :   0.1634 B( 18-H , 19-H ) :  -0.3289
B( 20-C , 21-C ) :   1.2229 B( 20-C , 22-H ) :   0.1430 B( 20-C , 23-H ) :   0.1605
B( 20-C , 29-C ) :   0.1782 B( 20-C , 32-C ) :   1.1294 B( 20-C , 35-H ) :   0.9347
B( 20-C , 36-H ) :   0.8164 B( 20-C , 37-H ) :   0.3423 B( 20-C , 38-H ) :   0.1431
B( 21-C , 22-H ) :   0.8869 B( 21-C , 23-H ) :   0.8292 B( 21-C , 24-H ) :   0.2998
B( 21-C , 25-H ) :   0.1770 B( 21-C , 35-H ) :   0.1227 B( 21-C , 36-H ) :   0.1348
B( 22-H , 33-H ) :  -0.1012 B( 22-H , 34-H ) :   0.1128 B( 24-H , 25-H ) :  -0.1645
B( 26-C , 27-H ) :   0.2012 B( 26-C , 29-C ) :   1.2332 B( 26-C , 30-H ) :   0.5122
B( 26-C , 31-H ) :  -0.5469 B( 26-C , 32-C ) :   0.1199 B( 26-C , 34-H ) :   0.1746
B( 27-H , 31-H ) :   0.1231 B( 28-H , 33-H ) :  -0.1216 B( 29-C , 31-H ) :   0.1954
B( 29-C , 32-C ) :   1.0796 B( 29-C , 33-H ) :   0.9509 B( 29-C , 34-H ) :   0.7968
B( 29-C , 37-H ) :   0.1101 B( 29-C , 38-H ) :   0.2825 B( 30-H , 31-H ) :   0.3522
B( 31-H , 36-H ) :   0.1291 B( 32-C , 37-H ) :   0.5801 B( 32-C , 38-H ) :   0.6068
B( 33-H , 34-H ) :  -0.1151 B( 37-H , 38-H ) :  -0.1552

FINAL SINGLE POINT ENERGY      -753.259129177699

DIPOLE MOMENT
-------------
                                X             Y             Z
Electronic contribution:     12.75357      10.39486       3.22349
Nuclear contribution   :    -13.35170      -8.48261      -5.12969
                        -----------------------------------------
Total Dipole Moment    :     -0.59813       1.91225      -1.90620
                        -----------------------------------------
Magnitude (a.u.)       :      2.76551
Magnitude (Debye)      :      7.02938

Rotational constants in cm-1:     0.019886     0.013843     0.009504
Rotational constants in MHz :   596.157485   415.004628   284.931121

                             ****ORCA TERMINATED NORMALLY****
TOTAL RUN TIME: 0 days 0 hours 5 minutes 20 seconds 24 msec
