                         Program Version 5.0.0 -  RELEASE  -
|  1> !LC-PBE RIJCOSX def2-SVP def2/J TightSCF
|  2> *xyz -1 1
|  3> C         -5.57236       -5.80780       -0.81644
|  4> S         -6.90318       -4.61903       -0.52846
|  5> O         -8.11485       -5.25093       -0.95701
|  6> O         -6.53271       -3.42684       -1.31485
|  7> O         -6.86563       -4.29496        0.91412
|  8> C         -4.45780       -5.94187        0.22919
|  9> H         -5.17735       -5.54257       -1.79771
| 10> H         -6.07420       -6.76889       -0.92127
| 11> H         -3.75515       -6.68239       -0.09144
| 12> H         -4.88182       -6.23486        1.16689
| 13> H         -3.95908       -5.00189        0.34143
| 14> *
| 15> %MaxCore 64000
| 16>
| 17> %pal nprocs 4
| 18> end
| 19>
| 20> %scf
| 21>   MaxIter 150
| 22> end
| 23>
| 24>                          ****END OF INPUT****

CARTESIAN COORDINATES (ANGSTROEM)
---------------------------------
  C     -5.572360   -5.807800   -0.816440
  S     -6.903180   -4.619030   -0.528460
  O     -8.114850   -5.250930   -0.957010
  O     -6.532710   -3.426840   -1.314850
  O     -6.865630   -4.294960    0.914120
  C     -4.457800   -5.941870    0.229190
  H     -5.177350   -5.542570   -1.797710
  H     -6.074200   -6.768890   -0.921270
  H     -3.755150   -6.682390   -0.091440
  H     -4.881820   -6.234860    1.166890
  H     -3.959080   -5.001890    0.341430

 Total Charge           Charge          ....   -1
 Multiplicity           Mult            ....    1
 Number of Electrons    NEL             ....   58
 Basis Dimension        Dim             ....  113

ORBITAL ENERGIES
----------------

  NO   OCC          E(Eh)            E(eV)
   0   2.0000     -88.274913     -2402.0825
   1   2.0000     -18.742965      -510.0220
   2   2.0000     -18.727321      -509.5963
   3   2.0000     -18.724858      -509.5293
   4   2.0000      -9.983292      -271.6592
   5   2.0000      -9.978832      -271.5378
   6   2.0000      -7.904723      -215.0984
   7   2.0000      -5.926735      -161.2747
   8   2.0000      -5.926339      -161.2639
   9   2.0000      -5.926140      -161.2585
  10   2.0000      -1.079604       -29.3775
  11   2.0000      -0.922499       -25.1025
  12   2.0000      -0.897016       -24.4090
  13   2.0000      -0.799280       -21.7495
  14   2.0000      -0.664674       -18.0867
  15   2.0000      -0.516204       -14.0466
  16   2.0000      -0.459523       -12.5042
  17   2.0000      -0.445951       -12.1350
  18   2.0000      -0.409512       -11.1434
  19   2.0000      -0.386886       -10.5277
  20   2.0000      -0.381849       -10.3906
  21   2.0000      -0.353231        -9.6119
  22   2.0000      -0.344642        -9.3782
  23   2.0000      -0.261197        -7.1075
  24   2.0000      -0.260052        -7.0764
  25   2.0000      -0.223774        -6.0892
  26   2.0000      -0.210457        -5.7268
  27   2.0000      -0.206596        -5.6218
  28   2.0000      -0.166357        -4.5268
  29   0.0000       0.288547         7.8518
  30   0.0000       0.347302         9.4506
  31   0.0000       0.350843         9.5469
  32   0.0000       0.356636         9.7046
  33   0.0000       0.377047        10.2600

MULLIKEN ATOMIC CHARGES
-----------------------
   0 C :   -0.225676
   1 S :    0.829863
   2 O :   -0.552063
   3 O :   -0.604112
   4 O :   -0.597397
   5 C :   -0.103381
   6 H :    0.062430
   7 H :    0.054617
   8 H :    0.017084
   9 H :    0.059414
  10 H :    0.059220
Sum of atomic charges:   -1.0000000

LOEWDIN ATOMIC CHARGES
----------------------
   0 C :   -0.217643
   1 S :    1.089699
   2 O :   -0.598158
   3 O :   -0.650225
   4 O :   -0.647626
   5 C :   -0.102740
   6 H :    0.025367
   7 H :    0.021538
   8 H :    0.015961
   9 H :    0.031578
  10 H :    0.032250

  Mayer bond orders larger than 0.100000
B(  0-C ,  1-S ) :   0.8865 B(  0-C ,  5-C ) :   1.0533 B(  0-C ,  6-H ) :   0.9521
B(  0-C ,  7-H ) :   0.9545 B(  1-S ,  2-O ) :   1.6751 B(  1-S ,  3-O ) :   1.6219
B(  1-S ,  4-O ) :   1.6335 B(  5-C ,  8-H ) :   0.9714 B(  5-C ,  9-H ) :   0.9717
B(  5-C , 10-H ) :   0.9737

FINAL SINGLE POINT ENERGY      -701.512431144493

DIPOLE MOMENT
-------------
                                X             Y             Z
Electronic contribution:     -6.68616       4.30222      -0.92539
Nuclear contribution   :      8.13140      -5.68016       0.80206
                        -----------------------------------------
Total Dipole Moment    :      1.44524      -1.37794      -0.12333
                        -----------------------------------------
Magnitude (a.u.)       :      2.00066
Magnitude (Debye)      :      5.08528

Rotational constants in cm-1:     0.162101     0.080498     0.079099
Rotational constants in MHz :  4859.669771  2413.267251  2371.338602

                             ****ORCA TERMINATED NORMALLY****
TOTAL RUN TIME: 0 days 0 hours 0 minutes 14 seconds 700 msec
