                         Program Version 5.0.0 -  RELEASE  -
|  1> !LC-PBE RIJCOSX def2-SVP def2/J TightSCF
|  2> *xyz 1 1
|  3> C         -4.38262       -1.67089        1.21620
|  4> N         -5.76354       -1.91517        0.70501
|  5> C         -3.28173       -2.19127        0.29436
|  6> H         -5.84081       -2.11520       -0.30065
|  7> H         -6.40882       -1.14866        0.93612
|  8> H         -6.17478       -2.79061        1.05143
|  9> H         -4.32862       -2.13922        2.19810
| 10> H         -4.26158       -0.59740        1.35725
| 11> H         -3.36057       -1.71407       -0.66008
| 12> H         -3.38775       -3.24919        0.17403
| 13> H         -2.32559       -1.97514        0.72329
| 14> *
| 15> %MaxCore 64000
| 16>
| 17> %pal nprocs 4
| 18> end
| 19>
| 20> %scf
| 21>   MaxIter 150
| 22> end
| 23>
| 24>                          ****END OF INPUT****

CARTESIAN COORDINATES (ANGSTROEM)
---------------------------------
  C     -4.382620   -1.670890    1.216200
  N     -5.763540   -1.915170    0.705010
  C     -3.281730   -2.191270    0.294360
  H     -5.840810   -2.115200   -0.300650
  H     -6.408820   -1.148660    0.936120
  H     -6.174780   -2.790610    1.051430
  H     -4.328620   -2.139220    2.198100
  H     -4.261580   -0.597400    1.357250
  H     -3.360570   -1.714070   -0.660080
  H     -3.387750   -3.249190    0.174030
  H     -2.325590   -1.975140    0.723290

 Total Charge           Charge          ....    1
 Multiplicity           Mult            ....    1
 Number of Electrons    NEL             ....   26
 Basis Dimension        Dim             ....   82

ORBITAL ENERGIES
----------------

  NO   OCC          E(Eh)            E(eV)
   0   2.0000     -14.567895      -396.4126
   1   2.0000     -10.380624      -282.4711
   2   2.0000     -10.299116      -280.2532
   3   2.0000      -1.384095       -37.6631
   4   2.0000      -1.135852       -30.9081
   5   2.0000      -1.008429       -27.4407
   6   2.0000      -0.947841       -25.7921
   7   2.0000      -0.926368       -25.2078
   8   2.0000      -0.847423       -23.0595
   9   2.0000      -0.782446       -21.2914
  10   2.0000      -0.718435       -19.5496
  11   2.0000      -0.699237       -19.0272
  12   2.0000      -0.677631       -18.4393
  13   0.0000      -0.086361        -2.3500
  14   0.0000      -0.030865        -0.8399
  15   0.0000      -0.026052        -0.7089
  16   0.0000       0.005688         0.1548
  17   0.0000       0.050356         1.3703

MULLIKEN ATOMIC CHARGES
-----------------------
   0 C :   -0.124320
   1 N :   -0.077914
   2 C :   -0.171331
   3 H :    0.233385
   4 H :    0.250364
   5 H :    0.238413
   6 H :    0.148550
   7 H :    0.148973
   8 H :    0.107662
   9 H :    0.104847
  10 H :    0.141371
Sum of atomic charges:    1.0000000

LOEWDIN ATOMIC CHARGES
----------------------
   0 C :    0.024685
   1 N :    0.268272
   2 C :   -0.076435
   3 H :    0.154081
   4 H :    0.159319
   5 H :    0.157042
   6 H :    0.067035
   7 H :    0.067657
   8 H :    0.051945
   9 H :    0.050860
  10 H :    0.075538

  Mayer bond orders larger than 0.100000
B(  0-C ,  1-N ) :   0.8862 B(  0-C ,  2-C ) :   1.0739 B(  0-C ,  6-H ) :   0.9544
B(  0-C ,  7-H ) :   0.9559 B(  1-N ,  3-H ) :   0.9256 B(  1-N ,  4-H ) :   0.9241
B(  1-N ,  5-H ) :   0.9266 B(  2-C ,  8-H ) :   0.9672 B(  2-C ,  9-H ) :   0.9710
B(  2-C , 10-H ) :   0.9569

FINAL SINGLE POINT ENERGY      -134.980194960721

DIPOLE MOMENT
-------------
                                X             Y             Z
Electronic contribution:     -1.89285       0.23686       0.30075
Nuclear contribution   :      0.19437      -0.25358      -0.32106
                        -----------------------------------------
Total Dipole Moment    :     -1.69849      -0.01672      -0.02032
                        -----------------------------------------
Magnitude (a.u.)       :      1.69869
Magnitude (Debye)      :      4.31773

Rotational constants in cm-1:     1.030014     0.272489     0.242697
Rotational constants in MHz : 30879.030706  8169.007780  7275.865152

                             ****ORCA TERMINATED NORMALLY****
TOTAL RUN TIME: 0 days 0 hours 0 minutes 9 seconds 47 msec
