                         Program Version 5.0.0 -  RELEASE  -
|  1> !LC-PBE RIJCOSX def2-SVP def2/J TightSCF
|  2> *xyz 0 1
|  3> C         -5.57236       -5.80780       -0.81644
|  4> S         -6.90318       -4.61903       -0.52846
|  5> F         -8.11485       -5.25093       -0.95701
|  6> O         -6.53271       -3.42684       -1.31485
|  7> O         -6.86563       -4.29496        0.91412
|  8> C         -4.45780       -5.94187        0.22919
|  9> H         -5.17735       -5.54257       -1.79771
| 10> H         -6.07420       -6.76889       -0.92127
| 11> H         -3.75515       -6.68239       -0.09144
| 12> H         -4.88182       -6.23486        1.16689
| 13> H         -3.95908       -5.00189        0.34143
| 14> *
| 15> %MaxCore 64000
| 16>
| 17> %pal nprocs 4
| 18> end
| 19>
| 20> %scf
| 21>   MaxIter 150
| 22> end
| 23>
| 24>                          ****END OF INPUT****

CARTESIAN COORDINATES (ANGSTROEM)
---------------------------------
  C     -5.572360   -5.807800   -0.816440
  S     -6.903180   -4.619030   -0.528460
  F     -8.114850   -5.250930   -0.957010
  O     -6.532710   -3.426840   -1.314850
  O     -6.865630   -4.294960    0.914120
  C     -4.457800   -5.941870    0.229190
  H     -5.177350   -5.542570   -1.797710
  H     -6.074200   -6.768890   -0.921270
  H     -3.755150   -6.682390   -0.091440
  H     -4.881820   -6.234860    1.166890
  H     -3.959080   -5.001890    0.341430

 Total Charge           Charge          ....    0
 Multiplicity           Mult            ....    1
 Number of Electrons    NEL             ....   58
 Basis Dimension        Dim             ....  113

ORBITAL ENERGIES
----------------

  NO   OCC          E(Eh)            E(eV)
   0   2.0000     -88.550860     -2409.5914
   1   2.0000     -24.621847      -669.9945
   2   2.0000     -18.979515      -516.4589
   3   2.0000     -18.978549      -516.4326
   4   2.0000     -10.191324      -277.3200
   5   2.0000     -10.148661      -276.1591
   6   2.0000      -8.183143      -222.6747
   7   2.0000      -6.209679      -168.9740
   8   2.0000      -6.202005      -168.7651
   9   2.0000      -6.201236      -168.7442
  10   2.0000      -1.543894       -42.0115
  11   2.0000      -1.260175       -34.2911
  12   2.0000      -1.147059       -31.2131
  13   2.0000      -0.997110       -27.1327
  14   2.0000      -0.897814       -24.4307
  15   2.0000      -0.839805       -22.8523
  16   2.0000      -0.747263       -20.3341
  17   2.0000      -0.744378       -20.2556
  18   2.0000      -0.699337       -19.0299
  19   2.0000      -0.640848       -17.4384
  20   2.0000      -0.621309       -16.9067
  21   2.0000      -0.579655       -15.7732
  22   2.0000      -0.563133       -15.3236
  23   2.0000      -0.542544       -14.7634
  24   2.0000      -0.523563       -14.2469
  25   2.0000      -0.512594       -13.9484
  26   2.0000      -0.449439       -12.2299
  27   2.0000      -0.445769       -12.1300
  28   2.0000      -0.423590       -11.5265
  29   0.0000       0.128008         3.4833
  30   0.0000       0.135594         3.6897
  31   0.0000       0.168659         4.5894
  32   0.0000       0.185579         5.0499
  33   0.0000       0.192702         5.2437

MULLIKEN ATOMIC CHARGES
-----------------------
   0 C :   -0.264638
   1 S :    0.914946
   2 F :   -0.141705
   3 O :   -0.462716
   4 O :   -0.459928
   5 C :   -0.107638
   6 H :    0.134583
   7 H :    0.107457
   8 H :    0.085419
   9 H :    0.093892
  10 H :    0.100329
Sum of atomic charges:   -0.0000000

LOEWDIN ATOMIC CHARGES
----------------------
   0 C :   -0.181325
   1 S :    1.147180
   2 F :   -0.095808
   3 O :   -0.518694
   4 O :   -0.519077
   5 C :   -0.078163
   6 H :    0.056871
   7 H :    0.043036
   8 H :    0.048794
   9 H :    0.047226
  10 H :    0.049959

  Mayer bond orders larger than 0.100000
B(  0-C ,  1-S ) :   0.9096 B(  0-C ,  5-C ) :   1.0544 B(  0-C ,  6-H ) :   0.9344
B(  0-C ,  7-H ) :   0.9387 B(  1-S ,  2-F ) :   1.0693 B(  1-S ,  3-O ) :   1.7685
B(  1-S ,  4-O ) :   1.7766 B(  5-C ,  8-H ) :   0.9655 B(  5-C ,  9-H ) :   0.9691
B(  5-C , 10-H ) :   0.9719

FINAL SINGLE POINT ENERGY      -725.977052298660

DIPOLE MOMENT
-------------
                                X             Y             Z
Electronic contribution:     -9.43425       3.50873      -1.89531
Nuclear contribution   :      9.80704      -5.24335       1.35017
                        -----------------------------------------
Total Dipole Moment    :      0.37279      -1.73462      -0.54514
                        -----------------------------------------
Magnitude (a.u.)       :      1.85608
Magnitude (Debye)      :      4.71779

Rotational constants in cm-1:     0.156316     0.078308     0.076228
Rotational constants in MHz :  4686.224999  2347.601204  2285.245115

                             ****ORCA TERMINATED NORMALLY****
TOTAL RUN TIME: 0 days 0 hours 0 minutes 14 seconds 621 msec
