                         Program Version 5.0.0 -  RELEASE  -
|  1> !LC-PBE RIJCOSX def2-SVP def2/J TightSCF
|  2> *xyz 0 1
|  3> C         -4.38262       -1.67089        1.21620
|  4> C         -5.76354       -1.91517        0.70501
|  5> C         -3.28173       -2.19127        0.29436
|  6> H         -5.84081       -2.11520       -0.30065
|  7> H         -6.40882       -1.14866        0.93612
|  8> H         -6.17478       -2.79061        1.05143
|  9> H         -4.32862       -2.13922        2.19810
| 10> H         -4.26158       -0.59740        1.35725
| 11> H         -3.36057       -1.71407       -0.66008
| 12> H         -3.38775       -3.24919        0.17403
| 13> H         -2.32559       -1.97514        0.72329
| 14> *
| 15> %MaxCore 64000
| 16>
| 17> %pal nprocs 4
| 18> end
| 19>
| 20> %scf
| 21>   MaxIter 150
| 22> end
| 23>
| 24>                          ****END OF INPUT****

CARTESIAN COORDINATES (ANGSTROEM)
---------------------------------
  C     -4.382620   -1.670890    1.216200
  C     -5.763540   -1.915170    0.705010
  C     -3.281730   -2.191270    0.294360
  H     -5.840810   -2.115200   -0.300650
  H     -6.408820   -1.148660    0.936120
  H     -6.174780   -2.790610    1.051430
  H     -4.328620   -2.139220    2.198100
  H     -4.261580   -0.597400    1.357250
  H     -3.360570   -1.714070   -0.660080
  H     -3.387750   -3.249190    0.174030
  H     -2.325590   -1.975140    0.723290

 Total Charge           Charge          ....    0
 Multiplicity           Mult            ....    1
 Number of Electrons    NEL             ....   26
 Basis Dimension        Dim             ....   82

ORBITAL ENERGIES
----------------

  NO   OCC          E(Eh)            E(eV)
   0   2.0000     -10.112767      -275.1824
   1   2.0000     -10.103714      -274.9360
   2   2.0000     -10.085877      -274.4507
   3   2.0000      -0.960752       -26.1434
   4   2.0000      -0.854619       -23.2554
   5   2.0000      -0.743656       -20.2359
   6   2.0000      -0.608643       -16.5620
   7   2.0000      -0.585320       -15.9274
   8   2.0000      -0.548521       -14.9260
   9   2.0000      -0.520327       -14.1588
  10   2.0000      -0.470166       -12.7939
  11   2.0000      -0.463027       -12.5996
  12   2.0000      -0.446729       -12.1561
  13   0.0000       0.156163         4.2494
  14   0.0000       0.205086         5.5807
  15   0.0000       0.206701         5.6246
  16   0.0000       0.208954         5.6859
  17   0.0000       0.243413         6.6236

MULLIKEN ATOMIC CHARGES
-----------------------
   0 C :   -0.191125
   1 C :   -0.075772
   2 C :   -0.132406
   3 H :    0.027894
   4 H :    0.043480
   5 H :    0.032897
   6 H :    0.061143
   7 H :    0.059494
   8 H :    0.059091
   9 H :    0.056793
  10 H :    0.058511
Sum of atomic charges:   -0.0000000

LOEWDIN ATOMIC CHARGES
----------------------
   0 C :   -0.069347
   1 C :   -0.087602
   2 C :   -0.087981
   3 H :    0.026146
   4 H :    0.028471
   5 H :    0.028182
   6 H :    0.033759
   7 H :    0.032408
   8 H :    0.032003
   9 H :    0.031182
  10 H :    0.032779

  Mayer bond orders larger than 0.100000
B(  0-C ,  1-C ) :   1.0578 B(  0-C ,  2-C ) :   1.0770 B(  0-C ,  6-H ) :   0.9695
B(  0-C ,  7-H ) :   0.9734 B(  1-C ,  3-H ) :   0.9762 B(  1-C ,  4-H ) :   0.9761
B(  1-C ,  5-H ) :   0.9713 B(  2-C ,  8-H ) :   0.9772 B(  2-C ,  9-H ) :   0.9798
B(  2-C , 10-H ) :   0.9775

FINAL SINGLE POINT ENERGY      -118.604288884339

DIPOLE MOMENT
-------------
                                X             Y             Z
Electronic contribution:      0.17936       0.23082       0.32993
Nuclear contribution   :     -0.21528      -0.24783      -0.32864
                        -----------------------------------------
Total Dipole Moment    :     -0.03591      -0.01701       0.00129
                        -----------------------------------------
Magnitude (a.u.)       :      0.03976
Magnitude (Debye)      :      0.10106

Rotational constants in cm-1:     1.037566     0.286459     0.254172
Rotational constants in MHz : 31105.431429  8587.814531  7619.871198

                             ****ORCA TERMINATED NORMALLY****
TOTAL RUN TIME: 0 days 0 hours 0 minutes 8 seconds 687 msec
