                         Program Version 5.0.0 -  RELEASE  -
|  1> !LC-PBE RIJCOSX def2-SVP def2/J TightSCF
|  2> *xyz 0 1
|  3> C         -5.57236       -5.80780       -0.81644
|  4> S         -6.90318       -4.61903       -0.52846
|  5> O         -8.11485       -5.25093       -0.95701
|  6> F         -6.53271       -3.42684       -1.31485
|  7> O         -6.86563       -4.29496        0.91412
|  8> C         -4.45780       -5.94187        0.22919
|  9> H         -5.17735       -5.54257       -1.79771
| 10> H         -6.07420       -6.76889       -0.92127
| 11> H         -3.75515       -6.68239       -0.09144
| 12> H         -4.88182       -6.23486        1.16689
| 13> H         -3.95908       -5.00189        0.34143
| 14> *
| 15> %MaxCore 64000
| 16>
| 17> %pal nprocs 4
| 18> end
| 19>
| 20> %scf
| 21>   MaxIter 150
| 22> end
| 23>
| 24>                          ****END OF INPUT****

CARTESIAN COORDINATES (ANGSTROEM)
---------------------------------
  C     -5.572360   -5.807800   -0.816440
  S     -6.903180   -4.619030   -0.528460
  O     -8.114850   -5.250930   -0.957010
  F     -6.532710   -3.426840   -1.314850
  O     -6.865630   -4.294960    0.914120
  C     -4.457800   -5.941870    0.229190
  H     -5.177350   -5.542570   -1.797710
  H     -6.074200   -6.768890   -0.921270
  H     -3.755150   -6.682390   -0.091440
  H     -4.881820   -6.234860    1.166890
  H     -3.959080   -5.001890    0.341430

 Total Charge           Charge          ....    0
 Multiplicity           Mult            ....    1
 Number of Electrons    NEL             ....   58
 Basis Dimension        Dim             ....  113

ORBITAL ENERGIES
----------------

  NO   OCC          E(Eh)            E(eV)
   0   2.0000     -88.549731     -2409.5607
   1   2.0000     -24.598465      -669.3583
   2   2.0000     -18.995816      -516.9024
   3   2.0000     -18.979896      -516.4692
   4   2.0000     -10.190595      -277.3002
   5   2.0000     -10.148575      -276.1568
   6   2.0000      -8.181763      -222.6371
   7   2.0000      -6.208113      -168.9313
   8   2.0000      -6.200893      -168.7349
   9   2.0000      -6.200100      -168.7133
  10   2.0000      -1.506156       -40.9846
  11   2.0000      -1.276718       -34.7413
  12   2.0000      -1.164446       -31.6862
  13   2.0000      -0.997221       -27.1358
  14   2.0000      -0.885208       -24.0877
  15   2.0000      -0.829822       -22.5806
  16   2.0000      -0.733032       -19.9468
  17   2.0000      -0.716930       -19.5086
  18   2.0000      -0.694295       -18.8927
  19   2.0000      -0.638250       -17.3677
  20   2.0000      -0.623881       -16.9767
  21   2.0000      -0.592439       -16.1211
  22   2.0000      -0.567594       -15.4450
  23   2.0000      -0.539239       -14.6734
  24   2.0000      -0.535564       -14.5734
  25   2.0000      -0.514929       -14.0119
  26   2.0000      -0.463937       -12.6244
  27   2.0000      -0.450611       -12.2617
  28   2.0000      -0.437925       -11.9166
  29   0.0000       0.129730         3.5301
  30   0.0000       0.135698         3.6925
  31   0.0000       0.169132         4.6023
  32   0.0000       0.183986         5.0065
  33   0.0000       0.197889         5.3848

MULLIKEN ATOMIC CHARGES
-----------------------
   0 C :   -0.271846
   1 S :    0.923655
   2 O :   -0.416908
   3 F :   -0.187596
   4 O :   -0.464220
   5 C :   -0.111393
   6 H :    0.115845
   7 H :    0.141642
   8 H :    0.084393
   9 H :    0.101986
  10 H :    0.084441
Sum of atomic charges:   -0.0000000

LOEWDIN ATOMIC CHARGES
----------------------
   0 C :   -0.182865
   1 S :    1.153185
   2 O :   -0.472045
   3 F :   -0.142067
   4 O :   -0.522239
   5 C :   -0.084434
   6 H :    0.046708
   7 H :    0.062602
   8 H :    0.048124
   9 H :    0.049592
  10 H :    0.043439

  Mayer bond orders larger than 0.100000
B(  0-C ,  1-S ) :   0.9085 B(  0-C ,  5-C ) :   1.0444 B(  0-C ,  6-H ) :   0.9373
B(  0-C ,  7-H ) :   0.9388 B(  1-S ,  2-O ) :   1.8251 B(  1-S ,  3-F ) :   1.0179
B(  1-S ,  4-O ) :   1.7822 B(  5-C ,  8-H ) :   0.9649 B(  5-C ,  9-H ) :   0.9692
B(  5-C , 10-H ) :   0.9742

FINAL SINGLE POINT ENERGY      -725.998077379526

DIPOLE MOMENT
-------------
                                X             Y             Z
Electronic contribution:     -6.69456       6.68146      -2.53685
Nuclear contribution   :      8.15840      -7.14411       1.72305
                        -----------------------------------------
Total Dipole Moment    :      1.46384      -0.46264      -0.81379
                        -----------------------------------------
Magnitude (a.u.)       :      1.73756
Magnitude (Debye)      :      4.41654

Rotational constants in cm-1:     0.153926     0.078297     0.077402
Rotational constants in MHz :  4614.585804  2347.272644  2320.438903

                             ****ORCA TERMINATED NORMALLY****
TOTAL RUN TIME: 0 days 0 hours 0 minutes 14 seconds 442 msec
