                         Program Version 5.0.0 -  RELEASE  -
|  1> !LC-PBE RIJCOSX def2-SVP def2/J TightSCF
|  2> *xyz 0 1
|  3> C         -5.57236       -5.80780       -0.81644
|  4> S         -6.90318       -4.61903       -0.52846
|  5> O         -8.11485       -5.25093       -0.95701
|  6> O         -6.53271       -3.42684       -1.31485
|  7> F         -6.86563       -4.29496        0.91412
|  8> C         -4.45780       -5.94187        0.22919
|  9> H         -5.17735       -5.54257       -1.79771
| 10> H         -6.07420       -6.76889       -0.92127
| 11> H         -3.75515       -6.68239       -0.09144
| 12> H         -4.88182       -6.23486        1.16689
| 13> H         -3.95908       -5.00189        0.34143
| 14> *
| 15> %MaxCore 64000
| 16>
| 17> %pal nprocs 4
| 18> end
| 19>
| 20> %scf
| 21>   MaxIter 150
| 22> end
| 23>
| 24>                          ****END OF INPUT****

CARTESIAN COORDINATES (ANGSTROEM)
---------------------------------
  C     -5.572360   -5.807800   -0.816440
  S     -6.903180   -4.619030   -0.528460
  O     -8.114850   -5.250930   -0.957010
  O     -6.532710   -3.426840   -1.314850
  F     -6.865630   -4.294960    0.914120
  C     -4.457800   -5.941870    0.229190
  H     -5.177350   -5.542570   -1.797710
  H     -6.074200   -6.768890   -0.921270
  H     -3.755150   -6.682390   -0.091440
  H     -4.881820   -6.234860    1.166890
  H     -3.959080   -5.001890    0.341430

 Total Charge           Charge          ....    0
 Multiplicity           Mult            ....    1
 Number of Electrons    NEL             ....   58
 Basis Dimension        Dim             ....  113

ORBITAL ENERGIES
----------------

  NO   OCC          E(Eh)            E(eV)
   0   2.0000     -88.548763     -2409.5343
   1   2.0000     -24.597805      -669.3403
   2   2.0000     -18.995276      -516.8877
   3   2.0000     -18.977740      -516.4106
   4   2.0000     -10.189685      -277.2754
   5   2.0000     -10.156401      -276.3697
   6   2.0000      -8.180846      -222.6121
   7   2.0000      -6.207294      -168.9091
   8   2.0000      -6.200002      -168.7106
   9   2.0000      -6.199075      -168.6854
  10   2.0000      -1.503489       -40.9120
  11   2.0000      -1.276917       -34.7467
  12   2.0000      -1.164397       -31.6849
  13   2.0000      -1.000581       -27.2272
  14   2.0000      -0.881791       -23.9948
  15   2.0000      -0.835137       -22.7252
  16   2.0000      -0.739293       -20.1172
  17   2.0000      -0.716274       -19.4908
  18   2.0000      -0.684017       -18.6131
  19   2.0000      -0.644596       -17.5404
  20   2.0000      -0.616665       -16.7803
  21   2.0000      -0.593642       -16.1538
  22   2.0000      -0.577489       -15.7143
  23   2.0000      -0.550038       -14.9673
  24   2.0000      -0.531248       -14.4560
  25   2.0000      -0.519906       -14.1473
  26   2.0000      -0.463515       -12.6129
  27   2.0000      -0.448928       -12.2160
  28   2.0000      -0.436602       -11.8806
  29   0.0000       0.114321         3.1108
  30   0.0000       0.156047         4.2463
  31   0.0000       0.176536         4.8038
  32   0.0000       0.183069         4.9816
  33   0.0000       0.194993         5.3060

MULLIKEN ATOMIC CHARGES
-----------------------
   0 C :   -0.259395
   1 S :    0.923981
   2 O :   -0.416492
   3 O :   -0.468466
   4 F :   -0.188150
   5 C :   -0.139797
   6 H :    0.147269
   7 H :    0.129456
   8 H :    0.093171
   9 H :    0.084571
  10 H :    0.093852
Sum of atomic charges:    0.0000000

LOEWDIN ATOMIC CHARGES
----------------------
   0 C :   -0.177788
   1 S :    1.153714
   2 O :   -0.471989
   3 O :   -0.524236
   4 F :   -0.143389
   5 C :   -0.092548
   6 H :    0.065210
   7 H :    0.054058
   8 H :    0.051657
   9 H :    0.040811
  10 H :    0.044500

  Mayer bond orders larger than 0.100000
B(  0-C ,  1-S ) :   0.9205 B(  0-C ,  5-C ) :   1.0389 B(  0-C ,  6-H ) :   0.9344
B(  0-C ,  7-H ) :   0.9401 B(  1-S ,  2-O ) :   1.8237 B(  1-S ,  3-O ) :   1.7729
B(  1-S ,  4-F ) :   1.0192 B(  5-C ,  8-H ) :   0.9657 B(  5-C ,  9-H ) :   0.9749
B(  5-C , 10-H ) :   0.9728

FINAL SINGLE POINT ENERGY      -725.997922085377

DIPOLE MOMENT
-------------
                                X             Y             Z
Electronic contribution:     -7.24231       5.14676       1.33877
Nuclear contribution   :      8.50531      -6.23950      -0.59960
                        -----------------------------------------
Total Dipole Moment    :      1.26300      -1.09274       0.73917
                        -----------------------------------------
Magnitude (a.u.)       :      1.82637
Magnitude (Debye)      :      4.64227

Rotational constants in cm-1:     0.152799     0.080212     0.076962
Rotational constants in MHz :  4580.804531  2404.707790  2307.252710

                             ****ORCA TERMINATED NORMALLY****
TOTAL RUN TIME: 0 days 0 hours 0 minutes 13 seconds 667 msec
