                         Program Version 5.0.0 -  RELEASE  -
|  1> !LC-PBE RIJCOSX def2-TZVP def2/J TightSCF xyzfile
|  2>
|  3> *xyzfile 0 1 D1.xyz
|  4>
|  5> %MaxCore 64000
|  6>
|  7> %pal nprocs 18
|  8> end
|  9>
| 10> %scf
| 11>   MaxIter 150
| 12> end
| 13>
| 14>
| 15>                          ****END OF INPUT****

CARTESIAN COORDINATES (ANGSTROEM)
---------------------------------
  C     -4.382623   -1.670889    1.216201
  C     -5.763539   -1.915170    0.705012
  C     -3.281728   -2.191272    0.294361
  C     -5.572364   -5.807798   -0.816445
  S     -6.903179   -4.619033   -0.528458
  H     -5.840812   -2.115205   -0.300646
  H     -6.408823   -1.148656    0.936124
  H     -6.174781   -2.790606    1.051433
  F     -8.114853   -5.250932   -0.957007
  O     -6.532715   -3.426838   -1.314848
  H     -4.328618   -2.139223    2.198103
  H     -4.261583   -0.597399    1.357248
  O     -6.865632   -4.294957    0.914118
  C     -3.474641   -3.605898   -0.259608
  H     -2.354548   -2.127602    0.871433
  H     -3.166611   -1.499693   -0.545037
  C     -3.827078   -4.661097    0.786174
  H     -2.560559   -3.889391   -0.788050
  H     -4.255932   -3.570040   -1.019300
  C     -4.457800   -5.941875    0.229195
  H     -5.177347   -5.542575   -1.797714
  H     -6.074202   -6.768894   -0.921272
  H     -4.530506   -4.253640    1.511979
  H     -2.933400   -4.932302    1.356825
  H     -3.681064   -6.562236   -0.229885
  H     -4.843942   -6.512728    1.075805

 Total Charge           Charge          ....    0
 Multiplicity           Mult            ....    1
 Number of Electrons    NEL             ....   98
 Basis Dimension        Dim             ....  437

ORBITAL ENERGIES
----------------

  NO   OCC          E(Eh)            E(eV)
   0   2.0000     -88.545094     -2409.4345
   1   2.0000     -24.628290      -670.1698
   2   2.0000     -18.991797      -516.7931
   3   2.0000     -18.990837      -516.7669
   4   2.0000     -10.185581      -277.1638
   5   2.0000     -10.145301      -276.0677
   6   2.0000     -10.110930      -275.1324
   7   2.0000     -10.099979      -274.8344
   8   2.0000     -10.091250      -274.5969
   9   2.0000     -10.076587      -274.1979
  10   2.0000     -10.015989      -272.5489
  11   2.0000      -8.156210      -221.9418
  12   2.0000      -6.176408      -168.0686
  13   2.0000      -6.169661      -167.8850
  14   2.0000      -6.169137      -167.8707
  15   2.0000      -1.563000       -42.5314
  16   2.0000      -1.280919       -34.8556
  17   2.0000      -1.175199       -31.9788
  18   2.0000      -1.018824       -27.7236
  19   2.0000      -0.975926       -26.5563
  20   2.0000      -0.927093       -25.2275
  21   2.0000      -0.897433       -24.4204
  22   2.0000      -0.859684       -23.3932
  23   2.0000      -0.812429       -22.1073
  24   2.0000      -0.775733       -21.1088
  25   2.0000      -0.760780       -20.7019
  26   2.0000      -0.743741       -20.2382
  27   2.0000      -0.708146       -19.2696
  28   2.0000      -0.695553       -18.9270
  29   2.0000      -0.647055       -17.6073
  30   2.0000      -0.642895       -17.4941
  31   2.0000      -0.620320       -16.8798
  32   2.0000      -0.613638       -16.6979
  33   2.0000      -0.585464       -15.9313
  34   2.0000      -0.576105       -15.6766
  35   2.0000      -0.560506       -15.2522
  36   2.0000      -0.548208       -14.9175
  37   2.0000      -0.523691       -14.2504
  38   2.0000      -0.515685       -14.0325
  39   2.0000      -0.510841       -13.9007
  40   2.0000      -0.480634       -13.0787
  41   2.0000      -0.475458       -12.9379
  42   2.0000      -0.469040       -12.7632
  43   2.0000      -0.463663       -12.6169
  44   2.0000      -0.452227       -12.3057
  45   2.0000      -0.438565       -11.9340
  46   2.0000      -0.418488       -11.3876
  47   2.0000      -0.412981       -11.2378
  48   2.0000      -0.390819       -10.6347
  49   0.0000       0.098852         2.6899
  50   0.0000       0.110360         3.0031
  51   0.0000       0.135448         3.6857
  52   0.0000       0.136602         3.7171
  53   0.0000       0.142281         3.8717

MULLIKEN ATOMIC CHARGES
-----------------------
   0 C :   -0.297917
   1 C :   -0.537166
   2 C :   -0.254187
   3 C :   -0.423646
   4 S :    0.835704
   5 H :    0.192140
   6 H :    0.140679
   7 H :    0.185140
   8 F :   -0.058668
   9 O :   -0.429256
  10 H :    0.146520
  11 H :    0.132738
  12 O :   -0.424476
  13 C :   -0.334336
  14 H :    0.132386
  15 H :    0.145621
  16 C :   -0.369123
  17 H :    0.143063
  18 H :    0.185344
  19 C :   -0.239712
  20 H :    0.228996
  21 H :    0.198766
  22 H :    0.208789
  23 H :    0.156103
  24 H :    0.164642
  25 H :    0.171856
Sum of atomic charges:   -0.0000000

LOEWDIN ATOMIC CHARGES
----------------------
   0 C :   -0.324318
   1 C :   -0.354473
   2 C :   -0.286684
   3 C :   -0.383281
   4 S :    0.541317
   5 H :    0.112806
   6 H :    0.109131
   7 H :    0.101402
   8 F :    0.127296
   9 O :   -0.276670
  10 H :    0.137860
  11 H :    0.140416
  12 O :   -0.269243
  13 C :   -0.288183
  14 H :    0.140863
  15 H :    0.145236
  16 C :   -0.283932
  17 H :    0.141493
  18 H :    0.145881
  19 C :   -0.291243
  20 H :    0.156077
  21 H :    0.146474
  22 H :    0.155077
  23 H :    0.146844
  24 H :    0.156089
  25 H :    0.153764

  Mayer bond orders larger than 0.100000
B(  0-C ,  1-C ) :   0.8564 B(  0-C ,  2-C ) :   0.9339 B(  0-C , 10-H ) :   0.9941
B(  0-C , 11-H ) :   0.9842 B(  1-C ,  5-H ) :   0.9755 B(  1-C ,  6-H ) :   0.9885
B(  1-C ,  7-H ) :   0.9664 B(  2-C , 13-C ) :   0.9522 B(  2-C , 14-H ) :   0.9911
B(  2-C , 15-H ) :   0.9834 B(  3-C ,  4-S ) :   0.9287 B(  3-C , 19-C ) :   0.9212
B(  3-C , 20-H ) :   0.9310 B(  3-C , 21-H ) :   0.9454 B(  4-S ,  8-F ) :   1.2113
B(  4-S ,  9-O ) :   1.8517 B(  4-S , 12-O ) :   1.8369 B( 13-C , 16-C ) :   0.8915
B( 13-C , 17-H ) :   0.9770 B( 13-C , 18-H ) :   0.9747 B( 16-C , 19-C ) :   0.9420
B( 16-C , 22-H ) :   0.9752 B( 16-C , 23-H ) :   0.9714 B( 19-C , 24-H ) :   0.9614
B( 19-C , 25-H ) :   0.9798

FINAL SINGLE POINT ENERGY      -922.464869369279

DIPOLE MOMENT
-------------
                                X             Y             Z
Electronic contribution:    -18.97004      -8.75078      -6.76469
Nuclear contribution   :     19.08524       6.89775       6.14221
                        -----------------------------------------
Total Dipole Moment    :      0.11520      -1.85303      -0.62247
                        -----------------------------------------
Magnitude (a.u.)       :      1.95818
Magnitude (Debye)      :      4.97729

Rotational constants in cm-1:     0.049343     0.024787     0.019726
Rotational constants in MHz :  1479.262779   743.087234   591.370705

                             ****ORCA TERMINATED NORMALLY****
TOTAL RUN TIME: 0 days 0 hours 0 minutes 40 seconds 186 msec
