                         Program Version 5.0.0 -  RELEASE  -
|  1> !LC-PBE RIJCOSX def2-TZVP def2/J TightSCF xyzfile
|  2>
|  3> *xyzfile 0 1 D2.xyz
|  4>
|  5> %MaxCore 64000
|  6>
|  7> %pal nprocs 18
|  8> end
|  9>
| 10> %scf
| 11>   MaxIter 150
| 12> end
| 13>
| 14>
| 15>                          ****END OF INPUT****

CARTESIAN COORDINATES (ANGSTROEM)
---------------------------------
  C     -4.382623   -1.670889    1.216201
  C     -5.763539   -1.915170    0.705012
  C     -3.281728   -2.191272    0.294361
  C     -5.572364   -5.807798   -0.816445
  S     -6.903179   -4.619033   -0.528458
  H     -5.840812   -2.115205   -0.300646
  H     -6.408823   -1.148656    0.936124
  H     -6.174781   -2.790606    1.051433
  O     -8.114853   -5.250932   -0.957007
  F     -6.532715   -3.426838   -1.314848
  H     -4.328618   -2.139223    2.198103
  H     -4.261583   -0.597399    1.357248
  O     -6.865632   -4.294957    0.914118
  C     -3.474641   -3.605898   -0.259608
  H     -2.354548   -2.127602    0.871433
  H     -3.166611   -1.499693   -0.545037
  C     -3.827078   -4.661097    0.786174
  H     -2.560559   -3.889391   -0.788050
  H     -4.255932   -3.570040   -1.019300
  C     -4.457800   -5.941875    0.229195
  H     -5.177347   -5.542575   -1.797714
  H     -6.074202   -6.768894   -0.921272
  H     -4.530506   -4.253640    1.511979
  H     -2.933400   -4.932302    1.356825
  H     -3.681064   -6.562236   -0.229885
  H     -4.843942   -6.512728    1.075805

 Total Charge           Charge          ....    0
 Multiplicity           Mult            ....    1
 Number of Electrons    NEL             ....   98
 Basis Dimension        Dim             ....  437

ORBITAL ENERGIES
----------------

  NO   OCC          E(Eh)            E(eV)
   0   2.0000     -88.539721     -2409.2883
   1   2.0000     -24.604039      -669.5099
   2   2.0000     -19.001626      -517.0605
   3   2.0000     -18.987603      -516.6790
   4   2.0000     -10.183483      -277.1067
   5   2.0000     -10.145103      -276.0623
   6   2.0000     -10.118591      -275.3409
   7   2.0000     -10.117217      -275.3035
   8   2.0000     -10.106027      -274.9990
   9   2.0000     -10.092719      -274.6368
  10   2.0000     -10.040486      -273.2155
  11   2.0000      -8.150875      -221.7966
  12   2.0000      -6.171343      -167.9308
  13   2.0000      -6.164418      -167.7423
  14   2.0000      -6.163536      -167.7183
  15   2.0000      -1.528920       -41.6040
  16   2.0000      -1.289310       -35.0839
  17   2.0000      -1.187390       -32.3105
  18   2.0000      -1.022292       -27.8180
  19   2.0000      -0.985810       -26.8253
  20   2.0000      -0.931039       -25.3349
  21   2.0000      -0.900193       -24.4955
  22   2.0000      -0.859455       -23.3870
  23   2.0000      -0.824415       -22.4335
  24   2.0000      -0.780633       -21.2421
  25   2.0000      -0.742067       -20.1927
  26   2.0000      -0.728295       -19.8179
  27   2.0000      -0.711895       -19.3716
  28   2.0000      -0.708893       -19.2900
  29   2.0000      -0.649713       -17.6796
  30   2.0000      -0.639939       -17.4136
  31   2.0000      -0.619285       -16.8516
  32   2.0000      -0.609910       -16.5965
  33   2.0000      -0.602512       -16.3952
  34   2.0000      -0.581213       -15.8156
  35   2.0000      -0.565737       -15.3945
  36   2.0000      -0.546840       -14.8803
  37   2.0000      -0.536477       -14.5983
  38   2.0000      -0.528447       -14.3798
  39   2.0000      -0.524544       -14.2736
  40   2.0000      -0.493670       -13.4334
  41   2.0000      -0.489024       -13.3070
  42   2.0000      -0.485543       -13.2123
  43   2.0000      -0.471107       -12.8195
  44   2.0000      -0.456481       -12.4215
  45   2.0000      -0.451209       -12.2780
  46   2.0000      -0.437526       -11.9057
  47   2.0000      -0.435989       -11.8639
  48   2.0000      -0.403151       -10.9703
  49   0.0000       0.100008         2.7214
  50   0.0000       0.115272         3.1367
  51   0.0000       0.124293         3.3822
  52   0.0000       0.128925         3.5082
  53   0.0000       0.142353         3.8736

MULLIKEN ATOMIC CHARGES
-----------------------
   0 C :   -0.300243
   1 C :   -0.555266
   2 C :   -0.258737
   3 C :   -0.436864
   4 S :    0.830573
   5 H :    0.142059
   6 H :    0.154525
   7 H :    0.220461
   8 O :   -0.377589
   9 F :   -0.095205
  10 H :    0.156712
  11 H :    0.139420
  12 O :   -0.426836
  13 C :   -0.329343
  14 H :    0.140548
  15 H :    0.149808
  16 C :   -0.383939
  17 H :    0.154254
  18 H :    0.147295
  19 C :   -0.226278
  20 H :    0.217016
  21 H :    0.224305
  22 H :    0.214675
  23 H :    0.160040
  24 H :    0.161438
  25 H :    0.177171
Sum of atomic charges:   -0.0000000

LOEWDIN ATOMIC CHARGES
----------------------
   0 C :   -0.320570
   1 C :   -0.356200
   2 C :   -0.286288
   3 C :   -0.380223
   4 S :    0.545972
   5 H :    0.102603
   6 H :    0.113170
   7 H :    0.102376
   8 O :   -0.244960
   9 F :    0.084429
  10 H :    0.141611
  11 H :    0.142453
  12 O :   -0.268281
  13 C :   -0.288597
  14 H :    0.144134
  15 H :    0.145290
  16 C :   -0.285753
  17 H :    0.145128
  18 H :    0.135267
  19 C :   -0.293559
  20 H :    0.148210
  21 H :    0.160129
  22 H :    0.155363
  23 H :    0.148084
  24 H :    0.154511
  25 H :    0.155702

  Mayer bond orders larger than 0.100000
B(  0-C ,  1-C ) :   0.8556 B(  0-C ,  2-C ) :   0.9292 B(  0-C , 10-H ) :   0.9925
B(  0-C , 11-H ) :   0.9838 B(  1-C ,  5-H ) :   0.9880 B(  1-C ,  6-H ) :   0.9839
B(  1-C ,  7-H ) :   0.9527 B(  2-C , 13-C ) :   0.9454 B(  2-C , 14-H ) :   0.9886
B(  2-C , 15-H ) :   0.9850 B(  3-C ,  4-S ) :   0.9281 B(  3-C , 19-C ) :   0.9085
B(  3-C , 20-H ) :   0.9384 B(  3-C , 21-H ) :   0.9408 B(  4-S ,  8-O ) :   2.0207
B(  4-S ,  9-F ) :   1.1259 B(  4-S , 12-O ) :   1.8116 B( 13-C , 16-C ) :   0.8916
B( 13-C , 17-H ) :   0.9760 B( 13-C , 18-H ) :   0.9891 B( 16-C , 19-C ) :   0.9355
B( 16-C , 22-H ) :   0.9744 B( 16-C , 23-H ) :   0.9689 B( 19-C , 24-H ) :   0.9603
B( 19-C , 25-H ) :   0.9757

FINAL SINGLE POINT ENERGY      -922.483028720622

DIPOLE MOMENT
-------------
                                X             Y             Z
Electronic contribution:    -15.93193      -5.38620      -7.25545
Nuclear contribution   :     17.25367       4.78608       6.55647
                        -----------------------------------------
Total Dipole Moment    :      1.32174      -0.60012      -0.69898
                        -----------------------------------------
Magnitude (a.u.)       :      1.61112
Magnitude (Debye)      :      4.09515

Rotational constants in cm-1:     0.048508     0.025517     0.020225
Rotational constants in MHz :  1454.219007   764.979652   606.316599

                             ****ORCA TERMINATED NORMALLY****
TOTAL RUN TIME: 0 days 0 hours 0 minutes 35 seconds 921 msec
