                         Program Version 5.0.0 -  RELEASE  -
|  1> !LC-PBE RIJCOSX def2-TZVP def2/J TightSCF xyzfile
|  2>
|  3> *xyzfile 0 1 D3.xyz
|  4>
|  5> %MaxCore 64000
|  6>
|  7> %pal nprocs 18
|  8> end
|  9>
| 10> %scf
| 11>   MaxIter 150
| 12> end
| 13>
| 14>
| 15>                          ****END OF INPUT****

CARTESIAN COORDINATES (ANGSTROEM)
---------------------------------
  C     -4.382623   -1.670889    1.216201
  C     -5.763539   -1.915170    0.705012
  C     -3.281728   -2.191272    0.294361
  C     -5.572364   -5.807798   -0.816445
  S     -6.903179   -4.619033   -0.528458
  H     -5.840812   -2.115205   -0.300646
  H     -6.408823   -1.148656    0.936124
  H     -6.174781   -2.790606    1.051433
  O     -8.114853   -5.250932   -0.957007
  O     -6.532715   -3.426838   -1.314848
  H     -4.328618   -2.139223    2.198103
  H     -4.261583   -0.597399    1.357248
  F     -6.865632   -4.294957    0.914118
  C     -3.474641   -3.605898   -0.259608
  H     -2.354548   -2.127602    0.871433
  H     -3.166611   -1.499693   -0.545037
  C     -3.827078   -4.661097    0.786174
  H     -2.560559   -3.889391   -0.788050
  H     -4.255932   -3.570040   -1.019300
  C     -4.457800   -5.941875    0.229195
  H     -5.177347   -5.542575   -1.797714
  H     -6.074202   -6.768894   -0.921272
  H     -4.530506   -4.253640    1.511979
  H     -2.933400   -4.932302    1.356825
  H     -3.681064   -6.562236   -0.229885
  H     -4.843942   -6.512728    1.075805

 Total Charge           Charge          ....    0
 Multiplicity           Mult            ....    1
 Number of Electrons    NEL             ....   98
 Basis Dimension        Dim             ....  437

ORBITAL ENERGIES
----------------

  NO   OCC          E(Eh)            E(eV)
   0   2.0000     -88.538780     -2409.2627
   1   2.0000     -24.603679      -669.5002
   2   2.0000     -19.001130      -517.0470
   3   2.0000     -18.985874      -516.6319
   4   2.0000     -10.182586      -277.0822
   5   2.0000     -10.150252      -276.2024
   6   2.0000     -10.125752      -275.5357
   7   2.0000     -10.110271      -275.1145
   8   2.0000     -10.103150      -274.9207
   9   2.0000     -10.093287      -274.6523
  10   2.0000     -10.042472      -273.2696
  11   2.0000      -8.150010      -221.7730
  12   2.0000      -6.170651      -167.9120
  13   2.0000      -6.163296      -167.7118
  14   2.0000      -6.162743      -167.6968
  15   2.0000      -1.528073       -41.5810
  16   2.0000      -1.289413       -35.0867
  17   2.0000      -1.186139       -32.2765
  18   2.0000      -1.025359       -27.9014
  19   2.0000      -0.984823       -26.7984
  20   2.0000      -0.930942       -25.3322
  21   2.0000      -0.899211       -24.4688
  22   2.0000      -0.860349       -23.4113
  23   2.0000      -0.823972       -22.4214
  24   2.0000      -0.785057       -21.3625
  25   2.0000      -0.745195       -20.2778
  26   2.0000      -0.738263       -20.0892
  27   2.0000      -0.708425       -19.2772
  28   2.0000      -0.696584       -18.9550
  29   2.0000      -0.646521       -17.5927
  30   2.0000      -0.641210       -17.4482
  31   2.0000      -0.623649       -16.9703
  32   2.0000      -0.604412       -16.4469
  33   2.0000      -0.598049       -16.2737
  34   2.0000      -0.591381       -16.0923
  35   2.0000      -0.568611       -15.4727
  36   2.0000      -0.548043       -14.9130
  37   2.0000      -0.531532       -14.4637
  38   2.0000      -0.528824       -14.3900
  39   2.0000      -0.527497       -14.3539
  40   2.0000      -0.495584       -13.4855
  41   2.0000      -0.490142       -13.3374
  42   2.0000      -0.480349       -13.0710
  43   2.0000      -0.464424       -12.6376
  44   2.0000      -0.462657       -12.5895
  45   2.0000      -0.453114       -12.3299
  46   2.0000      -0.433329       -11.7915
  47   2.0000      -0.429198       -11.6791
  48   2.0000      -0.415310       -11.3012
  49   0.0000       0.090446         2.4612
  50   0.0000       0.121385         3.3030
  51   0.0000       0.128731         3.5030
  52   0.0000       0.132566         3.6073
  53   0.0000       0.144593         3.9346

MULLIKEN ATOMIC CHARGES
-----------------------
   0 C :   -0.302408
   1 C :   -0.541154
   2 C :   -0.255766
   3 C :   -0.410093
   4 S :    0.827784
   5 H :    0.224701
   6 H :    0.155952
   7 H :    0.124880
   8 O :   -0.377012
   9 O :   -0.434958
  10 H :    0.149650
  11 H :    0.142181
  12 F :   -0.094813
  13 C :   -0.339194
  14 H :    0.137255
  15 H :    0.151712
  16 C :   -0.378982
  17 H :    0.149912
  18 H :    0.198665
  19 C :   -0.268681
  20 H :    0.230147
  21 H :    0.217187
  22 H :    0.185468
  23 H :    0.164458
  24 H :    0.165525
  25 H :    0.177586
Sum of atomic charges:    0.0000000

LOEWDIN ATOMIC CHARGES
----------------------
   0 C :   -0.322157
   1 C :   -0.356195
   2 C :   -0.285354
   3 C :   -0.373877
   4 S :    0.545441
   5 H :    0.116989
   6 H :    0.113530
   7 H :    0.094479
   8 O :   -0.245190
   9 O :   -0.278243
  10 H :    0.137960
  11 H :    0.143603
  12 F :    0.086896
  13 C :   -0.288369
  14 H :    0.142438
  15 H :    0.147376
  16 C :   -0.288069
  17 H :    0.144156
  18 H :    0.147979
  19 C :   -0.302055
  20 H :    0.160443
  21 H :    0.154844
  22 H :    0.146551
  23 H :    0.149517
  24 H :    0.156277
  25 H :    0.151032

  Mayer bond orders larger than 0.100000
B(  0-C ,  1-C ) :   0.8535 B(  0-C ,  2-C ) :   0.9311 B(  0-C , 10-H ) :   0.9937
B(  0-C , 11-H ) :   0.9831 B(  1-C ,  5-H ) :   0.9640 B(  1-C ,  6-H ) :   0.9839
B(  1-C ,  7-H ) :   0.9876 B(  2-C , 13-C ) :   0.9486 B(  2-C , 14-H ) :   0.9906
B(  2-C , 15-H ) :   0.9823 B(  3-C ,  4-S ) :   0.9277 B(  3-C , 19-C ) :   0.9204
B(  3-C , 20-H ) :   0.9315 B(  3-C , 21-H ) :   0.9449 B(  4-S ,  8-O ) :   2.0207
B(  4-S ,  9-O ) :   1.8291 B(  4-S , 12-F ) :   1.1164 B( 13-C , 16-C ) :   0.8715
B( 13-C , 17-H ) :   0.9739 B( 13-C , 18-H ) :   0.9738 B( 16-C , 19-C ) :   0.9240
B( 16-C , 22-H ) :   0.9935 B( 16-C , 23-H ) :   0.9699 B( 19-C , 24-H ) :   0.9606
B( 19-C , 25-H ) :   0.9848

FINAL SINGLE POINT ENERGY      -922.482661965550

DIPOLE MOMENT
-------------
                                X             Y             Z
Electronic contribution:    -16.49495      -6.89286      -3.42153
Nuclear contribution   :     17.63907       5.79106       3.97609
                        -----------------------------------------
Total Dipole Moment    :      1.14412      -1.10180       0.55457
                        -----------------------------------------
Magnitude (a.u.)       :      1.68241
Magnitude (Debye)      :      4.27635

Rotational constants in cm-1:     0.048663     0.025472     0.020259
Rotational constants in MHz :  1458.892793   763.621130   607.350055

                             ****ORCA TERMINATED NORMALLY****
TOTAL RUN TIME: 0 days 0 hours 0 minutes 44 seconds 161 msec
