                         Program Version 5.0.0 -  RELEASE  -
|  1> !LC-PBE RIJCOSX def2-TZVP def2/J TightSCF
|  2> *xyz -1 1
|  3> C          4.90646       -3.10282       -5.95484
|  4> C          3.51177       -2.80621       -6.49228
|  5> H          2.73604       -3.37345       -5.97374
|  6> H          3.44490       -3.04083       -7.55528
|  7> S          3.00462       -1.09621       -6.38926
|  8> O          4.12886       -0.32965       -6.95372
|  9> O          1.78128       -1.00078       -7.13640
| 10> O          2.85155       -0.78368       -4.95679
| 11> H          5.62703       -2.52424       -6.49422
| 12> H          5.12164       -4.14387       -6.07654
| 13> H          4.95004       -2.84862       -4.91639
| 14> *
| 15>
| 16> %MaxCore 64000
| 17>
| 18> %pal nprocs 4
| 19> end
| 20>
| 21> %scf
| 22>   MaxIter 150
| 23> end
| 24>
| 25>
| 26>                          ****END OF INPUT****

CARTESIAN COORDINATES (ANGSTROEM)
---------------------------------
  C      4.906460   -3.102820   -5.954840
  C      3.511770   -2.806210   -6.492280
  H      2.736040   -3.373450   -5.973740
  H      3.444900   -3.040830   -7.555280
  S      3.004620   -1.096210   -6.389260
  O      4.128860   -0.329650   -6.953720
  O      1.781280   -1.000780   -7.136400
  O      2.851550   -0.783680   -4.956790
  H      5.627030   -2.524240   -6.494220
  H      5.121640   -4.143870   -6.076540
  H      4.950040   -2.848620   -4.916390

 Total Charge           Charge          ....   -1
 Multiplicity           Mult            ....    1
 Number of Electrons    NEL             ....   58
 Basis Dimension        Dim             ....  222

ORBITAL ENERGIES
----------------

  NO   OCC          E(Eh)            E(eV)
   0   2.0000     -88.265680     -2401.8313
   1   2.0000     -18.754545      -510.3371
   2   2.0000     -18.741673      -509.9869
   3   2.0000     -18.741122      -509.9719
   4   2.0000      -9.979000      -271.5424
   5   2.0000      -9.968708      -271.2623
   6   2.0000      -7.876259      -214.3239
   7   2.0000      -5.893078      -160.3588
   8   2.0000      -5.891717      -160.3218
   9   2.0000      -5.891391      -160.3129
  10   2.0000      -1.093147       -29.7460
  11   2.0000      -0.947318       -25.7778
  12   2.0000      -0.926629       -25.2149
  13   2.0000      -0.812378       -22.1059
  14   2.0000      -0.674719       -18.3600
  15   2.0000      -0.530756       -14.4426
  16   2.0000      -0.466108       -12.6834
  17   2.0000      -0.460832       -12.5399
  18   2.0000      -0.418879       -11.3983
  19   2.0000      -0.403808       -10.9882
  20   2.0000      -0.392679       -10.6853
  21   2.0000      -0.364687        -9.9236
  22   2.0000      -0.344331        -9.3697
  23   2.0000      -0.287932        -7.8350
  24   2.0000      -0.286694        -7.8013
  25   2.0000      -0.246271        -6.7014
  26   2.0000      -0.233149        -6.3443
  27   2.0000      -0.232782        -6.3343
  28   2.0000      -0.191318        -5.2060
  29   0.0000       0.255379         6.9492
  30   0.0000       0.299247         8.1429
  31   0.0000       0.314525         8.5587
  32   0.0000       0.320051         8.7090
  33   0.0000       0.349747         9.5171

MULLIKEN ATOMIC CHARGES
-----------------------
   0 C :   -0.425858
   1 C :   -0.302194
   2 H :    0.123866
   3 H :    0.125358
   4 S :    0.727698
   5 O :   -0.567688
   6 O :   -0.517739
   7 O :   -0.565835
   8 H :    0.154297
   9 H :    0.102053
  10 H :    0.146044
Sum of atomic charges:   -1.0000000

LOEWDIN ATOMIC CHARGES
----------------------
   0 C :   -0.360894
   1 C :   -0.445286
   2 H :    0.128018
   3 H :    0.129430
   4 S :    0.392763
   5 O :   -0.413917
   6 O :   -0.367433
   7 O :   -0.418833
   8 H :    0.124715
   9 H :    0.107749
  10 H :    0.123689

  Mayer bond orders larger than 0.100000
B(  0-C ,  1-C ) :   0.9447 B(  0-C ,  8-H ) :   0.9678 B(  0-C ,  9-H ) :   0.9726
B(  0-C , 10-H ) :   0.9703 B(  1-C ,  2-H ) :   0.9619 B(  1-C ,  3-H ) :   0.9598
B(  1-C ,  4-S ) :   0.9051 B(  4-S ,  5-O ) :   1.7550 B(  4-S ,  6-O ) :   1.8597
B(  4-S ,  7-O ) :   1.7779

FINAL SINGLE POINT ENERGY      -702.102649830181

DIPOLE MOMENT
-------------
                                X             Y             Z
Electronic contribution:     -4.35297       6.33130      -0.67059
Nuclear contribution   :      5.05690      -8.21735       0.57889
                        -----------------------------------------
Total Dipole Moment    :      0.70394      -1.88605      -0.09170
                        -----------------------------------------
Magnitude (a.u.)       :      2.01522
Magnitude (Debye)      :      5.12229

Rotational constants in cm-1:     0.162547     0.083494     0.081672
Rotational constants in MHz :  4873.033504  2503.090885  2448.458543

                             ****ORCA TERMINATED NORMALLY****
TOTAL RUN TIME: 0 days 0 hours 0 minutes 23 seconds 139 msec
