                         Program Version 5.0.0 -  RELEASE  -
|  1> !LC-PBE RIJCOSX def2-TZVP def2/J TightSCF
|  2> *xyz 1 1
|  3> C          4.49059        1.15590       -2.46929
|  4> N          4.30539        1.22276       -3.90832
|  5> C          4.63192        2.24637       -4.67096
|  6> N          4.54169        2.14399       -5.98714
|  7> N          5.08409        3.39358       -4.11855
|  8> H          4.92067        3.57050       -3.13587
|  9> H          5.25465        4.19739       -4.70696
| 10> H          3.82453        0.44911       -4.35093
| 11> H          4.34337        1.24932       -6.41665
| 12> H          4.67671        2.95662       -6.57411
| 13> C          5.94213        0.93950       -2.03689
| 14> H          3.86431        0.32853       -2.13661
| 15> H          4.07623        2.04999       -1.98901
| 16> H          6.32982        0.06401       -2.51451
| 17> H          5.98308        0.81426       -0.97504
| 18> H          6.52865        1.78889       -2.31873
| 19> *
| 20>
| 21> %MaxCore 64000
| 22>
| 23> %pal nprocs 4
| 24> end
| 25>
| 26> %scf
| 27>   MaxIter 150
| 28> end
| 29>
| 30>
| 31>                          ****END OF INPUT****

CARTESIAN COORDINATES (ANGSTROEM)
---------------------------------
  C      4.490590    1.155900   -2.469290
  N      4.305390    1.222760   -3.908320
  C      4.631920    2.246370   -4.670960
  N      4.541690    2.143990   -5.987140
  N      5.084090    3.393580   -4.118550
  H      4.920670    3.570500   -3.135870
  H      5.254650    4.197390   -4.706960
  H      3.824530    0.449110   -4.350930
  H      4.343370    1.249320   -6.416650
  H      4.676710    2.956620   -6.574110
  C      5.942130    0.939500   -2.036890
  H      3.864310    0.328530   -2.136610
  H      4.076230    2.049990   -1.989010
  H      6.329820    0.064010   -2.514510
  H      5.983080    0.814260   -0.975040
  H      6.528650    1.788890   -2.318730

 Total Charge           Charge          ....    1
 Multiplicity           Mult            ....    1
 Number of Electrons    NEL             ....   48
 Basis Dimension        Dim             ....  246

ORBITAL ENERGIES
----------------

  NO   OCC          E(Eh)            E(eV)
   0   2.0000     -14.440833      -392.9550
   1   2.0000     -14.438185      -392.8830
   2   2.0000     -14.435373      -392.8065
   3   2.0000     -10.459532      -284.6183
   4   2.0000     -10.322428      -280.8876
   5   2.0000     -10.245598      -278.7969
   6   2.0000      -1.397059       -38.0159
   7   2.0000      -1.278898       -34.8006
   8   2.0000      -1.260635       -34.3036
   9   2.0000      -1.103713       -30.0335
  10   2.0000      -1.005416       -27.3587
  11   2.0000      -0.958922       -26.0936
  12   2.0000      -0.939235       -25.5579
  13   2.0000      -0.892576       -24.2882
  14   2.0000      -0.836054       -22.7502
  15   2.0000      -0.829318       -22.5669
  16   2.0000      -0.806787       -21.9538
  17   2.0000      -0.772081       -21.0094
  18   2.0000      -0.745675       -20.2909
  19   2.0000      -0.696195       -18.9444
  20   2.0000      -0.663706       -18.0604
  21   2.0000      -0.640619       -17.4321
  22   2.0000      -0.609632       -16.5889
  23   2.0000      -0.577826       -15.7235
  24   0.0000      -0.070436        -1.9166
  25   0.0000      -0.064626        -1.7586
  26   0.0000      -0.032187        -0.8759
  27   0.0000      -0.024403        -0.6640
  28   0.0000      -0.000337        -0.0092

MULLIKEN ATOMIC CHARGES
-----------------------
   0 C :   -0.318172
   1 N :   -0.232569
   2 C :    0.401586
   3 N :   -0.423737
   4 N :   -0.442184
   5 H :    0.310883
   6 H :    0.296647
   7 H :    0.283547
   8 H :    0.307635
   9 H :    0.307111
  10 C :   -0.398520
  11 H :    0.195324
  12 H :    0.187646
  13 H :    0.172404
  14 H :    0.193554
  15 H :    0.158847
Sum of atomic charges:    1.0000000

LOEWDIN ATOMIC CHARGES
----------------------
   0 C :   -0.306942
   1 N :    0.168392
   2 C :   -0.404192
   3 N :    0.062495
   4 N :    0.047875
   5 H :    0.199978
   6 H :    0.199545
   7 H :    0.218357
   8 H :    0.204524
   9 H :    0.204041
  10 C :   -0.304086
  11 H :    0.159144
  12 H :    0.145366
  13 H :    0.134932
  14 H :    0.143011
  15 H :    0.127558

  Mayer bond orders larger than 0.100000
B(  0-C ,  1-N ) :   0.8822 B(  0-C , 10-C ) :   0.9455 B(  0-C , 11-H ) :   0.9494
B(  0-C , 12-H ) :   0.9836 B(  1-N ,  2-C ) :   1.3942 B(  1-N ,  7-H ) :   0.8997
B(  2-C ,  3-N ) :   1.3411 B(  2-C ,  4-N ) :   1.3162 B(  3-N ,  8-H ) :   0.8912
B(  3-N ,  9-H ) :   0.8896 B(  4-N ,  5-H ) :   0.8814 B(  4-N ,  6-H ) :   0.8969
B( 10-C , 13-H ) :   0.9584 B( 10-C , 14-H ) :   0.9639 B( 10-C , 15-H ) :   0.9605

FINAL SINGLE POINT ENERGY      -283.602239611882

DIPOLE MOMENT
-------------
                                X             Y             Z
Electronic contribution:     -1.83720       1.58742      -4.49228
Nuclear contribution   :      1.34333      -1.11039       3.43667
                        -----------------------------------------
Total Dipole Moment    :     -0.49388       0.47702      -1.05562
                        -----------------------------------------
Magnitude (a.u.)       :      1.25928
Magnitude (Debye)      :      3.20084

Rotational constants in cm-1:     0.227161     0.075356     0.065003
Rotational constants in MHz :  6810.114531  2259.122204  1948.738523

                             ****ORCA TERMINATED NORMALLY****
TOTAL RUN TIME: 0 days 0 hours 0 minutes 33 seconds 111 msec
