                         Program Version 5.0.0 -  RELEASE  -
|  1> !LC-PBE RIJCOSX def2-TZVP def2/J TightSCF xyzfile
|  2>
|  3> *xyzfile 0 1 B.xyz
|  4>
|  5> %MaxCore 64000
|  6>
|  7> %pal nprocs 18
|  8> end
|  9>
| 10> %scf
| 11>   MaxIter 150
| 12> end
| 13>
| 14>
| 15>                          ****END OF INPUT****

CARTESIAN COORDINATES (ANGSTROEM)
---------------------------------
  C      4.490588    1.155899   -2.469290
  N      4.305394    1.222762   -3.908317
  C      4.906458   -3.102816   -5.954844
  C      3.511771   -2.806215   -6.492283
  H      2.736044   -3.373445   -5.973736
  H      3.444904   -3.040831   -7.555281
  S      3.004618   -1.096206   -6.389259
  C      4.631918    2.246365   -4.670958
  N      4.541686    2.143990   -5.987139
  N      5.084086    3.393584   -4.118545
  H      4.920675    3.570501   -3.135870
  H      5.254652    4.197390   -4.706956
  H      3.824530    0.449113   -4.350926
  H      4.343373    1.249318   -6.416646
  H      4.676712    2.956624   -6.574113
  O      4.128856   -0.329647   -6.953717
  O      1.781285   -1.000779   -7.136399
  C      5.942129    0.939500   -2.036893
  H      3.864305    0.328532   -2.136611
  H      4.076233    2.049994   -1.989010
  C      6.462677   -3.117775   -3.944671
  C      5.024977   -3.025679   -4.437625
  H      4.423321   -3.818693   -3.977648
  H      4.579350   -2.087131   -4.108727
  H      5.201533   -4.100207   -6.296905
  H      5.605922   -2.397822   -6.413368
  C      6.559957   -0.356290   -2.559086
  H      5.967976    0.952567   -0.942444
  H      6.547184    1.788331   -2.368849
  C      6.006283   -1.615917   -1.899301
  H      7.642360   -0.318000   -2.402059
  H      6.414855   -0.403433   -3.642587
  C      6.608718   -2.917014   -2.435655
  H      6.190324   -1.561115   -0.820948
  H      4.919250   -1.651245   -2.016586
  H      7.066975   -2.374258   -4.475514
  H      6.887808   -4.089747   -4.215332
  H      6.135197   -3.755573   -1.915159
  H      7.671142   -2.955503   -2.172291
  O      2.851546   -0.783683   -4.956789

 Total Charge           Charge          ....    0
 Multiplicity           Mult            ....    1
 Number of Electrons    NEL             ....  144
 Basis Dimension        Dim             ....  671

ORBITAL ENERGIES
----------------

  NO   OCC          E(Eh)            E(eV)
   0   2.0000     -88.425527     -2406.1809
   1   2.0000     -18.916678      -514.7490
   2   2.0000     -18.916348      -514.7400
   3   2.0000     -18.901290      -514.3302
   4   2.0000     -14.291050      -388.8792
   5   2.0000     -14.261198      -388.0669
   6   2.0000     -14.256081      -387.9277
   7   2.0000     -10.295298      -280.1493
   8   2.0000     -10.181428      -277.0508
   9   2.0000     -10.135402      -275.7983
  10   2.0000     -10.118173      -275.3295
  11   2.0000     -10.111402      -275.1452
  12   2.0000     -10.107593      -275.0416
  13   2.0000     -10.106497      -275.0118
  14   2.0000     -10.099336      -274.8169
  15   2.0000     -10.098017      -274.7810
  16   2.0000     -10.089744      -274.5559
  17   2.0000      -8.036893      -218.6950
  18   2.0000      -6.053388      -164.7211
  19   2.0000      -6.052846      -164.7063
  20   2.0000      -6.051620      -164.6730
  21   2.0000      -1.258611       -34.2485
  22   2.0000      -1.233495       -33.5651
  23   2.0000      -1.119083       -30.4518
  24   2.0000      -1.110098       -30.2073
  25   2.0000      -1.103768       -30.0351
  26   2.0000      -1.096900       -29.8482
  27   2.0000      -1.006572       -27.3902
  28   2.0000      -0.978902       -26.6373
  29   2.0000      -0.949604       -25.8400
  30   2.0000      -0.907455       -24.6931
  31   2.0000      -0.868831       -23.6421
  32   2.0000      -0.838679       -22.8216
  33   2.0000      -0.809225       -22.0201
  34   2.0000      -0.785076       -21.3630
  35   2.0000      -0.772798       -21.0289
  36   2.0000      -0.753283       -20.4979
  37   2.0000      -0.729344       -19.8465
  38   2.0000      -0.706066       -19.2130
  39   2.0000      -0.695560       -18.9271
  40   2.0000      -0.684584       -18.6285
  41   2.0000      -0.663781       -18.0624
  42   2.0000      -0.649320       -17.6689
  43   2.0000      -0.632419       -17.2090
  44   2.0000      -0.627865       -17.0851
  45   2.0000      -0.614660       -16.7257
  46   2.0000      -0.608023       -16.5451
  47   2.0000      -0.596808       -16.2400
  48   2.0000      -0.577217       -15.7069
  49   2.0000      -0.574833       -15.6420
  50   2.0000      -0.569705       -15.5025
  51   2.0000      -0.555295       -15.1104
  52   2.0000      -0.548510       -14.9257
  53   2.0000      -0.535816       -14.5803
  54   2.0000      -0.524468       -14.2715
  55   2.0000      -0.515505       -14.0276
  56   2.0000      -0.496324       -13.5057
  57   2.0000      -0.489175       -13.3111
  58   2.0000      -0.479491       -13.0476
  59   2.0000      -0.463166       -12.6034
  60   2.0000      -0.457864       -12.4591
  61   2.0000      -0.454114       -12.3571
  62   2.0000      -0.452893       -12.3238
  63   2.0000      -0.445213       -12.1149
  64   2.0000      -0.439317       -11.9544
  65   2.0000      -0.432635       -11.7726
  66   2.0000      -0.428529       -11.6609
  67   2.0000      -0.413258       -11.2453
  68   2.0000      -0.405087       -11.0230
  69   2.0000      -0.396034       -10.7766
  70   2.0000      -0.382248       -10.4015
  71   2.0000      -0.360418        -9.8075
  72   0.0000       0.067777         1.8443
  73   0.0000       0.084555         2.3009
  74   0.0000       0.101167         2.7529
  75   0.0000       0.120693         3.2842
  76   0.0000       0.129801         3.5321

MULLIKEN ATOMIC CHARGES
-----------------------
   0 C :   -0.412680
   1 N :   -0.186523
   2 C :   -0.300717
   3 C :   -0.306696
   4 H :    0.169042
   5 H :    0.180848
   6 S :    0.776676
   7 C :    0.379014
   8 N :   -0.413085
   9 N :   -0.482955
  10 H :    0.289155
  11 H :    0.271248
  12 H :    0.273046
  13 H :    0.315531
  14 H :    0.259844
  15 O :   -0.589416
  16 O :   -0.456307
  17 C :   -0.244332
  18 H :    0.225285
  19 H :    0.180014
  20 C :   -0.347799
  21 C :   -0.304926
  22 H :    0.141523
  23 H :    0.150102
  24 H :    0.145017
  25 H :    0.174670
  26 C :   -0.309042
  27 H :    0.159293
  28 H :    0.162663
  29 C :   -0.374241
  30 H :    0.158337
  31 H :    0.183021
  32 C :   -0.241838
  33 H :    0.151699
  34 H :    0.176484
  35 H :    0.165849
  36 H :    0.151372
  37 H :    0.152231
  38 H :    0.148675
  39 O :   -0.570080
Sum of atomic charges:   -0.0000000

LOEWDIN ATOMIC CHARGES
----------------------
   0 C :   -0.293139
   1 N :    0.177003
   2 C :   -0.307206
   3 C :   -0.391530
   4 H :    0.145313
   5 H :    0.147002
   6 S :    0.433565
   7 C :   -0.420664
   8 N :    0.058381
   9 N :    0.009742
  10 H :    0.187063
  11 H :    0.185218
  12 H :    0.176674
  13 H :    0.159720
  14 H :    0.184169
  15 O :   -0.372963
  16 O :   -0.316151
  17 C :   -0.288531
  18 H :    0.158677
  19 H :    0.136236
  20 C :   -0.290964
  21 C :   -0.290692
  22 H :    0.144508
  23 H :    0.143783
  24 H :    0.144961
  25 H :    0.150722
  26 C :   -0.283386
  27 H :    0.150970
  28 H :    0.142953
  29 C :   -0.289645
  30 H :    0.147990
  31 H :    0.151343
  32 C :   -0.285427
  33 H :    0.143873
  34 H :    0.144620
  35 H :    0.143187
  36 H :    0.143900
  37 H :    0.146020
  38 H :    0.143527
  39 O :   -0.370825

  Mayer bond orders larger than 0.100000
B(  0-C ,  1-N ) :   0.8876 B(  0-C , 17-C ) :   0.8889 B(  0-C , 18-H ) :   0.9708
B(  0-C , 19-H ) :   0.9979 B(  1-N ,  7-C ) :   1.4274 B(  1-N , 12-H ) :   0.7935
B(  2-C ,  3-C ) :   0.9472 B(  2-C , 21-C ) :   0.9459 B(  2-C , 24-H ) :   0.9675
B(  2-C , 25-H ) :   0.9679 B(  3-C ,  4-H ) :   0.9566 B(  3-C ,  5-H ) :   0.9631
B(  3-C ,  6-S ) :   0.9219 B(  6-S , 15-O ) :   1.5703 B(  6-S , 16-O ) :   1.9590
B(  6-S , 39-O ) :   1.5711 B(  7-C ,  8-N ) :   1.4018 B(  7-C ,  9-N ) :   1.2379
B(  8-N , 13-H ) :   0.7813 B(  8-N , 14-H ) :   0.9144 B(  9-N , 10-H ) :   0.8957
B(  9-N , 11-H ) :   0.9117 B( 12-H , 39-O ) :   0.1872 B( 13-H , 15-O ) :   0.1656
B( 17-C , 26-C ) :   0.9427 B( 17-C , 27-H ) :   0.9788 B( 17-C , 28-H ) :   0.9837
B( 20-C , 21-C ) :   0.9063 B( 20-C , 32-C ) :   0.9368 B( 20-C , 35-H ) :   0.9922
B( 20-C , 36-H ) :   0.9790 B( 21-C , 22-H ) :   0.9685 B( 21-C , 23-H ) :   0.9691
B( 26-C , 29-C ) :   0.9006 B( 26-C , 30-H ) :   0.9749 B( 26-C , 31-H ) :   0.9662
B( 29-C , 32-C ) :   0.9468 B( 29-C , 33-H ) :   0.9739 B( 29-C , 34-H ) :   0.9831
B( 32-C , 37-H ) :   0.9895 B( 32-C , 38-H ) :   0.9909

FINAL SINGLE POINT ENERGY     -1180.627194489568

DIPOLE MOMENT
-------------
                                X             Y             Z
Electronic contribution:    -14.47954       8.39619     -15.29399
Nuclear contribution   :     16.79156      -5.47215      17.54258
                        -----------------------------------------
Total Dipole Moment    :      2.31202       2.92405       2.24859
                        -----------------------------------------
Magnitude (a.u.)       :      4.35335
Magnitude (Debye)      :     11.06533

Rotational constants in cm-1:     0.014207     0.012373     0.007472
Rotational constants in MHz :   425.900436   370.942493   224.006604

                             ****ORCA TERMINATED NORMALLY****
TOTAL RUN TIME: 0 days 0 hours 2 minutes 18 seconds 479 msec
