                         Program Version 5.0.0 -  RELEASE  -
|  1> !LC-PBE RIJCOSX def2-TZVP def2/J TightSCF
|  2> *xyz 0 1
|  3> C          4.90646       -3.10282       -5.95484
|  4> C          3.51177       -2.80621       -6.49228
|  5> H          2.73604       -3.37345       -5.97374
|  6> H          3.44490       -3.04083       -7.55528
|  7> S          3.00462       -1.09621       -6.38926
|  8> F          4.12886       -0.32965       -6.95372
|  9> O          1.78128       -1.00078       -7.13640
| 10> O          2.85155       -0.78368       -4.95679
| 11> H          5.62703       -2.52424       -6.49422
| 12> H          5.12164       -4.14387       -6.07654
| 13> H          4.95004       -2.84862       -4.91639
| 14> *
| 15>
| 16> %MaxCore 64000
| 17>
| 18> %pal nprocs 4
| 19> end
| 20>
| 21> %scf
| 22>   MaxIter 150
| 23> end
| 24>
| 25>
| 26>                          ****END OF INPUT****

CARTESIAN COORDINATES (ANGSTROEM)
---------------------------------
  C      4.906460   -3.102820   -5.954840
  C      3.511770   -2.806210   -6.492280
  H      2.736040   -3.373450   -5.973740
  H      3.444900   -3.040830   -7.555280
  S      3.004620   -1.096210   -6.389260
  F      4.128860   -0.329650   -6.953720
  O      1.781280   -1.000780   -7.136400
  O      2.851550   -0.783680   -4.956790
  H      5.627030   -2.524240   -6.494220
  H      5.121640   -4.143870   -6.076540
  H      4.950040   -2.848620   -4.916390

 Total Charge           Charge          ....    0
 Multiplicity           Mult            ....    1
 Number of Electrons    NEL             ....   58
 Basis Dimension        Dim             ....  222

ORBITAL ENERGIES
----------------

  NO   OCC          E(Eh)            E(eV)
   0   2.0000     -88.532620     -2409.0951
   1   2.0000     -24.600578      -669.4158
   2   2.0000     -18.994515      -516.8670
   3   2.0000     -18.981630      -516.5164
   4   2.0000     -10.183556      -277.1087
   5   2.0000     -10.138821      -275.8913
   6   2.0000      -8.143764      -221.6031
   7   2.0000      -6.164360      -167.7408
   8   2.0000      -6.157069      -167.5424
   9   2.0000      -6.156572      -167.5288
  10   2.0000      -1.522292       -41.4237
  11   2.0000      -1.281318       -34.8664
  12   2.0000      -1.175754       -31.9939
  13   2.0000      -1.010168       -27.4881
  14   2.0000      -0.890418       -24.2295
  15   2.0000      -0.840337       -22.8667
  16   2.0000      -0.743888       -20.2422
  17   2.0000      -0.726342       -19.7648
  18   2.0000      -0.697126       -18.9698
  19   2.0000      -0.645709       -17.5706
  20   2.0000      -0.624312       -16.9884
  21   2.0000      -0.599503       -16.3133
  22   2.0000      -0.579512       -15.7693
  23   2.0000      -0.551497       -15.0070
  24   2.0000      -0.538278       -14.6473
  25   2.0000      -0.520376       -14.1601
  26   2.0000      -0.474827       -12.9207
  27   2.0000      -0.461689       -12.5632
  28   2.0000      -0.449017       -12.2184
  29   0.0000       0.098761         2.6874
  30   0.0000       0.137781         3.7492
  31   0.0000       0.149864         4.0780
  32   0.0000       0.158087         4.3018
  33   0.0000       0.166595         4.5333

MULLIKEN ATOMIC CHARGES
-----------------------
   0 C :   -0.451262
   1 C :   -0.308196
   2 H :    0.201662
   3 H :    0.185957
   4 S :    0.763609
   5 F :   -0.097305
   6 O :   -0.377313
   7 O :   -0.425036
   8 H :    0.159709
   9 H :    0.164868
  10 H :    0.183308
Sum of atomic charges:    0.0000000

LOEWDIN ATOMIC CHARGES
----------------------
   0 C :   -0.335200
   1 C :   -0.407026
   2 H :    0.160058
   3 H :    0.149581
   4 S :    0.519011
   5 F :    0.075946
   6 O :   -0.255043
   7 O :   -0.304100
   8 H :    0.128035
   9 H :    0.133368
  10 H :    0.135371

  Mayer bond orders larger than 0.100000
B(  0-C ,  1-C ) :   0.9482 B(  0-C ,  8-H ) :   0.9649 B(  0-C ,  9-H ) :   0.9629
B(  0-C , 10-H ) :   0.9585 B(  1-C ,  2-H ) :   0.9337 B(  1-C ,  3-H ) :   0.9381
B(  1-C ,  4-S ) :   0.9273 B(  4-S ,  5-F ) :   1.1442 B(  4-S ,  6-O ) :   1.9836
B(  4-S ,  7-O ) :   1.9128

FINAL SINGLE POINT ENERGY      -726.604422779692

DIPOLE MOMENT
-------------
                                X             Y             Z
Electronic contribution:     -2.94473       8.15116      -1.77743
Nuclear contribution   :      4.18919      -9.36357       1.23251
                        -----------------------------------------
Total Dipole Moment    :      1.24446      -1.21241      -0.54492
                        -----------------------------------------
Magnitude (a.u.)       :      1.82086
Magnitude (Debye)      :      4.62827

Rotational constants in cm-1:     0.153152     0.082513     0.079874
Rotational constants in MHz :  4591.373714  2473.673397  2394.575279

                             ****ORCA TERMINATED NORMALLY****
TOTAL RUN TIME: 0 days 0 hours 0 minutes 20 seconds 608 msec
