                         Program Version 5.0.0 -  RELEASE  -
|  1> !LC-PBE RIJCOSX def2-TZVP def2/J TightSCF
|  2> *xyz 0 1
|  3> C          4.49059        1.15590       -2.46929
|  4> C          4.30539        1.22276       -3.90832
|  5> C          4.63192        2.24637       -4.67096
|  6> N          4.54169        2.14399       -5.98714
|  7> N          5.08409        3.39358       -4.11855
|  8> H          4.92067        3.57050       -3.13587
|  9> H          5.25465        4.19739       -4.70696
| 10> H          3.82453        0.44911       -4.35093
| 11> H          4.34337        1.24932       -6.41665
| 12> H          4.67671        2.95662       -6.57411
| 13> C          5.94213        0.93950       -2.03689
| 14> H          3.86431        0.32853       -2.13661
| 15> H          4.07623        2.04999       -1.98901
| 16> H          6.32982        0.06401       -2.51451
| 17> H          5.98308        0.81426       -0.97504
| 18> H          6.52865        1.78889       -2.31873
| 19> *
| 20>
| 21> %MaxCore 64000
| 22>
| 23> %pal nprocs 4
| 24> end
| 25>
| 26> %scf
| 27>   MaxIter 150
| 28> end
| 29>
| 30>
| 31>                          ****END OF INPUT****

CARTESIAN COORDINATES (ANGSTROEM)
---------------------------------
  C      4.490590    1.155900   -2.469290
  C      4.305390    1.222760   -3.908320
  C      4.631920    2.246370   -4.670960
  N      4.541690    2.143990   -5.987140
  N      5.084090    3.393580   -4.118550
  H      4.920670    3.570500   -3.135870
  H      5.254650    4.197390   -4.706960
  H      3.824530    0.449110   -4.350930
  H      4.343370    1.249320   -6.416650
  H      4.676710    2.956620   -6.574110
  C      5.942130    0.939500   -2.036890
  H      3.864310    0.328530   -2.136610
  H      4.076230    2.049990   -1.989010
  H      6.329820    0.064010   -2.514510
  H      5.983080    0.814260   -0.975040
  H      6.528650    1.788890   -2.318730

 Total Charge           Charge          ....    0
 Multiplicity           Mult            ....    1
 Number of Electrons    NEL             ....   48
 Basis Dimension        Dim             ....  246

ORBITAL ENERGIES
----------------

  NO   OCC          E(Eh)            E(eV)
   0   2.0000     -14.211791      -386.7225
   1   2.0000     -14.209320      -386.6552
   2   2.0000     -10.160245      -276.4743
   3   2.0000     -10.086301      -274.4622
   4   2.0000     -10.072750      -274.0935
   5   2.0000     -10.031019      -272.9579
   6   2.0000      -1.135572       -30.9005
   7   2.0000      -1.036596       -28.2072
   8   2.0000      -0.948472       -25.8092
   9   2.0000      -0.861044       -23.4302
  10   2.0000      -0.776552       -21.1311
  11   2.0000      -0.729182       -19.8421
  12   2.0000      -0.688804       -18.7433
  13   2.0000      -0.653953       -17.7950
  14   2.0000      -0.611815       -16.6483
  15   2.0000      -0.577031       -15.7018
  16   2.0000      -0.565140       -15.3782
  17   2.0000      -0.528599       -14.3839
  18   2.0000      -0.524337       -14.2679
  19   2.0000      -0.482549       -13.1308
  20   2.0000      -0.455572       -12.3967
  21   2.0000      -0.441418       -12.0116
  22   2.0000      -0.397880       -10.8269
  23   2.0000      -0.274537        -7.4705
  24   0.0000       0.106343         2.8937
  25   0.0000       0.134940         3.6719
  26   0.0000       0.147587         4.0160
  27   0.0000       0.164970         4.4891
  28   0.0000       0.171360         4.6629

MULLIKEN ATOMIC CHARGES
-----------------------
   0 C :   -0.338931
   1 C :   -0.413876
   2 C :    0.352346
   3 N :   -0.498054
   4 N :   -0.517534
   5 H :    0.268628
   6 H :    0.235879
   7 H :    0.134939
   8 H :    0.267067
   9 H :    0.238507
  10 C :   -0.384375
  11 H :    0.129688
  12 H :    0.117317
  13 H :    0.140434
  14 H :    0.132741
  15 H :    0.135224
Sum of atomic charges:   -0.0000000

LOEWDIN ATOMIC CHARGES
----------------------
   0 C :   -0.326339
   1 C :   -0.297591
   2 C :   -0.460894
   3 N :   -0.020543
   4 N :   -0.030078
   5 H :    0.178820
   6 H :    0.165506
   7 H :    0.126436
   8 H :    0.183619
   9 H :    0.167156
  10 C :   -0.324169
  11 H :    0.147815
  12 H :    0.132372
  13 H :    0.122767
  14 H :    0.115740
  15 H :    0.119384

  Mayer bond orders larger than 0.100000
B(  0-C ,  1-C ) :   0.9838 B(  0-C , 10-C ) :   0.9307 B(  0-C , 11-H ) :   0.9918
B(  0-C , 12-H ) :   0.9969 B(  1-C ,  2-C ) :   1.6539 B(  1-C ,  7-H ) :   0.9937
B(  2-C ,  3-N ) :   1.1364 B(  2-C ,  4-N ) :   1.1215 B(  3-N ,  8-H ) :   0.9185
B(  3-N ,  9-H ) :   0.9255 B(  4-N ,  5-H ) :   0.9108 B(  4-N ,  6-H ) :   0.9306
B( 10-C , 13-H ) :   0.9768 B( 10-C , 14-H ) :   0.9850 B( 10-C , 15-H ) :   0.9720

FINAL SINGLE POINT ENERGY      -267.135705658247

DIPOLE MOMENT
-------------
                                X             Y             Z
Electronic contribution:     -1.26363       2.02713      -4.15632
Nuclear contribution   :      1.23062      -1.24683       3.43056
                        -----------------------------------------
Total Dipole Moment    :     -0.03302       0.78030      -0.72576
                        -----------------------------------------
Magnitude (a.u.)       :      1.06616
Magnitude (Debye)      :      2.70996

Rotational constants in cm-1:     0.231477     0.075416     0.065327
Rotational constants in MHz :  6939.497385  2260.912204  1958.442932

                             ****ORCA TERMINATED NORMALLY****
TOTAL RUN TIME: 0 days 0 hours 0 minutes 33 seconds 848 msec
