                         Program Version 5.0.0 -  RELEASE  -
|  1> !LC-PBE RIJCOSX def2-TZVP def2/J TightSCF
|  2> *xyz 0 1
|  3> C          4.90646       -3.10282       -5.95484
|  4> C          3.51177       -2.80621       -6.49228
|  5> H          2.73604       -3.37345       -5.97374
|  6> H          3.44490       -3.04083       -7.55528
|  7> S          3.00462       -1.09621       -6.38926
|  8> O          4.12886       -0.32965       -6.95372
|  9> F          1.78128       -1.00078       -7.13640
| 10> O          2.85155       -0.78368       -4.95679
| 11> H          5.62703       -2.52424       -6.49422
| 12> H          5.12164       -4.14387       -6.07654
| 13> H          4.95004       -2.84862       -4.91639
| 14> *
| 15>
| 16> %MaxCore 64000
| 17>
| 18> %pal nprocs 4
| 19> end
| 20>
| 21> %scf
| 22>   MaxIter 150
| 23> end
| 24>
| 25>
| 26>                          ****END OF INPUT****

CARTESIAN COORDINATES (ANGSTROEM)
---------------------------------
  C      4.906460   -3.102820   -5.954840
  C      3.511770   -2.806210   -6.492280
  H      2.736040   -3.373450   -5.973740
  H      3.444900   -3.040830   -7.555280
  S      3.004620   -1.096210   -6.389260
  O      4.128860   -0.329650   -6.953720
  F      1.781280   -1.000780   -7.136400
  O      2.851550   -0.783680   -4.956790
  H      5.627030   -2.524240   -6.494220
  H      5.121640   -4.143870   -6.076540
  H      4.950040   -2.848620   -4.916390

 Total Charge           Charge          ....    0
 Multiplicity           Mult            ....    1
 Number of Electrons    NEL             ....   58
 Basis Dimension        Dim             ....  222

ORBITAL ENERGIES
----------------

  NO   OCC          E(Eh)            E(eV)
   0   2.0000     -88.534705     -2409.1518
   1   2.0000     -24.620326      -669.9531
   2   2.0000     -18.981775      -516.5204
   3   2.0000     -18.981700      -516.5183
   4   2.0000     -10.184347      -277.1302
   5   2.0000     -10.133485      -275.7462
   6   2.0000      -8.145856      -221.6600
   7   2.0000      -6.166190      -167.7906
   8   2.0000      -6.159150      -167.5990
   9   2.0000      -6.158774      -167.5888
  10   2.0000      -1.553168       -42.2639
  11   2.0000      -1.268405       -34.5151
  12   2.0000      -1.162086       -31.6220
  13   2.0000      -1.006493       -27.3881
  14   2.0000      -0.905033       -24.6272
  15   2.0000      -0.842138       -22.9157
  16   2.0000      -0.749810       -20.4034
  17   2.0000      -0.747688       -20.3456
  18   2.0000      -0.708310       -19.2741
  19   2.0000      -0.646529       -17.5930
  20   2.0000      -0.627799       -17.0833
  21   2.0000      -0.580628       -15.7997
  22   2.0000      -0.572643       -15.5824
  23   2.0000      -0.547662       -14.9027
  24   2.0000      -0.524497       -14.2723
  25   2.0000      -0.521395       -14.1879
  26   2.0000      -0.464136       -12.6298
  27   2.0000      -0.458602       -12.4792
  28   2.0000      -0.437082       -11.8936
  29   0.0000       0.109581         2.9819
  30   0.0000       0.125872         3.4251
  31   0.0000       0.151130         4.1125
  32   0.0000       0.153993         4.1904
  33   0.0000       0.169162         4.6031

MULLIKEN ATOMIC CHARGES
-----------------------
   0 C :   -0.447554
   1 C :   -0.299452
   2 H :    0.182517
   3 H :    0.175849
   4 S :    0.764144
   5 O :   -0.419637
   6 F :   -0.063295
   7 O :   -0.417336
   8 H :    0.183131
   9 H :    0.162129
  10 H :    0.179505
Sum of atomic charges:   -0.0000000

LOEWDIN ATOMIC CHARGES
----------------------
   0 C :   -0.321312
   1 C :   -0.413779
   2 H :    0.147788
   3 H :    0.146529
   4 S :    0.513708
   5 O :   -0.297798
   6 F :    0.120163
   7 O :   -0.301336
   8 H :    0.136598
   9 H :    0.132846
  10 H :    0.136595

  Mayer bond orders larger than 0.100000
B(  0-C ,  1-C ) :   0.9619 B(  0-C ,  8-H ) :   0.9587 B(  0-C ,  9-H ) :   0.9599
B(  0-C , 10-H ) :   0.9603 B(  1-C ,  2-H ) :   0.9336 B(  1-C ,  3-H ) :   0.9330
B(  1-C ,  4-S ) :   0.9352 B(  4-S ,  5-O ) :   1.9012 B(  4-S ,  6-F ) :   1.1968
B(  4-S ,  7-O ) :   1.9158

FINAL SINGLE POINT ENERGY      -726.588428013587

DIPOLE MOMENT
-------------
                                X             Y             Z
Electronic contribution:     -6.99947       7.01509      -2.09153
Nuclear contribution   :      6.63544      -8.66423       1.42287
                        -----------------------------------------
Total Dipole Moment    :     -0.36403      -1.64914      -0.66866
                        -----------------------------------------
Magnitude (a.u.)       :      1.81640
Magnitude (Debye)      :      4.61691

Rotational constants in cm-1:     0.158118     0.080978     0.078216
Rotational constants in MHz :  4740.271775  2427.649826  2344.849020

                             ****ORCA TERMINATED NORMALLY****
TOTAL RUN TIME: 0 days 0 hours 0 minutes 20 seconds 426 msec
