                         Program Version 5.0.0 -  RELEASE  -
|  1> !LC-PBE RIJCOSX def2-TZVP def2/J TightSCF
|  2> *xyz 0 1
|  3> C          4.49059        1.15590       -2.46929
|  4> N          4.30539        1.22276       -3.90832
|  5> C          4.63192        2.24637       -4.67096
|  6> C          4.54169        2.14399       -5.98714
|  7> N          5.08409        3.39358       -4.11855
|  8> H          4.92067        3.57050       -3.13587
|  9> H          5.25465        4.19739       -4.70696
| 10> H          3.82453        0.44911       -4.35093
| 11> H          4.34337        1.24932       -6.41665
| 12> H          4.67671        2.95662       -6.57411
| 13> C          5.94213        0.93950       -2.03689
| 14> H          3.86431        0.32853       -2.13661
| 15> H          4.07623        2.04999       -1.98901
| 16> H          6.32982        0.06401       -2.51451
| 17> H          5.98308        0.81426       -0.97504
| 18> H          6.52865        1.78889       -2.31873
| 19> *
| 20>
| 21> %MaxCore 64000
| 22>
| 23> %pal nprocs 4
| 24> end
| 25>
| 26> %scf
| 27>   MaxIter 150
| 28> end
| 29>
| 30>
| 31>                          ****END OF INPUT****

CARTESIAN COORDINATES (ANGSTROEM)
---------------------------------
  C      4.490590    1.155900   -2.469290
  N      4.305390    1.222760   -3.908320
  C      4.631920    2.246370   -4.670960
  C      4.541690    2.143990   -5.987140
  N      5.084090    3.393580   -4.118550
  H      4.920670    3.570500   -3.135870
  H      5.254650    4.197390   -4.706960
  H      3.824530    0.449110   -4.350930
  H      4.343370    1.249320   -6.416650
  H      4.676710    2.956620   -6.574110
  C      5.942130    0.939500   -2.036890
  H      3.864310    0.328530   -2.136610
  H      4.076230    2.049990   -1.989010
  H      6.329820    0.064010   -2.514510
  H      5.983080    0.814260   -0.975040
  H      6.528650    1.788890   -2.318730

 Total Charge           Charge          ....    0
 Multiplicity           Mult            ....    1
 Number of Electrons    NEL             ....   48
 Basis Dimension        Dim             ....  246

ORBITAL ENERGIES
----------------

  NO   OCC          E(Eh)            E(eV)
   0   2.0000     -14.214008      -386.7828
   1   2.0000     -14.210616      -386.6905
   2   2.0000     -10.163838      -276.5721
   3   2.0000     -10.155780      -276.3528
   4   2.0000     -10.099748      -274.8281
   5   2.0000     -10.020098      -272.6607
   6   2.0000      -1.145826       -31.1795
   7   2.0000      -1.051177       -28.6040
   8   2.0000      -0.945598       -25.7310
   9   2.0000      -0.869972       -23.6731
  10   2.0000      -0.792057       -21.5530
  11   2.0000      -0.750827       -20.4310
  12   2.0000      -0.683985       -18.6122
  13   2.0000      -0.644744       -17.5444
  14   2.0000      -0.619204       -16.8494
  15   2.0000      -0.591728       -16.1017
  16   2.0000      -0.565822       -15.3968
  17   2.0000      -0.541301       -14.7296
  18   2.0000      -0.516358       -14.0508
  19   2.0000      -0.507127       -13.7996
  20   2.0000      -0.493603       -13.4316
  21   2.0000      -0.482863       -13.1394
  22   2.0000      -0.385238       -10.4829
  23   2.0000      -0.279238        -7.5985
  24   0.0000       0.107004         2.9117
  25   0.0000       0.132499         3.6055
  26   0.0000       0.144684         3.9370
  27   0.0000       0.158050         4.3008
  28   0.0000       0.178510         4.8575

MULLIKEN ATOMIC CHARGES
-----------------------
   0 C :   -0.290933
   1 N :   -0.298355
   2 C :    0.397402
   3 C :   -0.664471
   4 N :   -0.522831
   5 H :    0.249588
   6 H :    0.260360
   7 H :    0.248874
   8 H :    0.135016
   9 H :    0.128162
  10 C :   -0.369753
  11 H :    0.147416
  12 H :    0.144526
  13 H :    0.144274
  14 H :    0.141913
  15 H :    0.148813
Sum of atomic charges:   -0.0000000

LOEWDIN ATOMIC CHARGES
----------------------
   0 C :   -0.337446
   1 N :    0.115748
   2 C :   -0.465198
   3 C :   -0.354671
   4 N :   -0.027713
   5 H :    0.165853
   6 H :    0.180319
   7 H :    0.201261
   8 H :    0.102601
   9 H :    0.101872
  10 C :   -0.325012
  11 H :    0.140316
  12 H :    0.129684
  13 H :    0.125334
  14 H :    0.123022
  15 H :    0.124032

  Mayer bond orders larger than 0.100000
B(  0-C ,  1-N ) :   0.9579 B(  0-C , 10-C ) :   0.9286 B(  0-C , 11-H ) :   0.9741
B(  0-C , 12-H ) :   0.9970 B(  1-N ,  2-C ) :   1.1778 B(  1-N ,  7-H ) :   0.9271
B(  2-C ,  3-C ) :   1.5824 B(  2-C ,  4-N ) :   1.1119 B(  3-C ,  8-H ) :   1.0167
B(  3-C ,  9-H ) :   1.0082 B(  4-N ,  5-H ) :   0.9187 B(  4-N ,  6-H ) :   0.9231
B( 10-C , 13-H ) :   0.9697 B( 10-C , 14-H ) :   0.9724 B( 10-C , 15-H ) :   0.9657

FINAL SINGLE POINT ENERGY      -267.126671522425

DIPOLE MOMENT
-------------
                                X             Y             Z
Electronic contribution:     -1.43423       1.08915      -1.90649
Nuclear contribution   :      1.28075      -1.05140       2.98955
                        -----------------------------------------
Total Dipole Moment    :     -0.15348       0.03775       1.08307
                        -----------------------------------------
Magnitude (a.u.)       :      1.09454
Magnitude (Debye)      :      2.78210

Rotational constants in cm-1:     0.229858     0.078444     0.067377
Rotational constants in MHz :  6890.979812  2351.691803  2019.910665

                             ****ORCA TERMINATED NORMALLY****
TOTAL RUN TIME: 0 days 0 hours 0 minutes 31 seconds 706 msec
