                         Program Version 5.0.0 -  RELEASE  -
|  1> !LC-PBE RIJCOSX def2-TZVP def2/J TightSCF
|  2> *xyz 0 1
|  3> C          4.90646       -3.10282       -5.95484
|  4> C          3.51177       -2.80621       -6.49228
|  5> H          2.73604       -3.37345       -5.97374
|  6> H          3.44490       -3.04083       -7.55528
|  7> S          3.00462       -1.09621       -6.38926
|  8> O          4.12886       -0.32965       -6.95372
|  9> O          1.78128       -1.00078       -7.13640
| 10> F          2.85155       -0.78368       -4.95679
| 11> H          5.62703       -2.52424       -6.49422
| 12> H          5.12164       -4.14387       -6.07654
| 13> H          4.95004       -2.84862       -4.91639
| 14> *
| 15>
| 16> %MaxCore 64000
| 17>
| 18> %pal nprocs 4
| 19> end
| 20>
| 21> %scf
| 22>   MaxIter 150
| 23> end
| 24>
| 25>
| 26>                          ****END OF INPUT****

CARTESIAN COORDINATES (ANGSTROEM)
---------------------------------
  C      4.906460   -3.102820   -5.954840
  C      3.511770   -2.806210   -6.492280
  H      2.736040   -3.373450   -5.973740
  H      3.444900   -3.040830   -7.555280
  S      3.004620   -1.096210   -6.389260
  O      4.128860   -0.329650   -6.953720
  O      1.781280   -1.000780   -7.136400
  F      2.851550   -0.783680   -4.956790
  H      5.627030   -2.524240   -6.494220
  H      5.121640   -4.143870   -6.076540
  H      4.950040   -2.848620   -4.916390

 Total Charge           Charge          ....    0
 Multiplicity           Mult            ....    1
 Number of Electrons    NEL             ....   58
 Basis Dimension        Dim             ....  222

ORBITAL ENERGIES
----------------

  NO   OCC          E(Eh)            E(eV)
   0   2.0000     -88.532743     -2409.0984
   1   2.0000     -24.600309      -669.4084
   2   2.0000     -18.994760      -516.8737
   3   2.0000     -18.982095      -516.5291
   4   2.0000     -10.183379      -277.1038
   5   2.0000     -10.135555      -275.8025
   6   2.0000      -8.143879      -221.6062
   7   2.0000      -6.164421      -167.7424
   8   2.0000      -6.157312      -167.5490
   9   2.0000      -6.156611      -167.5299
  10   2.0000      -1.521463       -41.4011
  11   2.0000      -1.281548       -34.8727
  12   2.0000      -1.177478       -32.0408
  13   2.0000      -1.007662       -27.4199
  14   2.0000      -0.889857       -24.2142
  15   2.0000      -0.839144       -22.8343
  16   2.0000      -0.740849       -20.1595
  17   2.0000      -0.725320       -19.7370
  18   2.0000      -0.699267       -19.0280
  19   2.0000      -0.644269       -17.5315
  20   2.0000      -0.627168       -17.0661
  21   2.0000      -0.600628       -16.3439
  22   2.0000      -0.575113       -15.6496
  23   2.0000      -0.548112       -14.9149
  24   2.0000      -0.538693       -14.6586
  25   2.0000      -0.516749       -14.0615
  26   2.0000      -0.475567       -12.9408
  27   2.0000      -0.462051       -12.5731
  28   2.0000      -0.450632       -12.2623
  29   0.0000       0.100242         2.7277
  30   0.0000       0.134045         3.6475
  31   0.0000       0.147791         4.0216
  32   0.0000       0.160703         4.3730
  33   0.0000       0.169312         4.6072

MULLIKEN ATOMIC CHARGES
-----------------------
   0 C :   -0.446835
   1 C :   -0.310750
   2 H :    0.181971
   3 H :    0.201629
   4 S :    0.766297
   5 O :   -0.427327
   6 O :   -0.378782
   7 F :   -0.095601
   8 H :    0.189093
   9 H :    0.162856
  10 H :    0.157449
Sum of atomic charges:    0.0000000

LOEWDIN ATOMIC CHARGES
----------------------
   0 C :   -0.333817
   1 C :   -0.408787
   2 H :    0.147038
   3 H :    0.161072
   4 S :    0.519880
   5 O :   -0.300177
   6 O :   -0.255602
   7 F :    0.072896
   8 H :    0.136292
   9 H :    0.132417
  10 H :    0.128788

  Mayer bond orders larger than 0.100000
B(  0-C ,  1-C ) :   0.9485 B(  0-C ,  8-H ) :   0.9571 B(  0-C ,  9-H ) :   0.9620
B(  0-C , 10-H ) :   0.9655 B(  1-C ,  2-H ) :   0.9401 B(  1-C ,  3-H ) :   0.9321
B(  1-C ,  4-S ) :   0.9284 B(  4-S ,  5-O ) :   1.8985 B(  4-S ,  6-O ) :   1.9821
B(  4-S ,  7-F ) :   1.1491

FINAL SINGLE POINT ENERGY      -726.604800389928

DIPOLE MOMENT
-------------
                                X             Y             Z
Electronic contribution:     -5.15867       7.38054       1.67942
Nuclear contribution   :      5.52019      -8.89046      -0.84835
                        -----------------------------------------
Total Dipole Moment    :      0.36151      -1.50992       0.83107
                        -----------------------------------------
Magnitude (a.u.)       :      1.76103
Magnitude (Debye)      :      4.47618

Rotational constants in cm-1:     0.153332     0.082132     0.079755
Rotational constants in MHz :  4596.775407  2462.251277  2391.008596

                             ****ORCA TERMINATED NORMALLY****
TOTAL RUN TIME: 0 days 0 hours 0 minutes 20 seconds 629 msec
