                         Program Version 5.0.0 -  RELEASE  -
|  1> !LC-PBE RIJCOSX def2-TZVP def2/J TightSCF
|  2> *xyz 0 1
|  3> C          4.49059        1.15590       -2.46929
|  4> N          4.30539        1.22276       -3.90832
|  5> C          4.63192        2.24637       -4.67096
|  6> N          4.54169        2.14399       -5.98714
|  7> C          5.08409        3.39358       -4.11855
|  8> H          4.92067        3.57050       -3.13587
|  9> H          5.25465        4.19739       -4.70696
| 10> H          3.82453        0.44911       -4.35093
| 11> H          4.34337        1.24932       -6.41665
| 12> H          4.67671        2.95662       -6.57411
| 13> C          5.94213        0.93950       -2.03689
| 14> H          3.86431        0.32853       -2.13661
| 15> H          4.07623        2.04999       -1.98901
| 16> H          6.32982        0.06401       -2.51451
| 17> H          5.98308        0.81426       -0.97504
| 18> H          6.52865        1.78889       -2.31873
| 19> *
| 20>
| 21> %MaxCore 64000
| 22>
| 23> %pal nprocs 4
| 24> end
| 25>
| 26> %scf
| 27>   MaxIter 150
| 28> end
| 29>
| 30>
| 31>                          ****END OF INPUT****

CARTESIAN COORDINATES (ANGSTROEM)
---------------------------------
  C      4.490590    1.155900   -2.469290
  N      4.305390    1.222760   -3.908320
  C      4.631920    2.246370   -4.670960
  N      4.541690    2.143990   -5.987140
  C      5.084090    3.393580   -4.118550
  H      4.920670    3.570500   -3.135870
  H      5.254650    4.197390   -4.706960
  H      3.824530    0.449110   -4.350930
  H      4.343370    1.249320   -6.416650
  H      4.676710    2.956620   -6.574110
  C      5.942130    0.939500   -2.036890
  H      3.864310    0.328530   -2.136610
  H      4.076230    2.049990   -1.989010
  H      6.329820    0.064010   -2.514510
  H      5.983080    0.814260   -0.975040
  H      6.528650    1.788890   -2.318730

 Total Charge           Charge          ....    0
 Multiplicity           Mult            ....    1
 Number of Electrons    NEL             ....   48
 Basis Dimension        Dim             ....  246

ORBITAL ENERGIES
----------------

  NO   OCC          E(Eh)            E(eV)
   0   2.0000     -14.217986      -386.8911
   1   2.0000     -14.213161      -386.7598
   2   2.0000     -10.166947      -276.6567
   3   2.0000     -10.147011      -276.1142
   4   2.0000     -10.089059      -274.5372
   5   2.0000     -10.020042      -272.6592
   6   2.0000      -1.149498       -31.2794
   7   2.0000      -1.059202       -28.8223
   8   2.0000      -0.924399       -25.1542
   9   2.0000      -0.875288       -23.8178
  10   2.0000      -0.801979       -21.8230
  11   2.0000      -0.713292       -19.4097
  12   2.0000      -0.701820       -19.0975
  13   2.0000      -0.667252       -18.1568
  14   2.0000      -0.614770       -16.7287
  15   2.0000      -0.580275       -15.7901
  16   2.0000      -0.556085       -15.1319
  17   2.0000      -0.533607       -14.5202
  18   2.0000      -0.513365       -13.9694
  19   2.0000      -0.498427       -13.5629
  20   2.0000      -0.494919       -13.4674
  21   2.0000      -0.472692       -12.8626
  22   2.0000      -0.379784       -10.3344
  23   2.0000      -0.279783        -7.6133
  24   0.0000       0.106378         2.8947
  25   0.0000       0.134598         3.6626
  26   0.0000       0.146335         3.9820
  27   0.0000       0.160126         4.3573
  28   0.0000       0.176042         4.7903

MULLIKEN ATOMIC CHARGES
-----------------------
   0 C :   -0.247418
   1 N :   -0.308985
   2 C :    0.373240
   3 N :   -0.499343
   4 C :   -0.664739
   5 H :    0.143057
   6 H :    0.110925
   7 H :    0.221020
   8 H :    0.240170
   9 H :    0.269823
  10 C :   -0.389906
  11 H :    0.140932
  12 H :    0.159446
  13 H :    0.130642
  14 H :    0.141032
  15 H :    0.180103
Sum of atomic charges:    0.0000000

LOEWDIN ATOMIC CHARGES
----------------------
   0 C :   -0.321168
   1 N :    0.112848
   2 C :   -0.472307
   3 N :   -0.015019
   4 C :   -0.371958
   5 H :    0.102959
   6 H :    0.098116
   7 H :    0.185418
   8 H :    0.167850
   9 H :    0.184517
  10 C :   -0.322651
  11 H :    0.136927
  12 H :    0.138887
  13 H :    0.121233
  14 H :    0.122991
  15 H :    0.131358

  Mayer bond orders larger than 0.100000
B(  0-C ,  1-N ) :   0.9491 B(  0-C , 10-C ) :   0.9421 B(  0-C , 11-H ) :   0.9725
B(  0-C , 12-H ) :   0.9891 B(  1-N ,  2-C ) :   1.1744 B(  1-N ,  7-H ) :   0.9333
B(  2-C ,  3-N ) :   1.1418 B(  2-C ,  4-C ) :   1.5903 B(  3-N ,  8-H ) :   0.9270
B(  3-N ,  9-H ) :   0.9165 B(  4-C ,  5-H ) :   0.9985 B(  4-C ,  6-H ) :   1.0091
B( 10-C , 13-H ) :   0.9718 B( 10-C , 14-H ) :   0.9749 B( 10-C , 15-H ) :   0.9639

FINAL SINGLE POINT ENERGY      -267.125581449103

DIPOLE MOMENT
-------------
                                X             Y             Z
Electronic contribution:     -1.93546      -0.19226      -3.87511
Nuclear contribution   :      1.39581      -0.78630       3.38596
                        -----------------------------------------
Total Dipole Moment    :     -0.53964      -0.97856      -0.48915
                        -----------------------------------------
Magnitude (a.u.)       :      1.21986
Magnitude (Debye)      :      3.10064

Rotational constants in cm-1:     0.239249     0.075811     0.066261
Rotational constants in MHz :  7172.504830  2272.756282  1986.457543

                             ****ORCA TERMINATED NORMALLY****
TOTAL RUN TIME: 0 days 0 hours 0 minutes 34 seconds 607 msec
