                         Program Version 5.0.0 -  RELEASE  -
|  1> !M062X D3Zero RIJCOSX def2-SVP def2/J TightSCF
|  2> *xyz -1 1
|  3> C         -0.91495        0.61511        2.50554
|  4> C         -0.05915        1.50352        3.41058
|  5> H          0.36536        2.34431        2.86116
|  6> H         -0.69226        1.92021        4.19898
|  7> C          1.08303        0.74964        4.08571
|  8> O          2.22817        1.26348        4.01983
|  9> O          0.81003       -0.34541        4.63627
| 10> H         -0.30401        0.20228        1.73015
| 11> H         -1.69811        1.19946        2.06954
| 12> H         -1.34124       -0.17772        3.08397
| 13> *
| 14>
| 15> %MaxCore 64000
| 16>
| 17> %pal nprocs 4
| 18> end
| 19>
| 20> %scf
| 21>   MaxIter 150
| 22> end
| 23>
| 24>
| 25>                          ****END OF INPUT****

CARTESIAN COORDINATES (ANGSTROEM)
---------------------------------
  C     -0.914950    0.615110    2.505540
  C     -0.059150    1.503520    3.410580
  H      0.365360    2.344310    2.861160
  H     -0.692260    1.920210    4.198980
  C      1.083030    0.749640    4.085710
  O      2.228170    1.263480    4.019830
  O      0.810030   -0.345410    4.636270
  H     -0.304010    0.202280    1.730150
  H     -1.698110    1.199460    2.069540
  H     -1.341240   -0.177720    3.083970

 Total Charge           Charge          ....   -1
 Multiplicity           Mult            ....    1
 Number of Electrons    NEL             ....   40
 Basis Dimension        Dim             ....   95

ORBITAL ENERGIES
----------------

  NO   OCC          E(Eh)            E(eV)
   0   2.0000     -19.332052      -526.0519
   1   2.0000     -19.330379      -526.0063
   2   2.0000     -10.406881      -283.1856
   3   2.0000     -10.379951      -282.4528
   4   2.0000     -10.359560      -281.8980
   5   2.0000      -0.895840       -24.3771
   6   2.0000      -0.794954       -21.6318
   7   2.0000      -0.681801       -18.5527
   8   2.0000      -0.541676       -14.7397
   9   2.0000      -0.376523       -10.2457
  10   2.0000      -0.351199        -9.5566
  11   2.0000      -0.312893        -8.5143
  12   2.0000      -0.281525        -7.6607
  13   2.0000      -0.266417        -7.2496
  14   2.0000      -0.257765        -7.0142
  15   2.0000      -0.224251        -6.1022
  16   2.0000      -0.207305        -5.6411
  17   2.0000      -0.080707        -2.1962
  18   2.0000      -0.076807        -2.0900
  19   2.0000      -0.070450        -1.9170
  20   0.0000       0.253824         6.9069
  21   0.0000       0.305637         8.3168
  22   0.0000       0.318282         8.6609
  23   0.0000       0.321863         8.7583
  24   0.0000       0.329113         8.9556

MULLIKEN ATOMIC CHARGES
-----------------------
   0 C :   -0.039657
   1 C :   -0.067921
   2 H :   -0.024928
   3 H :   -0.012855
   4 C :    0.103610
   5 O :   -0.475649
   6 O :   -0.481256
   7 H :    0.007883
   8 H :   -0.028905
   9 H :    0.019676
Sum of atomic charges:   -1.0000000

LOEWDIN ATOMIC CHARGES
----------------------
   0 C :   -0.068410
   1 C :   -0.099915
   2 H :    0.000674
   3 H :    0.008619
   4 C :   -0.031564
   5 O :   -0.413433
   6 O :   -0.418016
   7 H :    0.012495
   8 H :   -0.005415
   9 H :    0.014965

  Mayer bond orders larger than 0.100000
B(  0-C ,  1-C ) :   1.0802 B(  0-C ,  7-H ) :   0.9767 B(  0-C ,  8-H ) :   0.9671
B(  0-C ,  9-H ) :   0.9650 B(  1-C ,  2-H ) :   0.9461 B(  1-C ,  3-H ) :   0.9408
B(  1-C ,  4-C ) :   0.9165 B(  4-C ,  5-O ) :   1.8429 B(  4-C ,  6-O ) :   1.8123
B(  5-O ,  6-O ) :   0.1031

Dispersion correction           -0.000087324
FINAL SINGLE POINT ENERGY      -267.494923301474

DIPOLE MOMENT
-------------
                                X             Y             Z
Electronic contribution:      4.85727      -1.06325       3.43961
Nuclear contribution   :     -6.38408       1.63097      -4.40540
                        -----------------------------------------
Total Dipole Moment    :     -1.52681       0.56772      -0.96579
                        -----------------------------------------
Magnitude (a.u.)       :      1.89373
Magnitude (Debye)      :      4.81347

Rotational constants in cm-1:     0.319732     0.134414     0.104753
Rotational constants in MHz :  9585.336550  4029.633034  3140.404334

                             ****ORCA TERMINATED NORMALLY****
TOTAL RUN TIME: 0 days 0 hours 0 minutes 11 seconds 620 msec
