                         Program Version 5.0.0 -  RELEASE  -
|  1> !M062X D3Zero RIJCOSX def2-SVP def2/J TightSCF
|  2> *xyz 1 1
|  3> C          4.60295       -2.44010        2.63478
|  4> C          3.86085       -1.59157        3.62289
|  5> N          2.75650       -2.04616        4.16633
|  6> N          4.25433       -0.36291        3.86046
|  7> H          3.56526        0.31099        4.16898
|  8> H          5.05429       -0.01606        3.33784
|  9> H          2.43970       -2.97389        3.89740
| 10> H          2.06687       -1.41253        4.54981
| 11> C          3.74469       -2.58056        1.36188
| 12> H          5.56156       -1.97135        2.40708
| 13> H          4.81050       -3.42255        3.06310
| 14> H          4.26314       -3.18477        0.64702
| 15> H          3.56325       -1.61180        0.94535
| 16> H          2.81197       -3.04259        1.60980
| 17> *
| 18>
| 19> %MaxCore 64000
| 20>
| 21> %pal nprocs 4
| 22> end
| 23>
| 24> %scf
| 25>   MaxIter 150
| 26> end
| 27>
| 28>
| 29>                          ****END OF INPUT****

CARTESIAN COORDINATES (ANGSTROEM)
---------------------------------
  C      4.602950   -2.440100    2.634780
  C      3.860850   -1.591570    3.622890
  N      2.756500   -2.046160    4.166330
  N      4.254330   -0.362910    3.860460
  H      3.565260    0.310990    4.168980
  H      5.054290   -0.016060    3.337840
  H      2.439700   -2.973890    3.897400
  H      2.066870   -1.412530    4.549810
  C      3.744690   -2.580560    1.361880
  H      5.561560   -1.971350    2.407080
  H      4.810500   -3.422550    3.063100
  H      4.263140   -3.184770    0.647020
  H      3.563250   -1.611800    0.945350
  H      2.811970   -3.042590    1.609800

 Total Charge           Charge          ....    1
 Multiplicity           Mult            ....    1
 Number of Electrons    NEL             ....   40
 Basis Dimension        Dim             ....  115

ORBITAL ENERGIES
----------------

  NO   OCC          E(Eh)            E(eV)
   0   2.0000     -15.008520      -408.4026
   1   2.0000     -15.007926      -408.3864
   2   2.0000     -10.877005      -295.9784
   3   2.0000     -10.752489      -292.5901
   4   2.0000     -10.713864      -291.5391
   5   2.0000      -1.310545       -35.6617
   6   2.0000      -1.204054       -32.7640
   7   2.0000      -1.062171       -28.9031
   8   2.0000      -0.943130       -25.6639
   9   2.0000      -0.896744       -24.4016
  10   2.0000      -0.848777       -23.0964
  11   2.0000      -0.828540       -22.5457
  12   2.0000      -0.768299       -20.9065
  13   2.0000      -0.737991       -20.0818
  14   2.0000      -0.695308       -18.9203
  15   2.0000      -0.670716       -18.2511
  16   2.0000      -0.612475       -16.6663
  17   2.0000      -0.606792       -16.5116
  18   2.0000      -0.594328       -16.1725
  19   2.0000      -0.557366       -15.1667
  20   0.0000      -0.169082        -4.6009
  21   0.0000      -0.109853        -2.9893
  22   0.0000      -0.064469        -1.7543
  23   0.0000      -0.063365        -1.7242
  24   0.0000      -0.030133        -0.8200

MULLIKEN ATOMIC CHARGES
-----------------------
   0 C :   -0.048599
   1 C :   -0.051114
   2 N :   -0.034406
   3 N :   -0.028482
   4 H :    0.189413
   5 H :    0.200466
   6 H :    0.198172
   7 H :    0.191154
   8 C :   -0.044496
   9 H :    0.082475
  10 H :    0.115266
  11 H :    0.105689
  12 H :    0.068174
  13 H :    0.056289
Sum of atomic charges:    1.0000000

LOEWDIN ATOMIC CHARGES
----------------------
   0 C :   -0.036313
   1 C :    0.156273
   2 N :    0.086212
   3 N :    0.087769
   4 H :    0.116596
   5 H :    0.124986
   6 H :    0.123353
   7 H :    0.117226
   8 C :   -0.024645
   9 H :    0.055417
  10 H :    0.066646
  11 H :    0.057130
  12 H :    0.039067
  13 H :    0.030280

  Mayer bond orders larger than 0.100000
B(  0-C ,  1-C ) :   1.0233 B(  0-C ,  8-C ) :   1.0552 B(  0-C ,  9-H ) :   0.9244
B(  0-C , 10-H ) :   0.9207 B(  1-C ,  2-N ) :   1.5072 B(  1-C ,  3-N ) :   1.5153
B(  2-N ,  6-H ) :   0.9175 B(  2-N ,  7-H ) :   0.9244 B(  3-N ,  4-H ) :   0.9238
B(  3-N ,  5-H ) :   0.9135 B(  8-C , 11-H ) :   0.9624 B(  8-C , 12-H ) :   0.9675
B(  8-C , 13-H ) :   0.9742

Dispersion correction           -0.000189502
FINAL SINGLE POINT ENERGY      -228.737490402765

DIPOLE MOMENT
-------------
                                X             Y             Z
Electronic contribution:     -0.26425       1.82178       3.73650
Nuclear contribution   :     -0.22400      -1.16268      -3.30447
                        -----------------------------------------
Total Dipole Moment    :     -0.48825       0.65911       0.43203
                        -----------------------------------------
Magnitude (a.u.)       :      0.92707
Magnitude (Debye)      :      2.35642

Rotational constants in cm-1:     0.258103     0.130571     0.102508
Rotational constants in MHz :  7737.732062  3914.431392  3073.119154

                             ****ORCA TERMINATED NORMALLY****
TOTAL RUN TIME: 0 days 0 hours 0 minutes 14 seconds 403 msec
