                         Program Version 5.0.0 -  RELEASE  -
|  1> !M062X D3Zero RIJCOSX def2-SVP def2/J TightSCF
|  2> *xyz 0 1
|  3> C         -0.91495        0.61511        2.50554
|  4> C         -0.05915        1.50352        3.41058
|  5> H          0.36536        2.34431        2.86116
|  6> H         -0.69226        1.92021        4.19898
|  7> C          1.08303        0.74964        4.08571
|  8> F          2.22817        1.26348        4.01983
|  9> O          0.81003       -0.34541        4.63627
| 10> H         -0.30401        0.20228        1.73015
| 11> H         -1.69811        1.19946        2.06954
| 12> H         -1.34124       -0.17772        3.08397
| 13> *
| 14>
| 15> %MaxCore 64000
| 16>
| 17> %pal nprocs 4
| 18> end
| 19>
| 20> %scf
| 21>   MaxIter 150
| 22> end
| 23>
| 24>
| 25>                          ****END OF INPUT****

CARTESIAN COORDINATES (ANGSTROEM)
---------------------------------
  C     -0.914950    0.615110    2.505540
  C     -0.059150    1.503520    3.410580
  H      0.365360    2.344310    2.861160
  H     -0.692260    1.920210    4.198980
  C      1.083030    0.749640    4.085710
  F      2.228170    1.263480    4.019830
  O      0.810030   -0.345410    4.636270
  H     -0.304010    0.202280    1.730150
  H     -1.698110    1.199460    2.069540
  H     -1.341240   -0.177720    3.083970

 Total Charge           Charge          ....    0
 Multiplicity           Mult            ....    1
 Number of Electrons    NEL             ....   40
 Basis Dimension        Dim             ....   95

ORBITAL ENERGIES
----------------

  NO   OCC          E(Eh)            E(eV)
   0   2.0000     -25.312644      -688.7921
   1   2.0000     -19.635723      -534.3152
   2   2.0000     -10.727505      -291.9103
   3   2.0000     -10.579384      -287.8797
   4   2.0000     -10.554566      -287.2043
   5   2.0000      -1.434669       -39.0393
   6   2.0000      -1.135489       -30.8982
   7   2.0000      -0.889047       -24.1922
   8   2.0000      -0.776004       -21.1161
   9   2.0000      -0.720776       -19.6133
  10   2.0000      -0.635880       -17.3032
  11   2.0000      -0.621494       -16.9117
  12   2.0000      -0.584971       -15.9179
  13   2.0000      -0.534986       -14.5577
  14   2.0000      -0.504604       -13.7310
  15   2.0000      -0.461883       -12.5685
  16   2.0000      -0.443322       -12.0634
  17   2.0000      -0.437104       -11.8942
  18   2.0000      -0.408078       -11.1044
  19   2.0000      -0.364005        -9.9051
  20   0.0000       0.024363         0.6630
  21   0.0000       0.098822         2.6891
  22   0.0000       0.143489         3.9045
  23   0.0000       0.149980         4.0812
  24   0.0000       0.167045         4.5455

MULLIKEN ATOMIC CHARGES
-----------------------
   0 C :   -0.047228
   1 C :   -0.149016
   2 H :    0.051485
   3 H :    0.084885
   4 C :    0.296998
   5 F :   -0.106323
   6 O :   -0.289276
   7 H :    0.046568
   8 H :    0.045797
   9 H :    0.066109
Sum of atomic charges:    0.0000000

LOEWDIN ATOMIC CHARGES
----------------------
   0 C :   -0.042084
   1 C :   -0.081220
   2 H :    0.031481
   3 H :    0.054395
   4 C :    0.124481
   5 F :    0.027756
   6 O :   -0.208322
   7 H :    0.028769
   8 H :    0.029987
   9 H :    0.034757

  Mayer bond orders larger than 0.100000
B(  0-C ,  1-C ) :   1.0851 B(  0-C ,  7-H ) :   0.9796 B(  0-C ,  8-H ) :   0.9700
B(  0-C ,  9-H ) :   0.9694 B(  1-C ,  2-H ) :   0.9427 B(  1-C ,  3-H ) :   0.9298
B(  1-C ,  4-C ) :   0.9945 B(  4-C ,  5-F ) :   1.1655 B(  4-C ,  6-O ) :   2.0578

Dispersion correction           -0.000089237
FINAL SINGLE POINT ENERGY      -292.046386892185

DIPOLE MOMENT
-------------
                                X             Y             Z
Electronic contribution:      7.73713      -0.20258       4.12567
Nuclear contribution   :     -8.12386       1.06915      -4.71960
                        -----------------------------------------
Total Dipole Moment    :     -0.38674       0.86656      -0.59393
                        -----------------------------------------
Magnitude (a.u.)       :      1.11948
Magnitude (Debye)      :      2.84550

Rotational constants in cm-1:     0.309513     0.127560     0.099675
Rotational constants in MHz :  9278.979128  3824.146597  2988.174827

                             ****ORCA TERMINATED NORMALLY****
TOTAL RUN TIME: 0 days 0 hours 0 minutes 12 seconds 42 msec
