                         Program Version 5.0.0 -  RELEASE  -
|  1> !M062X D3Zero RIJCOSX def2-SVP def2/J TightSCF
|  2> *xyz 0 1
|  3> C          4.60295       -2.44010        2.63478
|  4> C          3.86085       -1.59157        3.62289
|  5> C          2.75650       -2.04616        4.16633
|  6> N          4.25433       -0.36291        3.86046
|  7> H          3.56526        0.31099        4.16898
|  8> H          5.05429       -0.01606        3.33784
|  9> H          2.43970       -2.97389        3.89740
| 10> H          2.06687       -1.41253        4.54981
| 11> C          3.74469       -2.58056        1.36188
| 12> H          5.56156       -1.97135        2.40708
| 13> H          4.81050       -3.42255        3.06310
| 14> H          4.26314       -3.18477        0.64702
| 15> H          3.56325       -1.61180        0.94535
| 16> H          2.81197       -3.04259        1.60980
| 17> *
| 18>
| 19> %MaxCore 64000
| 20>
| 21> %pal nprocs 4
| 22> end
| 23>
| 24> %scf
| 25>   MaxIter 150
| 26> end
| 27>
| 28>
| 29>                          ****END OF INPUT****

CARTESIAN COORDINATES (ANGSTROEM)
---------------------------------
  C      4.602950   -2.440100    2.634780
  C      3.860850   -1.591570    3.622890
  C      2.756500   -2.046160    4.166330
  N      4.254330   -0.362910    3.860460
  H      3.565260    0.310990    4.168980
  H      5.054290   -0.016060    3.337840
  H      2.439700   -2.973890    3.897400
  H      2.066870   -1.412530    4.549810
  C      3.744690   -2.580560    1.361880
  H      5.561560   -1.971350    2.407080
  H      4.810500   -3.422550    3.063100
  H      4.263140   -3.184770    0.647020
  H      3.563250   -1.611800    0.945350
  H      2.811970   -3.042590    1.609800

 Total Charge           Charge          ....    0
 Multiplicity           Mult            ....    1
 Number of Electrons    NEL             ....   40
 Basis Dimension        Dim             ....  115

ORBITAL ENERGIES
----------------

  NO   OCC          E(Eh)            E(eV)
   0   2.0000     -14.754731      -401.4966
   1   2.0000     -10.563581      -287.4497
   2   2.0000     -10.550002      -287.0801
   3   2.0000     -10.536188      -286.7042
   4   2.0000     -10.476617      -285.0832
   5   2.0000      -1.024513       -27.8784
   6   2.0000      -0.868107       -23.6224
   7   2.0000      -0.792896       -21.5758
   8   2.0000      -0.717199       -19.5160
   9   2.0000      -0.632221       -17.2036
  10   2.0000      -0.592071       -16.1111
  11   2.0000      -0.549296       -14.9471
  12   2.0000      -0.514355       -13.9963
  13   2.0000      -0.475708       -12.9447
  14   2.0000      -0.450130       -12.2487
  15   2.0000      -0.439572       -11.9614
  16   2.0000      -0.412475       -11.2240
  17   2.0000      -0.401168       -10.9163
  18   2.0000      -0.387745       -10.5511
  19   2.0000      -0.235982        -6.4214
  20   0.0000       0.086927         2.3654
  21   0.0000       0.092996         2.5305
  22   0.0000       0.134716         3.6658
  23   0.0000       0.139934         3.8078
  24   0.0000       0.159282         4.3343

MULLIKEN ATOMIC CHARGES
-----------------------
   0 C :   -0.014085
   1 C :   -0.147324
   2 C :   -0.067269
   3 N :   -0.121591
   4 H :    0.132382
   5 H :    0.122329
   6 H :   -0.018689
   7 H :   -0.027994
   8 C :   -0.026062
   9 H :    0.012184
  10 H :    0.052963
  11 H :    0.032947
  12 H :    0.029951
  13 H :    0.040257
Sum of atomic charges:    0.0000000

LOEWDIN ATOMIC CHARGES
----------------------
   0 C :   -0.035646
   1 C :    0.001326
   2 C :   -0.178493
   3 N :   -0.017194
   4 H :    0.080901
   5 H :    0.071827
   6 H :   -0.000347
   7 H :   -0.004112
   8 C :   -0.044321
   9 H :    0.018529
  10 H :    0.038438
  11 H :    0.020779
  12 H :    0.022694
  13 H :    0.025619

  Mayer bond orders larger than 0.100000
B(  0-C ,  1-C ) :   1.0052 B(  0-C ,  8-C ) :   1.0883 B(  0-C ,  9-H ) :   0.9396
B(  0-C , 10-H ) :   0.9392 B(  1-C ,  2-C ) :   1.8734 B(  1-C ,  3-N ) :   1.2569
B(  2-C ,  6-H ) :   0.9481 B(  2-C ,  7-H ) :   0.9591 B(  3-N ,  4-H ) :   0.9452
B(  3-N ,  5-H ) :   0.9457 B(  8-C , 11-H ) :   0.9700 B(  8-C , 12-H ) :   0.9701
B(  8-C , 13-H ) :   0.9758

Dispersion correction           -0.000186517
FINAL SINGLE POINT ENERGY      -212.280535362712

DIPOLE MOMENT
-------------
                                X             Y             Z
Electronic contribution:      0.83026       1.82203       2.54518
Nuclear contribution   :     -0.47010      -1.22282      -3.06417
                        -----------------------------------------
Total Dipole Moment    :      0.36016       0.59921      -0.51899
                        -----------------------------------------
Magnitude (a.u.)       :      0.87070
Magnitude (Debye)      :      2.21314

Rotational constants in cm-1:     0.271862     0.131962     0.105499
Rotational constants in MHz :  8150.219120  3956.123671  3162.785522

                             ****ORCA TERMINATED NORMALLY****
TOTAL RUN TIME: 0 days 0 hours 0 minutes 15 seconds 250 msec
