                         Program Version 5.0.0 -  RELEASE  -
|  1> !M062X D3Zero RIJCOSX def2-SVP def2/J TightSCF
|  2> *xyz 0 1
|  3> C         -0.91495        0.61511        2.50554
|  4> C         -0.05915        1.50352        3.41058
|  5> H          0.36536        2.34431        2.86116
|  6> H         -0.69226        1.92021        4.19898
|  7> C          1.08303        0.74964        4.08571
|  8> O          2.22817        1.26348        4.01983
|  9> F          0.81003       -0.34541        4.63627
| 10> H         -0.30401        0.20228        1.73015
| 11> H         -1.69811        1.19946        2.06954
| 12> H         -1.34124       -0.17772        3.08397
| 13> *
| 14>
| 15> %MaxCore 64000
| 16>
| 17> %pal nprocs 4
| 18> end
| 19>
| 20> %scf
| 21>   MaxIter 150
| 22> end
| 23>
| 24>
| 25>                          ****END OF INPUT****

CARTESIAN COORDINATES (ANGSTROEM)
---------------------------------
  C     -0.914950    0.615110    2.505540
  C     -0.059150    1.503520    3.410580
  H      0.365360    2.344310    2.861160
  H     -0.692260    1.920210    4.198980
  C      1.083030    0.749640    4.085710
  O      2.228170    1.263480    4.019830
  F      0.810030   -0.345410    4.636270
  H     -0.304010    0.202280    1.730150
  H     -1.698110    1.199460    2.069540
  H     -1.341240   -0.177720    3.083970

 Total Charge           Charge          ....    0
 Multiplicity           Mult            ....    1
 Number of Electrons    NEL             ....   40
 Basis Dimension        Dim             ....   95

ORBITAL ENERGIES
----------------

  NO   OCC          E(Eh)            E(eV)
   0   2.0000     -25.314685      -688.8476
   1   2.0000     -19.633975      -534.2676
   2   2.0000     -10.726473      -291.8822
   3   2.0000     -10.578525      -287.8563
   4   2.0000     -10.559714      -287.3444
   5   2.0000      -1.436651       -39.0933
   6   2.0000      -1.133139       -30.8343
   7   2.0000      -0.893331       -24.3088
   8   2.0000      -0.771494       -20.9934
   9   2.0000      -0.727729       -19.8025
  10   2.0000      -0.638630       -17.3780
  11   2.0000      -0.629481       -17.1290
  12   2.0000      -0.574707       -15.6386
  13   2.0000      -0.535965       -14.5843
  14   2.0000      -0.504948       -13.7403
  15   2.0000      -0.467997       -12.7348
  16   2.0000      -0.450213       -12.2509
  17   2.0000      -0.440162       -11.9774
  18   2.0000      -0.409320       -11.1382
  19   2.0000      -0.358304        -9.7499
  20   0.0000       0.028049         0.7633
  21   0.0000       0.093746         2.5510
  22   0.0000       0.141409         3.8479
  23   0.0000       0.150579         4.0975
  24   0.0000       0.167927         4.5695

MULLIKEN ATOMIC CHARGES
-----------------------
   0 C :   -0.071591
   1 C :   -0.140587
   2 H :    0.076768
   3 H :    0.074433
   4 C :    0.294441
   5 O :   -0.283802
   6 F :   -0.107759
   7 H :    0.054270
   8 H :    0.052478
   9 H :    0.051349
Sum of atomic charges:   -0.0000000

LOEWDIN ATOMIC CHARGES
----------------------
   0 C :   -0.053591
   1 C :   -0.076308
   2 H :    0.047929
   3 H :    0.046779
   4 C :    0.122173
   5 O :   -0.205455
   6 F :    0.028218
   7 H :    0.029859
   8 H :    0.032936
   9 H :    0.027460

  Mayer bond orders larger than 0.100000
B(  0-C ,  1-C ) :   1.0638 B(  0-C ,  7-H ) :   0.9785 B(  0-C ,  8-H ) :   0.9693
B(  0-C ,  9-H ) :   0.9728 B(  1-C ,  2-H ) :   0.9521 B(  1-C ,  3-H ) :   0.9320
B(  1-C ,  4-C ) :   1.0053 B(  4-C ,  5-O ) :   2.0725 B(  4-C ,  6-F ) :   1.1563

Dispersion correction           -0.000093554
FINAL SINGLE POINT ENERGY      -292.045125586974

DIPOLE MOMENT
-------------
                                X             Y             Z
Electronic contribution:      5.40368      -2.83486       5.12167
Nuclear contribution   :     -6.57765       2.82334      -5.39171
                        -----------------------------------------
Total Dipole Moment    :     -1.17396      -0.01152      -0.27003
                        -----------------------------------------
Magnitude (a.u.)       :      1.20468
Magnitude (Debye)      :      3.06204

Rotational constants in cm-1:     0.294245     0.132994     0.101060
Rotational constants in MHz :  8821.228602  3987.049251  3029.696815

                             ****ORCA TERMINATED NORMALLY****
TOTAL RUN TIME: 0 days 0 hours 0 minutes 13 seconds 67 msec
