                         Program Version 5.0.0 -  RELEASE  -
|  1> !M062X D3Zero RIJCOSX def2-SVP def2/J TightSCF
|  2> *xyz 0 1
|  3> C          4.60295       -2.44010        2.63478
|  4> C          3.86085       -1.59157        3.62289
|  5> N          2.75650       -2.04616        4.16633
|  6> C          4.25433       -0.36291        3.86046
|  7> H          3.56526        0.31099        4.16898
|  8> H          5.05429       -0.01606        3.33784
|  9> H          2.43970       -2.97389        3.89740
| 10> H          2.06687       -1.41253        4.54981
| 11> C          3.74469       -2.58056        1.36188
| 12> H          5.56156       -1.97135        2.40708
| 13> H          4.81050       -3.42255        3.06310
| 14> H          4.26314       -3.18477        0.64702
| 15> H          3.56325       -1.61180        0.94535
| 16> H          2.81197       -3.04259        1.60980
| 17> *
| 18>
| 19> %MaxCore 64000
| 20>
| 21> %pal nprocs 4
| 22> end
| 23>
| 24> %scf
| 25>   MaxIter 150
| 26> end
| 27>
| 28>
| 29>                          ****END OF INPUT****

CARTESIAN COORDINATES (ANGSTROEM)
---------------------------------
  C      4.602950   -2.440100    2.634780
  C      3.860850   -1.591570    3.622890
  N      2.756500   -2.046160    4.166330
  C      4.254330   -0.362910    3.860460
  H      3.565260    0.310990    4.168980
  H      5.054290   -0.016060    3.337840
  H      2.439700   -2.973890    3.897400
  H      2.066870   -1.412530    4.549810
  C      3.744690   -2.580560    1.361880
  H      5.561560   -1.971350    2.407080
  H      4.810500   -3.422550    3.063100
  H      4.263140   -3.184770    0.647020
  H      3.563250   -1.611800    0.945350
  H      2.811970   -3.042590    1.609800

 Total Charge           Charge          ....    0
 Multiplicity           Mult            ....    1
 Number of Electrons    NEL             ....   40
 Basis Dimension        Dim             ....  115

ORBITAL ENERGIES
----------------

  NO   OCC          E(Eh)            E(eV)
   0   2.0000     -14.755504      -401.5177
   1   2.0000     -10.564600      -287.4774
   2   2.0000     -10.549492      -287.0663
   3   2.0000     -10.540297      -286.8160
   4   2.0000     -10.477989      -285.1206
   5   2.0000      -1.024615       -27.8812
   6   2.0000      -0.866128       -23.5685
   7   2.0000      -0.801472       -21.8092
   8   2.0000      -0.712375       -19.3847
   9   2.0000      -0.639618       -17.4049
  10   2.0000      -0.593966       -16.1626
  11   2.0000      -0.544452       -14.8153
  12   2.0000      -0.504551       -13.7295
  13   2.0000      -0.493956       -13.4412
  14   2.0000      -0.449126       -12.2213
  15   2.0000      -0.442526       -12.0417
  16   2.0000      -0.416429       -11.3316
  17   2.0000      -0.398929       -10.8554
  18   2.0000      -0.383998       -10.4491
  19   2.0000      -0.238780        -6.4975
  20   0.0000       0.083920         2.2836
  21   0.0000       0.096135         2.6160
  22   0.0000       0.137462         3.7405
  23   0.0000       0.139651         3.8001
  24   0.0000       0.154897         4.2150

MULLIKEN ATOMIC CHARGES
-----------------------
   0 C :   -0.012656
   1 C :   -0.145496
   2 N :   -0.123335
   3 C :   -0.055687
   4 H :   -0.029490
   5 H :   -0.021219
   6 H :    0.122320
   7 H :    0.133340
   8 C :   -0.030712
   9 H :    0.036104
  10 H :    0.032330
  11 H :    0.040013
  12 H :    0.037097
  13 H :    0.017392
Sum of atomic charges:    0.0000000

LOEWDIN ATOMIC CHARGES
----------------------
   0 C :   -0.033828
   1 C :    0.003323
   2 N :   -0.017063
   3 C :   -0.178738
   4 H :   -0.004351
   5 H :    0.000653
   6 H :    0.071580
   7 H :    0.081237
   8 C :   -0.050061
   9 H :    0.036157
  10 H :    0.023293
  11 H :    0.025108
  12 H :    0.027604
  13 H :    0.015085

  Mayer bond orders larger than 0.100000
B(  0-C ,  1-C ) :   1.0293 B(  0-C ,  8-C ) :   1.0790 B(  0-C ,  9-H ) :   0.9366
B(  0-C , 10-H ) :   0.9351 B(  1-C ,  2-N ) :   1.2547 B(  1-C ,  3-C ) :   1.8766
B(  2-N ,  6-H ) :   0.9500 B(  2-N ,  7-H ) :   0.9452 B(  3-C ,  4-H ) :   0.9580
B(  3-C ,  5-H ) :   0.9417 B(  8-C , 11-H ) :   0.9713 B(  8-C , 12-H ) :   0.9697
B(  8-C , 13-H ) :   0.9734

Dispersion correction           -0.000186100
FINAL SINGLE POINT ENERGY      -212.281569838374

DIPOLE MOMENT
-------------
                                X             Y             Z
Electronic contribution:     -0.53411       0.29091       2.84243
Nuclear contribution   :     -0.12319      -0.83296      -3.13501
                        -----------------------------------------
Total Dipole Moment    :     -0.65730      -0.54205      -0.29258
                        -----------------------------------------
Magnitude (a.u.)       :      0.90081
Magnitude (Debye)      :      2.28967

Rotational constants in cm-1:     0.266453     0.134423     0.106086
Rotational constants in MHz :  7988.053142  4029.892766  3180.375228

                             ****ORCA TERMINATED NORMALLY****
TOTAL RUN TIME: 0 days 0 hours 0 minutes 14 seconds 881 msec
