                         Program Version 5.0.0 -  RELEASE  -
|  1> !M062X D3Zero RIJCOSX def2-TZVP def2/J TightSCF xyzfile
|  2>
|  3> *xyzfile 0 1 D1.xyz
|  4>
|  5> %MaxCore 64000
|  6>
|  7> %pal nprocs 18
|  8> end
|  9>
| 10> %scf
| 11>   MaxIter 150
| 12> end
| 13>
| 14>
| 15>                          ****END OF INPUT****

CARTESIAN COORDINATES (ANGSTROEM)
---------------------------------
  C      4.602954   -2.440100    2.634780
  C     -0.914947    0.615112    2.505538
  C     -0.059146    1.503524    3.410578
  H      0.365364    2.344315    2.861161
  H     -0.692261    1.920207    4.198985
  C      1.083027    0.749640    4.085705
  C      3.860851   -1.591565    3.622893
  C      2.756502   -2.046159    4.166333
  N      4.254325   -0.362905    3.860455
  H      3.565256    0.310994    4.168983
  H      5.054292   -0.016059    3.337838
  H      2.439696   -2.973894    3.897395
  H      2.066869   -1.412532    4.549813
  F      2.228167    1.263475    4.019826
  O      0.810034   -0.345411    4.636269
  C      3.744685   -2.580557    1.361882
  C      0.772139    0.636882    0.562129
  C     -0.130740   -0.193985    1.470763
  H     -0.840563   -0.760165    0.856377
  H      0.466691   -0.938942    2.006959
  H     -1.647961    1.245963    1.991076
  H     -1.478180   -0.081046    3.130424
  C      3.203721   -1.256004    0.826211
  H      2.898939   -3.239289    1.583074
  H      4.334962   -3.095523    0.600188
  C      2.107815   -1.442385   -0.216865
  H      2.786775   -0.672760    1.650711
  H      4.021008   -0.652993    0.414046
  C      1.390662   -0.145912   -0.602422
  H      1.372179   -2.152184    0.176151
  H      2.523302   -1.906787   -1.117115
  H      1.561361    1.100094    1.161831
  H      0.195516    1.468325    0.142758
  H      0.602893   -0.398214   -1.319716
  H      2.087247    0.508272   -1.137335
  H      5.561557   -1.971347    2.407084
  H      4.810498   -3.422552    3.063099

 Total Charge           Charge          ....    0
 Multiplicity           Mult            ....    1
 Number of Electrons    NEL             ....  118
 Basis Dimension        Dim             ....  597

ORBITAL ENERGIES
----------------

  NO   OCC          E(Eh)            E(eV)
   0   2.0000     -25.340613      -689.5531
   1   2.0000     -19.647225      -534.6282
   2   2.0000     -14.723911      -400.6580
   3   2.0000     -10.735610      -292.1308
   4   2.0000     -10.573111      -287.7090
   5   2.0000     -10.551237      -287.1138
   6   2.0000     -10.535535      -286.6865
   7   2.0000     -10.535149      -286.6760
   8   2.0000     -10.533374      -286.6277
   9   2.0000     -10.530259      -286.5429
  10   2.0000     -10.523913      -286.3702
  11   2.0000     -10.522516      -286.3322
  12   2.0000     -10.522140      -286.3220
  13   2.0000     -10.519921      -286.2616
  14   2.0000     -10.431917      -283.8669
  15   2.0000      -1.493275       -40.6341
  16   2.0000      -1.176221       -32.0066
  17   2.0000      -1.025335       -27.9008
  18   2.0000      -0.932414       -25.3723
  19   2.0000      -0.906128       -24.6570
  20   2.0000      -0.880018       -23.9465
  21   2.0000      -0.841348       -22.8943
  22   2.0000      -0.817234       -22.2381
  23   2.0000      -0.786210       -21.3939
  24   2.0000      -0.770302       -20.9610
  25   2.0000      -0.736179       -20.0324
  26   2.0000      -0.701962       -19.1013
  27   2.0000      -0.674957       -18.3665
  28   2.0000      -0.670018       -18.2321
  29   2.0000      -0.661125       -17.9901
  30   2.0000      -0.637197       -17.3390
  31   2.0000      -0.620328       -16.8800
  32   2.0000      -0.606530       -16.5045
  33   2.0000      -0.573341       -15.6014
  34   2.0000      -0.555116       -15.1055
  35   2.0000      -0.552501       -15.0343
  36   2.0000      -0.541549       -14.7363
  37   2.0000      -0.522471       -14.2172
  38   2.0000      -0.517787       -14.0897
  39   2.0000      -0.495807       -13.4916
  40   2.0000      -0.492114       -13.3911
  41   2.0000      -0.479641       -13.0517
  42   2.0000      -0.470338       -12.7986
  43   2.0000      -0.458055       -12.4643
  44   2.0000      -0.451894       -12.2967
  45   2.0000      -0.437033       -11.8923
  46   2.0000      -0.433817       -11.8048
  47   2.0000      -0.428589       -11.6625
  48   2.0000      -0.416276       -11.3274
  49   2.0000      -0.406539       -11.0625
  50   2.0000      -0.404806       -11.0153
  51   2.0000      -0.396306       -10.7840
  52   2.0000      -0.385582       -10.4922
  53   2.0000      -0.380727       -10.3601
  54   2.0000      -0.371007       -10.0956
  55   2.0000      -0.369581       -10.0568
  56   2.0000      -0.361509        -9.8372
  57   2.0000      -0.343206        -9.3391
  58   2.0000      -0.223645        -6.0857
  59   0.0000      -0.002363        -0.0643
  60   0.0000       0.052064         1.4167
  61   0.0000       0.069820         1.8999
  62   0.0000       0.073112         1.9895
  63   0.0000       0.078425         2.1341

MULLIKEN ATOMIC CHARGES
-----------------------
   0 C :   -0.396310
   1 C :   -0.266946
   2 C :   -0.337731
   3 H :    0.177296
   4 H :    0.180101
   5 C :    0.415941
   6 C :    0.278092
   7 C :   -0.445264
   8 N :   -0.521692
   9 H :    0.251820
  10 H :    0.233724
  11 H :    0.090618
  12 H :    0.143696
  13 F :   -0.142453
  14 O :   -0.327737
  15 C :   -0.246142
  16 C :   -0.332749
  17 C :   -0.336560
  18 H :    0.160093
  19 H :    0.190040
  20 H :    0.154568
  21 H :    0.168674
  22 C :   -0.275073
  23 H :    0.150956
  24 H :    0.134366
  25 C :   -0.298826
  26 H :    0.107255
  27 H :    0.144191
  28 C :   -0.283769
  29 H :    0.161901
  30 H :    0.145942
  31 H :    0.161755
  32 H :    0.153780
  33 H :    0.149790
  34 H :    0.147290
  35 H :    0.142795
  36 H :    0.166567
Sum of atomic charges:    0.0000000

LOEWDIN ATOMIC CHARGES
----------------------
   0 C :   -0.218513
   1 C :   -0.258301
   2 C :   -0.234148
   3 H :    0.145542
   4 H :    0.161824
   5 C :   -0.477315
   6 C :   -0.393058
   7 C :   -0.274149
   8 N :   -0.013280
   9 H :    0.157141
  10 H :    0.165697
  11 H :    0.104057
  12 H :    0.093778
  13 F :    0.323307
  14 O :    0.100118
  15 C :   -0.255078
  16 C :   -0.277943
  17 C :   -0.272915
  18 H :    0.143610
  19 H :    0.146011
  20 H :    0.143098
  21 H :    0.148506
  22 C :   -0.271010
  23 H :    0.140497
  24 H :    0.133366
  25 C :   -0.273909
  26 H :    0.140061
  27 H :    0.135244
  28 C :   -0.270839
  29 H :    0.139390
  30 H :    0.137484
  31 H :    0.132321
  32 H :    0.138888
  33 H :    0.138870
  34 H :    0.137829
  35 H :    0.134173
  36 H :    0.149646

  Mayer bond orders larger than 0.100000
B(  0-C ,  6-C ) :   0.8771 B(  0-C , 15-C ) :   0.9129 B(  0-C , 35-H ) :   1.0012
B(  0-C , 36-H ) :   0.9957 B(  1-C ,  2-C ) :   0.9061 B(  1-C , 17-C ) :   0.9339
B(  1-C , 20-H ) :   0.9809 B(  1-C , 21-H ) :   0.9770 B(  2-C ,  3-H ) :   0.9694
B(  2-C ,  4-H ) :   0.9528 B(  2-C ,  5-C ) :   0.9652 B(  5-C , 13-F ) :   1.0518
B(  5-C , 14-O ) :   1.9936 B(  6-C ,  7-C ) :   1.7474 B(  6-C ,  8-N ) :   1.0639
B(  7-C , 11-H ) :   1.0133 B(  7-C , 12-H ) :   0.9993 B(  8-N ,  9-H ) :   0.9038
B(  8-N , 10-H ) :   0.9350 B( 15-C , 22-C ) :   0.9178 B( 15-C , 23-H ) :   0.9839
B( 15-C , 24-H ) :   0.9837 B( 16-C , 17-C ) :   0.8425 B( 16-C , 28-C ) :   0.9293
B( 16-C , 31-H ) :   0.9788 B( 16-C , 32-H ) :   0.9799 B( 17-C , 18-H ) :   0.9797
B( 17-C , 19-H ) :   0.9692 B( 22-C , 25-C ) :   0.9123 B( 22-C , 26-H ) :   0.9776
B( 22-C , 27-H ) :   0.9710 B( 25-C , 28-C ) :   0.9184 B( 25-C , 29-H ) :   0.9880
B( 25-C , 30-H ) :   0.9844 B( 28-C , 33-H ) :   0.9912 B( 28-C , 34-H ) :   0.9929

Dispersion correction           -0.002524376
FINAL SINGLE POINT ENERGY      -700.243337977908

DIPOLE MOMENT
-------------
                                X             Y             Z
Electronic contribution:      1.18732       7.37497      14.94293
Nuclear contribution   :     -1.66567      -5.90236     -15.95042
                        -----------------------------------------
Total Dipole Moment    :     -0.47835       1.47261      -1.00750
                        -----------------------------------------
Magnitude (a.u.)       :      1.84728
Magnitude (Debye)      :      4.69541

Rotational constants in cm-1:     0.021600     0.017292     0.011381
Rotational constants in MHz :   647.565282   518.410024   341.193038

                             ****ORCA TERMINATED NORMALLY****
TOTAL RUN TIME: 0 days 0 hours 1 minutes 40 seconds 398 msec
