                         Program Version 5.0.0 -  RELEASE  -
|  1> !M062X D3Zero RIJCOSX def2-TZVP def2/J TightSCF xyzfile
|  2>
|  3> *xyzfile 0 1 D4.xyz
|  4>
|  5> %MaxCore 64000
|  6>
|  7> %pal nprocs 18
|  8> end
|  9>
| 10> %scf
| 11>   MaxIter 150
| 12> end
| 13>
| 14>
| 15>                          ****END OF INPUT****

CARTESIAN COORDINATES (ANGSTROEM)
---------------------------------
  C      4.602954   -2.440100    2.634780
  C     -0.914947    0.615112    2.505538
  C     -0.059146    1.503524    3.410578
  H      0.365364    2.344315    2.861161
  H     -0.692261    1.920207    4.198985
  C      1.083027    0.749640    4.085705
  C      3.860851   -1.591565    3.622893
  N      2.756502   -2.046159    4.166333
  C      4.254325   -0.362905    3.860455
  H      3.565256    0.310994    4.168983
  H      5.054292   -0.016059    3.337838
  H      2.439696   -2.973894    3.897395
  H      2.066869   -1.412532    4.549813
  O      2.228167    1.263475    4.019826
  F      0.810034   -0.345411    4.636269
  C      3.744685   -2.580557    1.361882
  C      0.772139    0.636882    0.562129
  C     -0.130740   -0.193985    1.470763
  H     -0.840563   -0.760165    0.856377
  H      0.466691   -0.938942    2.006959
  H     -1.647961    1.245963    1.991076
  H     -1.478180   -0.081046    3.130424
  C      3.203721   -1.256004    0.826211
  H      2.898939   -3.239289    1.583074
  H      4.334962   -3.095523    0.600188
  C      2.107815   -1.442385   -0.216865
  H      2.786775   -0.672760    1.650711
  H      4.021008   -0.652993    0.414046
  C      1.390662   -0.145912   -0.602422
  H      1.372179   -2.152184    0.176151
  H      2.523302   -1.906787   -1.117115
  H      1.561361    1.100094    1.161831
  H      0.195516    1.468325    0.142758
  H      0.602893   -0.398214   -1.319716
  H      2.087247    0.508272   -1.137335
  H      5.561557   -1.971347    2.407084
  H      4.810498   -3.422552    3.063099

 Total Charge           Charge          ....    0
 Multiplicity           Mult            ....    1
 Number of Electrons    NEL             ....  118
 Basis Dimension        Dim             ....  597

ORBITAL ENERGIES
----------------

  NO   OCC          E(Eh)            E(eV)
   0   2.0000     -25.342561      -689.6061
   1   2.0000     -19.648844      -534.6722
   2   2.0000     -14.725746      -400.7079
   3   2.0000     -10.737209      -292.1743
   4   2.0000     -10.573914      -287.7308
   5   2.0000     -10.557273      -287.2780
   6   2.0000     -10.542920      -286.8874
   7   2.0000     -10.533520      -286.6316
   8   2.0000     -10.531165      -286.5676
   9   2.0000     -10.529050      -286.5100
  10   2.0000     -10.524166      -286.3771
  11   2.0000     -10.523164      -286.3498
  12   2.0000     -10.519835      -286.2593
  13   2.0000     -10.515734      -286.1477
  14   2.0000     -10.430141      -283.8186
  15   2.0000      -1.495988       -40.7079
  16   2.0000      -1.176709       -32.0199
  17   2.0000      -1.024820       -27.8868
  18   2.0000      -0.937120       -25.5003
  19   2.0000      -0.906189       -24.6586
  20   2.0000      -0.879089       -23.9212
  21   2.0000      -0.840612       -22.8742
  22   2.0000      -0.814738       -22.1702
  23   2.0000      -0.789557       -21.4850
  24   2.0000      -0.773710       -21.0537
  25   2.0000      -0.735717       -20.0199
  26   2.0000      -0.702792       -19.1239
  27   2.0000      -0.680051       -18.5051
  28   2.0000      -0.671827       -18.2813
  29   2.0000      -0.664668       -18.0865
  30   2.0000      -0.636063       -17.3082
  31   2.0000      -0.624461       -16.9925
  32   2.0000      -0.601876       -16.3779
  33   2.0000      -0.576991       -15.7007
  34   2.0000      -0.559250       -15.2180
  35   2.0000      -0.554532       -15.0896
  36   2.0000      -0.532450       -14.4887
  37   2.0000      -0.518420       -14.1069
  38   2.0000      -0.512486       -13.9454
  39   2.0000      -0.505526       -13.7561
  40   2.0000      -0.490095       -13.3362
  41   2.0000      -0.484038       -13.1713
  42   2.0000      -0.476047       -12.9539
  43   2.0000      -0.457808       -12.4576
  44   2.0000      -0.449177       -12.2227
  45   2.0000      -0.440632       -11.9902
  46   2.0000      -0.437489       -11.9047
  47   2.0000      -0.427362       -11.6291
  48   2.0000      -0.418973       -11.4008
  49   2.0000      -0.411022       -11.1845
  50   2.0000      -0.407212       -11.0808
  51   2.0000      -0.393293       -10.7021
  52   2.0000      -0.384704       -10.4683
  53   2.0000      -0.382759       -10.4154
  54   2.0000      -0.371479       -10.1085
  55   2.0000      -0.369006       -10.0412
  56   2.0000      -0.359892        -9.7932
  57   2.0000      -0.337617        -9.1870
  58   2.0000      -0.223502        -6.0818
  59   0.0000      -0.000221        -0.0060
  60   0.0000       0.046949         1.2776
  61   0.0000       0.062015         1.6875
  62   0.0000       0.074129         2.0172
  63   0.0000       0.080764         2.1977

MULLIKEN ATOMIC CHARGES
-----------------------
   0 C :   -0.393590
   1 C :   -0.295789
   2 C :   -0.328179
   3 H :    0.193961
   4 H :    0.176047
   5 C :    0.409778
   6 C :    0.262786
   7 N :   -0.538115
   8 C :   -0.394115
   9 H :    0.127415
  10 H :    0.084522
  11 H :    0.236707
  12 H :    0.257251
  13 O :   -0.327246
  14 F :   -0.140584
  15 C :   -0.275844
  16 C :   -0.340624
  17 C :   -0.315761
  18 H :    0.162481
  19 H :    0.153267
  20 H :    0.159177
  21 H :    0.163063
  22 C :   -0.279121
  23 H :    0.142372
  24 H :    0.143106
  25 C :   -0.290148
  26 H :    0.123285
  27 H :    0.150290
  28 C :   -0.284657
  29 H :    0.153250
  30 H :    0.146108
  31 H :    0.195261
  32 H :    0.152646
  33 H :    0.147340
  34 H :    0.150187
  35 H :    0.157651
  36 H :    0.155822
Sum of atomic charges:   -0.0000000

LOEWDIN ATOMIC CHARGES
----------------------
   0 C :   -0.219952
   1 C :   -0.269139
   2 C :   -0.228725
   3 H :    0.159124
   4 H :    0.157342
   5 C :   -0.479925
   6 C :   -0.393768
   7 N :   -0.010612
   8 C :   -0.270679
   9 H :    0.092777
  10 H :    0.102164
  11 H :    0.168138
  12 H :    0.157054
  13 O :    0.099499
  14 F :    0.327738
  15 C :   -0.263927
  16 C :   -0.275605
  17 C :   -0.275234
  18 H :    0.143689
  19 H :    0.136195
  20 H :    0.144880
  21 H :    0.141971
  22 C :   -0.265932
  23 H :    0.131827
  24 H :    0.136441
  25 C :   -0.276595
  26 H :    0.144558
  27 H :    0.140395
  28 C :   -0.270541
  29 H :    0.135590
  30 H :    0.137065
  31 H :    0.141640
  32 H :    0.139231
  33 H :    0.137652
  34 H :    0.139492
  35 H :    0.148762
  36 H :    0.137408

  Mayer bond orders larger than 0.100000
B(  0-C ,  6-C ) :   0.9035 B(  0-C , 15-C ) :   0.8892 B(  0-C , 35-H ) :   0.9960
B(  0-C , 36-H ) :   1.0006 B(  1-C ,  2-C ) :   0.8894 B(  1-C , 17-C ) :   0.9142
B(  1-C , 20-H ) :   0.9768 B(  1-C , 21-H ) :   0.9889 B(  2-C ,  3-H ) :   0.9738
B(  2-C ,  4-H ) :   0.9545 B(  2-C ,  5-C ) :   0.9760 B(  5-C , 13-O ) :   1.9891
B(  5-C , 14-F ) :   1.0561 B(  6-C ,  7-N ) :   1.0559 B(  6-C ,  8-C ) :   1.7597
B(  7-N , 11-H ) :   0.9361 B(  7-N , 12-H ) :   0.8970 B(  8-C ,  9-H ) :   0.9989
B(  8-C , 10-H ) :   1.0092 B( 15-C , 22-C ) :   0.8827 B( 15-C , 23-H ) :   1.0012
B( 15-C , 24-H ) :   0.9789 B( 16-C , 17-C ) :   0.8420 B( 16-C , 28-C ) :   0.9269
B( 16-C , 31-H ) :   0.9718 B( 16-C , 32-H ) :   0.9794 B( 17-C , 18-H ) :   0.9786
B( 17-C , 19-H ) :   0.9781 B( 22-C , 25-C ) :   0.8903 B( 22-C , 26-H ) :   0.9995
B( 22-C , 27-H ) :   0.9710 B( 25-C , 28-C ) :   0.9203 B( 25-C , 29-H ) :   0.9908
B( 25-C , 30-H ) :   0.9844 B( 28-C , 33-H ) :   0.9921 B( 28-C , 34-H ) :   0.9914

Dispersion correction           -0.002528702
FINAL SINGLE POINT ENERGY      -700.242015225391

DIPOLE MOMENT
-------------
                                X             Y             Z
Electronic contribution:     -2.26879       3.58582      16.19100
Nuclear contribution   :      0.32481      -3.64700     -16.75441
                        -----------------------------------------
Total Dipole Moment    :     -1.94398      -0.06118      -0.56341
                        -----------------------------------------
Magnitude (a.u.)       :      2.02491
Magnitude (Debye)      :      5.14690

Rotational constants in cm-1:     0.021629     0.017327     0.011372
Rotational constants in MHz :   648.414821   519.443407   340.925013

                             ****ORCA TERMINATED NORMALLY****
TOTAL RUN TIME: 0 days 0 hours 1 minutes 10 seconds 886 msec
