                         Program Version 5.0.0 -  RELEASE  -
|  1> !TPSS D3BJ RIJCOSX def2-SVP def2/J TightSCF
|  2> *xyz -1 1
|  3> C          2.49556        1.81615       -2.13636
|  4> C          1.87218        0.42790       -2.07750
|  5> H          2.61427       -0.36583       -2.19889
|  6> H          1.38995        0.27309       -1.11236
|  7> S          0.57902        0.14047       -3.29794
|  8> O          0.22886       -1.24687       -3.12787
|  9> O         -0.43927        1.11897       -3.01455
| 10> O          1.24788        0.40347       -4.59565
| 11> H          2.96535        1.95613       -3.08747
| 12> H          3.22581        1.91242       -1.36024
| 13> H          1.73350        2.55528       -2.00274
| 14> *
| 15>
| 16> %MaxCore 64000
| 17>
| 18> %pal nprocs 4
| 19> end
| 20>
| 21> %scf
| 22>   MaxIter 150
| 23> end
| 24>
| 25>
| 26>                          ****END OF INPUT****

CARTESIAN COORDINATES (ANGSTROEM)
---------------------------------
  C      2.495560    1.816150   -2.136360
  C      1.872180    0.427900   -2.077500
  H      2.614270   -0.365830   -2.198890
  H      1.389950    0.273090   -1.112360
  S      0.579020    0.140470   -3.297940
  O      0.228860   -1.246870   -3.127870
  O     -0.439270    1.118970   -3.014550
  O      1.247880    0.403470   -4.595650
  H      2.965350    1.956130   -3.087470
  H      3.225810    1.912420   -1.360240
  H      1.733500    2.555280   -2.002740

 Total Charge           Charge          ....   -1
 Multiplicity           Mult            ....    1
 Number of Electrons    NEL             ....   58
 Basis Dimension        Dim             ....  113

ORBITAL ENERGIES
----------------

  NO   OCC          E(Eh)            E(eV)
   0   2.0000     -88.323650     -2403.4087
   1   2.0000     -18.642371      -507.2847
   2   2.0000     -18.642253      -507.2815
   3   2.0000     -18.626519      -506.8534
   4   2.0000      -9.846564      -267.9386
   5   2.0000      -9.838553      -267.7206
   6   2.0000      -7.690688      -209.2743
   7   2.0000      -5.676208      -154.4575
   8   2.0000      -5.675956      -154.4506
   9   2.0000      -5.675515      -154.4386
  10   2.0000      -0.824542       -22.4369
  11   2.0000      -0.693447       -18.8696
  12   2.0000      -0.666051       -18.1242
  13   2.0000      -0.553967       -15.0742
  14   2.0000      -0.433542       -11.7973
  15   2.0000      -0.307146        -8.3579
  16   2.0000      -0.260612        -7.0916
  17   2.0000      -0.246112        -6.6970
  18   2.0000      -0.211328        -5.7505
  19   2.0000      -0.191685        -5.2160
  20   2.0000      -0.190315        -5.1787
  21   2.0000      -0.168943        -4.5972
  22   2.0000      -0.156369        -4.2550
  23   2.0000      -0.073457        -1.9989
  24   2.0000      -0.072519        -1.9733
  25   2.0000      -0.043552        -1.1851
  26   2.0000      -0.038003        -1.0341
  27   2.0000      -0.024778        -0.6743
  28   2.0000       0.010992         0.2991
  29   0.0000       0.196553         5.3485
  30   0.0000       0.246027         6.6947
  31   0.0000       0.250222         6.8089
  32   0.0000       0.258038         7.0216
  33   0.0000       0.286418         7.7938

MULLIKEN ATOMIC CHARGES
-----------------------
   0 C :    0.042948
   1 C :   -0.092756
   2 H :   -0.005972
   3 H :   -0.013488
   4 S :    0.801573
   5 O :   -0.548915
   6 O :   -0.549590
   7 O :   -0.594138
   8 H :    0.000424
   9 H :   -0.039693
  10 H :   -0.000394
Sum of atomic charges:   -1.0000000

LOEWDIN ATOMIC CHARGES
----------------------
   0 C :   -0.064200
   1 C :   -0.186678
   2 H :    0.001138
   3 H :   -0.003134
   4 S :    1.052140
   5 O :   -0.589089
   6 O :   -0.589902
   7 O :   -0.636266
   8 H :    0.010187
   9 H :   -0.004860
  10 H :    0.010665

  Mayer bond orders larger than 0.100000
B(  0-C ,  1-C ) :   1.0580 B(  0-C ,  8-H ) :   0.9636 B(  0-C ,  9-H ) :   0.9559
B(  0-C , 10-H ) :   0.9641 B(  1-C ,  2-H ) :   0.9388 B(  1-C ,  3-H ) :   0.9348
B(  1-C ,  4-S ) :   0.8669 B(  4-S ,  5-O ) :   1.6391 B(  4-S ,  6-O ) :   1.6257
B(  4-S ,  7-O ) :   1.5816

Dispersion correction           -0.012152819
FINAL SINGLE POINT ENERGY      -702.793440327570

DIPOLE MOMENT
-------------
                                X             Y             Z
Electronic contribution:     -5.87630      -3.68114      -4.25956
Nuclear contribution   :      6.89220       4.11756       5.35566
                        -----------------------------------------
Total Dipole Moment    :      1.01589       0.43642       1.09610
                        -----------------------------------------
Magnitude (a.u.)       :      1.55690
Magnitude (Debye)      :      3.95733

Rotational constants in cm-1:     0.162183     0.084017     0.082390
Rotational constants in MHz :  4862.117324  2518.774315  2469.980309

                             ****ORCA TERMINATED NORMALLY****
TOTAL RUN TIME: 0 days 0 hours 0 minutes 4 seconds 877 msec
