                         Program Version 5.0.0 -  RELEASE  -
|  1> !TPSS D3BJ RIJCOSX def2-SVP def2/J TightSCF
|  2> *xyz 1 1
|  3> C          3.38093        2.08304       -3.35013
|  4> N          4.53592        1.18245       -3.42852
|  5> C          2.49556        1.81615       -2.13636
|  6> C          4.67196        0.12227       -4.22060
|  7> N          5.86602       -0.50785       -4.22428
|  8> N          3.69888       -0.31284       -4.98699
|  9> H          2.73141       -0.05009       -4.84900
| 10> H          3.89005       -1.05517       -5.64373
| 11> H          5.25193        1.30346       -2.72101
| 12> H          6.69516       -0.06232       -3.85160
| 13> H          5.97538       -1.39688       -4.69141
| 14> H          2.80646        1.98651       -4.26848
| 15> H          3.77871        3.09828       -3.30738
| 16> H          2.11090        0.81901       -2.18783
| 17> H          1.68276        2.51198       -2.12786
| 18> H          3.07216        1.93031       -1.24227
| 19> *
| 20>
| 21> %MaxCore 64000
| 22>
| 23> %pal nprocs 4
| 24> end
| 25>
| 26> %scf
| 27>   MaxIter 150
| 28> end
| 29>
| 30>
| 31>                          ****END OF INPUT****

CARTESIAN COORDINATES (ANGSTROEM)
---------------------------------
  C      3.380930    2.083040   -3.350130
  N      4.535920    1.182450   -3.428520
  C      2.495560    1.816150   -2.136360
  C      4.671960    0.122270   -4.220600
  N      5.866020   -0.507850   -4.224280
  N      3.698880   -0.312840   -4.986990
  H      2.731410   -0.050090   -4.849000
  H      3.890050   -1.055170   -5.643730
  H      5.251930    1.303460   -2.721010
  H      6.695160   -0.062320   -3.851600
  H      5.975380   -1.396880   -4.691410
  H      2.806460    1.986510   -4.268480
  H      3.778710    3.098280   -3.307380
  H      2.110900    0.819010   -2.187830
  H      1.682760    2.511980   -2.127860
  H      3.072160    1.930310   -1.242270

 Total Charge           Charge          ....    1
 Multiplicity           Mult            ....    1
 Number of Electrons    NEL             ....   48
 Basis Dimension        Dim             ....  134

ORBITAL ENERGIES
----------------

  NO   OCC          E(Eh)            E(eV)
   0   2.0000     -14.340097      -390.2139
   1   2.0000     -14.332407      -390.0046
   2   2.0000     -14.332304      -390.0018
   3   2.0000     -10.320751      -280.8419
   4   2.0000     -10.204974      -277.6915
   5   2.0000     -10.137220      -275.8478
   6   2.0000      -1.133812       -30.8526
   7   2.0000      -1.030928       -28.0530
   8   2.0000      -1.016461       -27.6593
   9   2.0000      -0.865980       -23.5645
  10   2.0000      -0.784105       -21.3366
  11   2.0000      -0.747216       -20.3328
  12   2.0000      -0.734857       -19.9965
  13   2.0000      -0.691731       -18.8229
  14   2.0000      -0.649887       -17.6843
  15   2.0000      -0.646278       -17.5861
  16   2.0000      -0.597774       -16.2663
  17   2.0000      -0.582850       -15.8602
  18   2.0000      -0.560971       -15.2648
  19   2.0000      -0.515083       -14.0161
  20   2.0000      -0.490769       -13.3545
  21   2.0000      -0.476455       -12.9650
  22   2.0000      -0.434029       -11.8105
  23   2.0000      -0.406685       -11.0665
  24   0.0000      -0.182618        -4.9693
  25   0.0000      -0.147382        -4.0105
  26   0.0000      -0.115323        -3.1381
  27   0.0000      -0.106156        -2.8887
  28   0.0000      -0.093366        -2.5406

MULLIKEN ATOMIC CHARGES
-----------------------
   0 C :    0.028089
   1 N :   -0.146295
   2 C :    0.016400
   3 C :    0.077592
   4 N :   -0.062422
   5 N :   -0.024709
   6 H :    0.176283
   7 H :    0.169597
   8 H :    0.164247
   9 H :    0.172987
  10 H :    0.167935
  11 H :    0.046691
  12 H :    0.074797
  13 H :    0.027021
  14 H :    0.066629
  15 H :    0.045159
Sum of atomic charges:    1.0000000

LOEWDIN ATOMIC CHARGES
----------------------
   0 C :    0.051092
   1 N :    0.032545
   2 C :   -0.034271
   3 C :    0.124725
   4 N :    0.041484
   5 N :    0.069334
   6 H :    0.110552
   7 H :    0.110799
   8 H :    0.104066
   9 H :    0.108863
  10 H :    0.105438
  11 H :    0.028582
  12 H :    0.045619
  13 H :    0.023629
  14 H :    0.045628
  15 H :    0.031915

  Mayer bond orders larger than 0.100000
B(  0-C ,  1-N ) :   0.9332 B(  0-C ,  2-C ) :   1.0966 B(  0-C , 11-H ) :   0.9507
B(  0-C , 12-H ) :   0.9441 B(  1-N ,  3-C ) :   1.3683 B(  1-N ,  8-H ) :   0.9098
B(  2-C , 13-H ) :   0.9677 B(  2-C , 14-H ) :   0.9614 B(  2-C , 15-H ) :   0.9679
B(  3-C ,  4-N ) :   1.3574 B(  3-C ,  5-N ) :   1.4047 B(  4-N ,  9-H ) :   0.9279
B(  4-N , 10-H ) :   0.9311 B(  5-N ,  6-H ) :   0.9237 B(  5-N ,  7-H ) :   0.9261

Dispersion correction           -0.014912475
FINAL SINGLE POINT ENERGY      -284.248328796059

DIPOLE MOMENT
-------------
                                X             Y             Z
Electronic contribution:      3.60744      -2.70742      -2.85060
Nuclear contribution   :     -2.93277       1.85779       2.25966
                        -----------------------------------------
Total Dipole Moment    :      0.67467      -0.84963      -0.59094
                        -----------------------------------------
Magnitude (a.u.)       :      1.23542
Magnitude (Debye)      :      3.14018

Rotational constants in cm-1:     0.245511     0.068839     0.059711
Rotational constants in MHz :  7360.233487  2063.743353  1790.088408

                             ****ORCA TERMINATED NORMALLY****
TOTAL RUN TIME: 0 days 0 hours 0 minutes 6 seconds 524 msec
