                         Program Version 5.0.0 -  RELEASE  -
|  1> !TPSS D3BJ RIJCOSX def2-SVP def2/J TightSCF
|  2> *xyz 0 1
|  3> C          2.49556        1.81615       -2.13636
|  4> C          1.87218        0.42790       -2.07750
|  5> H          2.61427       -0.36583       -2.19889
|  6> H          1.38995        0.27309       -1.11236
|  7> S          0.57902        0.14047       -3.29794
|  8> F          0.22886       -1.24687       -3.12787
|  9> O         -0.43927        1.11897       -3.01455
| 10> O          1.24788        0.40347       -4.59565
| 11> H          2.96535        1.95613       -3.08747
| 12> H          3.22581        1.91242       -1.36024
| 13> H          1.73350        2.55528       -2.00274
| 14> *
| 15>
| 16> %MaxCore 64000
| 17>
| 18> %pal nprocs 4
| 19> end
| 20>
| 21> %scf
| 22>   MaxIter 150
| 23> end
| 24>
| 25>
| 26>                          ****END OF INPUT****

CARTESIAN COORDINATES (ANGSTROEM)
---------------------------------
  C      2.495560    1.816150   -2.136360
  C      1.872180    0.427900   -2.077500
  H      2.614270   -0.365830   -2.198890
  H      1.389950    0.273090   -1.112360
  S      0.579020    0.140470   -3.297940
  F      0.228860   -1.246870   -3.127870
  O     -0.439270    1.118970   -3.014550
  O      1.247880    0.403470   -4.595650
  H      2.965350    1.956130   -3.087470
  H      3.225810    1.912420   -1.360240
  H      1.733500    2.555280   -2.002740

 Total Charge           Charge          ....    0
 Multiplicity           Mult            ....    1
 Number of Electrons    NEL             ....   58
 Basis Dimension        Dim             ....  113

ORBITAL ENERGIES
----------------

  NO   OCC          E(Eh)            E(eV)
   0   2.0000     -88.594739     -2410.7854
   1   2.0000     -24.525106      -667.3621
   2   2.0000     -18.893350      -514.1142
   3   2.0000     -18.878045      -513.6977
   4   2.0000     -10.051484      -273.5148
   5   2.0000     -10.017532      -272.5909
   6   2.0000      -7.964535      -216.7260
   7   2.0000      -5.954302      -162.0248
   8   2.0000      -5.947620      -161.8430
   9   2.0000      -5.945870      -161.7954
  10   2.0000      -1.283986       -34.9390
  11   2.0000      -1.021842       -27.8057
  12   2.0000      -0.919115       -25.0104
  13   2.0000      -0.753105       -20.4930
  14   2.0000      -0.668212       -18.1830
  15   2.0000      -0.612827       -16.6759
  16   2.0000      -0.525718       -14.3055
  17   2.0000      -0.518962       -14.1217
  18   2.0000      -0.492432       -13.3998
  19   2.0000      -0.446348       -12.1458
  20   2.0000      -0.426171       -11.5967
  21   2.0000      -0.385323       -10.4852
  22   2.0000      -0.381518       -10.3816
  23   2.0000      -0.366503        -9.9730
  24   2.0000      -0.346360        -9.4249
  25   2.0000      -0.329337        -8.9617
  26   2.0000      -0.279950        -7.6178
  27   2.0000      -0.265635        -7.2283
  28   2.0000      -0.246778        -6.7152
  29   0.0000       0.010231         0.2784
  30   0.0000       0.034318         0.9338
  31   0.0000       0.054440         1.4814
  32   0.0000       0.068807         1.8723
  33   0.0000       0.085372         2.3231

MULLIKEN ATOMIC CHARGES
-----------------------
   0 C :    0.025930
   1 C :   -0.124377
   2 H :    0.059663
   3 H :    0.055073
   4 S :    0.876267
   5 F :   -0.152189
   6 O :   -0.412609
   7 O :   -0.456477
   8 H :    0.047782
   9 H :    0.035928
  10 H :    0.045010
Sum of atomic charges:   -0.0000000

LOEWDIN ATOMIC CHARGES
----------------------
   0 C :   -0.036113
   1 C :   -0.149379
   2 H :    0.028678
   3 H :    0.025955
   4 S :    1.106180
   5 F :   -0.105347
   6 O :   -0.459129
   7 O :   -0.505101
   8 H :    0.031061
   9 H :    0.032389
  10 H :    0.030806

  Mayer bond orders larger than 0.100000
B(  0-C ,  1-C ) :   1.0748 B(  0-C ,  8-H ) :   0.9695 B(  0-C ,  9-H ) :   0.9605
B(  0-C , 10-H ) :   0.9689 B(  1-C ,  2-H ) :   0.9283 B(  1-C ,  3-H ) :   0.9268
B(  1-C ,  4-S ) :   0.9027 B(  4-S ,  5-F ) :   1.0311 B(  4-S ,  6-O ) :   1.7765
B(  4-S ,  7-O ) :   1.7363

Dispersion correction           -0.011625322
FINAL SINGLE POINT ENERGY      -727.299846421559

DIPOLE MOMENT
-------------
                                X             Y             Z
Electronic contribution:     -6.90401      -6.41517      -4.18771
Nuclear contribution   :      7.60530       5.82028       5.38743
                        -----------------------------------------
Total Dipole Moment    :      0.70129      -0.59489       1.19972
                        -----------------------------------------
Magnitude (a.u.)       :      1.51163
Magnitude (Debye)      :      3.84227

Rotational constants in cm-1:     0.157861     0.081452     0.078859
Rotational constants in MHz :  4732.562506  2441.865430  2364.129821

                             ****ORCA TERMINATED NORMALLY****
TOTAL RUN TIME: 0 days 0 hours 0 minutes 5 seconds 57 msec
