                         Program Version 5.0.0 -  RELEASE  -
|  1> !TPSS D3BJ RIJCOSX def2-SVP def2/J TightSCF
|  2> *xyz 0 1
|  3> C          3.38093        2.08304       -3.35013
|  4> C          4.53592        1.18245       -3.42852
|  5> C          2.49556        1.81615       -2.13636
|  6> C          4.67196        0.12227       -4.22060
|  7> N          5.86602       -0.50785       -4.22428
|  8> N          3.69888       -0.31284       -4.98699
|  9> H          2.73141       -0.05009       -4.84900
| 10> H          3.89005       -1.05517       -5.64373
| 11> H          5.25193        1.30346       -2.72101
| 12> H          6.69516       -0.06232       -3.85160
| 13> H          5.97538       -1.39688       -4.69141
| 14> H          2.80646        1.98651       -4.26848
| 15> H          3.77871        3.09828       -3.30738
| 16> H          2.11090        0.81901       -2.18783
| 17> H          1.68276        2.51198       -2.12786
| 18> H          3.07216        1.93031       -1.24227
| 19> *
| 20>
| 21> %MaxCore 64000
| 22>
| 23> %pal nprocs 4
| 24> end
| 25>
| 26> %scf
| 27>   MaxIter 150
| 28> end
| 29>
| 30>
| 31>                          ****END OF INPUT****

CARTESIAN COORDINATES (ANGSTROEM)
---------------------------------
  C      3.380930    2.083040   -3.350130
  C      4.535920    1.182450   -3.428520
  C      2.495560    1.816150   -2.136360
  C      4.671960    0.122270   -4.220600
  N      5.866020   -0.507850   -4.224280
  N      3.698880   -0.312840   -4.986990
  H      2.731410   -0.050090   -4.849000
  H      3.890050   -1.055170   -5.643730
  H      5.251930    1.303460   -2.721010
  H      6.695160   -0.062320   -3.851600
  H      5.975380   -1.396880   -4.691410
  H      2.806460    1.986510   -4.268480
  H      3.778710    3.098280   -3.307380
  H      2.110900    0.819010   -2.187830
  H      1.682760    2.511980   -2.127860
  H      3.072160    1.930310   -1.242270

 Total Charge           Charge          ....    0
 Multiplicity           Mult            ....    1
 Number of Electrons    NEL             ....   48
 Basis Dimension        Dim             ....  134

ORBITAL ENERGIES
----------------

  NO   OCC          E(Eh)            E(eV)
   0   2.0000     -14.112011      -384.0073
   1   2.0000     -14.104075      -383.7914
   2   2.0000     -10.027737      -272.8686
   3   2.0000      -9.967110      -271.2188
   4   2.0000      -9.962481      -271.0929
   5   2.0000      -9.909098      -269.6403
   6   2.0000      -0.876862       -23.8606
   7   2.0000      -0.791029       -21.5250
   8   2.0000      -0.696814       -18.9613
   9   2.0000      -0.624362       -16.9897
  10   2.0000      -0.554328       -15.0840
  11   2.0000      -0.518694       -14.1144
  12   2.0000      -0.488941       -13.3048
  13   2.0000      -0.451749       -12.2927
  14   2.0000      -0.429024       -11.6743
  15   2.0000      -0.391594       -10.6558
  16   2.0000      -0.365622        -9.9491
  17   2.0000      -0.341208        -9.2847
  18   2.0000      -0.327850        -8.9213
  19   2.0000      -0.302605        -8.2343
  20   2.0000      -0.282122        -7.6769
  21   2.0000      -0.276062        -7.5120
  22   2.0000      -0.212106        -5.7717
  23   2.0000      -0.114511        -3.1160
  24   0.0000       0.031924         0.8687
  25   0.0000       0.058657         1.5962
  26   0.0000       0.081915         2.2290
  27   0.0000       0.082589         2.2474
  28   0.0000       0.100598         2.7374

MULLIKEN ATOMIC CHARGES
-----------------------
   0 C :    0.053875
   1 C :   -0.208074
   2 C :    0.057397
   3 C :   -0.020500
   4 N :   -0.098471
   5 N :   -0.063244
   6 H :    0.125113
   7 H :    0.097666
   8 H :   -0.090175
   9 H :    0.120181
  10 H :    0.092145
  11 H :   -0.033514
  12 H :   -0.008247
  13 H :   -0.012260
  14 H :   -0.009477
  15 H :   -0.002415
Sum of atomic charges:    0.0000000

LOEWDIN ATOMIC CHARGES
----------------------
   0 C :   -0.033541
   1 C :   -0.213431
   2 C :   -0.044421
   3 C :    0.008063
   4 N :   -0.026885
   5 N :   -0.001669
   6 H :    0.079738
   7 H :    0.062550
   8 H :   -0.013559
   9 H :    0.079332
  10 H :    0.056447
  11 H :    0.002900
  12 H :    0.016844
  13 H :    0.007831
  14 H :    0.006228
  15 H :    0.013573

  Mayer bond orders larger than 0.100000
B(  0-C ,  1-C ) :   1.0851 B(  0-C ,  2-C ) :   1.0846 B(  0-C , 11-H ) :   0.9340
B(  0-C , 12-H ) :   0.9166 B(  1-C ,  3-C ) :   1.6607 B(  1-C ,  8-H ) :   0.9492
B(  2-C , 13-H ) :   0.9686 B(  2-C , 14-H ) :   0.9591 B(  2-C , 15-H ) :   0.9684
B(  3-C ,  4-N ) :   1.2084 B(  3-C ,  5-N ) :   1.2566 B(  4-N ,  9-H ) :   0.9436
B(  4-N , 10-H ) :   0.9495 B(  5-N ,  6-H ) :   0.9380 B(  5-N ,  7-H ) :   0.9467

Dispersion correction           -0.015532277
FINAL SINGLE POINT ENERGY      -267.766712549578

DIPOLE MOMENT
-------------
                                X             Y             Z
Electronic contribution:      3.06312      -2.94635      -3.00171
Nuclear contribution   :     -2.84307       1.95814       2.32378
                        -----------------------------------------
Total Dipole Moment    :      0.22005      -0.98821      -0.67793
                        -----------------------------------------
Magnitude (a.u.)       :      1.21843
Magnitude (Debye)      :      3.09701

Rotational constants in cm-1:     0.248902     0.068887     0.059904
Rotational constants in MHz :  7461.898926  2065.183281  1795.882140

                             ****ORCA TERMINATED NORMALLY****
TOTAL RUN TIME: 0 days 0 hours 0 minutes 6 seconds 943 msec
