                         Program Version 5.0.0 -  RELEASE  -
|  1> !TPSS D3BJ RIJCOSX def2-SVP def2/J TightSCF
|  2> *xyz 0 1
|  3> C          2.49556        1.81615       -2.13636
|  4> C          1.87218        0.42790       -2.07750
|  5> H          2.61427       -0.36583       -2.19889
|  6> H          1.38995        0.27309       -1.11236
|  7> S          0.57902        0.14047       -3.29794
|  8> O          0.22886       -1.24687       -3.12787
|  9> F         -0.43927        1.11897       -3.01455
| 10> O          1.24788        0.40347       -4.59565
| 11> H          2.96535        1.95613       -3.08747
| 12> H          3.22581        1.91242       -1.36024
| 13> H          1.73350        2.55528       -2.00274
| 14> *
| 15>
| 16> %MaxCore 64000
| 17>
| 18> %pal nprocs 4
| 19> end
| 20>
| 21> %scf
| 22>   MaxIter 150
| 23> end
| 24>
| 25>
| 26>                          ****END OF INPUT****

CARTESIAN COORDINATES (ANGSTROEM)
---------------------------------
  C      2.495560    1.816150   -2.136360
  C      1.872180    0.427900   -2.077500
  H      2.614270   -0.365830   -2.198890
  H      1.389950    0.273090   -1.112360
  S      0.579020    0.140470   -3.297940
  O      0.228860   -1.246870   -3.127870
  F     -0.439270    1.118970   -3.014550
  O      1.247880    0.403470   -4.595650
  H      2.965350    1.956130   -3.087470
  H      3.225810    1.912420   -1.360240
  H      1.733500    2.555280   -2.002740

 Total Charge           Charge          ....    0
 Multiplicity           Mult            ....    1
 Number of Electrons    NEL             ....   58
 Basis Dimension        Dim             ....  113

ORBITAL ENERGIES
----------------

  NO   OCC          E(Eh)            E(eV)
   0   2.0000     -88.595043     -2410.7937
   1   2.0000     -24.525308      -667.3676
   2   2.0000     -18.893824      -514.1271
   3   2.0000     -18.879348      -513.7332
   4   2.0000     -10.051349      -273.5111
   5   2.0000     -10.020102      -272.6608
   6   2.0000      -7.964828      -216.7340
   7   2.0000      -5.954678      -162.0350
   8   2.0000      -5.947857      -161.8494
   9   2.0000      -5.946151      -161.8030
  10   2.0000      -1.284417       -34.9508
  11   2.0000      -1.021664       -27.8009
  12   2.0000      -0.920565       -25.0498
  13   2.0000      -0.755962       -20.5708
  14   2.0000      -0.664333       -18.0774
  15   2.0000      -0.617442       -16.8014
  16   2.0000      -0.534622       -14.5478
  17   2.0000      -0.517894       -14.0926
  18   2.0000      -0.486769       -13.2456
  19   2.0000      -0.445739       -12.1292
  20   2.0000      -0.425249       -11.5716
  21   2.0000      -0.398898       -10.8546
  22   2.0000      -0.380245       -10.3470
  23   2.0000      -0.365288        -9.9400
  24   2.0000      -0.353492        -9.6190
  25   2.0000      -0.326296        -8.8790
  26   2.0000      -0.279630        -7.6091
  27   2.0000      -0.266215        -7.2441
  28   2.0000      -0.249352        -6.7852
  29   0.0000       0.006235         0.1697
  30   0.0000       0.041134         1.1193
  31   0.0000       0.045849         1.2476
  32   0.0000       0.076555         2.0832
  33   0.0000       0.080415         2.1882

MULLIKEN ATOMIC CHARGES
-----------------------
   0 C :    0.014012
   1 C :   -0.129546
   2 H :    0.090615
   3 H :    0.055619
   4 S :    0.877222
   5 O :   -0.407846
   6 F :   -0.153463
   7 O :   -0.455622
   8 H :    0.049503
   9 H :    0.035736
  10 H :    0.023770
Sum of atomic charges:    0.0000000

LOEWDIN ATOMIC CHARGES
----------------------
   0 C :   -0.050635
   1 C :   -0.146033
   2 H :    0.048530
   3 H :    0.025594
   4 S :    1.106766
   5 O :   -0.456374
   6 F :   -0.106028
   7 O :   -0.503904
   8 H :    0.029705
   9 H :    0.031463
  10 H :    0.020915

  Mayer bond orders larger than 0.100000
B(  0-C ,  1-C ) :   1.0518 B(  0-C ,  8-H ) :   0.9688 B(  0-C ,  9-H ) :   0.9592
B(  0-C , 10-H ) :   0.9713 B(  1-C ,  2-H ) :   0.9361 B(  1-C ,  3-H ) :   0.9302
B(  1-C ,  4-S ) :   0.9014 B(  4-S ,  5-O ) :   1.7870 B(  4-S ,  6-F ) :   1.0252
B(  4-S ,  7-O ) :   1.7365

Dispersion correction           -0.011564906
FINAL SINGLE POINT ENERGY      -727.300045786623

DIPOLE MOMENT
-------------
                                X             Y             Z
Electronic contribution:     -8.01713      -2.47933      -3.99845
Nuclear contribution   :      8.30151       3.35500       5.26935
                        -----------------------------------------
Total Dipole Moment    :      0.28438       0.87568       1.27090
                        -----------------------------------------
Magnitude (a.u.)       :      1.56935
Magnitude (Debye)      :      3.98898

Rotational constants in cm-1:     0.152913     0.083043     0.080351
Rotational constants in MHz :  4584.227971  2489.580280  2408.872860

                             ****ORCA TERMINATED NORMALLY****
TOTAL RUN TIME: 0 days 0 hours 0 minutes 5 seconds 96 msec
