                         Program Version 5.0.0 -  RELEASE  -
|  1> !TPSS D3BJ RIJCOSX def2-SVP def2/J TightSCF
|  2> *xyz 0 1
|  3> C          3.38093        2.08304       -3.35013
|  4> N          4.53592        1.18245       -3.42852
|  5> C          2.49556        1.81615       -2.13636
|  6> C          4.67196        0.12227       -4.22060
|  7> C          5.86602       -0.50785       -4.22428
|  8> N          3.69888       -0.31284       -4.98699
|  9> H          2.73141       -0.05009       -4.84900
| 10> H          3.89005       -1.05517       -5.64373
| 11> H          5.25193        1.30346       -2.72101
| 12> H          6.69516       -0.06232       -3.85160
| 13> H          5.97538       -1.39688       -4.69141
| 14> H          2.80646        1.98651       -4.26848
| 15> H          3.77871        3.09828       -3.30738
| 16> H          2.11090        0.81901       -2.18783
| 17> H          1.68276        2.51198       -2.12786
| 18> H          3.07216        1.93031       -1.24227
| 19> *
| 20>
| 21> %MaxCore 64000
| 22>
| 23> %pal nprocs 4
| 24> end
| 25>
| 26> %scf
| 27>   MaxIter 150
| 28> end
| 29>
| 30>
| 31>                          ****END OF INPUT****

CARTESIAN COORDINATES (ANGSTROEM)
---------------------------------
  C      3.380930    2.083040   -3.350130
  N      4.535920    1.182450   -3.428520
  C      2.495560    1.816150   -2.136360
  C      4.671960    0.122270   -4.220600
  C      5.866020   -0.507850   -4.224280
  N      3.698880   -0.312840   -4.986990
  H      2.731410   -0.050090   -4.849000
  H      3.890050   -1.055170   -5.643730
  H      5.251930    1.303460   -2.721010
  H      6.695160   -0.062320   -3.851600
  H      5.975380   -1.396880   -4.691410
  H      2.806460    1.986510   -4.268480
  H      3.778710    3.098280   -3.307380
  H      2.110900    0.819010   -2.187830
  H      1.682760    2.511980   -2.127860
  H      3.072160    1.930310   -1.242270

 Total Charge           Charge          ....    0
 Multiplicity           Mult            ....    1
 Number of Electrons    NEL             ....   48
 Basis Dimension        Dim             ....  134

ORBITAL ENERGIES
----------------

  NO   OCC          E(Eh)            E(eV)
   0   2.0000     -14.111894      -384.0042
   1   2.0000     -14.106537      -383.8584
   2   2.0000     -10.037038      -273.1217
   3   2.0000     -10.030741      -272.9504
   4   2.0000      -9.994205      -271.9561
   5   2.0000      -9.902581      -269.4629
   6   2.0000      -0.884710       -24.0742
   7   2.0000      -0.809790       -22.0355
   8   2.0000      -0.703428       -19.1412
   9   2.0000      -0.628655       -17.1066
  10   2.0000      -0.567427       -15.4405
  11   2.0000      -0.544409       -14.8141
  12   2.0000      -0.489203       -13.3119
  13   2.0000      -0.446728       -12.1561
  14   2.0000      -0.433150       -11.7866
  15   2.0000      -0.399850       -10.8805
  16   2.0000      -0.380872       -10.3640
  17   2.0000      -0.355861        -9.6835
  18   2.0000      -0.339422        -9.2361
  19   2.0000      -0.327166        -8.9026
  20   2.0000      -0.321107        -8.7378
  21   2.0000      -0.304906        -8.2969
  22   2.0000      -0.204900        -5.5756
  23   2.0000      -0.115489        -3.1426
  24   0.0000       0.030075         0.8184
  25   0.0000       0.060630         1.6498
  26   0.0000       0.071394         1.9427
  27   0.0000       0.082918         2.2563
  28   0.0000       0.097925         2.6647

MULLIKEN ATOMIC CHARGES
-----------------------
   0 C :    0.062964
   1 N :   -0.165755
   2 C :    0.030482
   3 C :   -0.035786
   4 C :   -0.108979
   5 N :   -0.067896
   6 H :    0.101440
   7 H :    0.122452
   8 H :    0.120900
   9 H :   -0.052338
  10 H :   -0.060444
  11 H :    0.008322
  12 H :    0.014598
  13 H :    0.008977
  14 H :    0.008911
  15 H :    0.012153
Sum of atomic charges:    0.0000000

LOEWDIN ATOMIC CHARGES
----------------------
   0 C :    0.038004
   1 N :   -0.023052
   2 C :   -0.052740
   3 C :    0.018355
   4 C :   -0.260169
   5 N :    0.000651
   6 H :    0.060540
   7 H :    0.083516
   8 H :    0.081445
   9 H :   -0.013462
  10 H :   -0.015896
  11 H :    0.014082
  12 H :    0.016794
  13 H :    0.015832
  14 H :    0.018423
  15 H :    0.017677

  Mayer bond orders larger than 0.100000
B(  0-C ,  1-N ) :   1.0123 B(  0-C ,  2-C ) :   1.0889 B(  0-C , 11-H ) :   0.9480
B(  0-C , 12-H ) :   0.9484 B(  1-N ,  3-C ) :   1.1991 B(  1-N ,  8-H ) :   0.9270
B(  2-C , 13-H ) :   0.9672 B(  2-C , 14-H ) :   0.9583 B(  2-C , 15-H ) :   0.9679
B(  3-C ,  4-C ) :   1.6898 B(  3-C ,  5-N ) :   1.2512 B(  4-C ,  9-H ) :   0.9416
B(  4-C , 10-H ) :   0.9404 B(  5-N ,  6-H ) :   0.9442 B(  5-N ,  7-H ) :   0.9404

Dispersion correction           -0.015374749
FINAL SINGLE POINT ENERGY      -267.760623647097

DIPOLE MOMENT
-------------
                                X             Y             Z
Electronic contribution:      1.49627      -1.14741      -2.08138
Nuclear contribution   :     -2.56090       1.59955       2.15496
                        -----------------------------------------
Total Dipole Moment    :     -1.06464       0.45214       0.07358
                        -----------------------------------------
Magnitude (a.u.)       :      1.15901
Magnitude (Debye)      :      2.94596

Rotational constants in cm-1:     0.249834     0.071381     0.061833
Rotational constants in MHz :  7489.842787  2139.945635  1853.706310

                             ****ORCA TERMINATED NORMALLY****
TOTAL RUN TIME: 0 days 0 hours 0 minutes 6 seconds 360 msec
