                         Program Version 5.0.0 -  RELEASE  -
|  1> !TPSS D3BJ RIJCOSX def2-SVP def2/J TightSCF
|  2> *xyz 0 1
|  3> C          2.49556        1.81615       -2.13636
|  4> C          1.87218        0.42790       -2.07750
|  5> H          2.61427       -0.36583       -2.19889
|  6> H          1.38995        0.27309       -1.11236
|  7> S          0.57902        0.14047       -3.29794
|  8> O          0.22886       -1.24687       -3.12787
|  9> O         -0.43927        1.11897       -3.01455
| 10> F          1.24788        0.40347       -4.59565
| 11> H          2.96535        1.95613       -3.08747
| 12> H          3.22581        1.91242       -1.36024
| 13> H          1.73350        2.55528       -2.00274
| 14> *
| 15>
| 16> %MaxCore 64000
| 17>
| 18> %pal nprocs 4
| 19> end
| 20>
| 21> %scf
| 22>   MaxIter 150
| 23> end
| 24>
| 25>
| 26>                          ****END OF INPUT****

CARTESIAN COORDINATES (ANGSTROEM)
---------------------------------
  C      2.495560    1.816150   -2.136360
  C      1.872180    0.427900   -2.077500
  H      2.614270   -0.365830   -2.198890
  H      1.389950    0.273090   -1.112360
  S      0.579020    0.140470   -3.297940
  O      0.228860   -1.246870   -3.127870
  O     -0.439270    1.118970   -3.014550
  F      1.247880    0.403470   -4.595650
  H      2.965350    1.956130   -3.087470
  H      3.225810    1.912420   -1.360240
  H      1.733500    2.555280   -2.002740

 Total Charge           Charge          ....    0
 Multiplicity           Mult            ....    1
 Number of Electrons    NEL             ....   58
 Basis Dimension        Dim             ....  113

ORBITAL ENERGIES
----------------

  NO   OCC          E(Eh)            E(eV)
   0   2.0000     -88.593435     -2410.7499
   1   2.0000     -24.503584      -666.7764
   2   2.0000     -18.894553      -514.1469
   3   2.0000     -18.893855      -514.1279
   4   2.0000     -10.050344      -273.4838
   5   2.0000     -10.020727      -272.6779
   6   2.0000      -7.963170      -216.6889
   7   2.0000      -5.952676      -161.9805
   8   2.0000      -5.946555      -161.8140
   9   2.0000      -5.944704      -161.7636
  10   2.0000      -1.248128       -33.9633
  11   2.0000      -1.032405       -28.0932
  12   2.0000      -0.942388       -25.6437
  13   2.0000      -0.755618       -20.5614
  14   2.0000      -0.652758       -17.7624
  15   2.0000      -0.609388       -16.5823
  16   2.0000      -0.520575       -14.1656
  17   2.0000      -0.493568       -13.4307
  18   2.0000      -0.482542       -13.1306
  19   2.0000      -0.445764       -12.1299
  20   2.0000      -0.421929       -11.4813
  21   2.0000      -0.400505       -10.8983
  22   2.0000      -0.384720       -10.4688
  23   2.0000      -0.365151        -9.9363
  24   2.0000      -0.357890        -9.7387
  25   2.0000      -0.331434        -9.0188
  26   2.0000      -0.286784        -7.8038
  27   2.0000      -0.279336        -7.6011
  28   2.0000      -0.265545        -7.2259
  29   0.0000       0.007678         0.2089
  30   0.0000       0.045278         1.2321
  31   0.0000       0.051771         1.4088
  32   0.0000       0.076665         2.0862
  33   0.0000       0.084883         2.3098

MULLIKEN ATOMIC CHARGES
-----------------------
   0 C :    0.011476
   1 C :   -0.134624
   2 H :    0.064534
   3 H :    0.084938
   4 S :    0.889781
   5 O :   -0.413128
   6 O :   -0.417577
   7 F :   -0.195383
   8 H :    0.028070
   9 H :    0.036933
  10 H :    0.044981
Sum of atomic charges:    0.0000000

LOEWDIN ATOMIC CHARGES
----------------------
   0 C :   -0.051325
   1 C :   -0.148289
   2 H :    0.030881
   3 H :    0.045148
   4 S :    1.114115
   5 O :   -0.460532
   6 O :   -0.462734
   7 F :   -0.149382
   8 H :    0.021659
   9 H :    0.031959
  10 H :    0.028499

  Mayer bond orders larger than 0.100000
B(  0-C ,  1-C ) :   1.0517 B(  0-C ,  8-H ) :   0.9728 B(  0-C ,  9-H ) :   0.9601
B(  0-C , 10-H ) :   0.9682 B(  1-C ,  2-H ) :   0.9329 B(  1-C ,  3-H ) :   0.9345
B(  1-C ,  4-S ) :   0.9036 B(  4-S ,  5-O ) :   1.7914 B(  4-S ,  6-O ) :   1.7817
B(  4-S ,  7-F ) :   0.9787

Dispersion correction           -0.011561717
FINAL SINGLE POINT ENERGY      -727.319341397028

DIPOLE MOMENT
-------------
                                X             Y             Z
Electronic contribution:     -5.19821      -3.66228      -6.63710
Nuclear contribution   :      6.54345       4.10057       6.91691
                        -----------------------------------------
Total Dipole Moment    :      1.34524       0.43830       0.27981
                        -----------------------------------------
Magnitude (a.u.)       :      1.44224
Magnitude (Debye)      :      3.66589

Rotational constants in cm-1:     0.152835     0.082826     0.080611
Rotational constants in MHz :  4581.878371  2483.049050  2416.647141

                             ****ORCA TERMINATED NORMALLY****
TOTAL RUN TIME: 0 days 0 hours 0 minutes 4 seconds 943 msec
