                         Program Version 5.0.0 -  RELEASE  -
|  1> !TPSS D3BJ RIJCOSX def2-SVP def2/J TightSCF
|  2> *xyz 0 1
|  3> C          3.38093        2.08304       -3.35013
|  4> N          4.53592        1.18245       -3.42852
|  5> C          2.49556        1.81615       -2.13636
|  6> C          4.67196        0.12227       -4.22060
|  7> N          5.86602       -0.50785       -4.22428
|  8> C          3.69888       -0.31284       -4.98699
|  9> H          2.73141       -0.05009       -4.84900
| 10> H          3.89005       -1.05517       -5.64373
| 11> H          5.25193        1.30346       -2.72101
| 12> H          6.69516       -0.06232       -3.85160
| 13> H          5.97538       -1.39688       -4.69141
| 14> H          2.80646        1.98651       -4.26848
| 15> H          3.77871        3.09828       -3.30738
| 16> H          2.11090        0.81901       -2.18783
| 17> H          1.68276        2.51198       -2.12786
| 18> H          3.07216        1.93031       -1.24227
| 19> *
| 20>
| 21> %MaxCore 64000
| 22>
| 23> %pal nprocs 4
| 24> end
| 25>
| 26> %scf
| 27>   MaxIter 150
| 28> end
| 29>
| 30>
| 31>                          ****END OF INPUT****

CARTESIAN COORDINATES (ANGSTROEM)
---------------------------------
  C      3.380930    2.083040   -3.350130
  N      4.535920    1.182450   -3.428520
  C      2.495560    1.816150   -2.136360
  C      4.671960    0.122270   -4.220600
  N      5.866020   -0.507850   -4.224280
  C      3.698880   -0.312840   -4.986990
  H      2.731410   -0.050090   -4.849000
  H      3.890050   -1.055170   -5.643730
  H      5.251930    1.303460   -2.721010
  H      6.695160   -0.062320   -3.851600
  H      5.975380   -1.396880   -4.691410
  H      2.806460    1.986510   -4.268480
  H      3.778710    3.098280   -3.307380
  H      2.110900    0.819010   -2.187830
  H      1.682760    2.511980   -2.127860
  H      3.072160    1.930310   -1.242270

 Total Charge           Charge          ....    0
 Multiplicity           Mult            ....    1
 Number of Electrons    NEL             ....   48
 Basis Dimension        Dim             ....  134

ORBITAL ENERGIES
----------------

  NO   OCC          E(Eh)            E(eV)
   0   2.0000     -14.106388      -383.8543
   1   2.0000     -14.104662      -383.8074
   2   2.0000     -10.028446      -272.8879
   3   2.0000     -10.028282      -272.8834
   4   2.0000      -9.986205      -271.7385
   5   2.0000      -9.905254      -269.5357
   6   2.0000      -0.878195       -23.8969
   7   2.0000      -0.800407       -21.7802
   8   2.0000      -0.689091       -18.7511
   9   2.0000      -0.639925       -17.4132
  10   2.0000      -0.578609       -15.7448
  11   2.0000      -0.507709       -13.8155
  12   2.0000      -0.488176       -13.2839
  13   2.0000      -0.461779       -12.5657
  14   2.0000      -0.410715       -11.1761
  15   2.0000      -0.401468       -10.9245
  16   2.0000      -0.370538       -10.0829
  17   2.0000      -0.352454        -9.5908
  18   2.0000      -0.333898        -9.0858
  19   2.0000      -0.330876        -9.0036
  20   2.0000      -0.313132        -8.5208
  21   2.0000      -0.301237        -8.1971
  22   2.0000      -0.197084        -5.3629
  23   2.0000      -0.125864        -3.4249
  24   0.0000       0.037724         1.0265
  25   0.0000       0.060605         1.6491
  26   0.0000       0.077525         2.1096
  27   0.0000       0.085013         2.3133
  28   0.0000       0.103463         2.8154

MULLIKEN ATOMIC CHARGES
-----------------------
   0 C :    0.094553
   1 N :   -0.188177
   2 C :    0.018038
   3 C :    0.030215
   4 N :   -0.113272
   5 C :   -0.124427
   6 H :   -0.039717
   7 H :   -0.061626
   8 H :    0.095003
   9 H :    0.096503
  10 H :    0.119360
  11 H :    0.030035
  12 H :    0.006862
  13 H :    0.024582
  14 H :    0.009465
  15 H :    0.002603
Sum of atomic charges:    0.0000000

LOEWDIN ATOMIC CHARGES
----------------------
   0 C :    0.051939
   1 N :   -0.028920
   2 C :   -0.050371
   3 C :    0.025115
   4 N :   -0.026847
   5 C :   -0.241713
   6 H :   -0.009752
   7 H :   -0.010520
   8 H :    0.059668
   9 H :    0.058397
  10 H :    0.077733
  11 H :    0.026285
  12 H :    0.013871
  13 H :    0.022615
  14 H :    0.019289
  15 H :    0.013212

  Mayer bond orders larger than 0.100000
B(  0-C ,  1-N ) :   0.9947 B(  0-C ,  2-C ) :   1.1042 B(  0-C , 11-H ) :   0.9379
B(  0-C , 12-H ) :   0.9525 B(  1-N ,  3-C ) :   1.1693 B(  1-N ,  8-H ) :   0.9304
B(  2-C , 13-H ) :   0.9693 B(  2-C , 14-H ) :   0.9602 B(  2-C , 15-H ) :   0.9676
B(  3-C ,  4-N ) :   1.2088 B(  3-C ,  5-C ) :   1.7414 B(  4-N ,  9-H ) :   0.9490
B(  4-N , 10-H ) :   0.9458 B(  5-C ,  6-H ) :   0.9374 B(  5-C ,  7-H ) :   0.9311

Dispersion correction           -0.015461312
FINAL SINGLE POINT ENERGY      -267.763928224728

DIPOLE MOMENT
-------------
                                X             Y             Z
Electronic contribution:      3.78304      -1.35207      -1.33357
Nuclear contribution   :     -3.02065       1.64092       1.99316
                        -----------------------------------------
Total Dipole Moment    :      0.76239       0.28885       0.65959
                        -----------------------------------------
Magnitude (a.u.)       :      1.04868
Magnitude (Debye)      :      2.66554

Rotational constants in cm-1:     0.259304     0.069422     0.060943
Rotational constants in MHz :  7773.747720  2081.225169  1827.013389

                             ****ORCA TERMINATED NORMALLY****
TOTAL RUN TIME: 0 days 0 hours 0 minutes 6 seconds 410 msec
