                         Program Version 5.0.0 -  RELEASE  -
|  1> !TPSS D3BJ RIJCOSX def2-TZVP def2/J TightSCF xyzfile
|  2>
|  3> *xyzfile 0 1 D2.xyz
|  4>
|  5> %MaxCore 64000
|  6>
|  7> %pal nprocs 18
|  8> end
|  9>
| 10> %scf
| 11>   MaxIter 150
| 12> end
| 13>
| 14>
| 15>                          ****END OF INPUT****

CARTESIAN COORDINATES (ANGSTROEM)
---------------------------------
  C      3.380928    2.083045   -3.350127
  N      4.535924    1.182447   -3.428518
  C      2.495557    1.816150   -2.136364
  C      1.872181    0.427903   -2.077497
  H      2.614270   -0.365825   -2.198894
  H      1.389953    0.273087   -1.112360
  S      0.579024    0.140472   -3.297943
  C      4.671956    0.122273   -4.220598
  C      5.866023   -0.507849   -4.224284
  N      3.698881   -0.312844   -4.986988
  H      2.731405   -0.050091   -4.849000
  H      3.890046   -1.055172   -5.643730
  H      5.251933    1.303459   -2.721014
  H      6.695165   -0.062322   -3.851596
  H      5.975383   -1.396884   -4.691414
  F      0.228860   -1.246868   -3.127871
  O     -0.439269    1.118966   -3.014550
  O      1.247881    0.403474   -4.595647
  H      1.697003    2.561969   -2.141109
  H      3.080787    1.987436   -1.225838
  H      2.806463    1.986511   -4.268484
  H      3.778714    3.098282   -3.307383

 Total Charge           Charge          ....    0
 Multiplicity           Mult            ....    1
 Number of Electrons    NEL             ....   96
 Basis Dimension        Dim             ....  413

ORBITAL ENERGIES
----------------

  NO   OCC          E(Eh)            E(eV)
   0   2.0000     -88.604984     -2411.0642
   1   2.0000     -24.544283      -667.8839
   2   2.0000     -18.914577      -514.6918
   3   2.0000     -18.909659      -514.5580
   4   2.0000     -14.099786      -383.6747
   5   2.0000     -14.073464      -382.9584
   6   2.0000     -10.051732      -273.5215
   7   2.0000     -10.027248      -272.8553
   8   2.0000     -10.020253      -272.6649
   9   2.0000     -10.014849      -272.5179
  10   2.0000      -9.884867      -268.9809
  11   2.0000      -7.954653      -216.4571
  12   2.0000      -5.937793      -161.5756
  13   2.0000      -5.931454      -161.4031
  14   2.0000      -5.930553      -161.3786
  15   2.0000      -1.319124       -35.8952
  16   2.0000      -1.055433       -28.7198
  17   2.0000      -0.966105       -26.2891
  18   2.0000      -0.894210       -24.3327
  19   2.0000      -0.818284       -22.2666
  20   2.0000      -0.775167       -21.0934
  21   2.0000      -0.711385       -19.3578
  22   2.0000      -0.667861       -18.1734
  23   2.0000      -0.631389       -17.1810
  24   2.0000      -0.583983       -15.8910
  25   2.0000      -0.547888       -14.9088
  26   2.0000      -0.545801       -14.8520
  27   2.0000      -0.539947       -14.6927
  28   2.0000      -0.529973       -14.4213
  29   2.0000      -0.493608       -13.4318
  30   2.0000      -0.462597       -12.5879
  31   2.0000      -0.445775       -12.1302
  32   2.0000      -0.440447       -11.9852
  33   2.0000      -0.436612       -11.8808
  34   2.0000      -0.417034       -11.3481
  35   2.0000      -0.402602       -10.9554
  36   2.0000      -0.373557       -10.1650
  37   2.0000      -0.367259        -9.9936
  38   2.0000      -0.362669        -9.8687
  39   2.0000      -0.347534        -9.4569
  40   2.0000      -0.341724        -9.2988
  41   2.0000      -0.327314        -8.9067
  42   2.0000      -0.313729        -8.5370
  43   2.0000      -0.305072        -8.3014
  44   2.0000      -0.299253        -8.1431
  45   2.0000      -0.282500        -7.6872
  46   2.0000      -0.207290        -5.6407
  47   2.0000      -0.119706        -3.2574
  48   0.0000      -0.024241        -0.6596
  49   0.0000       0.000321         0.0087
  50   0.0000       0.022224         0.6047
  51   0.0000       0.031217         0.8495
  52   0.0000       0.042727         1.1627

MULLIKEN ATOMIC CHARGES
-----------------------
   0 C :   -0.211756
   1 N :   -0.326763
   2 C :   -0.124435
   3 C :   -0.289399
   4 H :    0.173887
   5 H :    0.140679
   6 S :    0.787981
   7 C :    0.396521
   8 C :   -0.607954
   9 N :   -0.493724
  10 H :    0.242451
  11 H :    0.231548
  12 H :    0.217043
  13 H :    0.100682
  14 H :    0.090861
  15 F :   -0.063207
  16 O :   -0.361060
  17 O :   -0.420587
  18 H :    0.117081
  19 H :    0.106395
  20 H :    0.181199
  21 H :    0.112558
Sum of atomic charges:    0.0000000

LOEWDIN ATOMIC CHARGES
----------------------
   0 C :   -0.281577
   1 N :    0.123799
   2 C :   -0.275878
   3 C :   -0.369296
   4 H :    0.145927
   5 H :    0.139014
   6 S :    0.508681
   7 C :   -0.488714
   8 C :   -0.367302
   9 N :    0.008859
  10 H :    0.121932
  11 H :    0.174209
  12 H :    0.190483
  13 H :    0.089331
  14 H :    0.089181
  15 F :    0.118673
  16 O :   -0.227091
  17 O :   -0.262843
  18 H :    0.145976
  19 H :    0.144046
  20 H :    0.141227
  21 H :    0.131362

  Mayer bond orders larger than 0.100000
B(  0-C ,  1-N ) :   0.9468 B(  0-C ,  2-C ) :   1.0051 B(  0-C , 20-H ) :   0.9550
B(  0-C , 21-H ) :   0.9560 B(  1-N ,  7-C ) :   1.1679 B(  1-N , 12-H ) :   0.9180
B(  2-C ,  3-C ) :   1.0078 B(  2-C , 18-H ) :   0.9323 B(  2-C , 19-H ) :   0.9322
B(  3-C ,  4-H ) :   0.9172 B(  3-C ,  5-H ) :   0.9228 B(  3-C ,  6-S ) :   0.9323
B(  6-S , 15-F ) :   1.1730 B(  6-S , 16-O ) :   1.9666 B(  6-S , 17-O ) :   1.7444
B(  7-C ,  8-C ) :   1.5586 B(  7-C ,  9-N ) :   1.1966 B(  8-C , 13-H ) :   0.9925
B(  8-C , 14-H ) :   0.9935 B(  9-N , 10-H ) :   0.8384 B(  9-N , 11-H ) :   0.9211
B( 10-H , 17-O ) :   0.1231

Dispersion correction           -0.031520597
FINAL SINGLE POINT ENERGY      -955.419911318263

DIPOLE MOMENT
-------------
                                X             Y             Z
Electronic contribution:    -16.81564      -5.24474      -0.44372
Nuclear contribution   :     16.05479       5.17692       1.74190
                        -----------------------------------------
Total Dipole Moment    :     -0.76085      -0.06782       1.29818
                        -----------------------------------------
Magnitude (a.u.)       :      1.50624
Magnitude (Debye)      :      3.82855

Rotational constants in cm-1:     0.058652     0.021107     0.018077
Rotational constants in MHz :  1758.344290   632.763813   541.920558

                             ****ORCA TERMINATED NORMALLY****
TOTAL RUN TIME: 0 days 0 hours 0 minutes 15 seconds 561 msec
