                         Program Version 5.0.0 -  RELEASE  -
|  1> !TPSS D3BJ RIJCOSX def2-TZVP def2/J TightSCF xyzfile
|  2>
|  3> *xyzfile 0 1 D3.xyz
|  4>
|  5> %MaxCore 64000
|  6>
|  7> %pal nprocs 18
|  8> end
|  9>
| 10> %scf
| 11>   MaxIter 150
| 12> end
| 13>
| 14>
| 15>                          ****END OF INPUT****

CARTESIAN COORDINATES (ANGSTROEM)
---------------------------------
  C      3.380928    2.083045   -3.350127
  N      4.535924    1.182447   -3.428518
  C      2.495557    1.816150   -2.136364
  C      1.872181    0.427903   -2.077497
  H      2.614270   -0.365825   -2.198894
  H      1.389953    0.273087   -1.112360
  S      0.579024    0.140472   -3.297943
  C      4.671956    0.122273   -4.220598
  N      5.866023   -0.507849   -4.224284
  C      3.698881   -0.312844   -4.986988
  H      2.731405   -0.050091   -4.849000
  H      3.890046   -1.055172   -5.643730
  H      5.251933    1.303459   -2.721014
  H      6.695165   -0.062322   -3.851596
  H      5.975383   -1.396884   -4.691414
  F      0.228860   -1.246868   -3.127871
  O     -0.439269    1.118966   -3.014550
  O      1.247881    0.403474   -4.595647
  H      1.697003    2.561969   -2.141109
  H      3.080787    1.987436   -1.225838
  H      2.806463    1.986511   -4.268484
  H      3.778714    3.098282   -3.307383

 Total Charge           Charge          ....    0
 Multiplicity           Mult            ....    1
 Number of Electrons    NEL             ....   96
 Basis Dimension        Dim             ....  413

ORBITAL ENERGIES
----------------

  NO   OCC          E(Eh)            E(eV)
   0   2.0000     -88.581938     -2410.4371
   1   2.0000     -24.524546      -667.3468
   2   2.0000     -18.893532      -514.1191
   3   2.0000     -18.879720      -513.7433
   4   2.0000     -14.100220      -383.6865
   5   2.0000     -14.090904      -383.4330
   6   2.0000     -10.036819      -273.1157
   7   2.0000     -10.021048      -272.6866
   8   2.0000     -10.012757      -272.4610
   9   2.0000     -10.011636      -272.4305
  10   2.0000      -9.872866      -268.6544
  11   2.0000      -7.931627      -215.8306
  12   2.0000      -5.914843      -160.9511
  13   2.0000      -5.908230      -160.7711
  14   2.0000      -5.907637      -160.7550
  15   2.0000      -1.299311       -35.3560
  16   2.0000      -1.032141       -28.0860
  17   2.0000      -0.939819       -25.5738
  18   2.0000      -0.893450       -24.3120
  19   2.0000      -0.817364       -22.2416
  20   2.0000      -0.761732       -20.7278
  21   2.0000      -0.693521       -18.8717
  22   2.0000      -0.657367       -17.8879
  23   2.0000      -0.637345       -17.3430
  24   2.0000      -0.588550       -16.0153
  25   2.0000      -0.530934       -14.4475
  26   2.0000      -0.525781       -14.3072
  27   2.0000      -0.517759       -14.0890
  28   2.0000      -0.504091       -13.7170
  29   2.0000      -0.488133       -13.2828
  30   2.0000      -0.468190       -12.7401
  31   2.0000      -0.447134       -12.1671
  32   2.0000      -0.442867       -12.0510
  33   2.0000      -0.407936       -11.1005
  34   2.0000      -0.404861       -11.0168
  35   2.0000      -0.400740       -10.9047
  36   2.0000      -0.363086        -9.8801
  37   2.0000      -0.353512        -9.6196
  38   2.0000      -0.347376        -9.4526
  39   2.0000      -0.338979        -9.2241
  40   2.0000      -0.335937        -9.1413
  41   2.0000      -0.328324        -8.9342
  42   2.0000      -0.306565        -8.3421
  43   2.0000      -0.291131        -7.9221
  44   2.0000      -0.275417        -7.4945
  45   2.0000      -0.239549        -6.5185
  46   2.0000      -0.206617        -5.6223
  47   2.0000      -0.129940        -3.5358
  48   0.0000      -0.003470        -0.0944
  49   0.0000       0.005533         0.1506
  50   0.0000       0.025178         0.6851
  51   0.0000       0.039529         1.0756
  52   0.0000       0.047936         1.3044

MULLIKEN ATOMIC CHARGES
-----------------------
   0 C :   -0.160112
   1 N :   -0.355386
   2 C :   -0.146831
   3 C :   -0.274009
   4 H :    0.169442
   5 H :    0.132467
   6 S :    0.770703
   7 C :    0.434632
   8 N :   -0.530918
   9 C :   -0.604269
  10 H :    0.165555
  11 H :    0.076649
  12 H :    0.183911
  13 H :    0.213650
  14 H :    0.244585
  15 F :   -0.069721
  16 O :   -0.374467
  17 O :   -0.386804
  18 H :    0.116700
  19 H :    0.098104
  20 H :    0.190631
  21 H :    0.105490
Sum of atomic charges:   -0.0000000

LOEWDIN ATOMIC CHARGES
----------------------
   0 C :   -0.264624
   1 N :    0.115650
   2 C :   -0.276362
   3 C :   -0.369761
   4 H :    0.144495
   5 H :    0.135190
   6 S :    0.500211
   7 C :   -0.487937
   8 N :   -0.027479
   9 C :   -0.327885
  10 H :    0.076779
  11 H :    0.094007
  12 H :    0.171013
  13 H :    0.151360
  14 H :    0.170678
  15 F :    0.113886
  16 O :   -0.240414
  17 O :   -0.244754
  18 H :    0.146408
  19 H :    0.140503
  20 H :    0.148980
  21 H :    0.130054

  Mayer bond orders larger than 0.100000
B(  0-C ,  1-N ) :   0.9207 B(  0-C ,  2-C ) :   1.0243 B(  0-C , 20-H ) :   0.9469
B(  0-C , 21-H ) :   0.9547 B(  1-N ,  7-C ) :   1.1374 B(  1-N , 12-H ) :   0.9213
B(  2-C ,  3-C ) :   1.0168 B(  2-C , 18-H ) :   0.9330 B(  2-C , 19-H ) :   0.9345
B(  3-C ,  4-H ) :   0.9222 B(  3-C ,  5-H ) :   0.9221 B(  3-C ,  6-S ) :   0.9263
B(  6-S , 15-F ) :   1.1619 B(  6-S , 16-O ) :   1.9473 B(  6-S , 17-O ) :   1.8085
B(  7-C ,  8-N ) :   1.0710 B(  7-C ,  9-C ) :   1.6109 B(  8-N , 13-H ) :   0.9180
B(  8-N , 14-H ) :   0.9161 B(  9-C , 10-H ) :   0.9760 B(  9-C , 11-H ) :   0.9977

Dispersion correction           -0.031793928
FINAL SINGLE POINT ENERGY      -955.403601753889

DIPOLE MOMENT
-------------
                                X             Y             Z
Electronic contribution:    -14.68517      -5.48249      -0.00275
Nuclear contribution   :     15.84345       5.19593       1.66752
                        -----------------------------------------
Total Dipole Moment    :      1.15828      -0.28655       1.66477
                        -----------------------------------------
Magnitude (a.u.)       :      2.04822
Magnitude (Debye)      :      5.20615

Rotational constants in cm-1:     0.059060     0.020573     0.017713
Rotational constants in MHz :  1770.576058   616.749938   531.036486

                             ****ORCA TERMINATED NORMALLY****
TOTAL RUN TIME: 0 days 0 hours 0 minutes 16 seconds 934 msec
