                         Program Version 5.0.0 -  RELEASE  -
|  1> !TPSS D3BJ RIJCOSX def2-TZVP def2/J TightSCF xyzfile
|  2>
|  3> *xyzfile 0 1 D4.xyz
|  4>
|  5> %MaxCore 64000
|  6>
|  7> %pal nprocs 18
|  8> end
|  9>
| 10> %scf
| 11>   MaxIter 150
| 12> end
| 13>
| 14>
| 15>                          ****END OF INPUT****

CARTESIAN COORDINATES (ANGSTROEM)
---------------------------------
  C      3.380928    2.083045   -3.350127
  C      4.535924    1.182447   -3.428518
  C      2.495557    1.816150   -2.136364
  C      1.872181    0.427903   -2.077497
  H      2.614270   -0.365825   -2.198894
  H      1.389953    0.273087   -1.112360
  S      0.579024    0.140472   -3.297943
  C      4.671956    0.122273   -4.220598
  N      5.866023   -0.507849   -4.224284
  N      3.698881   -0.312844   -4.986988
  H      2.731405   -0.050091   -4.849000
  H      3.890046   -1.055172   -5.643730
  H      5.251933    1.303459   -2.721014
  H      6.695165   -0.062322   -3.851596
  H      5.975383   -1.396884   -4.691414
  O      0.228860   -1.246868   -3.127871
  F     -0.439269    1.118966   -3.014550
  O      1.247881    0.403474   -4.595647
  H      1.697003    2.561969   -2.141109
  H      3.080787    1.987436   -1.225838
  H      2.806463    1.986511   -4.268484
  H      3.778714    3.098282   -3.307383

 Total Charge           Charge          ....    0
 Multiplicity           Mult            ....    1
 Number of Electrons    NEL             ....   96
 Basis Dimension        Dim             ....  413

ORBITAL ENERGIES
----------------

  NO   OCC          E(Eh)            E(eV)
   0   2.0000     -88.590935     -2410.6819
   1   2.0000     -24.531759      -667.5431
   2   2.0000     -18.901406      -514.3334
   3   2.0000     -18.896441      -514.1983
   4   2.0000     -14.091849      -383.4587
   5   2.0000     -14.075868      -383.0238
   6   2.0000     -10.031560      -272.9726
   7   2.0000     -10.016436      -272.5611
   8   2.0000      -9.992993      -271.9232
   9   2.0000      -9.961435      -271.0644
  10   2.0000      -9.901834      -269.4426
  11   2.0000      -7.940624      -216.0754
  12   2.0000      -5.923882      -161.1970
  13   2.0000      -5.917506      -161.0235
  14   2.0000      -5.916300      -160.9907
  15   2.0000      -1.306834       -35.5608
  16   2.0000      -1.041714       -28.3465
  17   2.0000      -0.953169       -25.9371
  18   2.0000      -0.884164       -24.0593
  19   2.0000      -0.798531       -21.7291
  20   2.0000      -0.764409       -20.8006
  21   2.0000      -0.701558       -19.0904
  22   2.0000      -0.665347       -18.1050
  23   2.0000      -0.626329       -17.0433
  24   2.0000      -0.571581       -15.5535
  25   2.0000      -0.542928       -14.7738
  26   2.0000      -0.534107       -14.5338
  27   2.0000      -0.524698       -14.2778
  28   2.0000      -0.498713       -13.5707
  29   2.0000      -0.484411       -13.1815
  30   2.0000      -0.465353       -12.6629
  31   2.0000      -0.441750       -12.0206
  32   2.0000      -0.433599       -11.7988
  33   2.0000      -0.426417       -11.6034
  34   2.0000      -0.406236       -11.0542
  35   2.0000      -0.393088       -10.6965
  36   2.0000      -0.367451        -9.9988
  37   2.0000      -0.358491        -9.7550
  38   2.0000      -0.351382        -9.5616
  39   2.0000      -0.335434        -9.1276
  40   2.0000      -0.315736        -8.5916
  41   2.0000      -0.308069        -8.3830
  42   2.0000      -0.296400        -8.0654
  43   2.0000      -0.293281        -7.9806
  44   2.0000      -0.281657        -7.6643
  45   2.0000      -0.268152        -7.2968
  46   2.0000      -0.211929        -5.7669
  47   2.0000      -0.125925        -3.4266
  48   0.0000      -0.013947        -0.3795
  49   0.0000       0.020889         0.5684
  50   0.0000       0.025414         0.6916
  51   0.0000       0.027812         0.7568
  52   0.0000       0.050555         1.3757

MULLIKEN ATOMIC CHARGES
-----------------------
   0 C :   -0.211481
   1 C :   -0.412843
   2 C :   -0.089936
   3 C :   -0.304258
   4 H :    0.188250
   5 H :    0.133474
   6 S :    0.783973
   7 C :    0.364795
   8 N :   -0.506815
   9 N :   -0.477057
  10 H :    0.268090
  11 H :    0.206354
  12 H :    0.078493
  13 H :    0.243847
  14 H :    0.215051
  15 O :   -0.364966
  16 F :   -0.066786
  17 O :   -0.434427
  18 H :    0.079809
  19 H :    0.088111
  20 H :    0.138067
  21 H :    0.080256
Sum of atomic charges:    0.0000000

LOEWDIN ATOMIC CHARGES
----------------------
   0 C :   -0.283103
   1 C :   -0.287690
   2 C :   -0.281134
   3 C :   -0.364225
   4 H :    0.155069
   5 H :    0.135642
   6 S :    0.508783
   7 C :   -0.473977
   8 N :   -0.021891
   9 N :    0.017292
  10 H :    0.136478
  11 H :    0.158908
  12 H :    0.115310
  13 H :    0.170969
  14 H :    0.154134
  15 O :   -0.233737
  16 F :    0.117784
  17 O :   -0.271051
  18 H :    0.127885
  19 H :    0.141008
  20 H :    0.140111
  21 H :    0.137436

  Mayer bond orders larger than 0.100000
B(  0-C ,  1-C ) :   1.0642 B(  0-C ,  2-C ) :   0.9785 B(  0-C , 20-H ) :   0.9573
B(  0-C , 21-H ) :   0.9464 B(  1-C ,  7-C ) :   1.6153 B(  1-C , 12-H ) :   0.9853
B(  2-C ,  3-C ) :   0.9899 B(  2-C , 18-H ) :   0.9382 B(  2-C , 19-H ) :   0.9310
B(  3-C ,  4-H ) :   0.9218 B(  3-C ,  5-H ) :   0.9319 B(  3-C ,  6-S ) :   0.9338
B(  6-S , 15-O ) :   1.9713 B(  6-S , 16-F ) :   1.1673 B(  6-S , 17-O ) :   1.7392
B(  7-C ,  8-N ) :   1.1155 B(  7-C ,  9-N ) :   1.1936 B(  8-N , 13-H ) :   0.9129
B(  8-N , 14-H ) :   0.9185 B(  9-N , 10-H ) :   0.8380 B(  9-N , 11-H ) :   0.9233
B( 10-H , 17-O ) :   0.1156

Dispersion correction           -0.031774200
FINAL SINGLE POINT ENERGY      -955.432729157110

DIPOLE MOMENT
-------------
                                X             Y             Z
Electronic contribution:    -16.39275      -2.77901      -1.09153
Nuclear contribution   :     16.65743       2.74852       1.69529
                        -----------------------------------------
Total Dipole Moment    :      0.26468      -0.03049       0.60375
                        -----------------------------------------
Magnitude (a.u.)       :      0.65992
Magnitude (Debye)      :      1.67739

Rotational constants in cm-1:     0.059907     0.020458     0.017675
Rotational constants in MHz :  1795.978106   613.328205   529.885290

                             ****ORCA TERMINATED NORMALLY****
TOTAL RUN TIME: 0 days 0 hours 0 minutes 14 seconds 17 msec
