                         Program Version 5.0.0 -  RELEASE  -
|  1> !TPSS D3BJ RIJCOSX def2-TZVP def2/J TightSCF xyzfile
|  2>
|  3> *xyzfile 0 1 D7.xyz
|  4>
|  5> %MaxCore 64000
|  6>
|  7> %pal nprocs 18
|  8> end
|  9>
| 10> %scf
| 11>   MaxIter 150
| 12> end
| 13>
| 14>
| 15>                          ****END OF INPUT****

CARTESIAN COORDINATES (ANGSTROEM)
---------------------------------
  C      3.380928    2.083045   -3.350127
  C      4.535924    1.182447   -3.428518
  C      2.495557    1.816150   -2.136364
  C      1.872181    0.427903   -2.077497
  H      2.614270   -0.365825   -2.198894
  H      1.389953    0.273087   -1.112360
  S      0.579024    0.140472   -3.297943
  C      4.671956    0.122273   -4.220598
  N      5.866023   -0.507849   -4.224284
  N      3.698881   -0.312844   -4.986988
  H      2.731405   -0.050091   -4.849000
  H      3.890046   -1.055172   -5.643730
  H      5.251933    1.303459   -2.721014
  H      6.695165   -0.062322   -3.851596
  H      5.975383   -1.396884   -4.691414
  O      0.228860   -1.246868   -3.127871
  O     -0.439269    1.118966   -3.014550
  F      1.247881    0.403474   -4.595647
  H      1.697003    2.561969   -2.141109
  H      3.080787    1.987436   -1.225838
  H      2.806463    1.986511   -4.268484
  H      3.778714    3.098282   -3.307383

 Total Charge           Charge          ....    0
 Multiplicity           Mult            ....    1
 Number of Electrons    NEL             ....   96
 Basis Dimension        Dim             ....  413

ORBITAL ENERGIES
----------------

  NO   OCC          E(Eh)            E(eV)
   0   2.0000     -88.580443     -2410.3964
   1   2.0000     -24.520647      -667.2407
   2   2.0000     -18.896117      -514.1895
   3   2.0000     -18.895569      -514.1746
   4   2.0000     -14.104769      -383.8103
   5   2.0000     -14.104312      -383.7978
   6   2.0000     -10.031785      -272.9788
   7   2.0000     -10.028387      -272.8863
   8   2.0000      -9.992778      -271.9173
   9   2.0000      -9.975493      -271.4470
  10   2.0000      -9.915772      -269.8219
  11   2.0000      -7.930723      -215.8060
  12   2.0000      -5.914474      -160.9410
  13   2.0000      -5.906909      -160.7352
  14   2.0000      -5.906509      -160.7243
  15   2.0000      -1.286465       -35.0065
  16   2.0000      -1.043358       -28.3912
  17   2.0000      -0.956947       -26.0399
  18   2.0000      -0.903518       -24.5860
  19   2.0000      -0.818180       -22.2638
  20   2.0000      -0.765417       -20.8281
  21   2.0000      -0.705884       -19.2081
  22   2.0000      -0.670066       -18.2334
  23   2.0000      -0.630958       -17.1692
  24   2.0000      -0.588948       -16.0261
  25   2.0000      -0.542020       -14.7491
  26   2.0000      -0.531551       -14.4643
  27   2.0000      -0.516519       -14.0552
  28   2.0000      -0.502815       -13.6823
  29   2.0000      -0.495249       -13.4764
  30   2.0000      -0.468599       -12.7512
  31   2.0000      -0.444128       -12.0853
  32   2.0000      -0.431473       -11.7410
  33   2.0000      -0.427000       -11.6193
  34   2.0000      -0.412073       -11.2131
  35   2.0000      -0.404708       -11.0127
  36   2.0000      -0.369574       -10.0566
  37   2.0000      -0.364687        -9.9236
  38   2.0000      -0.359436        -9.7807
  39   2.0000      -0.341593        -9.2952
  40   2.0000      -0.323429        -8.8010
  41   2.0000      -0.311289        -8.4706
  42   2.0000      -0.300748        -8.1838
  43   2.0000      -0.296110        -8.0576
  44   2.0000      -0.285298        -7.7633
  45   2.0000      -0.277934        -7.5630
  46   2.0000      -0.230758        -6.2792
  47   2.0000      -0.139852        -3.8056
  48   0.0000      -0.009697        -0.2639
  49   0.0000       0.010198         0.2775
  50   0.0000       0.027964         0.7609
  51   0.0000       0.038218         1.0400
  52   0.0000       0.044940         1.2229

MULLIKEN ATOMIC CHARGES
-----------------------
   0 C :   -0.231806
   1 C :   -0.389732
   2 C :   -0.090774
   3 C :   -0.306757
   4 H :    0.175589
   5 H :    0.150137
   6 S :    0.771097
   7 C :    0.375069
   8 N :   -0.504503
   9 N :   -0.491549
  10 H :    0.243611
  11 H :    0.218791
  12 H :    0.084908
  13 H :    0.248963
  14 H :    0.217536
  15 O :   -0.379367
  16 O :   -0.376163
  17 F :   -0.113753
  18 H :    0.112434
  19 H :    0.086914
  20 H :    0.108286
  21 H :    0.091067
Sum of atomic charges:   -0.0000000

LOEWDIN ATOMIC CHARGES
----------------------
   0 C :   -0.281640
   1 C :   -0.277559
   2 C :   -0.279707
   3 C :   -0.363929
   4 H :    0.143933
   5 H :    0.147924
   6 S :    0.499851
   7 C :   -0.473813
   8 N :   -0.018240
   9 N :    0.007472
  10 H :    0.138904
  11 H :    0.163431
  12 H :    0.118272
  13 H :    0.173860
  14 H :    0.155539
  15 O :   -0.241325
  16 O :   -0.236404
  17 F :    0.072787
  18 H :    0.137649
  19 H :    0.141047
  20 H :    0.130710
  21 H :    0.141239

  Mayer bond orders larger than 0.100000
B(  0-C ,  1-C ) :   1.0607 B(  0-C ,  2-C ) :   0.9915 B(  0-C , 20-H ) :   0.9624
B(  0-C , 21-H ) :   0.9476 B(  1-C ,  7-C ) :   1.6400 B(  1-C , 12-H ) :   0.9843
B(  2-C ,  3-C ) :   0.9897 B(  2-C , 18-H ) :   0.9367 B(  2-C , 19-H ) :   0.9290
B(  3-C ,  4-H ) :   0.9267 B(  3-C ,  5-H ) :   0.9283 B(  3-C ,  6-S ) :   0.9233
B(  6-S , 15-O ) :   1.9564 B(  6-S , 16-O ) :   1.9562 B(  6-S , 17-F ) :   1.0268
B(  7-C ,  8-N ) :   1.1193 B(  7-C ,  9-N ) :   1.1494 B(  8-N , 13-H ) :   0.9112
B(  8-N , 14-H ) :   0.9181 B(  9-N , 10-H ) :   0.8841 B(  9-N , 11-H ) :   0.9181

Dispersion correction           -0.031482339
FINAL SINGLE POINT ENERGY      -955.437310246660

DIPOLE MOMENT
-------------
                                X             Y             Z
Electronic contribution:    -13.25759      -3.94300      -3.73105
Nuclear contribution   :     14.80811       3.53278       3.42836
                        -----------------------------------------
Total Dipole Moment    :      1.55052      -0.41022      -0.30269
                        -----------------------------------------
Magnitude (a.u.)       :      1.63219
Magnitude (Debye)      :      4.14869

Rotational constants in cm-1:     0.059173     0.020923     0.018056
Rotational constants in MHz :  1773.956621   627.264018   541.303397

                             ****ORCA TERMINATED NORMALLY****
TOTAL RUN TIME: 0 days 0 hours 0 minutes 14 seconds 890 msec
