                         Program Version 5.0.0 -  RELEASE  -
|  1> !LC-BLYP RIJCOSX def2-TZVPD def2/J TightSCF
|  2> *xyz -1 1
|  3> C          1.44442        5.26658       -0.97546
|  4> O          1.56525        4.23349       -1.86489
|  5> C          0.14812        5.21087       -0.13809
|  6> H          1.47425        6.26464       -1.47692
|  7> H          2.28962        5.30327       -0.26445
|  8> H         -0.69779        5.17417       -0.79230
|  9> H          0.08430        6.08276        0.47887
| 10> H          0.15965        4.33708        0.47938
| 11> *
| 12> %MaxCore 64000
| 13>
| 14> %pal nprocs 4
| 15> end
| 16>
| 17> %scf
| 18>   MaxIter 150
| 19> end
| 20>
| 21>
| 22>                          ****END OF INPUT****

CARTESIAN COORDINATES (ANGSTROEM)
---------------------------------
  C      1.444420    5.266580   -0.975460
  O      1.565250    4.233490   -1.864890
  C      0.148120    5.210870   -0.138090
  H      1.474250    6.264640   -1.476920
  H      2.289620    5.303270   -0.264450
  H     -0.697790    5.174170   -0.792300
  H      0.084300    6.082760    0.478870
  H      0.159650    4.337080    0.479380

 Total Charge           Charge          ....   -1
 Multiplicity           Mult            ....    1
 Number of Electrons    NEL             ....   26
 Basis Dimension        Dim             ....  159

ORBITAL ENERGIES
----------------

  NO   OCC          E(Eh)            E(eV)
   0   2.0000     -18.606043      -506.2962
   1   2.0000      -9.884482      -268.9704
   2   2.0000      -9.860350      -268.3138
   3   2.0000      -0.777364       -21.1531
   4   2.0000      -0.635243       -17.2859
   5   2.0000      -0.481140       -13.0925
   6   2.0000      -0.357570        -9.7300
   7   2.0000      -0.333273        -9.0688
   8   2.0000      -0.276914        -7.5352
   9   2.0000      -0.257841        -7.0162
  10   2.0000      -0.213539        -5.8107
  11   2.0000      -0.067967        -1.8495
  12   2.0000      -0.065100        -1.7715
  13   0.0000       0.198012         5.3882
  14   0.0000       0.218968         5.9584
  15   0.0000       0.249351         6.7852
  16   0.0000       0.250008         6.8031
  17   0.0000       0.273170         7.4333

MULLIKEN ATOMIC CHARGES
-----------------------
   0 C :   -0.525903
   1 O :   -0.904284
   2 C :   -1.168272
   3 H :    0.291963
   4 H :    0.293013
   5 H :    0.318182
   6 H :    0.390166
   7 H :    0.305135
Sum of atomic charges:   -1.0000000

LOEWDIN ATOMIC CHARGES
----------------------
   0 C :   -0.646893
   1 O :   -0.415096
   2 C :   -0.181223
   3 H :    0.064198
   4 H :    0.060183
   5 H :    0.043465
   6 H :    0.032848
   7 H :    0.042518

  Mayer bond orders larger than 0.100000
B(  0-C ,  1-O ) :   0.9572 B(  0-C ,  2-C ) :   0.6467 B(  0-C ,  3-H ) :   0.9998
B(  0-C ,  4-H ) :   1.0050 B(  1-O ,  2-C ) :   0.2559 B(  2-C ,  5-H ) :   0.9578
B(  2-C ,  6-H ) :   0.9139 B(  2-C ,  7-H ) :   0.9657

FINAL SINGLE POINT ENERGY      -154.111504441715

DIPOLE MOMENT
-------------
                                X             Y             Z
Electronic contribution:      1.16699      -1.54334      -1.98476
Nuclear contribution   :     -1.83256       2.47114       3.17273
                        -----------------------------------------
Total Dipole Moment    :     -0.66557       0.92780       1.18798
                        -----------------------------------------
Magnitude (a.u.)       :      1.64775
Magnitude (Debye)      :      4.18825

Rotational constants in cm-1:     1.286062     0.322579     0.284728
Rotational constants in MHz : 38555.180127  9670.683110  8535.939140

                             ****ORCA TERMINATED NORMALLY****
TOTAL RUN TIME: 0 days 0 hours 0 minutes 16 seconds 696 msec
