                         Program Version 5.0.0 -  RELEASE  -
|  1> !LC-BLYP RIJCOSX def2-TZVPD def2/J TightSCF
|  2> *xyz 1 1
|  3> C         -0.70169        4.07250       -4.00392
|  4> N          0.68053        4.61482       -4.04800
|  5> H          0.69993        5.58489       -4.38827
|  6> H          1.27804        4.05598       -4.66824
|  7> H          1.08573        4.53358       -3.10652
|  8> C         -1.70347        5.09320       -3.47740
|  9> H         -0.99590        3.74039       -5.00065
| 10> H         -0.64358        3.20191       -3.35153
| 11> H         -1.73704        5.93384       -4.13853
| 12> H         -1.40338        5.41759       -2.50291
| 13> H         -2.67335        4.64479       -3.42108
| 14> *
| 15> %MaxCore 64000
| 16>
| 17> %pal nprocs 4
| 18> end
| 19>
| 20> %scf
| 21>   MaxIter 150
| 22> end
| 23>
| 24>
| 25>                          ****END OF INPUT****

CARTESIAN COORDINATES (ANGSTROEM)
---------------------------------
  C     -0.701690    4.072500   -4.003920
  N      0.680530    4.614820   -4.048000
  H      0.699930    5.584890   -4.388270
  H      1.278040    4.055980   -4.668240
  H      1.085730    4.533580   -3.106520
  C     -1.703470    5.093200   -3.477400
  H     -0.995900    3.740390   -5.000650
  H     -0.643580    3.201910   -3.351530
  H     -1.737040    5.933840   -4.138530
  H     -1.403380    5.417590   -2.502910
  H     -2.673350    4.644790   -3.421080

 Total Charge           Charge          ....    1
 Multiplicity           Mult            ....    1
 Number of Electrons    NEL             ....   26
 Basis Dimension        Dim             ....  183

ORBITAL ENERGIES
----------------

  NO   OCC          E(Eh)            E(eV)
   0   2.0000     -14.503330      -394.6557
   1   2.0000     -10.321764      -280.8695
   2   2.0000     -10.241913      -278.6966
   3   2.0000      -1.318381       -35.8750
   4   2.0000      -1.074463       -29.2376
   5   2.0000      -0.953269       -25.9398
   6   2.0000      -0.909349       -24.7446
   7   2.0000      -0.890380       -24.2285
   8   2.0000      -0.799664       -21.7600
   9   2.0000      -0.746546       -20.3145
  10   2.0000      -0.683965       -18.6116
  11   2.0000      -0.667716       -18.1695
  12   2.0000      -0.649224       -17.6663
  13   0.0000      -0.141845        -3.8598
  14   0.0000      -0.084413        -2.2970
  15   0.0000      -0.083812        -2.2806
  16   0.0000      -0.077125        -2.0987
  17   0.0000      -0.045109        -1.2275

MULLIKEN ATOMIC CHARGES
-----------------------
   0 C :   -0.482426
   1 N :   -0.388748
   2 H :    0.358615
   3 H :    0.372788
   4 H :    0.375985
   5 C :   -1.371140
   6 H :    0.405582
   7 H :    0.407447
   8 H :    0.454282
   9 H :    0.443987
  10 H :    0.423628
Sum of atomic charges:    1.0000000

LOEWDIN ATOMIC CHARGES
----------------------
   0 C :   -0.219233
   1 N :    0.181041
   2 H :    0.182970
   3 H :    0.182667
   4 H :    0.184871
   5 C :   -0.067036
   6 H :    0.141456
   7 H :    0.140310
   8 H :    0.087805
   9 H :    0.087632
  10 H :    0.097518

  Mayer bond orders larger than 0.100000
B(  0-C ,  1-N ) :   0.8390 B(  0-C ,  5-C ) :   0.4803 B(  0-C ,  6-H ) :   0.8816
B(  0-C ,  7-H ) :   0.8750 B(  1-N ,  2-H ) :   0.8612 B(  1-N ,  3-H ) :   0.8671
B(  1-N ,  4-H ) :   0.8560 B(  5-C ,  8-H ) :   0.8376 B(  5-C ,  9-H ) :   0.8657
B(  5-C , 10-H ) :   0.9109

FINAL SINGLE POINT ENERGY      -135.191104877627

DIPOLE MOMENT
-------------
                                X             Y             Z
Electronic contribution:      1.75695      -0.33137      -0.45430
Nuclear contribution   :     -0.23930       0.27560       0.19485
                        -----------------------------------------
Total Dipole Moment    :      1.51765      -0.05576      -0.25945
                        -----------------------------------------
Magnitude (a.u.)       :      1.54067
Magnitude (Debye)      :      3.91608

Rotational constants in cm-1:     1.018556     0.279088     0.248454
Rotational constants in MHz : 30535.536069  8366.847891  7448.451392

                             ****ORCA TERMINATED NORMALLY****
TOTAL RUN TIME: 0 days 0 hours 0 minutes 20 seconds 259 msec
