                         Program Version 5.0.0 -  RELEASE  -
|  1> !LC-BLYP RIJCOSX def2-TZVPD def2/J TightSCF xyzfile
|  2>
|  3> *xyzfile 0 1 B.xyz
|  4>
|  5> %MaxCore 64000
|  6>
|  7> %pal nprocs 4
|  8> end
|  9>
| 10> %scf
| 11>   MaxIter 150
| 12> end
| 13>
| 14>
| 15>                          ****END OF INPUT****

CARTESIAN COORDINATES (ANGSTROEM)
---------------------------------
  C     -0.701686    4.072499   -4.003920
  N      0.680528    4.614820   -4.048005
  C      1.444422    5.266576   -0.975463
  O      1.565248    4.233493   -1.864885
  H      0.699926    5.584890   -4.388272
  H      1.278044    4.055977   -4.668235
  H      1.085729    4.533581   -3.106524
  C     -1.703475    5.093197   -3.477396
  H     -0.995895    3.740394   -5.000654
  H     -0.643580    3.201910   -3.351533
  C     -1.313997    5.785995   -2.169271
  H     -1.877057    5.850103   -4.251154
  H     -2.653264    4.564475   -3.354796
  H     -2.097137    6.509395   -1.929558
  H     -0.416875    6.387594   -2.339097
  C     -1.073895    4.844728   -0.979904
  H     -1.968893    4.809608   -0.352568
  C      0.148120    5.210874   -0.138092
  H     -0.909754    3.827531   -1.338975
  H      1.474250    6.264638   -1.476917
  H      2.289622    5.303267   -0.264450
  H      0.261827    4.450942    0.640711
  H     -0.002516    6.171031    0.371483

 Total Charge           Charge          ....    0
 Multiplicity           Mult            ....    1
 Number of Electrons    NEL             ....   66
 Basis Dimension        Dim             ....  434

ORBITAL ENERGIES
----------------

  NO   OCC          E(Eh)            E(eV)
   0   2.0000     -18.807000      -511.7645
   1   2.0000     -14.248130      -387.7113
   2   2.0000     -10.133849      -275.7561
   3   2.0000     -10.089267      -274.5429
   4   2.0000     -10.064353      -273.8650
   5   2.0000     -10.053496      -273.5695
   6   2.0000     -10.042840      -273.2796
   7   2.0000     -10.025159      -272.7984
   8   2.0000      -1.090675       -29.6788
   9   2.0000      -0.987511       -26.8715
  10   2.0000      -0.920667       -25.0526
  11   2.0000      -0.856407       -23.3040
  12   2.0000      -0.804168       -21.8825
  13   2.0000      -0.745696       -20.2914
  14   2.0000      -0.697840       -18.9892
  15   2.0000      -0.675889       -18.3919
  16   2.0000      -0.674778       -18.3617
  17   2.0000      -0.627756       -17.0821
  18   2.0000      -0.594590       -16.1796
  19   2.0000      -0.570573       -15.5261
  20   2.0000      -0.563250       -15.3268
  21   2.0000      -0.523466       -14.2442
  22   2.0000      -0.511883       -13.9290
  23   2.0000      -0.495991       -13.4966
  24   2.0000      -0.477130       -12.9834
  25   2.0000      -0.455934       -12.4066
  26   2.0000      -0.449472       -12.2307
  27   2.0000      -0.430270       -11.7082
  28   2.0000      -0.407198       -11.0804
  29   2.0000      -0.399072       -10.8593
  30   2.0000      -0.390097       -10.6151
  31   2.0000      -0.277021        -7.5381
  32   2.0000      -0.273563        -7.4440
  33   0.0000       0.026899         0.7320
  34   0.0000       0.053911         1.4670
  35   0.0000       0.058256         1.5852
  36   0.0000       0.073399         1.9973
  37   0.0000       0.089108         2.4247

MULLIKEN ATOMIC CHARGES
-----------------------
   0 C :   -0.810133
   1 N :   -0.264747
   2 C :   -0.746634
   3 O :   -0.898944
   4 H :    0.324999
   5 H :    0.361994
   6 H :    0.240861
   7 C :   -0.782906
   8 H :    0.438965
   9 H :    0.425370
  10 C :   -0.773618
  11 H :    0.398997
  12 H :    0.388447
  13 H :    0.440548
  14 H :    0.332900
  15 C :   -0.573950
  16 H :    0.458815
  17 C :   -0.810398
  18 H :    0.265654
  19 H :    0.346927
  20 H :    0.440815
  21 H :    0.447840
  22 H :    0.348198
Sum of atomic charges:   -0.0000000

LOEWDIN ATOMIC CHARGES
----------------------
   0 C :   -0.190547
   1 N :    0.141141
   2 C :   -0.440658
   3 O :   -0.265606
   4 H :    0.164078
   5 H :    0.164099
   6 H :   -0.049483
   7 C :   -0.206018
   8 H :    0.123400
   9 H :    0.127375
  10 C :   -0.215611
  11 H :    0.116145
  12 H :    0.124530
  13 H :    0.117169
  14 H :    0.095832
  15 C :   -0.223957
  16 H :    0.112364
  17 C :   -0.213743
  18 H :    0.098897
  19 H :    0.095617
  20 H :    0.103301
  21 H :    0.109917
  22 H :    0.111760

  Mayer bond orders larger than 0.100000
B(  0-C ,  1-N ) :   0.8234 B(  0-C ,  7-C ) :   0.5789 B(  0-C ,  8-H ) :   0.8914
B(  0-C ,  9-H ) :   0.9015 B(  1-N ,  3-O ) :  -0.1282 B(  1-N ,  4-H ) :   0.8690
B(  1-N ,  5-H ) :   0.8776 B(  1-N ,  6-H ) :   0.7280 B(  2-C ,  3-O ) :   0.9287
B(  2-C , 15-C ) :  -0.1052 B(  2-C , 17-C ) :   0.6309 B(  2-C , 19-H ) :   1.0007
B(  2-C , 20-H ) :   0.8847 B(  3-O ,  6-H ) :   0.3312 B(  7-C , 10-C ) :   0.6311
B(  7-C , 11-H ) :   0.9237 B(  7-C , 12-H ) :   0.9433 B( 10-C , 13-H ) :   0.8961
B( 10-C , 14-H ) :   1.0020 B( 10-C , 15-C ) :   0.5189 B( 15-C , 16-H ) :   0.8567
B( 15-C , 17-C ) :   0.7370 B( 15-C , 18-H ) :   1.0369 B( 17-C , 21-H ) :   0.8567
B( 17-C , 22-H ) :   1.0054

FINAL SINGLE POINT ENERGY      -366.763593415131

DIPOLE MOMENT
-------------
                                X             Y             Z
Electronic contribution:      1.97928      -1.51176      -1.27619
Nuclear contribution   :     -3.16446       1.92310      -1.11926
                        -----------------------------------------
Total Dipole Moment    :     -1.18518       0.41135      -2.39544
                        -----------------------------------------
Magnitude (a.u.)       :      2.70407
Magnitude (Debye)      :      6.87320

Rotational constants in cm-1:     0.085554     0.055600     0.038553
Rotational constants in MHz :  2564.854379  1666.836664  1155.798427

                             ****ORCA TERMINATED NORMALLY****
TOTAL RUN TIME: 0 days 0 hours 2 minutes 34 seconds 593 msec
