                         Program Version 5.0.0 -  RELEASE  -
|  1> !LC-BLYP RIJCOSX def2-TZVPD def2/J TightSCF
|  2> *xyz 0 1
|  3> C          1.44442        5.26658       -0.97546
|  4> F          1.56525        4.23349       -1.86489
|  5> C          0.14812        5.21087       -0.13809
|  6> H          1.47425        6.26464       -1.47692
|  7> H          2.28962        5.30327       -0.26445
|  8> H         -0.69779        5.17417       -0.79230
|  9> H          0.08430        6.08276        0.47887
| 10> H          0.15965        4.33708        0.47938
| 11> *
| 12> %MaxCore 64000
| 13>
| 14> %pal nprocs 4
| 15> end
| 16>
| 17> %scf
| 18>   MaxIter 150
| 19> end
| 20>
| 21>
| 22>                          ****END OF INPUT****

CARTESIAN COORDINATES (ANGSTROEM)
---------------------------------
  C      1.444420    5.266580   -0.975460
  F      1.565250    4.233490   -1.864890
  C      0.148120    5.210870   -0.138090
  H      1.474250    6.264640   -1.476920
  H      2.289620    5.303270   -0.264450
  H     -0.697790    5.174170   -0.792300
  H      0.084300    6.082760    0.478870
  H      0.159650    4.337080    0.479380

 Total Charge           Charge          ....    0
 Multiplicity           Mult            ....    1
 Number of Electrons    NEL             ....   26
 Basis Dimension        Dim             ....  159

ORBITAL ENERGIES
----------------

  NO   OCC          E(Eh)            E(eV)
   0   2.0000     -24.443161      -665.1322
   1   2.0000     -10.148672      -276.1594
   2   2.0000     -10.064229      -273.8616
   3   2.0000      -1.280398       -34.8414
   4   2.0000      -0.873890       -23.7798
   5   2.0000      -0.740714       -20.1559
   6   2.0000      -0.614462       -16.7204
   7   2.0000      -0.602625       -16.3982
   8   2.0000      -0.562845       -15.3158
   9   2.0000      -0.507764       -13.8170
  10   2.0000      -0.503085       -13.6896
  11   2.0000      -0.435846       -11.8600
  12   2.0000      -0.428044       -11.6477
  13   0.0000       0.055377         1.5069
  14   0.0000       0.078772         2.1435
  15   0.0000       0.100341         2.7304
  16   0.0000       0.103715         2.8222
  17   0.0000       0.132185         3.5969

MULLIKEN ATOMIC CHARGES
-----------------------
   0 C :   -0.304462
   1 F :   -0.274759
   2 C :   -1.150836
   3 H :    0.312007
   4 H :    0.314904
   5 H :    0.362209
   6 H :    0.389848
   7 H :    0.351089
Sum of atomic charges:    0.0000000

LOEWDIN ATOMIC CHARGES
----------------------
   0 C :   -0.316718
   1 F :   -0.030278
   2 C :   -0.095935
   3 H :    0.119933
   4 H :    0.114380
   5 H :    0.069249
   6 H :    0.071041
   7 H :    0.068328

  Mayer bond orders larger than 0.100000
B(  0-C ,  1-F ) :   0.8342 B(  0-C ,  2-C ) :   0.6436 B(  0-C ,  3-H ) :   0.9426
B(  0-C ,  4-H ) :   0.9435 B(  2-C ,  5-H ) :   0.9085 B(  2-C ,  6-H ) :   0.9006
B(  2-C ,  7-H ) :   0.9192

FINAL SINGLE POINT ENERGY      -178.741228021661

DIPOLE MOMENT
-------------
                                X             Y             Z
Electronic contribution:      2.29851      -2.72576      -3.68594
Nuclear contribution   :     -2.43357       3.25919       4.19687
                        -----------------------------------------
Total Dipole Moment    :     -0.13506       0.53343       0.51093
                        -----------------------------------------
Magnitude (a.u.)       :      0.75090
Magnitude (Debye)      :      1.90863

Rotational constants in cm-1:     1.264662     0.300144     0.266170
Rotational constants in MHz : 37913.611527  8998.095216  7979.576054

                             ****ORCA TERMINATED NORMALLY****
TOTAL RUN TIME: 0 days 0 hours 0 minutes 14 seconds 402 msec
