                         Program Version 5.0.0 -  RELEASE  -
|  1> !LC-BLYP RIJCOSX def2-TZVPD def2/J TightSCF
|  2> *xyz 0 1
|  3> C         -0.70169        4.07250       -4.00392
|  4> C          0.68053        4.61482       -4.04800
|  5> H          0.69993        5.58489       -4.38827
|  6> H          1.27804        4.05598       -4.66824
|  7> H          1.08573        4.53358       -3.10652
|  8> C         -1.70347        5.09320       -3.47740
|  9> H         -0.99590        3.74039       -5.00065
| 10> H         -0.64358        3.20191       -3.35153
| 11> H         -1.73704        5.93384       -4.13853
| 12> H         -1.40338        5.41759       -2.50291
| 13> H         -2.67335        4.64479       -3.42108
| 14> *
| 15> %MaxCore 64000
| 16>
| 17> %pal nprocs 4
| 18> end
| 19>
| 20> %scf
| 21>   MaxIter 150
| 22> end
| 23>
| 24>
| 25>                          ****END OF INPUT****

CARTESIAN COORDINATES (ANGSTROEM)
---------------------------------
  C     -0.701690    4.072500   -4.003920
  C      0.680530    4.614820   -4.048000
  H      0.699930    5.584890   -4.388270
  H      1.278040    4.055980   -4.668240
  H      1.085730    4.533580   -3.106520
  C     -1.703470    5.093200   -3.477400
  H     -0.995900    3.740390   -5.000650
  H     -0.643580    3.201910   -3.351530
  H     -1.737040    5.933840   -4.138530
  H     -1.403380    5.417590   -2.502910
  H     -2.673350    4.644790   -3.421080

 Total Charge           Charge          ....    0
 Multiplicity           Mult            ....    1
 Number of Electrons    NEL             ....   26
 Basis Dimension        Dim             ....  183

ORBITAL ENERGIES
----------------

  NO   OCC          E(Eh)            E(eV)
   0   2.0000     -10.053406      -273.5671
   1   2.0000     -10.044495      -273.3246
   2   2.0000     -10.026803      -272.8432
   3   2.0000      -0.901670       -24.5357
   4   2.0000      -0.798980       -21.7413
   5   2.0000      -0.692233       -18.8366
   6   2.0000      -0.577417       -15.7123
   7   2.0000      -0.551088       -14.9959
   8   2.0000      -0.504477       -13.7275
   9   2.0000      -0.492423       -13.3995
  10   2.0000      -0.435320       -11.8457
  11   2.0000      -0.431966       -11.7544
  12   2.0000      -0.422489       -11.4965
  13   0.0000       0.060560         1.6479
  14   0.0000       0.080240         2.1834
  15   0.0000       0.082859         2.2547
  16   0.0000       0.109950         2.9919
  17   0.0000       0.132062         3.5936

MULLIKEN ATOMIC CHARGES
-----------------------
   0 C :   -0.385572
   1 C :   -1.415848
   2 H :    0.411141
   3 H :    0.429088
   4 H :    0.411886
   5 C :   -1.280833
   6 H :    0.359638
   7 H :    0.325094
   8 H :    0.383434
   9 H :    0.376858
  10 H :    0.385114
Sum of atomic charges:   -0.0000000

LOEWDIN ATOMIC CHARGES
----------------------
   0 C :   -0.334889
   1 C :   -0.140188
   2 H :    0.060113
   3 H :    0.056388
   4 H :    0.061389
   5 C :   -0.128746
   6 H :    0.108520
   7 H :    0.108462
   8 H :    0.070918
   9 H :    0.072172
  10 H :    0.065861

  Mayer bond orders larger than 0.100000
B(  0-C ,  1-C ) :   0.4798 B(  0-C ,  5-C ) :   0.5156 B(  0-C ,  6-H ) :   0.9247
B(  0-C ,  7-H ) :   0.9526 B(  1-C ,  2-H ) :   0.8609 B(  1-C ,  3-H ) :   0.9068
B(  1-C ,  4-H ) :   0.9137 B(  5-C ,  8-H ) :   0.9232 B(  5-C ,  9-H ) :   0.9254
B(  5-C , 10-H ) :   0.9361

FINAL SINGLE POINT ENERGY      -118.784279236732

DIPOLE MOMENT
-------------
                                X             Y             Z
Electronic contribution:     -0.13647      -0.31280      -0.13790
Nuclear contribution   :      0.16058       0.27975       0.12812
                        -----------------------------------------
Total Dipole Moment    :      0.02411      -0.03305      -0.00979
                        -----------------------------------------
Magnitude (a.u.)       :      0.04206
Magnitude (Debye)      :      0.10691

Rotational constants in cm-1:     1.027122     0.293327     0.260229
Rotational constants in MHz : 30792.337141  8793.723318  7801.458329

                             ****ORCA TERMINATED NORMALLY****
TOTAL RUN TIME: 0 days 0 hours 0 minutes 19 seconds 234 msec
