                         Program Version 5.0.0 -  RELEASE  -
|  1> !LC-BLYP RIJCOSX def2-TZVPD def2/J TightSCF xyzfile
|  2>
|  3> *xyzfile 0 1 D.xyz
|  4>
|  5> %MaxCore 64000
|  6>
|  7> %pal nprocs 4
|  8> end
|  9>
| 10> %scf
| 11>   MaxIter 150
| 12> end
| 13>
| 14>
| 15>                          ****END OF INPUT****

CARTESIAN COORDINATES (ANGSTROEM)
---------------------------------
  C     -0.701686    4.072499   -4.003920
  C      0.680528    4.614820   -4.048005
  C      1.444422    5.266576   -0.975463
  F      1.565248    4.233493   -1.864885
  H      0.699926    5.584890   -4.388272
  H      1.278044    4.055977   -4.668235
  H      1.085729    4.533581   -3.106524
  C     -1.703475    5.093197   -3.477396
  H     -0.995895    3.740394   -5.000654
  H     -0.643580    3.201910   -3.351533
  C     -1.313997    5.785995   -2.169271
  H     -1.877057    5.850103   -4.251154
  H     -2.653264    4.564475   -3.354796
  H     -2.097137    6.509395   -1.929558
  H     -0.416875    6.387594   -2.339097
  C     -1.073895    4.844728   -0.979904
  H     -1.968893    4.809608   -0.352568
  C      0.148120    5.210874   -0.138092
  H     -0.909754    3.827531   -1.338975
  H      1.474250    6.264638   -1.476917
  H      2.289622    5.303267   -0.264450
  H      0.261827    4.450942    0.640711
  H     -0.002516    6.171031    0.371483

 Total Charge           Charge          ....    0
 Multiplicity           Mult            ....    1
 Number of Electrons    NEL             ....   66
 Basis Dimension        Dim             ....  434

ORBITAL ENERGIES
----------------

  NO   OCC          E(Eh)            E(eV)
   0   2.0000     -24.461780      -665.6389
   1   2.0000     -10.155385      -276.3421
   2   2.0000     -10.078573      -274.2519
   3   2.0000     -10.063716      -273.8476
   4   2.0000     -10.057093      -273.6674
   5   2.0000     -10.050192      -273.4796
   6   2.0000     -10.037594      -273.1368
   7   2.0000      -9.984100      -271.6812
   8   2.0000      -1.312795       -35.7230
   9   2.0000      -0.925530       -25.1849
  10   2.0000      -0.894339       -24.3362
  11   2.0000      -0.832735       -22.6599
  12   2.0000      -0.800217       -21.7750
  13   2.0000      -0.740517       -20.1505
  14   2.0000      -0.704880       -19.1808
  15   2.0000      -0.649673       -17.6785
  16   2.0000      -0.643987       -17.5238
  17   2.0000      -0.627705       -17.0807
  18   2.0000      -0.600470       -16.3396
  19   2.0000      -0.565837       -15.3972
  20   2.0000      -0.558223       -15.1900
  21   2.0000      -0.532573       -14.4920
  22   2.0000      -0.517037       -14.0693
  23   2.0000      -0.491210       -13.3665
  24   2.0000      -0.481758       -13.1093
  25   2.0000      -0.469013       -12.7625
  26   2.0000      -0.458467       -12.4755
  27   2.0000      -0.438465       -11.9312
  28   2.0000      -0.427928       -11.6445
  29   2.0000      -0.411898       -11.2083
  30   2.0000      -0.399621       -10.8742
  31   2.0000      -0.396189       -10.7808
  32   2.0000      -0.372963       -10.1488
  33   0.0000       0.052825         1.4375
  34   0.0000       0.064217         1.7474
  35   0.0000       0.068016         1.8508
  36   0.0000       0.073109         1.9894
  37   0.0000       0.089586         2.4378

MULLIKEN ATOMIC CHARGES
-----------------------
   0 C :   -0.550214
   1 C :   -1.307318
   2 C :   -0.599155
   3 F :   -0.371088
   4 H :    0.409689
   5 H :    0.547704
   6 H :    0.222804
   7 C :   -0.890703
   8 H :    0.402321
   9 H :    0.386600
  10 C :   -0.715314
  11 H :    0.420217
  12 H :    0.364816
  13 H :    0.442451
  14 H :    0.342458
  15 C :   -0.727384
  16 H :    0.460879
  17 C :   -0.795402
  18 H :    0.314315
  19 H :    0.404126
  20 H :    0.426176
  21 H :    0.448644
  22 H :    0.363376
Sum of atomic charges:    0.0000000

LOEWDIN ATOMIC CHARGES
----------------------
   0 C :   -0.267978
   1 C :   -0.121177
   2 C :   -0.227404
   3 F :   -0.018778
   4 H :    0.070907
   5 H :    0.066513
   6 H :   -0.038320
   7 C :   -0.226271
   8 H :    0.111740
   9 H :    0.106584
  10 C :   -0.216620
  11 H :    0.117755
  12 H :    0.113987
  13 H :    0.114830
  14 H :    0.096835
  15 C :   -0.213604
  16 H :    0.118115
  17 C :   -0.189253
  18 H :    0.105715
  19 H :    0.130229
  20 H :    0.127127
  21 H :    0.114004
  22 H :    0.125063

  Mayer bond orders larger than 0.100000
B(  0-C ,  1-C ) :   0.2565 B(  0-C ,  7-C ) :   0.6480 B(  0-C ,  8-H ) :   0.9231
B(  0-C ,  9-H ) :   0.9212 B(  0-C , 10-C ) :  -0.1105 B(  1-C ,  2-C ) :   0.1010
B(  1-C ,  3-F ) :   0.1357 B(  1-C ,  4-H ) :   1.0394 B(  1-C ,  5-H ) :   0.8959
B(  1-C ,  6-H ) :   0.8675 B(  2-C ,  3-F ) :   0.7751 B(  2-C , 17-C ) :   0.6552
B(  2-C , 19-H ) :   0.9354 B(  2-C , 20-H ) :   0.8781 B(  3-F ,  6-H ) :  -0.1945
B(  7-C , 10-C ) :   0.7063 B(  7-C , 11-H ) :   0.9161 B(  7-C , 12-H ) :   0.9387
B( 10-C , 13-H ) :   0.8784 B( 10-C , 14-H ) :   1.0056 B( 10-C , 15-C ) :   0.4957
B( 15-C , 16-H ) :   0.8586 B( 15-C , 17-C ) :   0.6793 B( 15-C , 18-H ) :   1.0188
B( 17-C , 21-H ) :   0.8725 B( 17-C , 22-H ) :   0.9665

FINAL SINGLE POINT ENERGY      -374.723277090396

DIPOLE MOMENT
-------------
                                X             Y             Z
Electronic contribution:      5.12123      -2.25748       2.78782
Nuclear contribution   :     -5.08831       2.68947      -1.99048
                        -----------------------------------------
Total Dipole Moment    :      0.03293       0.43199       0.79735
                        -----------------------------------------
Magnitude (a.u.)       :      0.90745
Magnitude (Debye)      :      2.30655

Rotational constants in cm-1:     0.084646     0.055672     0.038419
Rotational constants in MHz :  2537.625105  1668.992890  1151.781380

                             ****ORCA TERMINATED NORMALLY****
TOTAL RUN TIME: 0 days 0 hours 2 minutes 9 seconds 930 msec
