                         Program Version 5.0.0 -  RELEASE  -
|  1> !CAM-B3LYP RIJCOSX def2-SVPD def2/J TightSCF
|  2> *xyz -1 1
|  3> C         -7.33044       -2.67899       -3.20681
|  4> S         -6.01966       -2.92697       -4.41913
|  5> O         -5.64583       -1.58838       -4.91931
|  6> O         -4.88196       -3.50370       -3.66724
|  7> O         -6.54927       -3.80515       -5.42507
|  8> C         -6.28692       -0.73588       -1.89353
|  9> C         -7.46900       -1.24615       -2.71383
| 10> H         -7.60191       -0.60135       -3.58533
| 11> H         -8.38979       -1.17344       -2.12692
| 12> H         -7.11825       -3.37982       -2.39805
| 13> H         -8.24184       -3.00474       -3.70651
| 14> H         -5.39124       -0.81034       -2.47415
| 15> H         -6.18709       -1.32597       -1.00655
| 16> H         -6.45393        0.28631       -1.62495
| 17> *
| 18> %MaxCore 64000
| 19>
| 20> %pal nprocs 8
| 21> end
| 22>
| 23> %scf
| 24>   MaxIter 150
| 25> end
| 26>
| 27>
| 28>                          ****END OF INPUT****

CARTESIAN COORDINATES (ANGSTROEM)
---------------------------------
  C     -7.330440   -2.678990   -3.206810
  S     -6.019660   -2.926970   -4.419130
  O     -5.645830   -1.588380   -4.919310
  O     -4.881960   -3.503700   -3.667240
  O     -6.549270   -3.805150   -5.425070
  C     -6.286920   -0.735880   -1.893530
  C     -7.469000   -1.246150   -2.713830
  H     -7.601910   -0.601350   -3.585330
  H     -8.389790   -1.173440   -2.126920
  H     -7.118250   -3.379820   -2.398050
  H     -8.241840   -3.004740   -3.706510
  H     -5.391240   -0.810340   -2.474150
  H     -6.187090   -1.325970   -1.006550
  H     -6.453930    0.286310   -1.624950

 Total Charge           Charge          ....   -1
 Multiplicity           Mult            ....    1
 Number of Electrons    NEL             ....   66
 Basis Dimension        Dim             ....  212

ORBITAL ENERGIES
----------------

  NO   OCC          E(Eh)            E(eV)
   0   2.0000     -88.964885     -2420.8576
   1   2.0000     -19.000977      -517.0429
   2   2.0000     -18.990764      -516.7649
   3   2.0000     -18.986627      -516.6524
   4   2.0000     -10.130520      -275.6655
   5   2.0000     -10.126536      -275.5570
   6   2.0000     -10.113488      -275.2020
   7   2.0000      -8.017991      -218.1806
   8   2.0000      -5.987930      -162.9399
   9   2.0000      -5.987848      -162.9376
  10   2.0000      -5.987294      -162.9225
  11   2.0000      -1.016021       -27.6473
  12   2.0000      -0.871911       -23.7259
  13   2.0000      -0.848781       -23.0965
  14   2.0000      -0.739827       -20.1317
  15   2.0000      -0.647408       -17.6169
  16   2.0000      -0.548811       -14.9339
  17   2.0000      -0.459682       -12.5086
  18   2.0000      -0.407143       -11.0789
  19   2.0000      -0.396116       -10.7789
  20   2.0000      -0.366513        -9.9733
  21   2.0000      -0.353912        -9.6304
  22   2.0000      -0.335559        -9.1310
  23   2.0000      -0.326289        -8.8788
  24   2.0000      -0.293438        -7.9848
  25   2.0000      -0.285250        -7.7620
  26   2.0000      -0.273816        -7.4509
  27   2.0000      -0.221641        -6.0312
  28   2.0000      -0.219599        -5.9756
  29   2.0000      -0.183613        -4.9964
  30   2.0000      -0.176207        -4.7948
  31   2.0000      -0.168739        -4.5916
  32   2.0000      -0.132864        -3.6154
  33   0.0000       0.164082         4.4649
  34   0.0000       0.186215         5.0672
  35   0.0000       0.191432         5.2091
  36   0.0000       0.201633         5.4867
  37   0.0000       0.219514         5.9733

MULLIKEN ATOMIC CHARGES
-----------------------
   0 C :    0.174203
   1 S :    1.310611
   2 O :   -0.847926
   3 O :   -0.814394
   4 O :   -0.795012
   5 C :    0.968534
   6 C :   -0.033528
   7 H :   -0.047684
   8 H :   -0.294719
   9 H :   -0.095991
  10 H :   -0.117174
  11 H :   -0.167420
  12 H :   -0.090148
  13 H :   -0.149351
Sum of atomic charges:   -1.0000000

LOEWDIN ATOMIC CHARGES
----------------------
   0 C :   -0.081804
   1 S :    0.872828
   2 O :   -0.584622
   3 O :   -0.601559
   4 O :   -0.574854
   5 C :    0.124864
   6 C :   -0.100477
   7 H :    0.013961
   8 H :    0.005890
   9 H :    0.005762
  10 H :   -0.002271
  11 H :   -0.024980
  12 H :   -0.022282
  13 H :   -0.030453

  Mayer bond orders larger than 0.100000
B(  0-C ,  1-S ) :   0.8881 B(  0-C ,  6-C ) :   1.1969 B(  0-C ,  7-H ) :   0.1539
B(  0-C ,  8-H ) :   0.1335 B(  0-C ,  9-H ) :   0.9081 B(  0-C , 10-H ) :   0.9152
B(  1-S ,  2-O ) :   1.2551 B(  1-S ,  3-O ) :   1.2588 B(  1-S ,  4-O ) :   1.3497
B(  5-C ,  6-C ) :   1.2412 B(  5-C , 11-H ) :   0.7762 B(  5-C , 12-H ) :   0.7270
B(  5-C , 13-H ) :   0.7090 B(  6-C ,  7-H ) :   0.8510 B(  6-C ,  8-H ) :   0.8830
B(  6-C ,  9-H ) :   0.1118 B(  6-C , 10-H ) :   0.1267 B(  6-C , 11-H ) :   0.2308
B(  6-C , 12-H ) :   0.2296 B(  6-C , 13-H ) :   0.2394

FINAL SINGLE POINT ENERGY      -741.932095314571

DIPOLE MOMENT
-------------
                                X             Y             Z
Electronic contribution:      3.74449      -5.82180      -7.87196
Nuclear contribution   :     -5.28952       6.71955       9.52938
                        -----------------------------------------
Total Dipole Moment    :     -1.54503       0.89775       1.65742
                        -----------------------------------------
Magnitude (a.u.)       :      2.43723
Magnitude (Debye)      :      6.19495

Rotational constants in cm-1:     0.135789     0.055302     0.052251
Rotational constants in MHz :  4070.851802  1657.908940  1566.458563

                             ****ORCA TERMINATED NORMALLY****
TOTAL RUN TIME: 0 days 0 hours 0 minutes 20 seconds 256 msec
