                         Program Version 5.0.0 -  RELEASE  -
|  1> !CAM-B3LYP RIJCOSX def2-SVPD def2/J TightSCF
|  2> *xyz 1 1
|  3> C         -2.16038       -1.36949       -3.46710
|  4> N         -3.03011       -1.91086       -4.54107
|  5> C         -2.04772        0.14658       -3.51177
|  6> H         -3.47744       -2.79151       -4.25710
|  7> H         -2.53801       -2.01786       -5.43808
|  8> H         -3.89159       -1.37604       -4.71437
|  9> H         -1.18444       -1.84400       -3.56639
| 10> H         -2.59819       -1.70838       -2.52848
| 11> C         -3.32876        0.87504       -3.10367
| 12> H         -1.74003        0.45234       -4.51713
| 13> H         -1.23261        0.43494       -2.84221
| 14> H         -4.12483        0.59148       -3.76000
| 15> H         -3.17368        1.93185       -3.16688
| 16> H         -3.58415        0.61151       -2.09857
| 17> *
| 18> %MaxCore 64000
| 19>
| 20> %pal nprocs 8
| 21> end
| 22>
| 23> %scf
| 24>   MaxIter 150
| 25> end
| 26>
| 27>
| 28>                          ****END OF INPUT****

CARTESIAN COORDINATES (ANGSTROEM)
---------------------------------
  C     -2.160380   -1.369490   -3.467100
  N     -3.030110   -1.910860   -4.541070
  C     -2.047720    0.146580   -3.511770
  H     -3.477440   -2.791510   -4.257100
  H     -2.538010   -2.017860   -5.438080
  H     -3.891590   -1.376040   -4.714370
  H     -1.184440   -1.844000   -3.566390
  H     -2.598190   -1.708380   -2.528480
  C     -3.328760    0.875040   -3.103670
  H     -1.740030    0.452340   -4.517130
  H     -1.232610    0.434940   -2.842210
  H     -4.124830    0.591480   -3.760000
  H     -3.173680    1.931850   -3.166880
  H     -3.584150    0.611510   -2.098570

 Total Charge           Charge          ....    1
 Multiplicity           Mult            ....    1
 Number of Electrons    NEL             ....   34
 Basis Dimension        Dim             ....  160

ORBITAL ENERGIES
----------------

  NO   OCC          E(Eh)            E(eV)
   0   2.0000     -14.736401      -400.9979
   1   2.0000     -10.506401      -285.8937
   2   2.0000     -10.435999      -283.9780
   3   2.0000     -10.403369      -283.0901
   4   2.0000      -1.287803       -35.0429
   5   2.0000      -1.051621       -28.6161
   6   2.0000      -0.960785       -26.1443
   7   2.0000      -0.881528       -23.9876
   8   2.0000      -0.859322       -23.3833
   9   2.0000      -0.835790       -22.7430
  10   2.0000      -0.763945       -20.7880
  11   2.0000      -0.701235       -19.0816
  12   2.0000      -0.676704       -18.4141
  13   2.0000      -0.652901       -17.7663
  14   2.0000      -0.591824       -16.1043
  15   2.0000      -0.585577       -15.9344
  16   2.0000      -0.578544       -15.7430
  17   0.0000      -0.155645        -4.2353
  18   0.0000      -0.099185        -2.6990
  19   0.0000      -0.096930        -2.6376
  20   0.0000      -0.080053        -2.1784
  21   0.0000      -0.055153        -1.5008

MULLIKEN ATOMIC CHARGES
-----------------------
   0 C :    0.777067
   1 N :   -0.813057
   2 C :   -0.143918
   3 H :    0.358215
   4 H :    0.419034
   5 H :    0.305805
   6 H :   -0.172087
   7 H :   -0.078672
   8 C :    0.953219
   9 H :   -0.104104
  10 H :   -0.086148
  11 H :   -0.285327
  12 H :   -0.090884
  13 H :   -0.039142
Sum of atomic charges:    1.0000000

LOEWDIN ATOMIC CHARGES
----------------------
   0 C :    0.086928
   1 N :    0.330152
   2 C :   -0.045586
   3 H :    0.107865
   4 H :    0.115083
   5 H :    0.089718
   6 H :    0.053680
   7 H :    0.053241
   8 C :    0.150615
   9 H :    0.035086
  10 H :    0.046135
  11 H :   -0.028164
  12 H :    0.006032
  13 H :   -0.000784

  Mayer bond orders larger than 0.100000
B(  0-C ,  1-N ) :   0.6807 B(  0-C ,  2-C ) :   1.1938 B(  0-C ,  6-H ) :   0.8519
B(  0-C ,  7-H ) :   0.8507 B(  0-C , 10-H ) :   0.1226 B(  1-N ,  3-H ) :   0.7426
B(  1-N ,  4-H ) :   0.6959 B(  1-N ,  5-H ) :   0.8182 B(  1-N ,  6-H ) :   0.1374
B(  2-C ,  8-C ) :   1.2725 B(  2-C ,  9-H ) :   0.9113 B(  2-C , 10-H ) :   0.8905
B(  2-C , 11-H ) :   0.1987 B(  2-C , 12-H ) :   0.2229 B(  2-C , 13-H ) :   0.1947
B(  8-C , 11-H ) :   0.7627 B(  8-C , 12-H ) :   0.7566 B(  8-C , 13-H ) :   0.7425
B( 11-H , 13-H ) :   0.1167

FINAL SINGLE POINT ENERGY      -174.623754257327

DIPOLE MOMENT
-------------
                                X             Y             Z
Electronic contribution:      0.32403      -2.14144      -1.09451
Nuclear contribution   :     -0.76147       0.35838       0.01319
                        -----------------------------------------
Total Dipole Moment    :     -0.43744      -1.78305      -1.08131
                        -----------------------------------------
Magnitude (a.u.)       :      2.13070
Magnitude (Debye)      :      5.41581

Rotational constants in cm-1:     0.457188     0.153451     0.133348
Rotational constants in MHz : 13706.154863  4600.337483  3997.673747

                             ****ORCA TERMINATED NORMALLY****
TOTAL RUN TIME: 0 days 0 hours 0 minutes 11 seconds 28 msec
