                         Program Version 5.0.0 -  RELEASE  -
|  1> !CAM-B3LYP RIJCOSX def2-SVPD def2/J TightSCF xyzfile
|  2>
|  3> *xyzfile 0 1 B.xyz
|  4>
|  5> %MaxCore 64000
|  6>
|  7> %pal nprocs 4
|  8> end
|  9>
| 10> %scf
| 11>   MaxIter 150
| 12> end
| 13>
| 14>
| 15>                          ****END OF INPUT****

CARTESIAN COORDINATES (ANGSTROEM)
---------------------------------
  C     -2.160376   -1.369486   -3.467104
  N     -3.030108   -1.910857   -4.541074
  C     -2.047717    0.146583   -3.511774
  C     -7.330440   -2.678991   -3.206811
  S     -6.019659   -2.926965   -4.419128
  H     -3.477443   -2.791513   -4.257096
  H     -2.538013   -2.017860   -5.438075
  H     -3.891589   -1.376039   -4.714365
  O     -5.645830   -1.588384   -4.919307
  O     -4.881961   -3.503697   -3.667235
  H     -1.184438   -1.843997   -3.566393
  H     -2.598195   -1.708376   -2.528477
  O     -6.549267   -3.805150   -5.425071
  C     -3.328755    0.875037   -3.103669
  H     -1.740034    0.452343   -4.517126
  H     -1.232611    0.434938   -2.842208
  C     -3.628487    0.771601   -1.609363
  H     -4.175106    0.490791   -3.682203
  H     -3.237812    1.928663   -3.381480
  C     -4.975718    1.361432   -1.190644
  H     -2.830700    1.276234   -1.054766
  H     -3.594312   -0.275838   -1.294603
  C     -6.184720    0.784347   -1.926464
  H     -4.956292    2.445725   -1.342200
  H     -5.097256    1.205252   -0.114136
  C     -6.286921   -0.735882   -1.893531
  H     -6.163994    1.100199   -2.974250
  H     -7.094530    1.223459   -1.504509
  C     -7.468999   -1.246153   -2.713833
  H     -6.360641   -1.090347   -0.859176
  H     -5.369848   -1.171853   -2.295982
  H     -7.601914   -0.601349   -3.585329
  H     -8.389791   -1.173436   -2.126922
  H     -7.118254   -3.379818   -2.398055
  H     -8.241838   -3.004745   -3.706513

 Total Charge           Charge          ....    0
 Multiplicity           Mult            ....    1
 Number of Electrons    NEL             ....  122
 Basis Dimension        Dim             ....  464

ORBITAL ENERGIES
----------------

  NO   OCC          E(Eh)            E(eV)
   0   2.0000     -89.131274     -2425.3853
   1   2.0000     -19.168993      -521.6148
   2   2.0000     -19.168489      -521.6011
   3   2.0000     -19.153742      -521.1998
   4   2.0000     -14.508987      -394.8096
   5   2.0000     -10.343044      -281.4485
   6   2.0000     -10.295131      -280.1448
   7   2.0000     -10.274973      -279.5962
   8   2.0000     -10.266737      -279.3721
   9   2.0000     -10.263315      -279.2790
  10   2.0000     -10.258837      -279.1572
  11   2.0000     -10.252274      -278.9786
  12   2.0000     -10.251540      -278.9586
  13   2.0000     -10.248499      -278.8758
  14   2.0000      -8.183957      -222.6968
  15   2.0000      -6.154772      -167.4799
  16   2.0000      -6.153839      -167.4545
  17   2.0000      -6.152320      -167.4131
  18   2.0000      -1.187611       -32.3165
  19   2.0000      -1.081938       -29.4410
  20   2.0000      -1.036067       -28.1928
  21   2.0000      -1.032517       -28.0962
  22   2.0000      -0.916231       -24.9319
  23   2.0000      -0.887587       -24.1525
  24   2.0000      -0.861826       -23.4515
  25   2.0000      -0.816360       -22.2143
  26   2.0000      -0.783581       -21.3223
  27   2.0000      -0.738565       -20.0974
  28   2.0000      -0.700316       -19.0566
  29   2.0000      -0.684492       -18.6260
  30   2.0000      -0.669935       -18.2299
  31   2.0000      -0.645476       -17.5643
  32   2.0000      -0.634587       -17.2680
  33   2.0000      -0.612143       -16.6573
  34   2.0000      -0.586361       -15.9557
  35   2.0000      -0.563989       -15.3469
  36   2.0000      -0.562071       -15.2947
  37   2.0000      -0.549507       -14.9529
  38   2.0000      -0.531918       -14.4742
  39   2.0000      -0.521694       -14.1960
  40   2.0000      -0.511764       -13.9258
  41   2.0000      -0.508626       -13.8404
  42   2.0000      -0.500782       -13.6270
  43   2.0000      -0.485392       -13.2082
  44   2.0000      -0.482796       -13.1375
  45   2.0000      -0.470420       -12.8008
  46   2.0000      -0.457077       -12.4377
  47   2.0000      -0.443237       -12.0611
  48   2.0000      -0.437275       -11.8989
  49   2.0000      -0.422081       -11.4854
  50   2.0000      -0.413596       -11.2545
  51   2.0000      -0.406131       -11.0514
  52   2.0000      -0.393722       -10.7137
  53   2.0000      -0.389861       -10.6086
  54   2.0000      -0.386772       -10.5246
  55   2.0000      -0.382742       -10.4149
  56   2.0000      -0.378119       -10.2891
  57   2.0000      -0.351296        -9.5592
  58   2.0000      -0.343454        -9.3459
  59   2.0000      -0.332823        -9.0566
  60   2.0000      -0.309361        -8.4181
  61   0.0000       0.016529         0.4498
  62   0.0000       0.043768         1.1910
  63   0.0000       0.049338         1.3426
  64   0.0000       0.056397         1.5346
  65   0.0000       0.066373         1.8061

MULLIKEN ATOMIC CHARGES
-----------------------
   0 C :    1.119933
   1 N :   -0.920471
   2 C :    0.581563
   3 C :    0.589732
   4 S :    1.281400
   5 H :    0.243562
   6 H :    0.496190
   7 H :    0.278195
   8 O :   -0.846802
   9 O :   -0.846121
  10 H :   -0.400925
  11 H :   -0.124678
  12 O :   -0.798947
  13 C :    0.709233
  14 H :   -0.150556
  15 H :   -0.100755
  16 C :   -0.006218
  17 H :   -0.712510
  18 H :   -0.151635
  19 C :    0.851583
  20 H :   -0.448871
  21 H :    0.028951
  22 C :    0.052716
  23 H :   -0.115460
  24 H :   -0.069736
  25 C :    0.504474
  26 H :    0.117710
  27 H :   -0.490259
  28 C :    0.450368
  29 H :   -0.119996
  30 H :   -0.493919
  31 H :    0.037204
  32 H :   -0.314740
  33 H :   -0.108630
  34 H :   -0.121586
Sum of atomic charges:    0.0000000

LOEWDIN ATOMIC CHARGES
----------------------
   0 C :    0.099189
   1 N :    0.333030
   2 C :   -0.010506
   3 C :   -0.045649
   4 S :    0.963821
   5 H :   -0.044770
   6 H :    0.105341
   7 H :   -0.034622
   8 O :   -0.535515
   9 O :   -0.538939
  10 H :    0.036676
  11 H :    0.033780
  12 O :   -0.511380
  13 C :   -0.014862
  14 H :    0.027300
  15 H :    0.031117
  16 C :   -0.034535
  17 H :    0.000639
  18 H :    0.033728
  19 C :   -0.027353
  20 H :    0.024652
  21 H :    0.005269
  22 C :   -0.035204
  23 H :    0.023059
  24 H :    0.024101
  25 C :   -0.026768
  26 H :    0.019687
  27 H :    0.027064
  28 C :   -0.042667
  29 H :    0.036200
  30 H :   -0.009392
  31 H :    0.021139
  32 H :    0.029123
  33 H :    0.021328
  34 H :    0.015918

  Mayer bond orders larger than 0.100000
B(  0-C ,  1-N ) :   0.5932 B(  0-C ,  2-C ) :   1.1817 B(  0-C , 10-H ) :   0.7321
B(  0-C , 11-H ) :   0.7025 B(  0-C , 13-C ) :   0.1307 B(  0-C , 15-H ) :   0.1774
B(  1-N ,  5-H ) :   0.7944 B(  1-N ,  6-H ) :   0.5311 B(  1-N ,  7-H ) :   0.7764
B(  1-N , 11-H ) :   0.2238 B(  2-C , 10-H ) :   0.1234 B(  2-C , 13-C ) :   1.1550
B(  2-C , 14-H ) :   0.6652 B(  2-C , 15-H ) :   0.7305 B(  2-C , 17-H ) :   0.1319
B(  3-C ,  4-S ) :   0.8859 B(  3-C , 12-O ) :   0.1246 B(  3-C , 25-C ) :   0.1199
B(  3-C , 28-C ) :   1.2000 B(  3-C , 31-H ) :   0.1010 B(  3-C , 33-H ) :   0.8453
B(  3-C , 34-H ) :   0.7111 B(  4-S ,  8-O ) :   1.1176 B(  4-S ,  9-O ) :   1.1265
B(  4-S , 12-O ) :   1.4092 B(  4-S , 33-H ) :   0.1134 B(  5-H ,  9-O ) :   0.2041
B(  7-H ,  8-O ) :   0.1938 B(  7-H , 17-H ) :   0.1068 B( 10-H , 11-H ) :  -0.1614
B( 11-H , 21-H ) :   0.1029 B( 13-C , 14-H ) :   0.1978 B( 13-C , 15-H ) :   0.1035
B( 13-C , 16-C ) :   1.1307 B( 13-C , 17-H ) :   0.5049 B( 13-C , 18-H ) :   0.7246
B( 13-C , 20-H ) :   0.2008 B( 14-H , 15-H ) :  -0.1066 B( 16-C , 17-H ) :   0.2567
B( 16-C , 18-H ) :   0.1883 B( 16-C , 19-C ) :   1.1529 B( 16-C , 20-H ) :   0.9334
B( 16-C , 21-H ) :   0.8415 B( 16-C , 22-C ) :   0.1602 B( 16-C , 23-H ) :   0.1606
B( 16-C , 24-H ) :   0.3071 B( 17-H , 26-H ) :   0.1284 B( 19-C , 22-C ) :   1.1148
B( 19-C , 23-H ) :   0.6152 B( 19-C , 24-H ) :   0.6172 B( 22-C , 23-H ) :   0.2654
B( 22-C , 24-H ) :   0.1248 B( 22-C , 25-C ) :   1.2261 B( 22-C , 26-H ) :   0.7959
B( 22-C , 27-H ) :   0.9318 B( 22-C , 28-C ) :   0.1435 B( 22-C , 29-H ) :   0.1160
B( 22-C , 30-H ) :   0.1546 B( 23-H , 24-H ) :  -0.1344 B( 25-C , 26-H ) :   0.1143
B( 25-C , 27-H ) :   0.1914 B( 25-C , 28-C ) :   1.1478 B( 25-C , 29-H ) :   0.6478
B( 25-C , 30-H ) :   0.6877 B( 25-C , 32-H ) :   0.2115 B( 28-C , 29-H ) :   0.1424
B( 28-C , 31-H ) :   0.8118 B( 28-C , 32-H ) :   0.7419 B( 28-C , 34-H ) :   0.2476
B( 29-H , 30-H ) :   0.2634

FINAL SINGLE POINT ENERGY     -1033.341604086012

DIPOLE MOMENT
-------------
                                X             Y             Z
Electronic contribution:     -5.99126     -15.17052     -11.35782
Nuclear contribution   :      8.59301      16.99497      12.41069
                        -----------------------------------------
Total Dipole Moment    :      2.60176       1.82446       1.05287
                        -----------------------------------------
Magnitude (a.u.)       :      3.34759
Magnitude (Debye)      :      8.50889

Rotational constants in cm-1:     0.025617     0.015295     0.010641
Rotational constants in MHz :   767.991150   458.522408   319.013093

                             ****ORCA TERMINATED NORMALLY****
TOTAL RUN TIME: 0 days 0 hours 5 minutes 5 seconds 22 msec
