                         Program Version 5.0.0 -  RELEASE  -
|  1> !CAM-B3LYP RIJCOSX def2-SVPD def2/J TightSCF
|  2> *xyz 0 1
|  3> C         -7.33044       -2.67899       -3.20681
|  4> S         -6.01966       -2.92697       -4.41913
|  5> F         -5.64583       -1.58838       -4.91931
|  6> O         -4.88196       -3.50370       -3.66724
|  7> O         -6.54927       -3.80515       -5.42507
|  8> C         -6.28692       -0.73588       -1.89353
|  9> C         -7.46900       -1.24615       -2.71383
| 10> H         -7.60191       -0.60135       -3.58533
| 11> H         -8.38979       -1.17344       -2.12692
| 12> H         -7.11825       -3.37982       -2.39805
| 13> H         -8.24184       -3.00474       -3.70651
| 14> H         -5.39124       -0.81034       -2.47415
| 15> H         -6.18709       -1.32597       -1.00655
| 16> H         -6.45393        0.28631       -1.62495
| 17> *
| 18> %MaxCore 64000
| 19>
| 20> %pal nprocs 8
| 21> end
| 22>
| 23> %scf
| 24>   MaxIter 150
| 25> end
| 26>
| 27>
| 28>                          ****END OF INPUT****

CARTESIAN COORDINATES (ANGSTROEM)
---------------------------------
  C     -7.330440   -2.678990   -3.206810
  S     -6.019660   -2.926970   -4.419130
  F     -5.645830   -1.588380   -4.919310
  O     -4.881960   -3.503700   -3.667240
  O     -6.549270   -3.805150   -5.425070
  C     -6.286920   -0.735880   -1.893530
  C     -7.469000   -1.246150   -2.713830
  H     -7.601910   -0.601350   -3.585330
  H     -8.389790   -1.173440   -2.126920
  H     -7.118250   -3.379820   -2.398050
  H     -8.241840   -3.004740   -3.706510
  H     -5.391240   -0.810340   -2.474150
  H     -6.187090   -1.325970   -1.006550
  H     -6.453930    0.286310   -1.624950

 Total Charge           Charge          ....    0
 Multiplicity           Mult            ....    1
 Number of Electrons    NEL             ....   66
 Basis Dimension        Dim             ....  212

ORBITAL ENERGIES
----------------

  NO   OCC          E(Eh)            E(eV)
   0   2.0000     -89.219494     -2427.7859
   1   2.0000     -24.880121      -677.0225
   2   2.0000     -19.232796      -523.3510
   3   2.0000     -19.217227      -522.9273
   4   2.0000     -10.325018      -280.9580
   5   2.0000     -10.297094      -280.1982
   6   2.0000     -10.266518      -279.3661
   7   2.0000      -8.273418      -225.1311
   8   2.0000      -6.247524      -170.0038
   9   2.0000      -6.241096      -169.8289
  10   2.0000      -6.239676      -169.7902
  11   2.0000      -1.435329       -39.0573
  12   2.0000      -1.196610       -32.5614
  13   2.0000      -1.090275       -29.6679
  14   2.0000      -0.922783       -25.1102
  15   2.0000      -0.834322       -22.7031
  16   2.0000      -0.783145       -21.3104
  17   2.0000      -0.717596       -19.5268
  18   2.0000      -0.665811       -18.1176
  19   2.0000      -0.649483       -17.6733
  20   2.0000      -0.618106       -16.8195
  21   2.0000      -0.570223       -15.5165
  22   2.0000      -0.557501       -15.1704
  23   2.0000      -0.539844       -14.6899
  24   2.0000      -0.521683       -14.1957
  25   2.0000      -0.508803       -13.8452
  26   2.0000      -0.465470       -12.6661
  27   2.0000      -0.458532       -12.4773
  28   2.0000      -0.449898       -12.2423
  29   2.0000      -0.438554       -11.9337
  30   2.0000      -0.402874       -10.9628
  31   2.0000      -0.390190       -10.6176
  32   2.0000      -0.379025       -10.3138
  33   0.0000       0.022417         0.6100
  34   0.0000       0.054703         1.4886
  35   0.0000       0.058407         1.5893
  36   0.0000       0.059211         1.6112
  37   0.0000       0.074109         2.0166

MULLIKEN ATOMIC CHARGES
-----------------------
   0 C :    0.190734
   1 S :    1.430736
   2 F :   -0.429445
   3 O :   -0.675238
   4 O :   -0.649707
   5 C :    0.997492
   6 C :   -0.017320
   7 H :   -0.067816
   8 H :   -0.252763
   9 H :   -0.056330
  10 H :   -0.077773
  11 H :   -0.203569
  12 H :   -0.068600
  13 H :   -0.120399
Sum of atomic charges:    0.0000000

LOEWDIN ATOMIC CHARGES
----------------------
   0 C :   -0.035421
   1 S :    1.125255
   2 F :   -0.271386
   3 O :   -0.488482
   4 O :   -0.461523
   5 C :    0.142685
   6 C :   -0.084078
   7 H :    0.023157
   8 H :    0.031618
   9 H :    0.034935
  10 H :    0.022213
  11 H :   -0.023972
  12 H :   -0.005296
  13 H :   -0.009705

  Mayer bond orders larger than 0.100000
B(  0-C ,  1-S ) :   0.9583 B(  0-C ,  6-C ) :   1.1896 B(  0-C ,  7-H ) :   0.1331
B(  0-C ,  8-H ) :   0.1245 B(  0-C ,  9-H ) :   0.9099 B(  0-C , 10-H ) :   0.9191
B(  1-S ,  2-F ) :   0.6420 B(  1-S ,  3-O ) :   1.4840 B(  1-S ,  4-O ) :   1.5641
B(  5-C ,  6-C ) :   1.2629 B(  5-C , 11-H ) :   0.7642 B(  5-C , 12-H ) :   0.7323
B(  5-C , 13-H ) :   0.7152 B(  6-C ,  7-H ) :   0.8586 B(  6-C ,  8-H ) :   0.8858
B(  6-C ,  9-H ) :   0.1079 B(  6-C , 10-H ) :   0.1230 B(  6-C , 11-H ) :   0.2202
B(  6-C , 12-H ) :   0.2257 B(  6-C , 13-H ) :   0.2322

FINAL SINGLE POINT ENERGY      -766.428713159153

DIPOLE MOMENT
-------------
                                X             Y             Z
Electronic contribution:      4.74858      -4.53907      -9.78210
Nuclear contribution   :     -5.93570       5.78812      10.65621
                        -----------------------------------------
Total Dipole Moment    :     -1.18711       1.24905       0.87410
                        -----------------------------------------
Magnitude (a.u.)       :      1.93221
Magnitude (Debye)      :      4.91128

Rotational constants in cm-1:     0.129417     0.054385     0.051980
Rotational constants in MHz :  3879.823072  1630.427453  1558.324762

                             ****ORCA TERMINATED NORMALLY****
TOTAL RUN TIME: 0 days 0 hours 0 minutes 22 seconds 545 msec
