                         Program Version 5.0.0 -  RELEASE  -
|  1> !CAM-B3LYP RIJCOSX def2-SVPD def2/J TightSCF
|  2> *xyz 0 1
|  3> C         -2.16038       -1.36949       -3.46710
|  4> C         -3.03011       -1.91086       -4.54107
|  5> C         -2.04772        0.14658       -3.51177
|  6> H         -3.47744       -2.79151       -4.25710
|  7> H         -2.53801       -2.01786       -5.43808
|  8> H         -3.89159       -1.37604       -4.71437
|  9> H         -1.18444       -1.84400       -3.56639
| 10> H         -2.59819       -1.70838       -2.52848
| 11> C         -3.32876        0.87504       -3.10367
| 12> H         -1.74003        0.45234       -4.51713
| 13> H         -1.23261        0.43494       -2.84221
| 14> H         -4.12483        0.59148       -3.76000
| 15> H         -3.17368        1.93185       -3.16688
| 16> H         -3.58415        0.61151       -2.09857
| 17> *
| 18> %MaxCore 64000
| 19>
| 20> %pal nprocs 8
| 21> end
| 22>
| 23> %scf
| 24>   MaxIter 150
| 25> end
| 26>
| 27>
| 28>                          ****END OF INPUT****

CARTESIAN COORDINATES (ANGSTROEM)
---------------------------------
  C     -2.160380   -1.369490   -3.467100
  C     -3.030110   -1.910860   -4.541070
  C     -2.047720    0.146580   -3.511770
  H     -3.477440   -2.791510   -4.257100
  H     -2.538010   -2.017860   -5.438080
  H     -3.891590   -1.376040   -4.714370
  H     -1.184440   -1.844000   -3.566390
  H     -2.598190   -1.708380   -2.528480
  C     -3.328760    0.875040   -3.103670
  H     -1.740030    0.452340   -4.517130
  H     -1.232610    0.434940   -2.842210
  H     -4.124830    0.591480   -3.760000
  H     -3.173680    1.931850   -3.166880
  H     -3.584150    0.611510   -2.098570

 Total Charge           Charge          ....    0
 Multiplicity           Mult            ....    1
 Number of Electrons    NEL             ....   34
 Basis Dimension        Dim             ....  160

ORBITAL ENERGIES
----------------

  NO   OCC          E(Eh)            E(eV)
   0   2.0000     -10.247248      -278.8418
   1   2.0000     -10.243501      -278.7398
   2   2.0000     -10.238037      -278.5911
   3   2.0000     -10.219618      -278.0900
   4   2.0000      -0.879554       -23.9339
   5   2.0000      -0.805147       -21.9092
   6   2.0000      -0.719310       -19.5734
   7   2.0000      -0.641097       -17.4451
   8   2.0000      -0.537944       -14.6382
   9   2.0000      -0.530980       -14.4487
  10   2.0000      -0.497785       -13.5454
  11   2.0000      -0.456402       -12.4193
  12   2.0000      -0.445220       -12.1150
  13   2.0000      -0.431084       -11.7304
  14   2.0000      -0.387734       -10.5508
  15   2.0000      -0.386383       -10.5140
  16   2.0000      -0.383494       -10.4354
  17   0.0000       0.056200         1.5293
  18   0.0000       0.080902         2.2015
  19   0.0000       0.081392         2.2148
  20   0.0000       0.089671         2.4401
  21   0.0000       0.130260         3.5446

MULLIKEN ATOMIC CHARGES
-----------------------
   0 C :   -0.041120
   1 C :    1.277153
   2 C :   -0.112925
   3 H :   -0.230526
   4 H :   -0.174739
   5 H :   -0.585289
   6 H :   -0.222494
   7 H :   -0.089590
   8 C :    0.946072
   9 H :   -0.164735
  10 H :   -0.158951
  11 H :   -0.295577
  12 H :   -0.113322
  13 H :   -0.033956
Sum of atomic charges:    0.0000000

LOEWDIN ATOMIC CHARGES
----------------------
   0 C :   -0.074460
   1 C :    0.119614
   2 C :   -0.080464
   3 H :   -0.033560
   4 H :   -0.025042
   5 H :   -0.046537
   6 H :    0.021923
   7 H :    0.022545
   8 C :    0.125482
   9 H :    0.023128
  10 H :    0.014911
  11 H :   -0.031370
  12 H :   -0.019744
  13 H :   -0.016427

  Mayer bond orders larger than 0.100000
B(  0-C ,  1-C ) :   1.2130 B(  0-C ,  2-C ) :   1.2033 B(  0-C ,  3-H ) :   0.2321
B(  0-C ,  4-H ) :   0.2312 B(  0-C ,  5-H ) :   0.2595 B(  0-C ,  6-H ) :   0.8910
B(  0-C ,  7-H ) :   0.8441 B(  0-C ,  9-H ) :   0.1446 B(  0-C , 10-H ) :   0.1244
B(  1-C ,  3-H ) :   0.5106 B(  1-C ,  4-H ) :   0.6433 B(  1-C ,  5-H ) :   0.4196
B(  1-C ,  6-H ) :   0.1094 B(  1-C ,  7-H ) :   0.1319 B(  2-C ,  6-H ) :   0.1169
B(  2-C ,  8-C ) :   1.2505 B(  2-C ,  9-H ) :   0.8950 B(  2-C , 10-H ) :   0.8877
B(  2-C , 11-H ) :   0.2211 B(  2-C , 12-H ) :   0.2267 B(  2-C , 13-H ) :   0.2299
B(  3-H ,  5-H ) :   0.3065 B(  4-H ,  5-H ) :   0.1245 B(  8-C , 11-H ) :   0.7838
B(  8-C , 12-H ) :   0.7248 B(  8-C , 13-H ) :   0.7265

FINAL SINGLE POINT ENERGY      -158.222954939121

DIPOLE MOMENT
-------------
                                X             Y             Z
Electronic contribution:      0.86579       0.03270       0.25312
Nuclear contribution   :     -0.87438      -0.05339      -0.25605
                        -----------------------------------------
Total Dipole Moment    :     -0.00859      -0.02069      -0.00293
                        -----------------------------------------
Magnitude (a.u.)       :      0.02259
Magnitude (Debye)      :      0.05742

Rotational constants in cm-1:     0.464420     0.160323     0.139078
Rotational constants in MHz : 13922.972952  4806.377145  4169.443621

                             ****ORCA TERMINATED NORMALLY****
TOTAL RUN TIME: 0 days 0 hours 0 minutes 10 seconds 383 msec
