                         Program Version 5.0.0 -  RELEASE  -
|  1> !CAM-B3LYP RIJCOSX def2-SVPD def2/J TightSCF
|  2> *xyz 0 1
|  3> C         -7.33044       -2.67899       -3.20681
|  4> S         -6.01966       -2.92697       -4.41913
|  5> O         -5.64583       -1.58838       -4.91931
|  6> F         -4.88196       -3.50370       -3.66724
|  7> O         -6.54927       -3.80515       -5.42507
|  8> C         -6.28692       -0.73588       -1.89353
|  9> C         -7.46900       -1.24615       -2.71383
| 10> H         -7.60191       -0.60135       -3.58533
| 11> H         -8.38979       -1.17344       -2.12692
| 12> H         -7.11825       -3.37982       -2.39805
| 13> H         -8.24184       -3.00474       -3.70651
| 14> H         -5.39124       -0.81034       -2.47415
| 15> H         -6.18709       -1.32597       -1.00655
| 16> H         -6.45393        0.28631       -1.62495
| 17> *
| 18> %MaxCore 64000
| 19>
| 20> %pal nprocs 8
| 21> end
| 22>
| 23> %scf
| 24>   MaxIter 150
| 25> end
| 26>
| 27>
| 28>                          ****END OF INPUT****

CARTESIAN COORDINATES (ANGSTROEM)
---------------------------------
  C     -7.330440   -2.678990   -3.206810
  S     -6.019660   -2.926970   -4.419130
  O     -5.645830   -1.588380   -4.919310
  F     -4.881960   -3.503700   -3.667240
  O     -6.549270   -3.805150   -5.425070
  C     -6.286920   -0.735880   -1.893530
  C     -7.469000   -1.246150   -2.713830
  H     -7.601910   -0.601350   -3.585330
  H     -8.389790   -1.173440   -2.126920
  H     -7.118250   -3.379820   -2.398050
  H     -8.241840   -3.004740   -3.706510
  H     -5.391240   -0.810340   -2.474150
  H     -6.187090   -1.325970   -1.006550
  H     -6.453930    0.286310   -1.624950

 Total Charge           Charge          ....    0
 Multiplicity           Mult            ....    1
 Number of Electrons    NEL             ....   66
 Basis Dimension        Dim             ....  212

ORBITAL ENERGIES
----------------

  NO   OCC          E(Eh)            E(eV)
   0   2.0000     -89.220108     -2427.8026
   1   2.0000     -24.877130      -676.9411
   2   2.0000     -19.233197      -523.3619
   3   2.0000     -19.221238      -523.0365
   4   2.0000     -10.325638      -280.9749
   5   2.0000     -10.288515      -279.9647
   6   2.0000     -10.260088      -279.1912
   7   2.0000      -8.274010      -225.1473
   8   2.0000      -6.248023      -170.0173
   9   2.0000      -6.241703      -169.8454
  10   2.0000      -6.240374      -169.8092
  11   2.0000      -1.431514       -38.9535
  12   2.0000      -1.198066       -32.6010
  13   2.0000      -1.094559       -29.7845
  14   2.0000      -0.917559       -24.9680
  15   2.0000      -0.833533       -22.6816
  16   2.0000      -0.780225       -21.2310
  17   2.0000      -0.712401       -19.3854
  18   2.0000      -0.651035       -17.7156
  19   2.0000      -0.645183       -17.5563
  20   2.0000      -0.629560       -17.1312
  21   2.0000      -0.572494       -15.5784
  22   2.0000      -0.561122       -15.2689
  23   2.0000      -0.528206       -14.3732
  24   2.0000      -0.520174       -14.1547
  25   2.0000      -0.508853       -13.8466
  26   2.0000      -0.465109       -12.6563
  27   2.0000      -0.453097       -12.3294
  28   2.0000      -0.439650       -11.9635
  29   2.0000      -0.433129       -11.7860
  30   2.0000      -0.401544       -10.9266
  31   2.0000      -0.397633       -10.8201
  32   2.0000      -0.382690       -10.4135
  33   0.0000       0.028527         0.7763
  34   0.0000       0.050145         1.3645
  35   0.0000       0.058388         1.5888
  36   0.0000       0.061100         1.6626
  37   0.0000       0.080645         2.1945

MULLIKEN ATOMIC CHARGES
-----------------------
   0 C :    0.151002
   1 S :    1.450136
   2 O :   -0.713107
   3 F :   -0.403575
   4 O :   -0.650213
   5 C :    0.982035
   6 C :    0.012907
   7 H :   -0.033899
   8 H :   -0.262142
   9 H :   -0.047556
  10 H :   -0.081451
  11 H :   -0.206571
  12 H :   -0.073991
  13 H :   -0.123574
Sum of atomic charges:   -0.0000000

LOEWDIN ATOMIC CHARGES
----------------------
   0 C :   -0.040639
   1 S :    1.130679
   2 O :   -0.477444
   3 F :   -0.275450
   4 O :   -0.461801
   5 C :    0.140561
   6 C :   -0.076857
   7 H :    0.028046
   8 H :    0.031653
   9 H :    0.022745
  10 H :    0.026537
  11 H :   -0.026613
  12 H :   -0.012418
  13 H :   -0.008998

  Mayer bond orders larger than 0.100000
B(  0-C ,  1-S ) :   0.9456 B(  0-C ,  6-C ) :   1.2256 B(  0-C ,  7-H ) :   0.1498
B(  0-C ,  8-H ) :   0.1382 B(  0-C ,  9-H ) :   0.8947 B(  0-C , 10-H ) :   0.9201
B(  1-S ,  2-O ) :   1.4816 B(  1-S ,  3-F ) :   0.6390 B(  1-S ,  4-O ) :   1.5697
B(  5-C ,  6-C ) :   1.2552 B(  5-C , 11-H ) :   0.7711 B(  5-C , 12-H ) :   0.7340
B(  5-C , 13-H ) :   0.7191 B(  6-C ,  7-H ) :   0.8539 B(  6-C ,  8-H ) :   0.8720
B(  6-C ,  9-H ) :   0.1165 B(  6-C , 10-H ) :   0.1130 B(  6-C , 11-H ) :   0.2171
B(  6-C , 12-H ) :   0.2234 B(  6-C , 13-H ) :   0.2312

FINAL SINGLE POINT ENERGY      -766.432231371462

DIPOLE MOMENT
-------------
                                X             Y             Z
Electronic contribution:      6.10756      -7.85883      -7.67356
Nuclear contribution   :     -6.75719       7.84793       9.30968
                        -----------------------------------------
Total Dipole Moment    :     -0.64963      -0.01090       1.63611
                        -----------------------------------------
Magnitude (a.u.)       :      1.76040
Magnitude (Debye)      :      4.47458

Rotational constants in cm-1:     0.129104     0.054499     0.051192
Rotational constants in MHz :  3870.429564  1633.827608  1534.709243

                             ****ORCA TERMINATED NORMALLY****
TOTAL RUN TIME: 0 days 0 hours 0 minutes 20 seconds 304 msec
