                         Program Version 5.0.0 -  RELEASE  -
|  1> !CAM-B3LYP RIJCOSX def2-SVPD def2/J TightSCF
|  2> *xyz 0 1
|  3> C         -7.33044       -2.67899       -3.20681
|  4> S         -6.01966       -2.92697       -4.41913
|  5> O         -5.64583       -1.58838       -4.91931
|  6> O         -4.88196       -3.50370       -3.66724
|  7> F         -6.54927       -3.80515       -5.42507
|  8> C         -6.28692       -0.73588       -1.89353
|  9> C         -7.46900       -1.24615       -2.71383
| 10> H         -7.60191       -0.60135       -3.58533
| 11> H         -8.38979       -1.17344       -2.12692
| 12> H         -7.11825       -3.37982       -2.39805
| 13> H         -8.24184       -3.00474       -3.70651
| 14> H         -5.39124       -0.81034       -2.47415
| 15> H         -6.18709       -1.32597       -1.00655
| 16> H         -6.45393        0.28631       -1.62495
| 17> *
| 18> %MaxCore 64000
| 19>
| 20> %pal nprocs 8
| 21> end
| 22>
| 23> %scf
| 24>   MaxIter 150
| 25> end
| 26>
| 27>
| 28>                          ****END OF INPUT****

CARTESIAN COORDINATES (ANGSTROEM)
---------------------------------
  C     -7.330440   -2.678990   -3.206810
  S     -6.019660   -2.926970   -4.419130
  O     -5.645830   -1.588380   -4.919310
  O     -4.881960   -3.503700   -3.667240
  F     -6.549270   -3.805150   -5.425070
  C     -6.286920   -0.735880   -1.893530
  C     -7.469000   -1.246150   -2.713830
  H     -7.601910   -0.601350   -3.585330
  H     -8.389790   -1.173440   -2.126920
  H     -7.118250   -3.379820   -2.398050
  H     -8.241840   -3.004740   -3.706510
  H     -5.391240   -0.810340   -2.474150
  H     -6.187090   -1.325970   -1.006550
  H     -6.453930    0.286310   -1.624950

 Total Charge           Charge          ....    0
 Multiplicity           Mult            ....    1
 Number of Electrons    NEL             ....   66
 Basis Dimension        Dim             ....  212

ORBITAL ENERGIES
----------------

  NO   OCC          E(Eh)            E(eV)
   0   2.0000     -89.222158     -2427.8584
   1   2.0000     -24.899040      -677.5373
   2   2.0000     -19.222364      -523.0671
   3   2.0000     -19.218974      -522.9749
   4   2.0000     -10.326355      -280.9944
   5   2.0000     -10.288116      -279.9539
   6   2.0000     -10.252129      -278.9746
   7   2.0000      -8.276229      -225.2076
   8   2.0000      -6.250372      -170.0813
   9   2.0000      -6.243750      -169.9011
  10   2.0000      -6.242390      -169.8641
  11   2.0000      -1.469045       -39.9747
  12   2.0000      -1.183072       -32.1930
  13   2.0000      -1.077204       -29.3122
  14   2.0000      -0.916321       -24.9344
  15   2.0000      -0.839726       -22.8501
  16   2.0000      -0.789941       -21.4954
  17   2.0000      -0.715427       -19.4678
  18   2.0000      -0.672907       -18.3107
  19   2.0000      -0.664254       -18.0753
  20   2.0000      -0.631375       -17.1806
  21   2.0000      -0.566601       -15.4180
  22   2.0000      -0.561196       -15.2709
  23   2.0000      -0.532291       -14.4844
  24   2.0000      -0.515397       -14.0247
  25   2.0000      -0.495017       -13.4701
  26   2.0000      -0.456894       -12.4327
  27   2.0000      -0.444093       -12.0844
  28   2.0000      -0.439721       -11.9654
  29   2.0000      -0.424472       -11.5505
  30   2.0000      -0.396936       -10.8012
  31   2.0000      -0.389276       -10.5927
  32   2.0000      -0.370035       -10.0692
  33   0.0000       0.025223         0.6864
  34   0.0000       0.047227         1.2851
  35   0.0000       0.059455         1.6179
  36   0.0000       0.062179         1.6920
  37   0.0000       0.077323         2.1041

MULLIKEN ATOMIC CHARGES
-----------------------
   0 C :    0.154660
   1 S :    1.489144
   2 O :   -0.706997
   3 O :   -0.667475
   4 F :   -0.419748
   5 C :    0.989210
   6 C :   -0.027849
   7 H :   -0.034729
   8 H :   -0.262041
   9 H :   -0.055099
  10 H :   -0.071486
  11 H :   -0.189271
  12 H :   -0.074962
  13 H :   -0.123358
Sum of atomic charges:    0.0000000

LOEWDIN ATOMIC CHARGES
----------------------
   0 C :   -0.046046
   1 S :    1.136395
   2 O :   -0.478985
   3 O :   -0.486967
   4 F :   -0.256135
   5 C :    0.145959
   6 C :   -0.073558
   7 H :    0.025413
   8 H :    0.031665
   9 H :    0.027751
  10 H :    0.014733
  11 H :   -0.020698
  12 H :   -0.009376
  13 H :   -0.010152

  Mayer bond orders larger than 0.100000
B(  0-C ,  1-S ) :   0.9281 B(  0-C ,  6-C ) :   1.2337 B(  0-C ,  7-H ) :   0.1460
B(  0-C ,  8-H ) :   0.1300 B(  0-C ,  9-H ) :   0.9265 B(  0-C , 10-H ) :   0.8664
B(  1-S ,  2-O ) :   1.4589 B(  1-S ,  3-O ) :   1.4740 B(  1-S ,  4-F ) :   0.6937
B(  5-C ,  6-C ) :   1.2591 B(  5-C , 11-H ) :   0.7760 B(  5-C , 12-H ) :   0.7273
B(  5-C , 13-H ) :   0.7137 B(  6-C ,  7-H ) :   0.8514 B(  6-C ,  8-H ) :   0.8799
B(  6-C ,  9-H ) :   0.1088 B(  6-C , 10-H ) :   0.1373 B(  6-C , 11-H ) :   0.2190
B(  6-C , 12-H ) :   0.2258 B(  6-C , 13-H ) :   0.2327

FINAL SINGLE POINT ENERGY      -766.413447791131

DIPOLE MOMENT
-------------
                                X             Y             Z
Electronic contribution:      3.22835      -8.38993     -10.74258
Nuclear contribution   :     -4.96410       8.17213      11.20012
                        -----------------------------------------
Total Dipole Moment    :     -1.73575      -0.21781       0.45754
                        -----------------------------------------
Magnitude (a.u.)       :      1.80821
Magnitude (Debye)      :      4.59610

Rotational constants in cm-1:     0.133784     0.053405     0.050278
Rotational constants in MHz :  4010.731548  1601.045142  1507.298018

                             ****ORCA TERMINATED NORMALLY****
TOTAL RUN TIME: 0 days 0 hours 0 minutes 22 seconds 350 msec
