                         Program Version 5.0.0 -  RELEASE  -
|  1> !CAM-B3LYP RIJCOSX def2-SVPD def2/J TightSCF xyzfile
|  2>
|  3> *xyzfile 0 1 D2.xyz
|  4>
|  5> %MaxCore 64000
|  6>
|  7> %pal nprocs 4
|  8> end
|  9>
| 10> %scf
| 11>   MaxIter 150
| 12> end
| 13>
| 14>
| 15>                          ****END OF INPUT****

CARTESIAN COORDINATES (ANGSTROEM)
---------------------------------
  C     -2.160376   -1.369486   -3.467104
  C     -3.030108   -1.910857   -4.541074
  C     -2.047717    0.146583   -3.511774
  C     -7.330440   -2.678991   -3.206811
  S     -6.019659   -2.926965   -4.419128
  H     -3.477443   -2.791513   -4.257096
  H     -2.538013   -2.017860   -5.438075
  H     -3.891589   -1.376039   -4.714365
  O     -5.645830   -1.588384   -4.919307
  F     -4.881961   -3.503697   -3.667235
  H     -1.184438   -1.843997   -3.566393
  H     -2.598195   -1.708376   -2.528477
  O     -6.549267   -3.805150   -5.425071
  C     -3.328755    0.875037   -3.103669
  H     -1.740034    0.452343   -4.517126
  H     -1.232611    0.434938   -2.842208
  C     -3.628487    0.771601   -1.609363
  H     -4.175106    0.490791   -3.682203
  H     -3.237812    1.928663   -3.381480
  C     -4.975718    1.361432   -1.190644
  H     -2.830700    1.276234   -1.054766
  H     -3.594312   -0.275838   -1.294603
  C     -6.184720    0.784347   -1.926464
  H     -4.956292    2.445725   -1.342200
  H     -5.097256    1.205252   -0.114136
  C     -6.286921   -0.735882   -1.893531
  H     -6.163994    1.100199   -2.974250
  H     -7.094530    1.223459   -1.504509
  C     -7.468999   -1.246153   -2.713833
  H     -6.360641   -1.090347   -0.859176
  H     -5.369848   -1.171853   -2.295982
  H     -7.601914   -0.601349   -3.585329
  H     -8.389791   -1.173436   -2.126922
  H     -7.118254   -3.379818   -2.398055
  H     -8.241838   -3.004745   -3.706513

 Total Charge           Charge          ....    0
 Multiplicity           Mult            ....    1
 Number of Electrons    NEL             ....  122
 Basis Dimension        Dim             ....  464

ORBITAL ENERGIES
----------------

  NO   OCC          E(Eh)            E(eV)
   0   2.0000     -89.227035     -2427.9911
   1   2.0000     -24.882448      -677.0858
   2   2.0000     -19.238199      -523.4980
   3   2.0000     -19.225317      -523.1475
   4   2.0000     -10.327916      -281.0369
   5   2.0000     -10.287302      -279.9317
   6   2.0000     -10.268943      -279.4322
   7   2.0000     -10.258058      -279.1360
   8   2.0000     -10.252722      -278.9908
   9   2.0000     -10.246707      -278.8271
  10   2.0000     -10.240984      -278.6713
  11   2.0000     -10.237883      -278.5869
  12   2.0000     -10.231968      -278.4260
  13   2.0000     -10.186239      -277.1816
  14   2.0000      -8.279649      -225.3007
  15   2.0000      -6.253717      -170.1723
  16   2.0000      -6.247545      -170.0043
  17   2.0000      -6.245989      -169.9620
  18   2.0000      -1.440953       -39.2103
  19   2.0000      -1.203806       -32.7572
  20   2.0000      -1.102103       -29.9897
  21   2.0000      -0.925173       -25.1752
  22   2.0000      -0.893337       -24.3089
  23   2.0000      -0.865599       -23.5542
  24   2.0000      -0.840475       -22.8705
  25   2.0000      -0.799987       -21.7687
  26   2.0000      -0.784375       -21.3439
  27   2.0000      -0.745440       -20.2845
  28   2.0000      -0.710252       -19.3269
  29   2.0000      -0.696132       -18.9427
  30   2.0000      -0.660439       -17.9715
  31   2.0000      -0.656577       -17.8664
  32   2.0000      -0.647394       -17.6165
  33   2.0000      -0.634444       -17.2641
  34   2.0000      -0.615522       -16.7492
  35   2.0000      -0.579390       -15.7660
  36   2.0000      -0.560494       -15.2518
  37   2.0000      -0.551071       -14.9954
  38   2.0000      -0.543420       -14.7872
  39   2.0000      -0.537202       -14.6180
  40   2.0000      -0.517312       -14.0768
  41   2.0000      -0.505035       -13.7427
  42   2.0000      -0.502194       -13.6654
  43   2.0000      -0.497580       -13.5398
  44   2.0000      -0.476346       -12.9620
  45   2.0000      -0.469163       -12.7666
  46   2.0000      -0.458293       -12.4708
  47   2.0000      -0.451236       -12.2788
  48   2.0000      -0.441963       -12.0264
  49   2.0000      -0.432800       -11.7771
  50   2.0000      -0.425514       -11.5788
  51   2.0000      -0.412216       -11.2170
  52   2.0000      -0.405076       -11.0227
  53   2.0000      -0.401650       -10.9295
  54   2.0000      -0.394904       -10.7459
  55   2.0000      -0.392644       -10.6844
  56   2.0000      -0.384460       -10.4617
  57   2.0000      -0.378404       -10.2969
  58   2.0000      -0.366194        -9.9646
  59   2.0000      -0.363780        -9.8990
  60   2.0000      -0.351116        -9.5543
  61   0.0000       0.028389         0.7725
  62   0.0000       0.046979         1.2784
  63   0.0000       0.050736         1.3806
  64   0.0000       0.058039         1.5793
  65   0.0000       0.067406         1.8342

MULLIKEN ATOMIC CHARGES
-----------------------
   0 C :    0.256146
   1 C :    2.355021
   2 C :    0.718815
   3 C :    0.570241
   4 S :    1.426037
   5 H :   -0.740483
   6 H :   -0.357261
   7 H :   -1.089458
   8 O :   -0.731024
   9 F :   -0.521493
  10 H :   -0.364056
  11 H :   -0.115332
  12 O :   -0.694637
  13 C :    0.646084
  14 H :   -0.158063
  15 H :   -0.187531
  16 C :    0.027753
  17 H :   -0.743981
  18 H :   -0.126087
  19 C :    0.849501
  20 H :   -0.425441
  21 H :    0.012392
  22 C :    0.021401
  23 H :   -0.108837
  24 H :   -0.074036
  25 C :    0.581814
  26 H :    0.146667
  27 H :   -0.504014
  28 C :    0.467015
  29 H :   -0.116338
  30 H :   -0.569142
  31 H :    0.052979
  32 H :   -0.290831
  33 H :   -0.103838
  34 H :   -0.109980
Sum of atomic charges:   -0.0000000

LOEWDIN ATOMIC CHARGES
----------------------
   0 C :   -0.042186
   1 C :    0.130213
   2 C :   -0.025333
   3 C :   -0.027339
   4 S :    1.165052
   5 H :   -0.094908
   6 H :   -0.009665
   7 H :   -0.116663
   8 O :   -0.453280
   9 F :   -0.277061
  10 H :    0.021618
  11 H :    0.007078
  12 O :   -0.445182
  13 C :   -0.017567
  14 H :    0.027045
  15 H :    0.017199
  16 C :   -0.035938
  17 H :   -0.001348
  18 H :    0.027106
  19 C :   -0.029198
  20 H :    0.024331
  21 H :    0.002279
  22 C :   -0.032820
  23 H :    0.023632
  24 H :    0.021370
  25 C :   -0.024928
  26 H :    0.021655
  27 H :    0.026308
  28 C :   -0.035364
  29 H :    0.037473
  30 H :   -0.004060
  31 H :    0.027824
  32 H :    0.037975
  33 H :    0.026371
  34 H :    0.028313

  Mayer bond orders larger than 0.100000
B(  0-C ,  1-C ) :   0.8641 B(  0-C ,  2-C ) :   1.1901 B(  0-C ,  5-H ) :   0.4586
B(  0-C ,  6-H ) :   0.1076 B(  0-C ,  7-H ) :   0.4540 B(  0-C , 10-H ) :   0.8153
B(  0-C , 11-H ) :   0.7116 B(  0-C , 13-C ) :   0.1269 B(  0-C , 14-H ) :   0.1479
B(  0-C , 15-H ) :   0.2035 B(  1-C ,  5-H ) :  -0.6648 B(  1-C ,  6-H ) :   0.4766
B(  1-C ,  7-H ) :  -0.9878 B(  1-C , 11-H ) :   0.2408 B(  2-C ,  7-H ) :  -0.1295
B(  2-C , 11-H ) :   0.1179 B(  2-C , 13-C ) :   1.1666 B(  2-C , 14-H ) :   0.6268
B(  2-C , 15-H ) :   0.6808 B(  2-C , 17-H ) :   0.1579 B(  3-C ,  4-S ) :   0.8831
B(  3-C , 12-O ) :   0.1138 B(  3-C , 25-C ) :   0.1249 B(  3-C , 28-C ) :   1.2002
B(  3-C , 31-H ) :   0.1062 B(  3-C , 33-H ) :   0.8569 B(  3-C , 34-H ) :   0.7127
B(  4-S ,  8-O ) :   1.4596 B(  4-S ,  9-F ) :   0.5819 B(  4-S , 12-O ) :   1.5231
B(  4-S , 33-H ) :   0.1001 B(  5-H ,  6-H ) :  -0.1614 B(  5-H ,  7-H ) :   1.0320
B(  5-H ,  9-F ) :   0.2331 B(  6-H ,  7-H ) :   0.2138 B(  7-H ,  9-F ) :   0.1264
B(  7-H , 17-H ) :   0.1807 B(  8-O , 12-O ) :   0.1073 B( 10-H , 11-H ) :  -0.1212
B( 11-H , 21-H ) :   0.1130 B( 13-C , 14-H ) :   0.2379 B( 13-C , 15-H ) :   0.1608
B( 13-C , 16-C ) :   1.1196 B( 13-C , 17-H ) :   0.5616 B( 13-C , 18-H ) :   0.6804
B( 13-C , 20-H ) :   0.1986 B( 13-C , 21-H ) :   0.1019 B( 14-H , 15-H ) :  -0.1785
B( 16-C , 17-H ) :   0.2479 B( 16-C , 18-H ) :   0.2057 B( 16-C , 19-C ) :   1.1552
B( 16-C , 20-H ) :   0.9068 B( 16-C , 21-H ) :   0.8475 B( 16-C , 22-C ) :   0.1650
B( 16-C , 23-H ) :   0.1603 B( 16-C , 24-H ) :   0.3124 B( 17-H , 26-H ) :   0.1130
B( 19-C , 22-C ) :   1.1162 B( 19-C , 23-H ) :   0.6133 B( 19-C , 24-H ) :   0.6170
B( 22-C , 23-H ) :   0.2694 B( 22-C , 24-H ) :   0.1247 B( 22-C , 25-C ) :   1.2248
B( 22-C , 26-H ) :   0.7782 B( 22-C , 27-H ) :   0.9622 B( 22-C , 28-C ) :   0.1506
B( 22-C , 29-H ) :   0.1091 B( 22-C , 30-H ) :   0.1782 B( 23-H , 24-H ) :  -0.1360
B( 25-C , 26-H ) :   0.1199 B( 25-C , 27-H ) :   0.1756 B( 25-C , 28-C ) :   1.1349
B( 25-C , 29-H ) :   0.6281 B( 25-C , 30-H ) :   0.5962 B( 25-C , 32-H ) :   0.2076
B( 28-C , 29-H ) :   0.1410 B( 28-C , 31-H ) :   0.8146 B( 28-C , 32-H ) :   0.7402
B( 28-C , 34-H ) :   0.2282 B( 29-H , 30-H ) :   0.3027

FINAL SINGLE POINT ENERGY     -1041.219979848570

DIPOLE MOMENT
-------------
                                X             Y             Z
Electronic contribution:     -9.57232     -19.48638     -11.02612
Nuclear contribution   :      8.71934      19.48829      12.54264
                        -----------------------------------------
Total Dipole Moment    :     -0.85298       0.00191       1.51652
                        -----------------------------------------
Magnitude (a.u.)       :      1.73995
Magnitude (Debye)      :      4.42259

Rotational constants in cm-1:     0.025810     0.015137     0.010647
Rotational constants in MHz :   773.773140   453.802427   319.195213

                             ****ORCA TERMINATED NORMALLY****
TOTAL RUN TIME: 0 days 0 hours 5 minutes 22 seconds 656 msec
