                         Program Version 5.0.0 -  RELEASE  -
|  1> !TPSS D3BJ RIJCOSX def2-SVPD def2/J TightSCF
|  2> *xyz -1 1
|  3> C          4.12921        0.89839       -3.41895
|  4> C          5.01734        1.31521       -2.22130
|  5> O          4.73706        0.85411       -1.12283
|  6> O          5.92815        2.16811       -2.49136
|  7> H          4.48610        1.37210       -4.30953
|  8> H          3.11885        1.19903       -3.23540
|  9> H          4.16886       -0.16404       -3.53966
| 10> *
| 11> %MaxCore 64000
| 12>
| 13> %pal nprocs 4
| 14> end
| 15>
| 16> %scf
| 17>   MaxIter 150
| 18> end
| 19>
| 20>
| 21>                          ****END OF INPUT****

CARTESIAN COORDINATES (ANGSTROEM)
---------------------------------
  C      4.129210    0.898390   -3.418950
  C      5.017340    1.315210   -2.221300
  O      4.737060    0.854110   -1.122830
  O      5.928150    2.168110   -2.491360
  H      4.486100    1.372100   -4.309530
  H      3.118850    1.199030   -3.235400
  H      4.168860   -0.164040   -3.539660

 Total Charge           Charge          ....   -1
 Multiplicity           Mult            ....    1
 Number of Electrons    NEL             ....   32
 Basis Dimension        Dim             ....  110

ORBITAL ENERGIES
----------------

  NO   OCC          E(Eh)            E(eV)
   0   2.0000     -18.640212      -507.2260
   1   2.0000     -18.631403      -506.9863
   2   2.0000      -9.874939      -268.7108
   3   2.0000      -9.810768      -266.9646
   4   2.0000      -0.742136       -20.1945
   5   2.0000      -0.649698       -17.6792
   6   2.0000      -0.477242       -12.9864
   7   2.0000      -0.248839        -6.7713
   8   2.0000      -0.215632        -5.8676
   9   2.0000      -0.199875        -5.4389
  10   2.0000      -0.175120        -4.7652
  11   2.0000      -0.138887        -3.7793
  12   2.0000      -0.126807        -3.4506
  13   2.0000      -0.011888        -0.3235
  14   2.0000       0.002498         0.0680
  15   2.0000       0.017704         0.4818
  16   0.0000       0.164100         4.4654
  17   0.0000       0.204237         5.5576
  18   0.0000       0.207220         5.6387
  19   0.0000       0.231600         6.3022
  20   0.0000       0.249437         6.7875

MULLIKEN ATOMIC CHARGES
-----------------------
   0 C :    0.387597
   1 C :    0.043661
   2 O :   -0.608577
   3 O :   -0.685639
   4 H :   -0.060552
   5 H :   -0.038718
   6 H :   -0.037772
Sum of atomic charges:   -1.0000000

LOEWDIN ATOMIC CHARGES
----------------------
   0 C :    0.150107
   1 C :   -0.332197
   2 O :   -0.313110
   3 O :   -0.354173
   4 H :   -0.054359
   5 H :   -0.046939
   6 H :   -0.049328

  Mayer bond orders larger than 0.100000
B(  0-C ,  1-C ) :   1.2441 B(  0-C ,  4-H ) :   0.9034 B(  0-C ,  5-H ) :   0.8563
B(  0-C ,  6-H ) :   0.8488 B(  1-C ,  2-O ) :   1.5214 B(  1-C ,  3-O ) :   1.4112
B(  1-C ,  4-H ) :   0.2270 B(  1-C ,  5-H ) :   0.1487 B(  1-C ,  6-H ) :   0.1560

Dispersion correction           -0.004506523
FINAL SINGLE POINT ENERGY      -228.404475535626

DIPOLE MOMENT
-------------
                                X             Y             Z
Electronic contribution:      2.08456       0.96973       2.95274
Nuclear contribution   :     -2.87913      -1.42371      -3.86600
                        -----------------------------------------
Total Dipole Moment    :     -0.79457      -0.45399      -0.91326
                        -----------------------------------------
Magnitude (a.u.)       :      1.29286
Magnitude (Debye)      :      3.28619

Rotational constants in cm-1:     0.390018     0.334370     0.186171
Rotational constants in MHz : 11692.450907 10024.149143  5581.251544

                             ****ORCA TERMINATED NORMALLY****
TOTAL RUN TIME: 0 days 0 hours 0 minutes 4 seconds 818 msec
