                         Program Version 5.0.0 -  RELEASE  -
|  1> !TPSS D3BJ RIJCOSX def2-SVPD def2/J TightSCF
|  2> *xyz 1 1
|  3> C          3.34350        3.35457       -3.59200
|  4> C          4.25587        3.70385       -4.72605
|  5> N          3.73403        4.29378       -5.80077
|  6> N          5.51504        3.40725       -4.63718
|  7> H          6.14919        3.60120       -5.39905
|  8> H          5.81358        2.89950       -3.80879
|  9> H          2.74138        4.51311       -5.82470
| 10> H          4.28755        4.52126       -6.61434
| 11> H          2.34726        3.66659       -3.82664
| 12> H          3.67283        3.85124       -2.70331
| 13> H          3.35820        2.29620       -3.43538
| 14> *
| 15> %MaxCore 64000
| 16>
| 17> %pal nprocs 4
| 18> end
| 19>
| 20> %scf
| 21>   MaxIter 150
| 22> end
| 23>
| 24>
| 25>                          ****END OF INPUT****

CARTESIAN COORDINATES (ANGSTROEM)
---------------------------------
  C      3.343500    3.354570   -3.592000
  C      4.255870    3.703850   -4.726050
  N      3.734030    4.293780   -5.800770
  N      5.515040    3.407250   -4.637180
  H      6.149190    3.601200   -5.399050
  H      5.813580    2.899500   -3.808790
  H      2.741380    4.513110   -5.824700
  H      4.287550    4.521260   -6.614340
  H      2.347260    3.666590   -3.826640
  H      3.672830    3.851240   -2.703310
  H      3.358200    2.296200   -3.435380

 Total Charge           Charge          ....    1
 Multiplicity           Mult            ....    1
 Number of Electrons    NEL             ....   32
 Basis Dimension        Dim             ....  136

ORBITAL ENERGIES
----------------

  NO   OCC          E(Eh)            E(eV)
   0   2.0000     -14.372348      -391.0915
   1   2.0000     -14.369248      -391.0071
   2   2.0000     -10.322190      -280.8811
   3   2.0000     -10.201709      -277.6026
   4   2.0000      -1.137220       -30.9453
   5   2.0000      -1.048366       -28.5275
   6   2.0000      -0.895617       -24.3710
   7   2.0000      -0.792395       -21.5622
   8   2.0000      -0.739184       -20.1142
   9   2.0000      -0.726106       -19.7584
  10   2.0000      -0.667392       -18.1607
  11   2.0000      -0.619868       -16.8675
  12   2.0000      -0.578563       -15.7435
  13   2.0000      -0.564881       -15.3712
  14   2.0000      -0.540285       -14.7019
  15   2.0000      -0.464314       -12.6346
  16   0.0000      -0.243720        -6.6319
  17   0.0000      -0.177989        -4.8433
  18   0.0000      -0.132618        -3.6087
  19   0.0000      -0.130981        -3.5642
  20   0.0000      -0.108144        -2.9427

MULLIKEN ATOMIC CHARGES
-----------------------
   0 C :    0.553581
   1 C :    0.446381
   2 N :   -0.083905
   3 N :    0.126304
   4 H :   -0.143282
   5 H :    0.065054
   6 H :    0.070960
   7 H :   -0.121762
   8 H :    0.021788
   9 H :    0.035793
  10 H :    0.029087
Sum of atomic charges:    1.0000000

LOEWDIN ATOMIC CHARGES
----------------------
   0 C :    0.243779
   1 C :   -0.066560
   2 N :    0.283382
   3 N :    0.282769
   4 H :    0.053080
   5 H :    0.064638
   6 H :    0.051895
   7 H :    0.044438
   8 H :    0.002383
   9 H :    0.020083
  10 H :    0.020112

  Mayer bond orders larger than 0.100000
B(  0-C ,  1-C ) :   1.2466 B(  0-C ,  8-H ) :   0.7949 B(  0-C ,  9-H ) :   0.7685
B(  0-C , 10-H ) :   0.7905 B(  1-C ,  2-N ) :   0.9273 B(  1-C ,  3-N ) :   1.2103
B(  1-C ,  4-H ) :  -0.1629 B(  1-C ,  7-H ) :  -0.2606 B(  1-C ,  8-H ) :   0.2326
B(  1-C ,  9-H ) :   0.1629 B(  1-C , 10-H ) :   0.1407 B(  2-N ,  3-N ) :   0.1820
B(  2-N ,  6-H ) :   1.0597 B(  2-N ,  7-H ) :   1.3715 B(  3-N ,  4-H ) :   1.2735
B(  3-N ,  5-H ) :   1.0749 B(  4-H ,  5-H ) :  -0.1466 B(  6-H ,  7-H ) :  -0.1742
B(  9-H , 10-H ) :   0.1015

Dispersion correction           -0.008450509
FINAL SINGLE POINT ENERGY      -189.627570744907

DIPOLE MOMENT
-------------
                                X             Y             Z
Electronic contribution:      1.43138       0.51202      -1.62209
Nuclear contribution   :     -1.09951      -0.46604       1.22975
                        -----------------------------------------
Total Dipole Moment    :      0.33187       0.04598      -0.39233
                        -----------------------------------------
Magnitude (a.u.)       :      0.51593
Magnitude (Debye)      :      1.31138

Rotational constants in cm-1:     0.329035     0.303839     0.162676
Rotational constants in MHz :  9864.215808  9108.853745  4876.907929

                             ****ORCA TERMINATED NORMALLY****
TOTAL RUN TIME: 0 days 0 hours 0 minutes 5 seconds 958 msec
