                         Program Version 5.0.0 -  RELEASE  -
|  1> !TPSS D3BJ RIJCOSX def2-SVPD def2/J TightSCF xyzfile
|  2>
|  3> *xyzfile 0 1 B.xyz
|  4>
|  5> %MaxCore 64000
|  6>
|  7> %pal nprocs 4
|  8> end
|  9>
| 10> %scf
| 11>   MaxIter 150
| 12> end
| 13>
| 14>
| 15>                          ****END OF INPUT****

CARTESIAN COORDINATES (ANGSTROEM)
---------------------------------
  C      3.343500    3.354571   -3.591998
  C      2.952633    1.863077   -3.574849
  C      4.129209    0.898394   -3.418950
  H      3.733687   -0.100605   -3.237633
  H      4.719095    0.862556   -4.339005
  C      5.017344    1.315212   -2.221305
  C      4.255868    3.703851   -4.726054
  N      3.734032    4.293783   -5.800770
  N      5.515039    3.407255   -4.637185
  H      6.149187    3.601203   -5.399053
  H      5.813584    2.899504   -3.808785
  H      2.741380    4.513109   -5.824701
  H      4.287548    4.521260   -6.614341
  H      2.278938    1.735250   -2.725496
  H      2.377466    1.625787   -4.475869
  O      4.737055    0.854112   -1.122825
  O      5.928146    2.168108   -2.491365
  H      3.861246    3.597252   -2.662979
  H      2.446493    3.973461   -3.656556

 Total Charge           Charge          ....    0
 Multiplicity           Mult            ....    1
 Number of Electrons    NEL             ....   70
 Basis Dimension        Dim             ....  266

ORBITAL ENERGIES
----------------

  NO   OCC          E(Eh)            E(eV)
   0   2.0000     -18.813587      -511.9437
   1   2.0000     -18.799791      -511.5683
   2   2.0000     -14.216848      -386.8601
   3   2.0000     -14.176243      -385.7552
   4   2.0000     -10.151564      -276.2381
   5   2.0000     -10.045270      -273.3457
   6   2.0000     -10.042003      -273.2568
   7   2.0000     -10.021126      -272.6887
   8   2.0000      -9.980386      -271.5801
   9   2.0000      -0.970683       -26.4136
  10   2.0000      -0.913967       -24.8703
  11   2.0000      -0.880698       -23.9650
  12   2.0000      -0.828375       -22.5412
  13   2.0000      -0.759409       -20.6646
  14   2.0000      -0.678228       -18.4555
  15   2.0000      -0.623571       -16.9682
  16   2.0000      -0.581504       -15.8235
  17   2.0000      -0.573885       -15.6162
  18   2.0000      -0.538651       -14.6574
  19   2.0000      -0.499265       -13.5857
  20   2.0000      -0.457991       -12.4626
  21   2.0000      -0.439914       -11.9707
  22   2.0000      -0.421437       -11.4679
  23   2.0000      -0.402436       -10.9508
  24   2.0000      -0.384195       -10.4545
  25   2.0000      -0.354631        -9.6500
  26   2.0000      -0.340649        -9.2695
  27   2.0000      -0.331632        -9.0242
  28   2.0000      -0.325102        -8.8465
  29   2.0000      -0.300585        -8.1793
  30   2.0000      -0.293886        -7.9971
  31   2.0000      -0.290272        -7.8987
  32   2.0000      -0.185264        -5.0413
  33   2.0000      -0.173809        -4.7296
  34   2.0000      -0.151150        -4.1130
  35   0.0000      -0.081099        -2.2068
  36   0.0000      -0.044611        -1.2139
  37   0.0000      -0.007256        -0.1974
  38   0.0000       0.013213         0.3595
  39   0.0000       0.024647         0.6707

MULLIKEN ATOMIC CHARGES
-----------------------
   0 C :    0.045062
   1 C :   -0.041083
   2 C :    0.179898
   3 H :   -0.148877
   4 H :    0.094803
   5 C :    0.511707
   6 C :    0.826828
   7 N :   -0.073341
   8 N :    0.335261
   9 H :   -0.174185
  10 H :   -0.170910
  11 H :   -0.017976
  12 H :   -0.159794
  13 H :    0.077504
  14 H :   -0.133479
  15 O :   -0.599608
  16 O :   -0.660005
  17 H :    0.239399
  18 H :   -0.131204
Sum of atomic charges:    0.0000000

LOEWDIN ATOMIC CHARGES
----------------------
   0 C :    0.057835
   1 C :    0.006344
   2 C :    0.036411
   3 H :    0.016811
   4 H :    0.002156
   5 C :   -0.226198
   6 C :   -0.043953
   7 N :    0.246171
   8 N :    0.308916
   9 H :    0.036387
  10 H :   -0.132662
  11 H :    0.028483
  12 H :    0.021230
  13 H :    0.032375
  14 H :    0.013357
  15 O :   -0.211591
  16 O :   -0.249610
  17 H :    0.038834
  18 H :    0.018706

  Mayer bond orders larger than 0.100000
B(  0-C ,  1-C ) :   1.2238 B(  0-C ,  6-C ) :   1.0415 B(  0-C , 13-H ) :   0.1120
B(  0-C , 14-H ) :   0.1287 B(  0-C , 17-H ) :   0.7211 B(  0-C , 18-H ) :   0.9309
B(  1-C ,  2-C ) :   1.2710 B(  1-C ,  3-H ) :   0.1671 B(  1-C ,  4-H ) :   0.1537
B(  1-C , 13-H ) :   0.8519 B(  1-C , 14-H ) :   0.9518 B(  1-C , 17-H ) :   0.1288
B(  1-C , 18-H ) :   0.1598 B(  2-C ,  3-H ) :   0.8533 B(  2-C ,  4-H ) :   0.8279
B(  2-C ,  5-C ) :   1.0003 B(  2-C , 13-H ) :   0.1354 B(  3-H ,  5-C ) :   0.1563
B(  5-C , 15-O ) :   1.5102 B(  5-C , 16-O ) :   1.2174 B(  6-C ,  7-N ) :   0.9020
B(  6-C ,  8-N ) :   1.1213 B(  6-C ,  9-H ) :  -0.2413 B(  6-C , 11-H ) :  -0.1273
B(  6-C , 12-H ) :  -0.1816 B(  7-N ,  8-N ) :   0.1859 B(  7-N , 11-H ) :   1.1790
B(  7-N , 12-H ) :   1.3433 B(  8-N ,  9-H ) :   1.3605 B(  8-N , 10-H ) :   1.0413
B(  9-H , 10-H ) :  -0.2521 B( 10-H , 16-O ) :   0.2253 B( 11-H , 12-H ) :  -0.1758
B( 15-O , 16-O ) :   0.1486

Dispersion correction           -0.023479983
FINAL SINGLE POINT ENERGY      -456.301238870239

DIPOLE MOMENT
-------------
                                X             Y             Z
Electronic contribution:      3.94559      -0.00289       2.67147
Nuclear contribution   :     -5.42217       2.65262      -7.07590
                        -----------------------------------------
Total Dipole Moment    :     -1.47658       2.64973      -4.40443
                        -----------------------------------------
Magnitude (a.u.)       :      5.34793
Magnitude (Debye)      :     13.59336

Rotational constants in cm-1:     0.107541     0.035862     0.030371
Rotational constants in MHz :  3223.996852  1075.120464   910.508313

                             ****ORCA TERMINATED NORMALLY****
TOTAL RUN TIME: 0 days 0 hours 0 minutes 28 seconds 535 msec
