                         Program Version 5.0.0 -  RELEASE  -
|  1> !TPSS D3BJ RIJCOSX def2-SVPD def2/J TightSCF
|  2> *xyz 0 1
|  3> C          4.12921        0.89839       -3.41895
|  4> C          5.01734        1.31521       -2.22130
|  5> F          4.73706        0.85411       -1.12283
|  6> O          5.92815        2.16811       -2.49136
|  7> H          4.48610        1.37210       -4.30953
|  8> H          3.11885        1.19903       -3.23540
|  9> H          4.16886       -0.16404       -3.53966
| 10> *
| 11> %MaxCore 64000
| 12>
| 13> %pal nprocs 4
| 14> end
| 15>
| 16> %scf
| 17>   MaxIter 150
| 18> end
| 19>
| 20>
| 21>                          ****END OF INPUT****

CARTESIAN COORDINATES (ANGSTROEM)
---------------------------------
  C      4.129210    0.898390   -3.418950
  C      5.017340    1.315210   -2.221300
  F      4.737060    0.854110   -1.122830
  O      5.928150    2.168110   -2.491360
  H      4.486100    1.372100   -4.309530
  H      3.118850    1.199030   -3.235400
  H      4.168860   -0.164040   -3.539660

 Total Charge           Charge          ....    0
 Multiplicity           Mult            ....    1
 Number of Electrons    NEL             ....   32
 Basis Dimension        Dim             ....  110

ORBITAL ENERGIES
----------------

  NO   OCC          E(Eh)            E(eV)
   0   2.0000     -24.512274      -667.0129
   1   2.0000     -18.905670      -514.4494
   2   2.0000     -10.178966      -276.9838
   3   2.0000     -10.028376      -272.8860
   4   2.0000      -1.253233       -34.1022
   5   2.0000      -0.944835       -25.7103
   6   2.0000      -0.707385       -19.2489
   7   2.0000      -0.614732       -16.7277
   8   2.0000      -0.511936       -13.9305
   9   2.0000      -0.502862       -13.6836
  10   2.0000      -0.452020       -12.3001
  11   2.0000      -0.405215       -11.0265
  12   2.0000      -0.393336       -10.7032
  13   2.0000      -0.352096        -9.5810
  14   2.0000      -0.314597        -8.5606
  15   2.0000      -0.245186        -6.6718
  16   0.0000      -0.065541        -1.7835
  17   0.0000       0.001670         0.0454
  18   0.0000       0.047825         1.3014
  19   0.0000       0.072668         1.9774
  20   0.0000       0.082378         2.2416

MULLIKEN ATOMIC CHARGES
-----------------------
   0 C :    0.352711
   1 C :    0.466249
   2 F :   -0.328778
   3 O :   -0.511501
   4 H :   -0.038472
   5 H :    0.031482
   6 H :    0.028308
Sum of atomic charges:   -0.0000000

LOEWDIN ATOMIC CHARGES
----------------------
   0 C :    0.224133
   1 C :   -0.038158
   2 F :   -0.007193
   3 O :   -0.149624
   4 H :   -0.008455
   5 H :   -0.009032
   6 H :   -0.011672

  Mayer bond orders larger than 0.100000
B(  0-C ,  1-C ) :   1.2243 B(  0-C ,  4-H ) :   0.9111 B(  0-C ,  5-H ) :   0.8320
B(  0-C ,  6-H ) :   0.8284 B(  1-C ,  2-F ) :   0.7944 B(  1-C ,  3-O ) :   1.7525
B(  1-C ,  4-H ) :   0.1908 B(  1-C ,  5-H ) :   0.1092 B(  1-C ,  6-H ) :   0.1137

Dispersion correction           -0.004152353
FINAL SINGLE POINT ENERGY      -252.930925816011

DIPOLE MOMENT
-------------
                                X             Y             Z
Electronic contribution:      1.74732       0.24091       4.86814
Nuclear contribution   :     -2.65749      -0.95231      -5.09883
                        -----------------------------------------
Total Dipole Moment    :     -0.91017      -0.71140      -0.23069
                        -----------------------------------------
Magnitude (a.u.)       :      1.17802
Magnitude (Debye)      :      2.99428

Rotational constants in cm-1:     0.365278     0.322469     0.176821
Rotational constants in MHz : 10950.755781  9667.377070  5300.957073

                             ****ORCA TERMINATED NORMALLY****
TOTAL RUN TIME: 0 days 0 hours 0 minutes 4 seconds 643 msec
