                         Program Version 5.0.0 -  RELEASE  -
|  1> !TPSS D3BJ RIJCOSX def2-SVPD def2/J TightSCF
|  2> *xyz 0 1
|  3> C          3.34350        3.35457       -3.59200
|  4> C          4.25587        3.70385       -4.72605
|  5> C          3.73403        4.29378       -5.80077
|  6> N          5.51504        3.40725       -4.63718
|  7> H          6.14919        3.60120       -5.39905
|  8> H          5.81358        2.89950       -3.80879
|  9> H          2.74138        4.51311       -5.82470
| 10> H          4.28755        4.52126       -6.61434
| 11> H          2.34726        3.66659       -3.82664
| 12> H          3.67283        3.85124       -2.70331
| 13> H          3.35820        2.29620       -3.43538
| 14> *
| 15> %MaxCore 64000
| 16>
| 17> %pal nprocs 4
| 18> end
| 19>
| 20> %scf
| 21>   MaxIter 150
| 22> end
| 23>
| 24>
| 25>                          ****END OF INPUT****

CARTESIAN COORDINATES (ANGSTROEM)
---------------------------------
  C      3.343500    3.354570   -3.592000
  C      4.255870    3.703850   -4.726050
  C      3.734030    4.293780   -5.800770
  N      5.515040    3.407250   -4.637180
  H      6.149190    3.601200   -5.399050
  H      5.813580    2.899500   -3.808790
  H      2.741380    4.513110   -5.824700
  H      4.287550    4.521260   -6.614340
  H      2.347260    3.666590   -3.826640
  H      3.672830    3.851240   -2.703310
  H      3.358200    2.296200   -3.435380

 Total Charge           Charge          ....    0
 Multiplicity           Mult            ....    1
 Number of Electrons    NEL             ....   32
 Basis Dimension        Dim             ....  136

ORBITAL ENERGIES
----------------

  NO   OCC          E(Eh)            E(eV)
   0   2.0000     -14.122799      -384.3009
   1   2.0000     -10.014680      -272.5133
   2   2.0000      -9.992148      -271.9002
   3   2.0000      -9.932336      -270.2726
   4   2.0000      -0.864952       -23.5365
   5   2.0000      -0.692833       -18.8529
   6   2.0000      -0.626653       -17.0521
   7   2.0000      -0.525496       -14.2995
   8   2.0000      -0.488657       -13.2970
   9   2.0000      -0.428539       -11.6611
  10   2.0000      -0.392311       -10.6753
  11   2.0000      -0.358043        -9.7429
  12   2.0000      -0.350850        -9.5471
  13   2.0000      -0.312427        -8.5016
  14   2.0000      -0.299013        -8.1366
  15   2.0000      -0.157531        -4.2866
  16   0.0000       0.006821         0.1856
  17   0.0000       0.027150         0.7388
  18   0.0000       0.043924         1.1952
  19   0.0000       0.053161         1.4466
  20   0.0000       0.077449         2.1075

MULLIKEN ATOMIC CHARGES
-----------------------
   0 C :    0.781289
   1 C :   -0.485106
   2 C :    0.344621
   3 N :    0.277152
   4 H :   -0.204252
   5 H :   -0.126430
   6 H :   -0.076250
   7 H :   -0.449488
   8 H :    0.016115
   9 H :   -0.039109
  10 H :   -0.038543
Sum of atomic charges:    0.0000000

LOEWDIN ATOMIC CHARGES
----------------------
   0 C :    0.172276
   1 C :   -0.297538
   2 C :    0.175285
   3 N :    0.164652
   4 H :    0.011670
   5 H :    0.007773
   6 H :   -0.088644
   7 H :   -0.094396
   8 H :   -0.018355
   9 H :   -0.016638
  10 H :   -0.016085

  Mayer bond orders larger than 0.100000
B(  0-C ,  1-C ) :   1.2505 B(  0-C ,  8-H ) :   0.8027 B(  0-C ,  9-H ) :   0.6793
B(  0-C , 10-H ) :   0.6992 B(  1-C ,  2-C ) :   1.6232 B(  1-C ,  3-N ) :   1.2573
B(  1-C ,  7-H ) :   0.1286 B(  1-C ,  8-H ) :   0.2209 B(  1-C ,  9-H ) :   0.2682
B(  1-C , 10-H ) :   0.2506 B(  2-C ,  3-N ) :   0.2601 B(  2-C ,  6-H ) :   0.9653
B(  2-C ,  7-H ) :   0.8507 B(  3-N ,  4-H ) :   1.2305 B(  3-N ,  5-H ) :   1.1270
B(  4-H ,  5-H ) :  -0.1134 B(  8-H , 10-H ) :   0.1035

Dispersion correction           -0.008879756
FINAL SINGLE POINT ENERGY      -173.169181407394

DIPOLE MOMENT
-------------
                                X             Y             Z
Electronic contribution:      1.78731      -0.03643      -0.57527
Nuclear contribution   :     -1.20871      -0.33119       0.98382
                        -----------------------------------------
Total Dipole Moment    :      0.57860      -0.36762       0.40854
                        -----------------------------------------
Magnitude (a.u.)       :      0.79802
Magnitude (Debye)      :      2.02841

Rotational constants in cm-1:     0.348453     0.308655     0.168735
Rotational constants in MHz : 10446.369928  9253.232733  5058.539653

                             ****ORCA TERMINATED NORMALLY****
TOTAL RUN TIME: 0 days 0 hours 0 minutes 7 seconds 14 msec
