                         Program Version 5.0.0 -  RELEASE  -
|  1> !TPSS D3BJ RIJCOSX def2-SVPD def2/J TightSCF
|  2> *xyz 0 1
|  3> C          4.12921        0.89839       -3.41895
|  4> C          5.01734        1.31521       -2.22130
|  5> O          4.73706        0.85411       -1.12283
|  6> F          5.92815        2.16811       -2.49136
|  7> H          4.48610        1.37210       -4.30953
|  8> H          3.11885        1.19903       -3.23540
|  9> H          4.16886       -0.16404       -3.53966
| 10> *
| 11> %MaxCore 64000
| 12>
| 13> %pal nprocs 4
| 14> end
| 15>
| 16> %scf
| 17>   MaxIter 150
| 18> end
| 19>
| 20>
| 21>                          ****END OF INPUT****

CARTESIAN COORDINATES (ANGSTROEM)
---------------------------------
  C      4.129210    0.898390   -3.418950
  C      5.017340    1.315210   -2.221300
  O      4.737060    0.854110   -1.122830
  F      5.928150    2.168110   -2.491360
  H      4.486100    1.372100   -4.309530
  H      3.118850    1.199030   -3.235400
  H      4.168860   -0.164040   -3.539660

 Total Charge           Charge          ....    0
 Multiplicity           Mult            ....    1
 Number of Electrons    NEL             ....   32
 Basis Dimension        Dim             ....  110

ORBITAL ENERGIES
----------------

  NO   OCC          E(Eh)            E(eV)
   0   2.0000     -24.492130      -666.4647
   1   2.0000     -18.914447      -514.6883
   2   2.0000     -10.175135      -276.8795
   3   2.0000     -10.028479      -272.8888
   4   2.0000      -1.213642       -33.0249
   5   2.0000      -0.976979       -26.5849
   6   2.0000      -0.706264       -19.2184
   7   2.0000      -0.594474       -16.1765
   8   2.0000      -0.489576       -13.3220
   9   2.0000      -0.486720       -13.2443
  10   2.0000      -0.452759       -12.3202
  11   2.0000      -0.404082       -10.9956
  12   2.0000      -0.393864       -10.7176
  13   2.0000      -0.358248        -9.7484
  14   2.0000      -0.329559        -8.9678
  15   2.0000      -0.259470        -7.0605
  16   0.0000      -0.063065        -1.7161
  17   0.0000       0.002115         0.0575
  18   0.0000       0.048984         1.3329
  19   0.0000       0.076155         2.0723
  20   0.0000       0.077001         2.0953

MULLIKEN ATOMIC CHARGES
-----------------------
   0 C :    0.340912
   1 C :    0.440279
   2 O :   -0.460502
   3 F :   -0.365529
   4 H :   -0.021050
   5 H :    0.034916
   6 H :    0.030973
Sum of atomic charges:   -0.0000000

LOEWDIN ATOMIC CHARGES
----------------------
   0 C :    0.226754
   1 C :   -0.034742
   2 O :   -0.114797
   3 F :   -0.048099
   4 H :   -0.022137
   5 H :   -0.002836
   6 H :   -0.004143

  Mayer bond orders larger than 0.100000
B(  0-C ,  1-C ) :   1.2337 B(  0-C ,  4-H ) :   0.9029 B(  0-C ,  5-H ) :   0.8360
B(  0-C ,  6-H ) :   0.8296 B(  1-C ,  2-O ) :   1.8018 B(  1-C ,  3-F ) :   0.7604
B(  1-C ,  4-H ) :   0.1424 B(  1-C ,  5-H ) :   0.1201 B(  1-C ,  6-H ) :   0.1296

Dispersion correction           -0.004153662
FINAL SINGLE POINT ENERGY      -252.945965494113

DIPOLE MOMENT
-------------
                                X             Y             Z
Electronic contribution:      3.66544       2.35605       2.65790
Nuclear contribution   :     -3.88824      -2.31007      -3.68473
                        -----------------------------------------
Total Dipole Moment    :     -0.22280       0.04598      -1.02682
                        -----------------------------------------
Magnitude (a.u.)       :      1.05172
Magnitude (Debye)      :      2.67326

Rotational constants in cm-1:     0.367620     0.319924     0.176595
Rotational constants in MHz : 11020.955969  9591.092757  5294.190719

                             ****ORCA TERMINATED NORMALLY****
TOTAL RUN TIME: 0 days 0 hours 0 minutes 4 seconds 497 msec
