                         Program Version 5.0.0 -  RELEASE  -
|  1> !TPSS D3BJ RIJCOSX def2-SVPD def2/J TightSCF
|  2> *xyz 0 1
|  3> C          3.34350        3.35457       -3.59200
|  4> C          4.25587        3.70385       -4.72605
|  5> N          3.73403        4.29378       -5.80077
|  6> C          5.51504        3.40725       -4.63718
|  7> H          6.14919        3.60120       -5.39905
|  8> H          5.81358        2.89950       -3.80879
|  9> H          2.74138        4.51311       -5.82470
| 10> H          4.28755        4.52126       -6.61434
| 11> H          2.34726        3.66659       -3.82664
| 12> H          3.67283        3.85124       -2.70331
| 13> H          3.35820        2.29620       -3.43538
| 14> *
| 15> %MaxCore 64000
| 16>
| 17> %pal nprocs 4
| 18> end
| 19>
| 20> %scf
| 21>   MaxIter 150
| 22> end
| 23>
| 24>
| 25>                          ****END OF INPUT****

CARTESIAN COORDINATES (ANGSTROEM)
---------------------------------
  C      3.343500    3.354570   -3.592000
  C      4.255870    3.703850   -4.726050
  N      3.734030    4.293780   -5.800770
  C      5.515040    3.407250   -4.637180
  H      6.149190    3.601200   -5.399050
  H      5.813580    2.899500   -3.808790
  H      2.741380    4.513110   -5.824700
  H      4.287550    4.521260   -6.614340
  H      2.347260    3.666590   -3.826640
  H      3.672830    3.851240   -2.703310
  H      3.358200    2.296200   -3.435380

 Total Charge           Charge          ....    0
 Multiplicity           Mult            ....    1
 Number of Electrons    NEL             ....   32
 Basis Dimension        Dim             ....  136

ORBITAL ENERGIES
----------------

  NO   OCC          E(Eh)            E(eV)
   0   2.0000     -14.119790      -384.2190
   1   2.0000     -10.012088      -272.4428
   2   2.0000      -9.992156      -271.9004
   3   2.0000      -9.928835      -270.1773
   4   2.0000      -0.851427       -23.1685
   5   2.0000      -0.697304       -18.9746
   6   2.0000      -0.630086       -17.1455
   7   2.0000      -0.520509       -14.1638
   8   2.0000      -0.478726       -13.0268
   9   2.0000      -0.430229       -11.7071
  10   2.0000      -0.389452       -10.5975
  11   2.0000      -0.358776        -9.7628
  12   2.0000      -0.351735        -9.5712
  13   2.0000      -0.316044        -8.6000
  14   2.0000      -0.293824        -7.9954
  15   2.0000      -0.159603        -4.3430
  16   0.0000       0.007874         0.2143
  17   0.0000       0.026000         0.7075
  18   0.0000       0.044317         1.2059
  19   0.0000       0.052547         1.4299
  20   0.0000       0.077199         2.1007

MULLIKEN ATOMIC CHARGES
-----------------------
   0 C :    0.744287
   1 C :   -0.252745
   2 N :    0.057652
   3 C :    0.260562
   4 H :   -0.352286
   5 H :   -0.087840
   6 H :   -0.085675
   7 H :   -0.187622
   8 H :   -0.128566
   9 H :    0.019504
  10 H :    0.012730
Sum of atomic charges:   -0.0000000

LOEWDIN ATOMIC CHARGES
----------------------
   0 C :    0.174068
   1 C :   -0.285412
   2 N :    0.167138
   3 C :    0.158653
   4 H :   -0.084864
   5 H :   -0.072984
   6 H :   -0.006472
   7 H :    0.001496
   8 H :   -0.032700
   9 H :   -0.009435
  10 H :   -0.009488

  Mayer bond orders larger than 0.100000
B(  0-C ,  1-C ) :   1.0794 B(  0-C ,  2-N ) :   0.1194 B(  0-C ,  3-C ) :   0.1047
B(  0-C ,  8-H ) :   0.7429 B(  0-C ,  9-H ) :   0.7512 B(  0-C , 10-H ) :   0.7624
B(  1-C ,  2-N ) :   0.9948 B(  1-C ,  3-C ) :   1.7950 B(  1-C ,  4-H ) :   0.2218
B(  1-C ,  5-H ) :   0.1437 B(  1-C ,  7-H ) :  -0.1681 B(  1-C ,  8-H ) :   0.2540
B(  1-C ,  9-H ) :   0.1760 B(  1-C , 10-H ) :   0.1606 B(  2-N ,  3-C ) :   0.2642
B(  2-N ,  6-H ) :   1.1191 B(  2-N ,  7-H ) :   1.3377 B(  3-C ,  4-H ) :   0.8072
B(  3-C ,  5-H ) :   0.8037 B(  6-H ,  7-H ) :  -0.1540

Dispersion correction           -0.008879060
FINAL SINGLE POINT ENERGY      -173.167883863149

DIPOLE MOMENT
-------------
                                X             Y             Z
Electronic contribution:      0.20284       0.75222      -1.57479
Nuclear contribution   :     -0.80929      -0.53001       1.24477
                        -----------------------------------------
Total Dipole Moment    :     -0.60644       0.22221      -0.33002
                        -----------------------------------------
Magnitude (a.u.)       :      0.72530
Magnitude (Debye)      :      1.84357

Rotational constants in cm-1:     0.352070     0.305406     0.168593
Rotational constants in MHz : 10554.792117  9155.853997  5054.288053

                             ****ORCA TERMINATED NORMALLY****
TOTAL RUN TIME: 0 days 0 hours 0 minutes 6 seconds 966 msec
