                         Program Version 5.0.0 -  RELEASE  -
|  1> !TPSS D3BJ RIJCOSX def2-SVPD def2/J TightSCF xyzfile
|  2>
|  3> *xyzfile 0 1 D1.xyz
|  4>
|  5> %MaxCore 64000
|  6>
|  7> %pal nprocs 4
|  8> end
|  9>
| 10> %scf
| 11>   MaxIter 150
| 12> end
| 13>
| 14>
| 15>                          ****END OF INPUT****

CARTESIAN COORDINATES (ANGSTROEM)
---------------------------------
  C      3.343500    3.354571   -3.591998
  C      2.952633    1.863077   -3.574849
  C      4.129209    0.898394   -3.418950
  H      3.733687   -0.100605   -3.237633
  H      4.719095    0.862556   -4.339005
  C      5.017344    1.315212   -2.221305
  C      4.255868    3.703851   -4.726054
  C      3.734032    4.293783   -5.800770
  N      5.515039    3.407255   -4.637185
  H      6.149187    3.601203   -5.399053
  H      5.813584    2.899504   -3.808785
  H      2.741380    4.513109   -5.824701
  H      4.287548    4.521260   -6.614341
  H      2.278938    1.735250   -2.725496
  H      2.377466    1.625787   -4.475869
  F      4.737055    0.854112   -1.122825
  O      5.928146    2.168108   -2.491365
  H      3.861246    3.597252   -2.662979
  H      2.446493    3.973461   -3.656556

 Total Charge           Charge          ....    0
 Multiplicity           Mult            ....    1
 Number of Electrons    NEL             ....   70
 Basis Dimension        Dim             ....  266

ORBITAL ENERGIES
----------------

  NO   OCC          E(Eh)            E(eV)
   0   2.0000     -24.531808      -667.5444
   1   2.0000     -18.931583      -515.1546
   2   2.0000     -14.085993      -383.2994
   3   2.0000     -10.200353      -277.5657
   4   2.0000     -10.041171      -273.2342
   5   2.0000     -10.024380      -272.7772
   6   2.0000     -10.003103      -272.1983
   7   2.0000     -10.002862      -272.1917
   8   2.0000      -9.922446      -270.0035
   9   2.0000      -1.271294       -34.5937
  10   2.0000      -0.979936       -26.6654
  11   2.0000      -0.844313       -22.9749
  12   2.0000      -0.758238       -20.6327
  13   2.0000      -0.688531       -18.7359
  14   2.0000      -0.648417       -17.6443
  15   2.0000      -0.620419       -16.8825
  16   2.0000      -0.577031       -15.7018
  17   2.0000      -0.531163       -14.4537
  18   2.0000      -0.521864       -14.2006
  19   2.0000      -0.500300       -13.6139
  20   2.0000      -0.495027       -13.4704
  21   2.0000      -0.459786       -12.5114
  22   2.0000      -0.440548       -11.9879
  23   2.0000      -0.417037       -11.3482
  24   2.0000      -0.401783       -10.9331
  25   2.0000      -0.386735       -10.5236
  26   2.0000      -0.354646        -9.6504
  27   2.0000      -0.347708        -9.4616
  28   2.0000      -0.337387        -9.1808
  29   2.0000      -0.334073        -9.0906
  30   2.0000      -0.322746        -8.7824
  31   2.0000      -0.291976        -7.9451
  32   2.0000      -0.284149        -7.7321
  33   2.0000      -0.265089        -7.2134
  34   2.0000      -0.143600        -3.9076
  35   0.0000      -0.090742        -2.4692
  36   0.0000      -0.003295        -0.0897
  37   0.0000       0.022005         0.5988
  38   0.0000       0.030198         0.8217
  39   0.0000       0.035928         0.9776

MULLIKEN ATOMIC CHARGES
-----------------------
   0 C :    0.364115
   1 C :   -0.049265
   2 C :    0.097381
   3 H :   -0.128107
   4 H :    0.160344
   5 C :    0.870264
   6 C :   -0.017472
   7 C :    0.221722
   8 N :    0.584831
   9 H :   -0.236358
  10 H :   -0.412609
  11 H :   -0.100484
  12 H :   -0.388039
  13 H :    0.062447
  14 H :   -0.118353
  15 F :   -0.376589
  16 O :   -0.556232
  17 H :    0.048651
  18 H :   -0.026246
Sum of atomic charges:   -0.0000000

LOEWDIN ATOMIC CHARGES
----------------------
   0 C :    0.029034
   1 C :    0.007692
   2 C :    0.069263
   3 H :    0.018342
   4 H :    0.030753
   5 C :    0.042354
   6 C :   -0.247593
   7 C :    0.173590
   8 N :    0.205416
   9 H :    0.015019
  10 H :   -0.141541
  11 H :   -0.093337
  12 H :   -0.095336
  13 H :    0.018740
  14 H :    0.029942
  15 F :    0.019936
  16 O :   -0.118172
  17 H :    0.013372
  18 H :    0.022526

  Mayer bond orders larger than 0.100000
B(  0-C ,  1-C ) :   1.1552 B(  0-C ,  6-C ) :   1.1087 B(  0-C ,  8-N ) :   0.1239
B(  0-C , 13-H ) :   0.1102 B(  0-C , 14-H ) :   0.1429 B(  0-C , 17-H ) :   0.6563
B(  0-C , 18-H ) :   0.8537 B(  1-C ,  2-C ) :   1.2774 B(  1-C ,  3-H ) :   0.1863
B(  1-C ,  4-H ) :   0.1518 B(  1-C , 13-H ) :   0.8441 B(  1-C , 14-H ) :   0.9748
B(  1-C , 17-H ) :   0.1505 B(  1-C , 18-H ) :   0.1428 B(  2-C ,  3-H ) :   0.8571
B(  2-C ,  4-H ) :   0.8351 B(  2-C ,  5-C ) :   1.0737 B(  2-C , 13-H ) :   0.1119
B(  2-C , 15-F ) :   0.1042 B(  5-C , 15-F ) :   0.6774 B(  5-C , 16-O ) :   1.5423
B(  6-C ,  7-C ) :   1.5272 B(  6-C ,  8-N ) :   1.1375 B(  6-C ,  9-H ) :  -0.1278
B(  6-C , 12-H ) :   0.1728 B(  6-C , 17-H ) :   0.1926 B(  6-C , 18-H ) :   0.1341
B(  7-C ,  8-N ) :   0.2374 B(  7-C , 11-H ) :   0.9792 B(  7-C , 12-H ) :   0.7195
B(  8-N ,  9-H ) :   1.2782 B(  8-N , 10-H ) :   0.9091 B(  9-H , 10-H ) :  -0.2229
B( 10-H , 16-O ) :   0.1609 B( 15-F , 16-O ) :   0.1123

Dispersion correction           -0.023497205
FINAL SINGLE POINT ENERGY      -464.198242725599

DIPOLE MOMENT
-------------
                                X             Y             Z
Electronic contribution:      5.56968      -5.90880      10.53299
Nuclear contribution   :     -5.86483       4.68058     -10.07545
                        -----------------------------------------
Total Dipole Moment    :     -0.29515      -1.22821       0.45755
                        -----------------------------------------
Magnitude (a.u.)       :      1.34349
Magnitude (Debye)      :      3.41489

Rotational constants in cm-1:     0.107256     0.035474     0.030113
Rotational constants in MHz :  3215.453922  1063.481574   902.777619

                             ****ORCA TERMINATED NORMALLY****
TOTAL RUN TIME: 0 days 0 hours 0 minutes 27 seconds 253 msec
