                         Program Version 5.0.0 -  RELEASE  -
|  1> !TPSS D3BJ RIJCOSX def2-SVPD def2/J TightSCF xyzfile
|  2>
|  3> *xyzfile 0 1 D4.xyz
|  4>
|  5> %MaxCore 64000
|  6>
|  7> %pal nprocs 4
|  8> end
|  9>
| 10> %scf
| 11>   MaxIter 150
| 12> end
| 13>
| 14>
| 15>                          ****END OF INPUT****

CARTESIAN COORDINATES (ANGSTROEM)
---------------------------------
  C      3.343500    3.354571   -3.591998
  C      2.952633    1.863077   -3.574849
  C      4.129209    0.898394   -3.418950
  H      3.733687   -0.100605   -3.237633
  H      4.719095    0.862556   -4.339005
  C      5.017344    1.315212   -2.221305
  C      4.255868    3.703851   -4.726054
  N      3.734032    4.293783   -5.800770
  C      5.515039    3.407255   -4.637185
  H      6.149187    3.601203   -5.399053
  H      5.813584    2.899504   -3.808785
  H      2.741380    4.513109   -5.824701
  H      4.287548    4.521260   -6.614341
  H      2.278938    1.735250   -2.725496
  H      2.377466    1.625787   -4.475869
  O      4.737055    0.854112   -1.122825
  F      5.928146    2.168108   -2.491365
  H      3.861246    3.597252   -2.662979
  H      2.446493    3.973461   -3.656556

 Total Charge           Charge          ....    0
 Multiplicity           Mult            ....    1
 Number of Electrons    NEL             ....   70
 Basis Dimension        Dim             ....  266

ORBITAL ENERGIES
----------------

  NO   OCC          E(Eh)            E(eV)
   0   2.0000     -24.492204      -666.4668
   1   2.0000     -18.913676      -514.6673
   2   2.0000     -14.123325      -384.3152
   3   2.0000     -10.170511      -276.7537
   4   2.0000     -10.026081      -272.8235
   5   2.0000     -10.020929      -272.6834
   6   2.0000     -10.014412      -272.5060
   7   2.0000     -10.011773      -272.4342
   8   2.0000      -9.923382      -270.0290
   9   2.0000      -1.220049       -33.1992
  10   2.0000      -0.975748       -26.5515
  11   2.0000      -0.856183       -23.2979
  12   2.0000      -0.755221       -20.5506
  13   2.0000      -0.692038       -18.8313
  14   2.0000      -0.650144       -17.6913
  15   2.0000      -0.614806       -16.7297
  16   2.0000      -0.566366       -15.4116
  17   2.0000      -0.533224       -14.5098
  18   2.0000      -0.492457       -13.4004
  19   2.0000      -0.485316       -13.2061
  20   2.0000      -0.477977       -13.0064
  21   2.0000      -0.457126       -12.4390
  22   2.0000      -0.437492       -11.9048
  23   2.0000      -0.419216       -11.4075
  24   2.0000      -0.405224       -11.0267
  25   2.0000      -0.376676       -10.2499
  26   2.0000      -0.359290        -9.7768
  27   2.0000      -0.346567        -9.4306
  28   2.0000      -0.338893        -9.2218
  29   2.0000      -0.327290        -8.9060
  30   2.0000      -0.314870        -8.5681
  31   2.0000      -0.296108        -8.0575
  32   2.0000      -0.292555        -7.9608
  33   2.0000      -0.253842        -6.9074
  34   2.0000      -0.164272        -4.4701
  35   0.0000      -0.062160        -1.6915
  36   0.0000      -0.000965        -0.0263
  37   0.0000       0.014989         0.4079
  38   0.0000       0.023349         0.6354
  39   0.0000       0.033651         0.9157

MULLIKEN ATOMIC CHARGES
-----------------------
   0 C :    0.195170
   1 C :   -0.005984
   2 C :    0.064071
   3 H :   -0.181475
   4 H :    0.249722
   5 C :    0.808326
   6 C :    0.325658
   7 N :   -0.024112
   8 C :    0.634067
   9 H :   -0.667247
  10 H :   -0.007820
  11 H :   -0.114309
  12 H :   -0.193636
  13 H :    0.056687
  14 H :   -0.119058
  15 O :   -0.489816
  16 F :   -0.511371
  17 H :    0.209704
  18 H :   -0.228575
Sum of atomic charges:    0.0000000

LOEWDIN ATOMIC CHARGES
----------------------
   0 C :    0.028719
   1 C :    0.006684
   2 C :    0.066733
   3 H :    0.026070
   4 H :    0.019712
   5 C :    0.009330
   6 C :   -0.230072
   7 N :    0.172330
   8 C :    0.200663
   9 H :   -0.073483
  10 H :   -0.152775
  11 H :   -0.005272
  12 H :    0.002269
  13 H :    0.024420
  14 H :    0.024695
  15 O :   -0.098097
  16 F :   -0.057499
  17 H :    0.022382
  18 H :    0.013193

  Mayer bond orders larger than 0.100000
B(  0-C ,  1-C ) :   1.1883 B(  0-C ,  6-C ) :   1.0097 B(  0-C ,  7-N ) :   0.1358
B(  0-C ,  8-C ) :   0.2135 B(  0-C , 13-H ) :   0.1069 B(  0-C , 14-H ) :   0.1388
B(  0-C , 17-H ) :   0.7333 B(  0-C , 18-H ) :   0.9338 B(  1-C ,  2-C ) :   1.2737
B(  1-C ,  3-H ) :   0.1737 B(  1-C ,  4-H ) :   0.1349 B(  1-C , 13-H ) :   0.8260
B(  1-C , 14-H ) :   0.9461 B(  1-C , 17-H ) :   0.1407 B(  1-C , 18-H ) :   0.1621
B(  2-C ,  3-H ) :   0.9107 B(  2-C ,  4-H ) :   0.7814 B(  2-C ,  5-C ) :   1.0496
B(  2-C , 10-H ) :   0.1046 B(  2-C , 13-H ) :   0.1273 B(  2-C , 16-F ) :   0.1737
B(  3-H ,  5-C ) :   0.1302 B(  5-C , 15-O ) :   1.7376 B(  5-C , 16-F ) :   0.5920
B(  6-C ,  7-N ) :   0.9572 B(  6-C ,  8-C ) :   1.7612 B(  6-C ,  9-H ) :   0.2390
B(  6-C , 10-H ) :   0.2918 B(  6-C , 12-H ) :  -0.1419 B(  6-C , 17-H ) :   0.1011
B(  7-N ,  8-C ) :   0.3046 B(  7-N , 11-H ) :   1.1839 B(  7-N , 12-H ) :   1.3642
B(  8-C ,  9-H ) :   0.9108 B(  8-C , 10-H ) :   0.4954 B(  9-H , 10-H ) :  -0.3246
B( 11-H , 12-H ) :  -0.1515 B( 15-O , 16-F ) :   0.1494

Dispersion correction           -0.023415450
FINAL SINGLE POINT ENERGY      -464.189603927647

DIPOLE MOMENT
-------------
                                X             Y             Z
Electronic contribution:      6.20334      -2.79514       7.10036
Nuclear contribution   :     -6.99695       3.07955      -8.37829
                        -----------------------------------------
Total Dipole Moment    :     -0.79361       0.28441      -1.27793
                        -----------------------------------------
Magnitude (a.u.)       :      1.53095
Magnitude (Debye)      :      3.89136

Rotational constants in cm-1:     0.106302     0.035771     0.030198
Rotational constants in MHz :  3186.860872  1072.397550   905.318354

                             ****ORCA TERMINATED NORMALLY****
TOTAL RUN TIME: 0 days 0 hours 0 minutes 26 seconds 188 msec
