                         Program Version 5.0.0 -  RELEASE  -
|  1> !B3LYP D3BJ RIJCOSX def2-SVPD def2/J TightSCF
|  2> *xyz -1 1
|  3> C          0.70466        1.44313       -4.50363
|  4> C          1.72854        1.42432       -5.63944
|  5> H          2.64672        1.95379       -5.38105
|  6> H          1.29992        1.93061       -6.50361
|  7> S          2.25263       -0.18811       -6.27184
|  8> O          3.56261       -0.44446       -5.63155
|  9> O          2.34494       -0.03374       -7.69650
| 10> C          1.05255        0.69566       -3.21491
| 11> H         -0.23248        1.03293       -4.88445
| 12> H          0.51170        2.49579       -4.26797
| 13> O          1.26606       -1.15918       -5.80536
| 14> H          1.24200       -0.33323       -3.43942
| 15> H          0.23391        0.76629       -2.52954
| 16> H          1.92506        1.13113       -2.77446
| 17> *
| 18>
| 19> %MaxCore 64000
| 20>
| 21> %pal nprocs 8
| 22> end
| 23>
| 24> %scf
| 25>   MaxIter 150
| 26> end
| 27>
| 28>
| 29>                          ****END OF INPUT****

CARTESIAN COORDINATES (ANGSTROEM)
---------------------------------
  C      0.704660    1.443130   -4.503630
  C      1.728540    1.424320   -5.639440
  H      2.646720    1.953790   -5.381050
  H      1.299920    1.930610   -6.503610
  S      2.252630   -0.188110   -6.271840
  O      3.562610   -0.444460   -5.631550
  O      2.344940   -0.033740   -7.696500
  C      1.052550    0.695660   -3.214910
  H     -0.232480    1.032930   -4.884450
  H      0.511700    2.495790   -4.267970
  O      1.266060   -1.159180   -5.805360
  H      1.242000   -0.333230   -3.439420
  H      0.233910    0.766290   -2.529540
  H      1.925060    1.131130   -2.774460

 Total Charge           Charge          ....   -1
 Multiplicity           Mult            ....    1
 Number of Electrons    NEL             ....   66
 Basis Dimension        Dim             ....  212

ORBITAL ENERGIES
----------------

  NO   OCC          E(Eh)            E(eV)
   0   2.0000     -88.882934     -2418.6276
   1   2.0000     -18.924070      -514.9501
   2   2.0000     -18.918001      -514.7850
   3   2.0000     -18.908854      -514.5361
   4   2.0000     -10.056613      -273.6543
   5   2.0000     -10.047104      -273.3956
   6   2.0000     -10.038022      -273.1485
   7   2.0000      -7.936534      -215.9641
   8   2.0000      -5.905473      -160.6961
   9   2.0000      -5.905354      -160.6929
  10   2.0000      -5.904820      -160.6783
  11   2.0000      -0.931941       -25.3594
  12   2.0000      -0.792973       -21.5779
  13   2.0000      -0.769228       -20.9318
  14   2.0000      -0.651039       -17.7157
  15   2.0000      -0.564135       -15.3509
  16   2.0000      -0.469417       -12.7735
  17   2.0000      -0.380746       -10.3606
  18   2.0000      -0.333077        -9.0635
  19   2.0000      -0.319120        -8.6837
  20   2.0000      -0.295676        -8.0458
  21   2.0000      -0.282484        -7.6868
  22   2.0000      -0.265114        -7.2141
  23   2.0000      -0.254873        -6.9355
  24   2.0000      -0.225361        -6.1324
  25   2.0000      -0.221127        -6.0172
  26   2.0000      -0.206886        -5.6297
  27   2.0000      -0.153564        -4.1787
  28   2.0000      -0.151585        -4.1248
  29   2.0000      -0.118284        -3.2187
  30   2.0000      -0.111046        -3.0217
  31   2.0000      -0.101379        -2.7587
  32   2.0000      -0.067271        -1.8305
  33   0.0000       0.133665         3.6372
  34   0.0000       0.159335         4.3357
  35   0.0000       0.167277         4.5518
  36   0.0000       0.175794         4.7836
  37   0.0000       0.195171         5.3109

MULLIKEN ATOMIC CHARGES
-----------------------
   0 C :   -0.108185
   1 C :    0.197993
   2 H :   -0.095108
   3 H :   -0.089484
   4 S :    1.331355
   5 O :   -0.819409
   6 O :   -0.808470
   7 C :    1.014359
   8 H :   -0.093288
   9 H :   -0.241104
  10 O :   -0.835297
  11 H :   -0.211851
  12 H :   -0.129646
  13 H :   -0.111864
Sum of atomic charges:   -1.0000000

LOEWDIN ATOMIC CHARGES
----------------------
   0 C :   -0.090710
   1 C :   -0.075405
   2 H :   -0.000217
   3 H :   -0.008591
   4 S :    0.870224
   5 O :   -0.600341
   6 O :   -0.572664
   7 C :    0.130941
   8 H :    0.013120
   9 H :    0.002454
  10 O :   -0.576772
  11 H :   -0.032347
  12 H :   -0.034940
  13 H :   -0.024752

  Mayer bond orders larger than 0.100000
B(  0-C ,  1-C ) :   1.2625 B(  0-C ,  2-H ) :   0.1453 B(  0-C ,  3-H ) :   0.1640
B(  0-C ,  7-C ) :   1.2632 B(  0-C ,  8-H ) :   0.8529 B(  0-C ,  9-H ) :   0.8117
B(  0-C , 11-H ) :   0.2455 B(  0-C , 12-H ) :   0.2548 B(  0-C , 13-H ) :   0.2472
B(  1-C ,  2-H ) :   0.8860 B(  1-C ,  3-H ) :   0.8541 B(  1-C ,  4-S ) :   0.8749
B(  1-C ,  6-O ) :   0.1010 B(  1-C ,  8-H ) :   0.1609 B(  1-C ,  9-H ) :   0.1800
B(  4-S ,  5-O ) :   1.2452 B(  4-S ,  6-O ) :   1.3410 B(  4-S , 10-O ) :   1.2505
B(  7-C , 11-H ) :   0.7673 B(  7-C , 12-H ) :   0.6697 B(  7-C , 13-H ) :   0.7126

Dispersion correction           -0.022471448
FINAL SINGLE POINT ENERGY      -741.849543010427

DIPOLE MOMENT
-------------
                                X             Y             Z
Electronic contribution:      4.39003      -5.63174      -8.02445
Nuclear contribution   :     -5.44810       7.35485       9.25157
                        -----------------------------------------
Total Dipole Moment    :     -1.05807       1.72310       1.22712
                        -----------------------------------------
Magnitude (a.u.)       :      2.36525
Magnitude (Debye)      :      6.01199

Rotational constants in cm-1:     0.135801     0.054229     0.051056
Rotational constants in MHz :  4071.225075  1625.746654  1530.611411

                             ****ORCA TERMINATED NORMALLY****
TOTAL RUN TIME: 0 days 0 hours 0 minutes 13 seconds 972 msec
