                         Program Version 5.0.0 -  RELEASE  -
|  1> !B3LYP D3BJ RIJCOSX def2-SVPD def2/J TightSCF
|  2> *xyz 1 1
|  3> C          2.91632       -1.24259       -1.54313
|  4> C          3.46659       -1.59097       -2.88908
|  5> N          4.65227       -1.14316       -3.25969
|  6> N          2.75226       -2.29204       -3.72803
|  7> H          1.77836       -2.48960       -3.51274
|  8> H          2.94861       -2.20854       -4.71681
|  9> H          5.14672       -0.51251       -2.63385
| 10> H          4.78303       -1.00720       -4.25350
| 11> C          2.80408        0.29070       -1.35924
| 12> C          2.38838        1.09367       -2.59711
| 13> H          3.76342        0.67472       -0.99989
| 14> H          2.09479        0.46122       -0.54576
| 15> H          1.94047       -1.71653       -1.44116
| 16> H          3.55857       -1.66343       -0.76637
| 17> H          3.08894        0.91965       -3.38694
| 18> H          2.37301        2.13633       -2.35728
| 19> H          1.41303        0.78551       -2.91115
| 20> *
| 21>
| 22> %MaxCore 64000
| 23>
| 24> %pal nprocs 8
| 25> end
| 26>
| 27> %scf
| 28>   MaxIter 150
| 29> end
| 30>
| 31>
| 32>                          ****END OF INPUT****

CARTESIAN COORDINATES (ANGSTROEM)
---------------------------------
  C      2.916320   -1.242590   -1.543130
  C      3.466590   -1.590970   -2.889080
  N      4.652270   -1.143160   -3.259690
  N      2.752260   -2.292040   -3.728030
  H      1.778360   -2.489600   -3.512740
  H      2.948610   -2.208540   -4.716810
  H      5.146720   -0.512510   -2.633850
  H      4.783030   -1.007200   -4.253500
  C      2.804080    0.290700   -1.359240
  C      2.388380    1.093670   -2.597110
  H      3.763420    0.674720   -0.999890
  H      2.094790    0.461220   -0.545760
  H      1.940470   -1.716530   -1.441160
  H      3.558570   -1.663430   -0.766370
  H      3.088940    0.919650   -3.386940
  H      2.373010    2.136330   -2.357280
  H      1.413030    0.785510   -2.911150

 Total Charge           Charge          ....    1
 Multiplicity           Mult            ....    1
 Number of Electrons    NEL             ....   48
 Basis Dimension        Dim             ....  208

ORBITAL ENERGIES
----------------

  NO   OCC          E(Eh)            E(eV)
   0   2.0000     -14.577973      -396.6868
   1   2.0000     -14.572105      -396.5271
   2   2.0000     -10.504475      -285.8413
   3   2.0000     -10.380301      -282.4623
   4   2.0000     -10.350664      -281.6559
   5   2.0000     -10.319937      -280.8198
   6   2.0000      -1.200840       -32.6765
   7   2.0000      -1.101973       -29.9862
   8   2.0000      -0.969225       -26.3740
   9   2.0000      -0.886672       -24.1276
  10   2.0000      -0.833930       -22.6924
  11   2.0000      -0.783176       -21.3113
  12   2.0000      -0.769144       -20.9295
  13   2.0000      -0.731786       -19.9129
  14   2.0000      -0.698830       -19.0161
  15   2.0000      -0.663634       -18.0584
  16   2.0000      -0.631088       -17.1728
  17   2.0000      -0.594931       -16.1889
  18   2.0000      -0.577750       -15.7214
  19   2.0000      -0.566539       -15.4163
  20   2.0000      -0.514435       -13.9985
  21   2.0000      -0.509715       -13.8701
  22   2.0000      -0.500723       -13.6254
  23   2.0000      -0.492965       -13.4142
  24   0.0000      -0.222617        -6.0577
  25   0.0000      -0.160330        -4.3628
  26   0.0000      -0.121652        -3.3103
  27   0.0000      -0.119025        -3.2388
  28   0.0000      -0.087458        -2.3799

MULLIKEN ATOMIC CHARGES
-----------------------
   0 C :    0.488189
   1 C :    0.265046
   2 N :    0.220817
   3 N :    0.202437
   4 H :    0.015558
   5 H :   -0.129153
   6 H :    0.020277
   7 H :   -0.066808
   8 C :   -0.210839
   9 C :    1.025599
  10 H :   -0.070797
  11 H :   -0.262951
  12 H :   -0.001592
  13 H :   -0.073426
  14 H :   -0.157924
  15 H :   -0.175759
  16 H :   -0.088673
Sum of atomic charges:    1.0000000

LOEWDIN ATOMIC CHARGES
----------------------
   0 C :    0.062363
   1 C :   -0.067293
   2 N :    0.293401
   3 N :    0.295932
   4 H :    0.054342
   5 H :    0.047470
   6 H :    0.052148
   7 H :    0.045259
   8 C :   -0.028435
   9 C :    0.151354
  10 H :    0.023037
  11 H :    0.036022
  12 H :    0.032808
  13 H :    0.050729
  14 H :   -0.040181
  15 H :    0.000170
  16 H :   -0.009125

  Mayer bond orders larger than 0.100000
B(  0-C ,  1-C ) :   1.2110 B(  0-C ,  8-C ) :   1.1896 B(  0-C , 10-H ) :   0.1041
B(  0-C , 11-H ) :   0.1344 B(  0-C , 12-H ) :   0.7301 B(  0-C , 13-H ) :   0.6958
B(  1-C ,  2-N ) :   1.1902 B(  1-C ,  3-N ) :   1.1237 B(  1-C , 12-H ) :   0.1833
B(  1-C , 13-H ) :   0.2155 B(  2-N ,  3-N ) :   0.1750 B(  2-N ,  6-H ) :   0.9963
B(  2-N ,  7-H ) :   1.1121 B(  3-N ,  4-H ) :   1.0428 B(  3-N ,  5-H ) :   1.1697
B(  4-H ,  5-H ) :  -0.1383 B(  6-H ,  7-H ) :  -0.1205 B(  8-C ,  9-C ) :   1.3171
B(  8-C , 10-H ) :   0.8608 B(  8-C , 11-H ) :   0.9239 B(  8-C , 12-H ) :   0.1682
B(  8-C , 13-H ) :   0.1111 B(  8-C , 14-H ) :   0.2536 B(  8-C , 15-H ) :   0.2547
B(  8-C , 16-H ) :   0.2178 B(  9-C , 14-H ) :   0.7609 B(  9-C , 15-H ) :   0.6847
B(  9-C , 16-H ) :   0.7239 B( 14-H , 16-H ) :   0.1005

Dispersion correction           -0.023133160
FINAL SINGLE POINT ENERGY      -268.007767886617

DIPOLE MOMENT
-------------
                                X             Y             Z
Electronic contribution:      2.03497      -4.55538      -1.87970
Nuclear contribution   :     -1.81078       3.96608       0.97433
                        -----------------------------------------
Total Dipole Moment    :      0.22419      -0.58930      -0.90537
                        -----------------------------------------
Magnitude (a.u.)       :      1.10328
Magnitude (Debye)      :      2.80433

Rotational constants in cm-1:     0.170042     0.080945     0.078209
Rotational constants in MHz :  5097.737821  2426.678005  2344.636232

                             ****ORCA TERMINATED NORMALLY****
TOTAL RUN TIME: 0 days 0 hours 0 minutes 12 seconds 680 msec
