                         Program Version 5.0.0 -  RELEASE  -
|  1> !B3LYP D3BJ RIJCOSX def2-SVPD def2/J TightSCF
|  2> *xyz 0 1
|  3> C          0.70466        1.44313       -4.50363
|  4> C          1.72854        1.42432       -5.63944
|  5> H          2.64672        1.95379       -5.38105
|  6> H          1.29992        1.93061       -6.50361
|  7> S          2.25263       -0.18811       -6.27184
|  8> F          3.56261       -0.44446       -5.63155
|  9> O          2.34494       -0.03374       -7.69650
| 10> C          1.05255        0.69566       -3.21491
| 11> H         -0.23248        1.03293       -4.88445
| 12> H          0.51170        2.49579       -4.26797
| 13> O          1.26606       -1.15918       -5.80536
| 14> H          1.24200       -0.33323       -3.43942
| 15> H          0.23391        0.76629       -2.52954
| 16> H          1.92506        1.13113       -2.77446
| 17> *
| 18>
| 19> %MaxCore 64000
| 20>
| 21> %pal nprocs 8
| 22> end
| 23>
| 24> %scf
| 25>   MaxIter 150
| 26> end
| 27>
| 28>
| 29>                          ****END OF INPUT****

CARTESIAN COORDINATES (ANGSTROEM)
---------------------------------
  C      0.704660    1.443130   -4.503630
  C      1.728540    1.424320   -5.639440
  H      2.646720    1.953790   -5.381050
  H      1.299920    1.930610   -6.503610
  S      2.252630   -0.188110   -6.271840
  F      3.562610   -0.444460   -5.631550
  O      2.344940   -0.033740   -7.696500
  C      1.052550    0.695660   -3.214910
  H     -0.232480    1.032930   -4.884450
  H      0.511700    2.495790   -4.267970
  O      1.266060   -1.159180   -5.805360
  H      1.242000   -0.333230   -3.439420
  H      0.233910    0.766290   -2.529540
  H      1.925060    1.131130   -2.774460

 Total Charge           Charge          ....    0
 Multiplicity           Mult            ....    1
 Number of Electrons    NEL             ....   66
 Basis Dimension        Dim             ....  212

ORBITAL ENERGIES
----------------

  NO   OCC          E(Eh)            E(eV)
   0   2.0000     -89.137416     -2425.5524
   1   2.0000     -24.796463      -674.7461
   2   2.0000     -19.155899      -521.2585
   3   2.0000     -19.148460      -521.0561
   4   2.0000     -10.245649      -278.7983
   5   2.0000     -10.213134      -277.9135
   6   2.0000     -10.182815      -277.0885
   7   2.0000      -8.191858      -222.9118
   8   2.0000      -6.164714      -167.7504
   9   2.0000      -6.158629      -167.5848
  10   2.0000      -6.157258      -167.5475
  11   2.0000      -1.345189       -36.6044
  12   2.0000      -1.115963       -30.3669
  13   2.0000      -1.019066       -27.7302
  14   2.0000      -0.826238       -22.4831
  15   2.0000      -0.749615       -20.3981
  16   2.0000      -0.700538       -19.0626
  17   2.0000      -0.633433       -17.2366
  18   2.0000      -0.571289       -15.5456
  19   2.0000      -0.566292       -15.4096
  20   2.0000      -0.553216       -15.0538
  21   2.0000      -0.499131       -13.5820
  22   2.0000      -0.482695       -13.1348
  23   2.0000      -0.458044       -12.4640
  24   2.0000      -0.451277       -12.2799
  25   2.0000      -0.439189       -11.9509
  26   2.0000      -0.396321       -10.7844
  27   2.0000      -0.385334       -10.4855
  28   2.0000      -0.375734       -10.2243
  29   2.0000      -0.363266        -9.8850
  30   2.0000      -0.338368        -9.2075
  31   2.0000      -0.330926        -9.0050
  32   2.0000      -0.319050        -8.6818
  33   0.0000      -0.003245        -0.0883
  34   0.0000       0.015619         0.4250
  35   0.0000       0.029285         0.7969
  36   0.0000       0.033907         0.9227
  37   0.0000       0.045436         1.2364

MULLIKEN ATOMIC CHARGES
-----------------------
   0 C :   -0.068363
   1 C :    0.169423
   2 H :   -0.046159
   3 H :   -0.050462
   4 S :    1.474550
   5 F :   -0.407550
   6 O :   -0.667216
   7 C :    1.022655
   8 H :   -0.073232
   9 H :   -0.209151
  10 O :   -0.703275
  11 H :   -0.237877
  12 H :   -0.104788
  13 H :   -0.098554
Sum of atomic charges:   -0.0000000

LOEWDIN ATOMIC CHARGES
----------------------
   0 C :   -0.067373
   1 C :   -0.035341
   2 H :    0.017100
   3 H :    0.021022
   4 S :    1.129224
   5 F :   -0.276988
   6 O :   -0.459573
   7 C :    0.147032
   8 H :    0.027753
   9 H :    0.028045
  10 O :   -0.468750
  11 H :   -0.032857
  12 H :   -0.012983
  13 H :   -0.016312

  Mayer bond orders larger than 0.100000
B(  0-C ,  1-C ) :   1.3011 B(  0-C ,  2-H ) :   0.1458 B(  0-C ,  3-H ) :   0.1519
B(  0-C ,  7-C ) :   1.2843 B(  0-C ,  8-H ) :   0.8539 B(  0-C ,  9-H ) :   0.8017
B(  0-C , 11-H ) :   0.2313 B(  0-C , 12-H ) :   0.2450 B(  0-C , 13-H ) :   0.2383
B(  1-C ,  2-H ) :   0.8719 B(  1-C ,  3-H ) :   0.8589 B(  1-C ,  4-S ) :   0.9348
B(  1-C ,  8-H ) :   0.1608 B(  1-C ,  9-H ) :   0.1771 B(  4-S ,  5-F ) :   0.6201
B(  4-S ,  6-O ) :   1.5604 B(  4-S , 10-O ) :   1.4770 B(  7-C , 11-H ) :   0.7657
B(  7-C , 12-H ) :   0.6806 B(  7-C , 13-H ) :   0.7178

Dispersion correction           -0.021623360
FINAL SINGLE POINT ENERGY      -766.350324996510

DIPOLE MOMENT
-------------
                                X             Y             Z
Electronic contribution:      7.35323      -6.68611      -8.20826
Nuclear contribution   :     -7.21372       8.00417       9.21533
                        -----------------------------------------
Total Dipole Moment    :      0.13951       1.31805       1.00707
                        -----------------------------------------
Magnitude (a.u.)       :      1.66461
Magnitude (Debye)      :      4.23110

Rotational constants in cm-1:     0.129205     0.053290     0.050128
Rotational constants in MHz :  3873.458819  1597.595736  1502.810344

                             ****ORCA TERMINATED NORMALLY****
TOTAL RUN TIME: 0 days 0 hours 0 minutes 13 seconds 884 msec
