                         Program Version 5.0.0 -  RELEASE  -
|  1> !B3LYP D3BJ RIJCOSX def2-SVPD def2/J TightSCF
|  2> *xyz 0 1
|  3> C          2.91632       -1.24259       -1.54313
|  4> C          3.46659       -1.59097       -2.88908
|  5> C          4.65227       -1.14316       -3.25969
|  6> N          2.75226       -2.29204       -3.72803
|  7> H          1.77836       -2.48960       -3.51274
|  8> H          2.94861       -2.20854       -4.71681
|  9> H          5.14672       -0.51251       -2.63385
| 10> H          4.78303       -1.00720       -4.25350
| 11> C          2.80408        0.29070       -1.35924
| 12> C          2.38838        1.09367       -2.59711
| 13> H          3.76342        0.67472       -0.99989
| 14> H          2.09479        0.46122       -0.54576
| 15> H          1.94047       -1.71653       -1.44116
| 16> H          3.55857       -1.66343       -0.76637
| 17> H          3.08894        0.91965       -3.38694
| 18> H          2.37301        2.13633       -2.35728
| 19> H          1.41303        0.78551       -2.91115
| 20> *
| 21>
| 22> %MaxCore 64000
| 23>
| 24> %pal nprocs 8
| 25> end
| 26>
| 27> %scf
| 28>   MaxIter 150
| 29> end
| 30>
| 31>
| 32>                          ****END OF INPUT****

CARTESIAN COORDINATES (ANGSTROEM)
---------------------------------
  C      2.916320   -1.242590   -1.543130
  C      3.466590   -1.590970   -2.889080
  C      4.652270   -1.143160   -3.259690
  N      2.752260   -2.292040   -3.728030
  H      1.778360   -2.489600   -3.512740
  H      2.948610   -2.208540   -4.716810
  H      5.146720   -0.512510   -2.633850
  H      4.783030   -1.007200   -4.253500
  C      2.804080    0.290700   -1.359240
  C      2.388380    1.093670   -2.597110
  H      3.763420    0.674720   -0.999890
  H      2.094790    0.461220   -0.545760
  H      1.940470   -1.716530   -1.441160
  H      3.558570   -1.663430   -0.766370
  H      3.088940    0.919650   -3.386940
  H      2.373010    2.136330   -2.357280
  H      1.413030    0.785510   -2.911150

 Total Charge           Charge          ....    0
 Multiplicity           Mult            ....    1
 Number of Electrons    NEL             ....   48
 Basis Dimension        Dim             ....  208

ORBITAL ENERGIES
----------------

  NO   OCC          E(Eh)            E(eV)
   0   2.0000     -14.335925      -390.1003
   1   2.0000     -10.203161      -277.6421
   2   2.0000     -10.184337      -277.1299
   3   2.0000     -10.180995      -277.0390
   4   2.0000     -10.162075      -276.5241
   5   2.0000     -10.113233      -275.1951
   6   2.0000      -0.930441       -25.3186
   7   2.0000      -0.787744       -21.4356
   8   2.0000      -0.722280       -19.6542
   9   2.0000      -0.682882       -18.5822
  10   2.0000      -0.603648       -16.4261
  11   2.0000      -0.558926       -15.2091
  12   2.0000      -0.519459       -14.1352
  13   2.0000      -0.482174       -13.1206
  14   2.0000      -0.454649       -12.3716
  15   2.0000      -0.435634       -11.8542
  16   2.0000      -0.402627       -10.9560
  17   2.0000      -0.390622       -10.6294
  18   2.0000      -0.368116       -10.0170
  19   2.0000      -0.363869        -9.9014
  20   2.0000      -0.338255        -9.2044
  21   2.0000      -0.327849        -8.9212
  22   2.0000      -0.324755        -8.8370
  23   2.0000      -0.190888        -5.1943
  24   0.0000       0.013839         0.3766
  25   0.0000       0.023169         0.6305
  26   0.0000       0.043383         1.1805
  27   0.0000       0.052573         1.4306
  28   0.0000       0.060414         1.6439

MULLIKEN ATOMIC CHARGES
-----------------------
   0 C :    0.690348
   1 C :   -0.424926
   2 C :    0.665685
   3 N :    0.252552
   4 H :   -0.109243
   5 H :   -0.147520
   6 H :   -0.194383
   7 H :   -0.443629
   8 C :   -0.247755
   9 C :    1.047390
  10 H :   -0.078634
  11 H :   -0.297041
  12 H :   -0.102926
  13 H :   -0.126326
  14 H :   -0.152417
  15 H :   -0.231280
  16 H :   -0.099892
Sum of atomic charges:   -0.0000000

LOEWDIN ATOMIC CHARGES
----------------------
   0 C :    0.023094
   1 C :   -0.269915
   2 C :    0.168389
   3 N :    0.182433
   4 H :   -0.001077
   5 H :    0.006629
   6 H :   -0.079394
   7 H :   -0.086722
   8 C :   -0.050822
   9 C :    0.135260
  10 H :    0.012985
  11 H :    0.009846
  12 H :    0.006064
  13 H :    0.025262
  14 H :   -0.037303
  15 H :   -0.022815
  16 H :   -0.021911

  Mayer bond orders larger than 0.100000
B(  0-C ,  1-C ) :   1.1966 B(  0-C ,  8-C ) :   1.1827 B(  0-C , 10-H ) :   0.1022
B(  0-C , 11-H ) :   0.2031 B(  0-C , 12-H ) :   0.5647 B(  0-C , 13-H ) :   0.7051
B(  1-C ,  2-C ) :   2.0650 B(  1-C ,  3-N ) :   1.0631 B(  1-C ,  6-H ) :   0.2252
B(  1-C ,  7-H ) :   0.3025 B(  1-C , 12-H ) :   0.2984 B(  1-C , 13-H ) :   0.1947
B(  2-C ,  3-N ) :   0.2523 B(  2-C ,  6-H ) :   0.6093 B(  2-C ,  7-H ) :   0.6359
B(  3-N ,  4-H ) :   1.0365 B(  3-N ,  5-H ) :   1.0581 B(  4-H ,  5-H ) :  -0.1264
B(  8-C ,  9-C ) :   1.2788 B(  8-C , 10-H ) :   0.8568 B(  8-C , 11-H ) :   0.8799
B(  8-C , 12-H ) :   0.1790 B(  8-C , 13-H ) :   0.1308 B(  8-C , 14-H ) :   0.2909
B(  8-C , 15-H ) :   0.2701 B(  8-C , 16-H ) :   0.2354 B(  9-C , 14-H ) :   0.7581
B(  9-C , 15-H ) :   0.6663 B(  9-C , 16-H ) :   0.7099 B( 14-H , 16-H ) :   0.1041

Dispersion correction           -0.024023500
FINAL SINGLE POINT ENERGY      -251.546960983457

DIPOLE MOMENT
-------------
                                X             Y             Z
Electronic contribution:      0.59510      -3.82490      -0.94393
Nuclear contribution   :     -1.45921       3.88617       0.81775
                        -----------------------------------------
Total Dipole Moment    :     -0.86411       0.06126      -0.12618
                        -----------------------------------------
Magnitude (a.u.)       :      0.87542
Magnitude (Debye)      :      2.22515

Rotational constants in cm-1:     0.176264     0.082132     0.079980
Rotational constants in MHz :  5284.261828  2462.256672  2397.741351

                             ****ORCA TERMINATED NORMALLY****
TOTAL RUN TIME: 0 days 0 hours 0 minutes 14 seconds 7 msec
