                         Program Version 5.0.0 -  RELEASE  -
|  1> !B3LYP D3BJ RIJCOSX def2-SVPD def2/J TightSCF
|  2> *xyz 0 1
|  3> C          0.70466        1.44313       -4.50363
|  4> C          1.72854        1.42432       -5.63944
|  5> H          2.64672        1.95379       -5.38105
|  6> H          1.29992        1.93061       -6.50361
|  7> S          2.25263       -0.18811       -6.27184
|  8> O          3.56261       -0.44446       -5.63155
|  9> F          2.34494       -0.03374       -7.69650
| 10> C          1.05255        0.69566       -3.21491
| 11> H         -0.23248        1.03293       -4.88445
| 12> H          0.51170        2.49579       -4.26797
| 13> O          1.26606       -1.15918       -5.80536
| 14> H          1.24200       -0.33323       -3.43942
| 15> H          0.23391        0.76629       -2.52954
| 16> H          1.92506        1.13113       -2.77446
| 17> *
| 18>
| 19> %MaxCore 64000
| 20>
| 21> %pal nprocs 8
| 22> end
| 23>
| 24> %scf
| 25>   MaxIter 150
| 26> end
| 27>
| 28>
| 29>                          ****END OF INPUT****

CARTESIAN COORDINATES (ANGSTROEM)
---------------------------------
  C      0.704660    1.443130   -4.503630
  C      1.728540    1.424320   -5.639440
  H      2.646720    1.953790   -5.381050
  H      1.299920    1.930610   -6.503610
  S      2.252630   -0.188110   -6.271840
  O      3.562610   -0.444460   -5.631550
  F      2.344940   -0.033740   -7.696500
  C      1.052550    0.695660   -3.214910
  H     -0.232480    1.032930   -4.884450
  H      0.511700    2.495790   -4.267970
  O      1.266060   -1.159180   -5.805360
  H      1.242000   -0.333230   -3.439420
  H      0.233910    0.766290   -2.529540
  H      1.925060    1.131130   -2.774460

 Total Charge           Charge          ....    0
 Multiplicity           Mult            ....    1
 Number of Electrons    NEL             ....   66
 Basis Dimension        Dim             ....  212

ORBITAL ENERGIES
----------------

  NO   OCC          E(Eh)            E(eV)
   0   2.0000     -89.139401     -2425.6064
   1   2.0000     -24.819100      -675.3620
   2   2.0000     -19.149264      -521.0780
   3   2.0000     -19.140797      -520.8476
   4   2.0000     -10.246590      -278.8239
   5   2.0000     -10.213516      -277.9239
   6   2.0000     -10.176358      -276.9128
   7   2.0000      -8.193969      -222.9692
   8   2.0000      -6.166956      -167.8114
   9   2.0000      -6.160558      -167.6373
  10   2.0000      -6.159175      -167.5997
  11   2.0000      -1.383388       -37.6439
  12   2.0000      -1.102382       -29.9973
  13   2.0000      -0.998770       -27.1779
  14   2.0000      -0.825850       -22.4725
  15   2.0000      -0.756870       -20.5955
  16   2.0000      -0.710639       -19.3375
  17   2.0000      -0.637367       -17.3436
  18   2.0000      -0.594774       -16.1846
  19   2.0000      -0.584696       -15.9104
  20   2.0000      -0.553917       -15.0728
  21   2.0000      -0.493806       -13.4372
  22   2.0000      -0.485206       -13.2031
  23   2.0000      -0.460124       -12.5206
  24   2.0000      -0.447613       -12.1802
  25   2.0000      -0.426143       -11.5959
  26   2.0000      -0.389674       -10.6036
  27   2.0000      -0.379107       -10.3160
  28   2.0000      -0.372783       -10.1439
  29   2.0000      -0.358570        -9.7572
  30   2.0000      -0.331100        -9.0097
  31   2.0000      -0.321768        -8.7558
  32   2.0000      -0.304685        -8.2909
  33   0.0000      -0.005916        -0.1610
  34   0.0000       0.011775         0.3204
  35   0.0000       0.032935         0.8962
  36   0.0000       0.034902         0.9497
  37   0.0000       0.042221         1.1489

MULLIKEN ATOMIC CHARGES
-----------------------
   0 C :   -0.104066
   1 C :    0.176843
   2 H :   -0.052268
   3 H :   -0.043312
   4 S :    1.512229
   5 O :   -0.675080
   6 F :   -0.428898
   7 C :    1.029115
   8 H :   -0.073384
   9 H :   -0.209633
  10 O :   -0.698708
  11 H :   -0.230661
  12 H :   -0.106343
  13 H :   -0.095833
Sum of atomic charges:    0.0000000

LOEWDIN ATOMIC CHARGES
----------------------
   0 C :   -0.063197
   1 C :   -0.040952
   2 H :    0.022042
   3 H :    0.008560
   4 S :    1.133853
   5 O :   -0.484925
   6 F :   -0.257589
   7 C :    0.152448
   8 H :    0.025450
   9 H :    0.029019
  10 O :   -0.471022
  11 H :   -0.027363
  12 H :   -0.013880
  13 H :   -0.012444

  Mayer bond orders larger than 0.100000
B(  0-C ,  1-C ) :   1.3080 B(  0-C ,  2-H ) :   0.1378 B(  0-C ,  3-H ) :   0.1733
B(  0-C ,  7-C ) :   1.2862 B(  0-C ,  8-H ) :   0.8518 B(  0-C ,  9-H ) :   0.8079
B(  0-C , 11-H ) :   0.2332 B(  0-C , 12-H ) :   0.2474 B(  0-C , 13-H ) :   0.2418
B(  1-C ,  2-H ) :   0.8993 B(  1-C ,  3-H ) :   0.8128 B(  1-C ,  4-S ) :   0.9215
B(  1-C ,  8-H ) :   0.1555 B(  1-C ,  9-H ) :   0.1736 B(  4-S ,  5-O ) :   1.4608
B(  4-S ,  6-F ) :   0.6837 B(  4-S , 10-O ) :   1.4498 B(  7-C , 11-H ) :   0.7702
B(  7-C , 12-H ) :   0.6727 B(  7-C , 13-H ) :   0.7142

Dispersion correction           -0.021710315
FINAL SINGLE POINT ENERGY      -766.330747944067

DIPOLE MOMENT
-------------
                                X             Y             Z
Electronic contribution:      5.25181      -5.98817     -11.77426
Nuclear contribution   :     -5.90419       7.56246      11.43606
                        -----------------------------------------
Total Dipole Moment    :     -0.65237       1.57429      -0.33820
                        -----------------------------------------
Magnitude (a.u.)       :      1.73734
Magnitude (Debye)      :      4.41597

Rotational constants in cm-1:     0.133686     0.052402     0.049175
Rotational constants in MHz :  4007.807944  1570.986792  1474.216272

                             ****ORCA TERMINATED NORMALLY****
TOTAL RUN TIME: 0 days 0 hours 0 minutes 13 seconds 806 msec
