                         Program Version 5.0.0 -  RELEASE  -
|  1> !B3LYP D3BJ RIJCOSX def2-SVPD def2/J TightSCF
|  2> *xyz 0 1
|  3> C          2.91632       -1.24259       -1.54313
|  4> C          3.46659       -1.59097       -2.88908
|  5> N          4.65227       -1.14316       -3.25969
|  6> C          2.75226       -2.29204       -3.72803
|  7> H          1.77836       -2.48960       -3.51274
|  8> H          2.94861       -2.20854       -4.71681
|  9> H          5.14672       -0.51251       -2.63385
| 10> H          4.78303       -1.00720       -4.25350
| 11> C          2.80408        0.29070       -1.35924
| 12> C          2.38838        1.09367       -2.59711
| 13> H          3.76342        0.67472       -0.99989
| 14> H          2.09479        0.46122       -0.54576
| 15> H          1.94047       -1.71653       -1.44116
| 16> H          3.55857       -1.66343       -0.76637
| 17> H          3.08894        0.91965       -3.38694
| 18> H          2.37301        2.13633       -2.35728
| 19> H          1.41303        0.78551       -2.91115
| 20> *
| 21>
| 22> %MaxCore 64000
| 23>
| 24> %pal nprocs 8
| 25> end
| 26>
| 27> %scf
| 28>   MaxIter 150
| 29> end
| 30>
| 31>
| 32>                          ****END OF INPUT****

CARTESIAN COORDINATES (ANGSTROEM)
---------------------------------
  C      2.916320   -1.242590   -1.543130
  C      3.466590   -1.590970   -2.889080
  N      4.652270   -1.143160   -3.259690
  C      2.752260   -2.292040   -3.728030
  H      1.778360   -2.489600   -3.512740
  H      2.948610   -2.208540   -4.716810
  H      5.146720   -0.512510   -2.633850
  H      4.783030   -1.007200   -4.253500
  C      2.804080    0.290700   -1.359240
  C      2.388380    1.093670   -2.597110
  H      3.763420    0.674720   -0.999890
  H      2.094790    0.461220   -0.545760
  H      1.940470   -1.716530   -1.441160
  H      3.558570   -1.663430   -0.766370
  H      3.088940    0.919650   -3.386940
  H      2.373010    2.136330   -2.357280
  H      1.413030    0.785510   -2.911150

 Total Charge           Charge          ....    0
 Multiplicity           Mult            ....    1
 Number of Electrons    NEL             ....   48
 Basis Dimension        Dim             ....  208

ORBITAL ENERGIES
----------------

  NO   OCC          E(Eh)            E(eV)
   0   2.0000     -14.331886      -389.9905
   1   2.0000     -10.201742      -277.6035
   2   2.0000     -10.185068      -277.1498
   3   2.0000     -10.182208      -277.0720
   4   2.0000     -10.166649      -276.6486
   5   2.0000     -10.117417      -275.3089
   6   2.0000      -0.925722       -25.1902
   7   2.0000      -0.785665       -21.3790
   8   2.0000      -0.732099       -19.9214
   9   2.0000      -0.681052       -18.5324
  10   2.0000      -0.597714       -16.2646
  11   2.0000      -0.560774       -15.2594
  12   2.0000      -0.525785       -14.3073
  13   2.0000      -0.468161       -12.7393
  14   2.0000      -0.458334       -12.4719
  15   2.0000      -0.451354       -12.2820
  16   2.0000      -0.397108       -10.8058
  17   2.0000      -0.392177       -10.6717
  18   2.0000      -0.376848       -10.2546
  19   2.0000      -0.364294        -9.9129
  20   2.0000      -0.336263        -9.1502
  21   2.0000      -0.331827        -9.0295
  22   2.0000      -0.318862        -8.6767
  23   2.0000      -0.198538        -5.4025
  24   0.0000       0.010176         0.2769
  25   0.0000       0.025113         0.6834
  26   0.0000       0.049443         1.3454
  27   0.0000       0.051404         1.3988
  28   0.0000       0.059093         1.6080

MULLIKEN ATOMIC CHARGES
-----------------------
   0 C :    0.529203
   1 C :   -0.425818
   2 N :    0.309424
   3 C :    0.472274
   4 H :   -0.117580
   5 H :   -0.497539
   6 H :   -0.078036
   7 H :   -0.092959
   8 C :   -0.219308
   9 C :    1.051917
  10 H :   -0.087951
  11 H :   -0.285850
  12 H :    0.076949
  13 H :   -0.143545
  14 H :   -0.195468
  15 H :   -0.150831
  16 H :   -0.144883
Sum of atomic charges:   -0.0000000

LOEWDIN ATOMIC CHARGES
----------------------
   0 C :    0.020814
   1 C :   -0.278675
   2 N :    0.182633
   3 C :    0.180418
   4 H :   -0.081707
   5 H :   -0.085499
   6 H :    0.001464
   7 H :    0.006124
   8 C :   -0.054524
   9 C :    0.134093
  10 H :    0.005626
  11 H :    0.011721
  12 H :    0.017993
  13 H :    0.018962
  14 H :   -0.039901
  15 H :   -0.022554
  16 H :   -0.016987

  Mayer bond orders larger than 0.100000
B(  0-C ,  1-C ) :   1.3383 B(  0-C ,  8-C ) :   1.1632 B(  0-C , 10-H ) :   0.1411
B(  0-C , 11-H ) :   0.1883 B(  0-C , 12-H ) :   0.7548 B(  0-C , 13-H ) :   0.6462
B(  1-C ,  2-N ) :   1.0649 B(  1-C ,  3-C ) :   2.0021 B(  1-C ,  4-H ) :   0.1247
B(  1-C ,  5-H ) :   0.3740 B(  1-C ,  8-C ) :   0.1314 B(  1-C , 12-H ) :   0.1342
B(  1-C , 13-H ) :   0.2852 B(  2-N ,  3-C ) :   0.3505 B(  2-N ,  6-H ) :   0.9616
B(  2-N ,  7-H ) :   0.9614 B(  3-C ,  4-H ) :   0.8151 B(  3-C ,  5-H ) :   0.5704
B(  6-H ,  7-H ) :  -0.1146 B(  8-C ,  9-C ) :   1.2889 B(  8-C , 10-H ) :   0.8407
B(  8-C , 11-H ) :   0.9007 B(  8-C , 12-H ) :   0.1769 B(  8-C , 13-H ) :   0.1066
B(  8-C , 14-H ) :   0.2674 B(  8-C , 15-H ) :   0.2569 B(  8-C , 16-H ) :   0.2231
B(  9-C , 14-H ) :   0.7645 B(  9-C , 15-H ) :   0.6466 B(  9-C , 16-H ) :   0.7237
B( 14-H , 16-H ) :   0.1253

Dispersion correction           -0.023951083
FINAL SINGLE POINT ENERGY      -251.550778540314

DIPOLE MOMENT
-------------
                                X             Y             Z
Electronic contribution:      2.19745      -2.83843      -0.54901
Nuclear contribution   :     -1.90863       3.61442       0.70697
                        -----------------------------------------
Total Dipole Moment    :      0.28882       0.77598       0.15795
                        -----------------------------------------
Magnitude (a.u.)       :      0.84292
Magnitude (Debye)      :      2.14254

Rotational constants in cm-1:     0.173428     0.083686     0.080523
Rotational constants in MHz :  5199.232598  2508.829970  2414.016775

                             ****ORCA TERMINATED NORMALLY****
TOTAL RUN TIME: 0 days 0 hours 0 minutes 13 seconds 347 msec
