                         Program Version 5.0.0 -  RELEASE  -
|  1> !B3LYP D3BJ RIJCOSX def2-SVPD def2/J TightSCF
|  2> *xyz 0 1
|  3> C          0.70466        1.44313       -4.50363
|  4> C          1.72854        1.42432       -5.63944
|  5> H          2.64672        1.95379       -5.38105
|  6> H          1.29992        1.93061       -6.50361
|  7> S          2.25263       -0.18811       -6.27184
|  8> O          3.56261       -0.44446       -5.63155
|  9> O          2.34494       -0.03374       -7.69650
| 10> C          1.05255        0.69566       -3.21491
| 11> H         -0.23248        1.03293       -4.88445
| 12> H          0.51170        2.49579       -4.26797
| 13> F          1.26606       -1.15918       -5.80536
| 14> H          1.24200       -0.33323       -3.43942
| 15> H          0.23391        0.76629       -2.52954
| 16> H          1.92506        1.13113       -2.77446
| 17> *
| 18>
| 19> %MaxCore 64000
| 20>
| 21> %pal nprocs 8
| 22> end
| 23>
| 24> %scf
| 25>   MaxIter 150
| 26> end
| 27>
| 28>
| 29>                          ****END OF INPUT****

CARTESIAN COORDINATES (ANGSTROEM)
---------------------------------
  C      0.704660    1.443130   -4.503630
  C      1.728540    1.424320   -5.639440
  H      2.646720    1.953790   -5.381050
  H      1.299920    1.930610   -6.503610
  S      2.252630   -0.188110   -6.271840
  O      3.562610   -0.444460   -5.631550
  O      2.344940   -0.033740   -7.696500
  C      1.052550    0.695660   -3.214910
  H     -0.232480    1.032930   -4.884450
  H      0.511700    2.495790   -4.267970
  F      1.266060   -1.159180   -5.805360
  H      1.242000   -0.333230   -3.439420
  H      0.233910    0.766290   -2.529540
  H      1.925060    1.131130   -2.774460

 Total Charge           Charge          ....    0
 Multiplicity           Mult            ....    1
 Number of Electrons    NEL             ....   66
 Basis Dimension        Dim             ....  212

ORBITAL ENERGIES
----------------

  NO   OCC          E(Eh)            E(eV)
   0   2.0000     -89.137492     -2425.5545
   1   2.0000     -24.807160      -675.0372
   2   2.0000     -19.155542      -521.2488
   3   2.0000     -19.139422      -520.8102
   4   2.0000     -10.245298      -278.7887
   5   2.0000     -10.220253      -278.1072
   6   2.0000     -10.190847      -277.3070
   7   2.0000      -8.192003      -222.9157
   8   2.0000      -6.165032      -167.7590
   9   2.0000      -6.158664      -167.5858
  10   2.0000      -6.157233      -167.5468
  11   2.0000      -1.362134       -37.0655
  12   2.0000      -1.111364       -30.2417
  13   2.0000      -1.006174       -27.3794
  14   2.0000      -0.831020       -22.6132
  15   2.0000      -0.752701       -20.4820
  16   2.0000      -0.709018       -19.2934
  17   2.0000      -0.640336       -17.4244
  18   2.0000      -0.588922       -16.0254
  19   2.0000      -0.579962       -15.7816
  20   2.0000      -0.543897       -14.8002
  21   2.0000      -0.496796       -13.5185
  22   2.0000      -0.481186       -13.0937
  23   2.0000      -0.469733       -12.7821
  24   2.0000      -0.451001       -12.2723
  25   2.0000      -0.437735       -11.9114
  26   2.0000      -0.397194       -10.8082
  27   2.0000      -0.389000       -10.5852
  28   2.0000      -0.382852       -10.4179
  29   2.0000      -0.369072       -10.0429
  30   2.0000      -0.335355        -9.1255
  31   2.0000      -0.322012        -8.7624
  32   2.0000      -0.310002        -8.4356
  33   0.0000      -0.011808        -0.3213
  34   0.0000       0.022384         0.6091
  35   0.0000       0.030036         0.8173
  36   0.0000       0.033517         0.9121
  37   0.0000       0.040256         1.0954

MULLIKEN ATOMIC CHARGES
-----------------------
   0 C :   -0.088893
   1 C :    0.204699
   2 H :   -0.055380
   3 H :   -0.045320
   4 S :    1.449711
   5 O :   -0.678239
   6 O :   -0.660509
   7 C :    1.039513
   8 H :   -0.100733
   9 H :   -0.199581
  10 F :   -0.424732
  11 H :   -0.246512
  12 H :   -0.100591
  13 H :   -0.093433
Sum of atomic charges:   -0.0000000

LOEWDIN ATOMIC CHARGES
----------------------
   0 C :   -0.075175
   1 C :   -0.029933
   2 H :    0.030128
   3 H :    0.015930
   4 S :    1.125244
   5 O :   -0.486410
   6 O :   -0.459310
   7 C :    0.148430
   8 H :    0.021867
   9 H :    0.028548
  10 F :   -0.267264
  11 H :   -0.030184
  12 H :   -0.012939
  13 H :   -0.008932

  Mayer bond orders larger than 0.100000
B(  0-C ,  1-C ) :   1.2644 B(  0-C ,  2-H ) :   0.1419 B(  0-C ,  3-H ) :   0.1600
B(  0-C ,  7-C ) :   1.2863 B(  0-C ,  8-H ) :   0.8605 B(  0-C ,  9-H ) :   0.8075
B(  0-C , 11-H ) :   0.2320 B(  0-C , 12-H ) :   0.2468 B(  0-C , 13-H ) :   0.2444
B(  1-C ,  2-H ) :   0.8835 B(  1-C ,  3-H ) :   0.8579 B(  1-C ,  4-S ) :   0.9459
B(  1-C ,  8-H ) :   0.1483 B(  1-C ,  9-H ) :   0.1734 B(  4-S ,  5-O ) :   1.4715
B(  4-S ,  6-O ) :   1.5520 B(  4-S , 10-F ) :   0.6432 B(  7-C , 11-H ) :   0.7591
B(  7-C , 12-H ) :   0.6728 B(  7-C , 13-H ) :   0.7177

Dispersion correction           -0.021506583
FINAL SINGLE POINT ENERGY      -766.340111179826

DIPOLE MOMENT
-------------
                                X             Y             Z
Electronic contribution:      3.39350      -7.85271      -8.47416
Nuclear contribution   :     -4.74391       8.77281       9.40225
                        -----------------------------------------
Total Dipole Moment    :     -1.35041       0.92010       0.92810
                        -----------------------------------------
Magnitude (a.u.)       :      1.87924
Magnitude (Debye)      :      4.77666

Rotational constants in cm-1:     0.129476     0.053470     0.050698
Rotational constants in MHz :  3881.594668  1602.990831  1519.898630

                             ****ORCA TERMINATED NORMALLY****
TOTAL RUN TIME: 0 days 0 hours 0 minutes 13 seconds 683 msec
