                         Program Version 5.0.0 -  RELEASE  -
|  1> !B3LYP D3BJ RIJCOSX def2-SVPD def2/J TightSCF xyzfile
|  2>
|  3> *xyzfile 0 1 D2.xyz
|  4>
|  5> %MaxCore 64000
|  6>
|  7> %pal nprocs 4
|  8> end
|  9>
| 10> %scf
| 11>   MaxIter 150
| 12> end
| 13>
| 14>
| 15>                          ****END OF INPUT****

CARTESIAN COORDINATES (ANGSTROEM)
---------------------------------
  C      2.916324   -1.242589   -1.543125
  C      0.704661    1.443129   -4.503630
  C      1.728539    1.424320   -5.639443
  H      2.646718    1.953794   -5.381054
  H      1.299916    1.930613   -6.503614
  S      2.252625   -0.188115   -6.271840
  C      3.466585   -1.590971   -2.889082
  N      4.652275   -1.143164   -3.259692
  C      2.752264   -2.292043   -3.728029
  H      1.778364   -2.489604   -3.512738
  H      2.948612   -2.208544   -4.716813
  H      5.146723   -0.512508   -2.633852
  H      4.783030   -1.007203   -4.253498
  F      3.562607   -0.444464   -5.631552
  O      2.344944   -0.033742   -7.696501
  C      2.804084    0.290698   -1.359243
  C      1.052550    0.695659   -3.214915
  H     -0.232483    1.032925   -4.884449
  H      0.511700    2.495794   -4.267966
  C      2.388380    1.093669   -2.597108
  H      3.763425    0.674718   -0.999889
  H      2.094788    0.461222   -0.545756
  O      1.266058   -1.159177   -5.805365
  H      3.167316    1.013242   -3.359430
  H      2.357690    2.149375   -2.310997
  H      1.039284   -0.368429   -3.449329
  H      0.250787    0.865605   -2.488283
  H      1.940472   -1.716529   -1.441161
  H      3.558569   -1.663433   -0.766371

 Total Charge           Charge          ....    0
 Multiplicity           Mult            ....    1
 Number of Electrons    NEL             ....  112
 Basis Dimension        Dim             ....  404

ORBITAL ENERGIES
----------------

  NO   OCC          E(Eh)            E(eV)
   0   2.0000     -89.140965     -2425.6490
   1   2.0000     -24.804035      -674.9521
   2   2.0000     -19.158527      -521.3300
   3   2.0000     -19.148014      -521.0440
   4   2.0000     -14.329407      -389.9230
   5   2.0000     -10.245944      -278.8063
   6   2.0000     -10.210284      -277.8360
   7   2.0000     -10.197760      -277.4952
   8   2.0000     -10.191381      -277.3216
   9   2.0000     -10.189924      -277.2819
  10   2.0000     -10.185288      -277.1558
  11   2.0000     -10.184146      -277.1247
  12   2.0000     -10.112480      -275.1746
  13   2.0000      -8.194269      -222.9774
  14   2.0000      -6.167411      -167.8238
  15   2.0000      -6.160999      -167.6493
  16   2.0000      -6.159583      -167.6108
  17   2.0000      -1.354581       -36.8600
  18   2.0000      -1.118353       -30.4319
  19   2.0000      -1.020500       -27.7692
  20   2.0000      -0.925667       -25.1887
  21   2.0000      -0.833678       -22.6855
  22   2.0000      -0.797412       -21.6987
  23   2.0000      -0.759039       -20.6545
  24   2.0000      -0.731433       -19.9033
  25   2.0000      -0.709801       -19.3147
  26   2.0000      -0.678439       -18.4613
  27   2.0000      -0.628435       -17.1006
  28   2.0000      -0.595968       -16.2171
  29   2.0000      -0.577966       -15.7272
  30   2.0000      -0.572564       -15.5803
  31   2.0000      -0.560036       -15.2394
  32   2.0000      -0.549546       -14.9539
  33   2.0000      -0.524609       -14.2753
  34   2.0000      -0.496666       -13.5150
  35   2.0000      -0.493612       -13.4319
  36   2.0000      -0.481074       -13.0907
  37   2.0000      -0.468832       -12.7576
  38   2.0000      -0.455215       -12.3870
  39   2.0000      -0.447597       -12.1797
  40   2.0000      -0.439196       -11.9511
  41   2.0000      -0.420705       -11.4480
  42   2.0000      -0.407600       -11.0914
  43   2.0000      -0.393230       -10.7003
  44   2.0000      -0.388945       -10.5837
  45   2.0000      -0.384670       -10.4674
  46   2.0000      -0.370439       -10.0802
  47   2.0000      -0.360166        -9.8006
  48   2.0000      -0.350155        -9.5282
  49   2.0000      -0.338108        -9.2004
  50   2.0000      -0.336470        -9.1558
  51   2.0000      -0.330413        -8.9910
  52   2.0000      -0.324146        -8.8205
  53   2.0000      -0.318267        -8.6605
  54   2.0000      -0.315885        -8.5957
  55   2.0000      -0.194867        -5.3026
  56   0.0000      -0.006116        -0.1664
  57   0.0000       0.010766         0.2930
  58   0.0000       0.013972         0.3802
  59   0.0000       0.018524         0.5041
  60   0.0000       0.036741         0.9998

MULLIKEN ATOMIC CHARGES
-----------------------
   0 C :    0.651060
   1 C :    0.668589
   2 C :    0.298511
   3 H :    0.087335
   4 H :   -0.332890
   5 S :    1.497101
   6 C :   -0.676641
   7 N :    0.507113
   8 C :    0.930046
   9 H :   -0.163483
  10 H :   -0.598641
  11 H :   -0.064382
  12 H :   -0.288176
  13 F :   -0.549036
  14 O :   -0.640927
  15 C :    0.652243
  16 C :    0.475398
  17 H :   -0.071351
  18 H :   -0.143184
  19 C :    0.069176
  20 H :   -0.102957
  21 H :   -0.218320
  22 O :   -0.778983
  23 H :   -0.071689
  24 H :   -0.323223
  25 H :   -0.529354
  26 H :   -0.124742
  27 H :    0.201187
  28 H :   -0.359780
Sum of atomic charges:   -0.0000000

LOEWDIN ATOMIC CHARGES
----------------------
   0 C :    0.032910
   1 C :   -0.017838
   2 C :   -0.025240
   3 H :    0.011643
   4 H :    0.020351
   5 S :    1.147617
   6 C :   -0.257015
   7 N :    0.194009
   8 C :    0.176616
   9 H :   -0.065104
  10 H :   -0.117604
  11 H :    0.003939
  12 H :   -0.037644
  13 F :   -0.291570
  14 O :   -0.447787
  15 C :   -0.006099
  16 C :   -0.007399
  17 H :    0.030487
  18 H :    0.031095
  19 C :   -0.021553
  20 H :    0.009885
  21 H :    0.016573
  22 O :   -0.448655
  23 H :   -0.011678
  24 H :    0.023162
  25 H :   -0.013664
  26 H :    0.031270
  27 H :    0.020467
  28 H :    0.018823

  Mayer bond orders larger than 0.100000
B(  0-C ,  6-C ) :   1.3233 B(  0-C ,  8-C ) :   0.1169 B(  0-C , 15-C ) :   1.1003
B(  0-C , 20-H ) :   0.1465 B(  0-C , 21-H ) :   0.2294 B(  0-C , 27-H ) :   0.7622
B(  0-C , 28-H ) :   0.4596 B(  1-C ,  2-C ) :   1.1973 B(  1-C ,  3-H ) :   0.1157
B(  1-C ,  4-H ) :   0.2297 B(  1-C , 16-C ) :   1.2336 B(  1-C , 17-H ) :   0.6007
B(  1-C , 18-H ) :   0.6636 B(  2-C ,  3-H ) :   0.8314 B(  2-C ,  4-H ) :   0.8102
B(  2-C ,  5-S ) :   0.9273 B(  2-C , 17-H ) :   0.1375 B(  2-C , 18-H ) :   0.1871
B(  5-S , 13-F ) :   0.6045 B(  5-S , 14-O ) :   1.5440 B(  5-S , 22-O ) :   1.4952
B(  6-C ,  7-N ) :   0.9680 B(  6-C ,  8-C ) :   1.9813 B(  6-C ,  9-H ) :   0.1445
B(  6-C , 10-H ) :   0.5664 B(  6-C , 15-C ) :   0.2229 B(  6-C , 21-H ) :  -0.1039
B(  6-C , 27-H ) :   0.1037 B(  6-C , 28-H ) :   0.4427 B(  7-N ,  8-C ) :   0.4572
B(  7-N ,  9-H ) :   0.1545 B(  7-N , 10-H ) :  -0.1300 B(  7-N , 11-H ) :   0.9745
B(  7-N , 12-H ) :   0.8763 B(  8-C ,  9-H ) :   0.5333 B(  8-C , 27-H ) :  -0.1185
B(  9-H , 10-H ) :   0.1019 B(  9-H , 25-H ) :   0.1027 B( 10-H , 12-H ) :   0.1789
B( 11-H , 12-H ) :  -0.1556 B( 12-H , 13-F ) :   0.1497 B( 13-F , 22-O ) :   0.1024
B( 15-C , 19-C ) :   1.1827 B( 15-C , 20-H ) :   0.5966 B( 15-C , 21-H ) :   0.7201
B( 15-C , 23-H ) :   0.1347 B( 15-C , 27-H ) :   0.1359 B( 16-C , 17-H ) :   0.3099
B( 16-C , 19-C ) :   1.2269 B( 16-C , 23-H ) :   0.1542 B( 16-C , 24-H ) :   0.1651
B( 16-C , 25-H ) :   0.8044 B( 16-C , 26-H ) :   0.5763 B( 17-H , 18-H ) :  -0.1329
B( 19-C , 20-H ) :   0.3246 B( 19-C , 21-H ) :   0.1927 B( 19-C , 23-H ) :   0.8242
B( 19-C , 24-H ) :   0.7835 B( 19-C , 25-H ) :   0.1855 B( 19-C , 26-H ) :   0.2248
B( 20-H , 21-H ) :  -0.1697

Dispersion correction           -0.060475685
FINAL SINGLE POINT ENERGY     -1016.704208238680

DIPOLE MOMENT
-------------
                                X             Y             Z
Electronic contribution:      3.44000      -4.21861     -18.22280
Nuclear contribution   :     -3.13969       6.14743      19.30799
                        -----------------------------------------
Total Dipole Moment    :      0.30031       1.92882       1.08520
                        -----------------------------------------
Magnitude (a.u.)       :      2.23343
Magnitude (Debye)      :      5.67692

Rotational constants in cm-1:     0.036460     0.018762     0.015014
Rotational constants in MHz :  1093.039020   562.475626   450.105862

                             ****ORCA TERMINATED NORMALLY****
TOTAL RUN TIME: 0 days 0 hours 2 minutes 27 seconds 325 msec
