                         Program Version 5.0.0 -  RELEASE  -
|  1> !PBE D3BJ RIJCOSX def2-SVP def2/J TightSCF
|  2> *xyz 1 1
|  3> C         -0.70169        4.07250       -4.00392
|  4> N          0.68053        4.61482       -4.04800
|  5> H          0.69993        5.58489       -4.38827
|  6> H          1.27804        4.05598       -4.66824
|  7> H          1.08573        4.53358       -3.10652
|  8> C         -1.70347        5.09320       -3.47740
|  9> H         -0.99590        3.74039       -5.00065
| 10> H         -0.64358        3.20191       -3.35153
| 11> H         -1.73704        5.93384       -4.13853
| 12> H         -1.40338        5.41759       -2.50291
| 13> H         -2.67335        4.64479       -3.42108
| 14> *
| 15> %MaxCore 64000
| 16>
| 17> %pal nprocs 4
| 18> end
| 19>
| 20> %scf
| 21>   MaxIter 150
| 22> end
| 23>
| 24>
| 25>                          ****END OF INPUT****

CARTESIAN COORDINATES (ANGSTROEM)
---------------------------------
  C     -0.701690    4.072500   -4.003920
  N      0.680530    4.614820   -4.048000
  H      0.699930    5.584890   -4.388270
  H      1.278040    4.055980   -4.668240
  H      1.085730    4.533580   -3.106520
  C     -1.703470    5.093200   -3.477400
  H     -0.995900    3.740390   -5.000650
  H     -0.643580    3.201910   -3.351530
  H     -1.737040    5.933840   -4.138530
  H     -1.403380    5.417590   -2.502910
  H     -2.673350    4.644790   -3.421080

 Total Charge           Charge          ....    1
 Multiplicity           Mult            ....    1
 Number of Electrons    NEL             ....   26
 Basis Dimension        Dim             ....   82

ORBITAL ENERGIES
----------------

  NO   OCC          E(Eh)            E(eV)
   0   2.0000     -14.336742      -390.1226
   1   2.0000     -10.148233      -276.1475
   2   2.0000     -10.071941      -274.0714
   3   2.0000      -1.132351       -30.8128
   4   2.0000      -0.891325       -24.2542
   5   2.0000      -0.782084       -21.2816
   6   2.0000      -0.754700       -20.5364
   7   2.0000      -0.736657       -20.0455
   8   2.0000      -0.650141       -17.6912
   9   2.0000      -0.594492       -16.1769
  10   2.0000      -0.539710       -14.6863
  11   2.0000      -0.523978       -14.2582
  12   2.0000      -0.506402       -13.7799
  13   0.0000      -0.208851        -5.6831
  14   0.0000      -0.154628        -4.2076
  15   0.0000      -0.148836        -4.0500
  16   0.0000      -0.114996        -3.1292
  17   0.0000      -0.081011        -2.2044

MULLIKEN ATOMIC CHARGES
-----------------------
   0 C :   -0.072724
   1 N :    0.038608
   2 H :    0.207549
   3 H :    0.210268
   4 H :    0.212797
   5 C :   -0.041033
   6 H :    0.109904
   7 H :    0.100969
   8 H :    0.069348
   9 H :    0.062924
  10 H :    0.101389
Sum of atomic charges:    1.0000000

LOEWDIN ATOMIC CHARGES
----------------------
   0 C :    0.038397
   1 N :    0.305350
   2 H :    0.141919
   3 H :    0.146740
   4 H :    0.146929
   5 C :   -0.045839
   6 H :    0.058005
   7 H :    0.055457
   8 H :    0.043398
   9 H :    0.041710
  10 H :    0.067935

  Mayer bond orders larger than 0.100000
B(  0-C ,  1-N ) :   0.9463 B(  0-C ,  5-C ) :   1.1191 B(  0-C ,  6-H ) :   0.9459
B(  0-C ,  7-H ) :   0.9448 B(  1-N ,  2-H ) :   0.9305 B(  1-N ,  3-H ) :   0.9321
B(  1-N ,  4-H ) :   0.9366 B(  5-C ,  8-H ) :   0.9619 B(  5-C ,  9-H ) :   0.9660
B(  5-C , 10-H ) :   0.9500

Dispersion correction           -0.006154957
FINAL SINGLE POINT ENERGY      -135.246532337095

DIPOLE MOMENT
-------------
                                X             Y             Z
Electronic contribution:      1.81171      -0.31775      -0.45865
Nuclear contribution   :     -0.23930       0.27560       0.19485
                        -----------------------------------------
Total Dipole Moment    :      1.57241      -0.04215      -0.26380
                        -----------------------------------------
Magnitude (a.u.)       :      1.59494
Magnitude (Debye)      :      4.05402

Rotational constants in cm-1:     1.018556     0.279088     0.248454
Rotational constants in MHz : 30535.536069  8366.847891  7448.451392

                             ****ORCA TERMINATED NORMALLY****
TOTAL RUN TIME: 0 days 0 hours 0 minutes 5 seconds 931 msec
