                         Program Version 5.0.0 -  RELEASE  -
|  1> !PBE D3BJ RIJCOSX def2-SVP def2/J TightSCF
|  2> *xyz 0 1
|  3> C          1.44442        5.26658       -0.97546
|  4> F          1.56525        4.23349       -1.86489
|  5> C          0.14812        5.21087       -0.13809
|  6> H          1.47425        6.26464       -1.47692
|  7> H          2.28962        5.30327       -0.26445
|  8> H         -0.69779        5.17417       -0.79230
|  9> H          0.08430        6.08276        0.47887
| 10> H          0.15965        4.33708        0.47938
| 11> *
| 12> %MaxCore 64000
| 13>
| 14> %pal nprocs 4
| 15> end
| 16>
| 17> %scf
| 18>   MaxIter 150
| 19> end
| 20>
| 21>
| 22>                          ****END OF INPUT****

CARTESIAN COORDINATES (ANGSTROEM)
---------------------------------
  C      1.444420    5.266580   -0.975460
  F      1.565250    4.233490   -1.864890
  C      0.148120    5.210870   -0.138090
  H      1.474250    6.264640   -1.476920
  H      2.289620    5.303270   -0.264450
  H     -0.697790    5.174170   -0.792300
  H      0.084300    6.082760    0.478870
  H      0.159650    4.337080    0.479380

 Total Charge           Charge          ....    0
 Multiplicity           Mult            ....    1
 Number of Electrons    NEL             ....   26
 Basis Dimension        Dim             ....   67

ORBITAL ENERGIES
----------------

  NO   OCC          E(Eh)            E(eV)
   0   2.0000     -24.239517      -659.5908
   1   2.0000      -9.965062      -271.1631
   2   2.0000      -9.888927      -269.0914
   3   2.0000      -1.067729       -29.0544
   4   2.0000      -0.680805       -18.5257
   5   2.0000      -0.556530       -15.1440
   6   2.0000      -0.444357       -12.0916
   7   2.0000      -0.430416       -11.7122
   8   2.0000      -0.393233       -10.7004
   9   2.0000      -0.350293        -9.5320
  10   2.0000      -0.345640        -9.4053
  11   2.0000      -0.276056        -7.5119
  12   2.0000      -0.270355        -7.3567
  13   0.0000       0.044156         1.2016
  14   0.0000       0.086817         2.3624
  15   0.0000       0.092412         2.5147
  16   0.0000       0.100651         2.7388
  17   0.0000       0.120193         3.2706

MULLIKEN ATOMIC CHARGES
-----------------------
   0 C :    0.178786
   1 F :   -0.227632
   2 C :   -0.062404
   3 H :    0.012318
   4 H :    0.010840
   5 H :    0.033466
   6 H :    0.021782
   7 H :    0.032845
Sum of atomic charges:    0.0000000

LOEWDIN ATOMIC CHARGES
----------------------
   0 C :    0.089545
   1 F :   -0.112923
   2 C :   -0.081772
   3 H :    0.010198
   4 H :    0.008944
   5 H :    0.027307
   6 H :    0.032260
   7 H :    0.026441

  Mayer bond orders larger than 0.100000
B(  0-C ,  1-F ) :   1.0414 B(  0-C ,  2-C ) :   1.1036 B(  0-C ,  3-H ) :   0.9486
B(  0-C ,  4-H ) :   0.9488 B(  2-C ,  5-H ) :   0.9668 B(  2-C ,  6-H ) :   0.9543
B(  2-C ,  7-H ) :   0.9684

Dispersion correction           -0.003475603
FINAL SINGLE POINT ENERGY      -178.708498193655

DIPOLE MOMENT
-------------
                                X             Y             Z
Electronic contribution:      2.32286      -2.82424      -3.77617
Nuclear contribution   :     -2.43357       3.25919       4.19687
                        -----------------------------------------
Total Dipole Moment    :     -0.11071       0.43495       0.42070
                        -----------------------------------------
Magnitude (a.u.)       :      0.61516
Magnitude (Debye)      :      1.56362

Rotational constants in cm-1:     1.264662     0.300144     0.266170
Rotational constants in MHz : 37913.611527  8998.095216  7979.576054

                             ****ORCA TERMINATED NORMALLY****
TOTAL RUN TIME: 0 days 0 hours 0 minutes 5 seconds 326 msec
