                         Program Version 5.0.0 -  RELEASE  -
|  1> !PBE D3BJ RIJCOSX def2-SVP def2/J TightSCF
|  2> *xyz 0 1
|  3> C         -0.70169        4.07250       -4.00392
|  4> C          0.68053        4.61482       -4.04800
|  5> H          0.69993        5.58489       -4.38827
|  6> H          1.27804        4.05598       -4.66824
|  7> H          1.08573        4.53358       -3.10652
|  8> C         -1.70347        5.09320       -3.47740
|  9> H         -0.99590        3.74039       -5.00065
| 10> H         -0.64358        3.20191       -3.35153
| 11> H         -1.73704        5.93384       -4.13853
| 12> H         -1.40338        5.41759       -2.50291
| 13> H         -2.67335        4.64479       -3.42108
| 14> *
| 15> %MaxCore 64000
| 16>
| 17> %pal nprocs 4
| 18> end
| 19>
| 20> %scf
| 21>   MaxIter 150
| 22> end
| 23>
| 24>
| 25>                          ****END OF INPUT****

CARTESIAN COORDINATES (ANGSTROEM)
---------------------------------
  C     -0.701690    4.072500   -4.003920
  C      0.680530    4.614820   -4.048000
  H      0.699930    5.584890   -4.388270
  H      1.278040    4.055980   -4.668240
  H      1.085730    4.533580   -3.106520
  C     -1.703470    5.093200   -3.477400
  H     -0.995900    3.740390   -5.000650
  H     -0.643580    3.201910   -3.351530
  H     -1.737040    5.933840   -4.138530
  H     -1.403380    5.417590   -2.502910
  H     -2.673350    4.644790   -3.421080

 Total Charge           Charge          ....    0
 Multiplicity           Mult            ....    1
 Number of Electrons    NEL             ....   26
 Basis Dimension        Dim             ....   82

ORBITAL ENERGIES
----------------

  NO   OCC          E(Eh)            E(eV)
   0   2.0000      -9.880651      -268.8662
   1   2.0000      -9.873518      -268.6721
   2   2.0000      -9.857204      -268.2282
   3   2.0000      -0.710133       -19.3237
   4   2.0000      -0.614895       -16.7321
   5   2.0000      -0.516705       -14.0603
   6   2.0000      -0.416673       -11.3382
   7   2.0000      -0.393748       -10.7144
   8   2.0000      -0.354271        -9.6402
   9   2.0000      -0.342573        -9.3219
  10   2.0000      -0.293413        -7.9842
  11   2.0000      -0.289627        -7.8812
  12   2.0000      -0.280621        -7.6361
  13   0.0000       0.043650         1.1878
  14   0.0000       0.088537         2.4092
  15   0.0000       0.091751         2.4967
  16   0.0000       0.097429         2.6512
  17   0.0000       0.123707         3.3662

MULLIKEN ATOMIC CHARGES
-----------------------
   0 C :   -0.100126
   1 C :    0.060731
   2 H :   -0.007062
   3 H :   -0.009689
   4 H :   -0.003593
   5 C :   -0.006214
   6 H :    0.012235
   7 H :    0.010936
   8 H :    0.015652
   9 H :    0.012499
  10 H :    0.014630
Sum of atomic charges:   -0.0000000

LOEWDIN ATOMIC CHARGES
----------------------
   0 C :   -0.046177
   1 C :   -0.050334
   2 H :    0.013426
   3 H :    0.017720
   4 H :    0.017425
   5 C :   -0.059089
   6 H :    0.019720
   7 H :    0.022144
   8 H :    0.021510
   9 H :    0.021031
  10 H :    0.022624

  Mayer bond orders larger than 0.100000
B(  0-C ,  1-C ) :   1.1249 B(  0-C ,  5-C ) :   1.1201 B(  0-C ,  6-H ) :   0.9498
B(  0-C ,  7-H ) :   0.9488 B(  1-C ,  2-H ) :   0.9661 B(  1-C ,  3-H ) :   0.9542
B(  1-C ,  4-H ) :   0.9660 B(  5-C ,  8-H ) :   0.9681 B(  5-C ,  9-H ) :   0.9710
B(  5-C , 10-H ) :   0.9642

Dispersion correction           -0.006152764
FINAL SINGLE POINT ENERGY      -118.854134292828

DIPOLE MOMENT
-------------
                                X             Y             Z
Electronic contribution:     -0.13409      -0.30036      -0.13241
Nuclear contribution   :      0.16058       0.27975       0.12812
                        -----------------------------------------
Total Dipole Moment    :      0.02648      -0.02061      -0.00430
                        -----------------------------------------
Magnitude (a.u.)       :      0.03383
Magnitude (Debye)      :      0.08599

Rotational constants in cm-1:     1.027122     0.293327     0.260229
Rotational constants in MHz : 30792.337141  8793.723318  7801.458329

                             ****ORCA TERMINATED NORMALLY****
TOTAL RUN TIME: 0 days 0 hours 0 minutes 6 seconds 278 msec
