                         Program Version 5.0.0 -  RELEASE  -
|  1> !wB97X-D3 RIJCOSX def2-SVPD def2/J TightSCF
|  2> *xyz -1 1
|  3> C          3.90595        2.81985       -3.75292
|  4> C          3.80351        1.37472       -3.26081
|  5> C          3.93993        0.32036       -4.36773
|  6> H          4.10504       -0.65508       -3.90773
|  7> H          3.02280        0.28052       -4.95712
|  8> C          5.10585        0.66802       -5.30546
|  9> H          4.57483        1.21516       -2.50044
| 10> H          2.84351        1.26085       -2.75146
| 11> O          4.80913        1.15019       -6.41436
| 12> O          6.26737        0.56500       -4.81948
| 13> H          3.15892        2.99660       -4.49832
| 14> H          4.87575        2.98549       -4.17357
| 15> H          3.75481        3.48808       -2.93101
| 16> *
| 17>
| 18> %MaxCore 64000
| 19>
| 20> %pal nprocs 18
| 21> end
| 22>
| 23> %scf
| 24>   MaxIter 150
| 25> end
| 26>
| 27>
| 28>                          ****END OF INPUT****

CARTESIAN COORDINATES (ANGSTROEM)
---------------------------------
  C      3.905950    2.819850   -3.752920
  C      3.803510    1.374720   -3.260810
  C      3.939930    0.320360   -4.367730
  H      4.105040   -0.655080   -3.907730
  H      3.022800    0.280520   -4.957120
  C      5.105850    0.668020   -5.305460
  H      4.574830    1.215160   -2.500440
  H      2.843510    1.260850   -2.751460
  O      4.809130    1.150190   -6.414360
  O      6.267370    0.565000   -4.819480
  H      3.158920    2.996600   -4.498320
  H      4.875750    2.985490   -4.173570
  H      3.754810    3.488080   -2.931010

 Total Charge           Charge          ....   -1
 Multiplicity           Mult            ....    1
 Number of Electrons    NEL             ....   48
 Basis Dimension        Dim             ....  182

ORBITAL ENERGIES
----------------

  NO   OCC          E(Eh)            E(eV)
   0   2.0000     -18.987474      -516.6754
   1   2.0000     -18.983746      -516.5740
   2   2.0000     -10.179735      -277.0047
   3   2.0000     -10.142963      -276.0041
   4   2.0000     -10.129432      -275.6359
   5   2.0000     -10.115815      -275.2653
   6   2.0000      -0.932741       -25.3812
   7   2.0000      -0.837154       -22.7801
   8   2.0000      -0.747152       -20.3310
   9   2.0000      -0.647707       -17.6250
  10   2.0000      -0.549093       -14.9416
  11   2.0000      -0.429494       -11.6871
  12   2.0000      -0.405381       -11.0310
  13   2.0000      -0.392100       -10.6696
  14   2.0000      -0.350550        -9.5390
  15   2.0000      -0.336393        -9.1537
  16   2.0000      -0.308991        -8.4081
  17   2.0000      -0.304331        -8.2813
  18   2.0000      -0.293427        -7.9846
  19   2.0000      -0.269422        -7.3313
  20   2.0000      -0.263660        -7.1745
  21   2.0000      -0.148131        -4.0309
  22   2.0000      -0.138426        -3.7668
  23   2.0000      -0.129793        -3.5318
  24   0.0000       0.216641         5.8951
  25   0.0000       0.239861         6.5270
  26   0.0000       0.254009         6.9119
  27   0.0000       0.268187         7.2978
  28   0.0000       0.292853         7.9689

MULLIKEN ATOMIC CHARGES
-----------------------
   0 C :    0.596758
   1 C :   -0.441666
   2 C :    0.194387
   3 H :   -0.033896
   4 H :    0.003950
   5 C :    0.373022
   6 H :   -0.013639
   7 H :   -0.162121
   8 O :   -0.652335
   9 O :   -0.721941
  10 H :   -0.040910
  11 H :    0.010155
  12 H :   -0.111765
Sum of atomic charges:   -1.0000000

LOEWDIN ATOMIC CHARGES
----------------------
   0 C :    0.108745
   1 C :   -0.087140
   2 C :   -0.003516
   3 H :    0.004932
   4 H :    0.003551
   5 C :   -0.311957
   6 H :    0.013931
   7 H :   -0.003282
   8 O :   -0.319920
   9 O :   -0.334283
  10 H :   -0.017917
  11 H :   -0.016398
  12 H :   -0.036747

  Mayer bond orders larger than 0.100000
B(  0-C ,  1-C ) :   1.3071 B(  0-C ,  7-H ) :   0.1046 B(  0-C , 10-H ) :   0.7974
B(  0-C , 11-H ) :   0.8296 B(  0-C , 12-H ) :   0.7880 B(  1-C ,  2-C ) :   1.1687
B(  1-C ,  3-H ) :   0.1362 B(  1-C ,  4-H ) :   0.1422 B(  1-C ,  6-H ) :   0.9368
B(  1-C ,  7-H ) :   0.9800 B(  1-C , 10-H ) :   0.1952 B(  1-C , 11-H ) :   0.2013
B(  1-C , 12-H ) :   0.2047 B(  2-C ,  3-H ) :   0.8490 B(  2-C ,  4-H ) :   0.8703
B(  2-C ,  5-C ) :   1.0107 B(  3-H ,  5-C ) :   0.1255 B(  4-H ,  5-C ) :   0.1728
B(  5-C ,  8-O ) :   1.5434 B(  5-C ,  9-O ) :   1.5103

Dispersion correction           -0.003543483
FINAL SINGLE POINT ENERGY      -306.862718773300

DIPOLE MOMENT
-------------
                                X             Y             Z
Electronic contribution:      4.12416      -2.84434      -4.79475
Nuclear contribution   :     -5.80393       3.20473       6.46101
                        -----------------------------------------
Total Dipole Moment    :     -1.67977       0.36039       1.66626
                        -----------------------------------------
Magnitude (a.u.)       :      2.39331
Magnitude (Debye)      :      6.08331

Rotational constants in cm-1:     0.184459     0.088019     0.082330
Rotational constants in MHz :  5529.929668  2638.753248  2468.201746

                             ****ORCA TERMINATED NORMALLY****
TOTAL RUN TIME: 0 days 0 hours 0 minutes 10 seconds 136 msec
