                         Program Version 5.0.0 -  RELEASE  -
|  1> !wB97X-D3 RIJCOSX def2-SVPD def2/J TightSCF
|  2> *xyz 1 1
|  3> C          3.90595        2.81985       -3.75292
|  4> N          5.29562        3.13151       -4.10533
|  5> C          3.80351        1.37472       -3.26081
|  6> C          3.93993        0.32036       -4.36773
|  7> C          5.70862        3.46889       -5.32419
|  8> N          6.90470        3.03895       -5.71708
|  9> N          4.98188        4.29357       -6.09746
| 10> H          5.00055        4.10131       -7.08776
| 11> H          4.08469        4.59690       -5.73965
| 12> H          5.96336        2.52611       -3.64239
| 13> H          7.04716        2.06686       -5.47360
| 14> H          7.19815        3.30799       -6.64523
| 15> H          3.28202        2.94919       -4.64026
| 16> H          3.56525        3.51457       -2.98252
| 17> H          4.57483        1.21516       -2.50044
| 18> H          2.84351        1.26085       -2.75146
| 19> H          3.18417        0.48061       -5.10803
| 20> H          3.82485       -0.65632       -3.94614
| 21> H          4.90589        0.40174       -4.82073
| 22> *
| 23>
| 24> %MaxCore 64000
| 25>
| 26> %pal nprocs 18
| 27> end
| 28>
| 29> %scf
| 30>   MaxIter 150
| 31> end
| 32>
| 33>
| 34>                          ****END OF INPUT****

CARTESIAN COORDINATES (ANGSTROEM)
---------------------------------
  C      3.905950    2.819850   -3.752920
  N      5.295620    3.131510   -4.105330
  C      3.803510    1.374720   -3.260810
  C      3.939930    0.320360   -4.367730
  C      5.708620    3.468890   -5.324190
  N      6.904700    3.038950   -5.717080
  N      4.981880    4.293570   -6.097460
  H      5.000550    4.101310   -7.087760
  H      4.084690    4.596900   -5.739650
  H      5.963360    2.526110   -3.642390
  H      7.047160    2.066860   -5.473600
  H      7.198150    3.307990   -6.645230
  H      3.282020    2.949190   -4.640260
  H      3.565250    3.514570   -2.982520
  H      4.574830    1.215160   -2.500440
  H      2.843510    1.260850   -2.751460
  H      3.184170    0.480610   -5.108030
  H      3.824850   -0.656320   -3.946140
  H      4.905890    0.401740   -4.820730

 Total Charge           Charge          ....    1
 Multiplicity           Mult            ....    1
 Number of Electrons    NEL             ....   56
 Basis Dimension        Dim             ....  236

ORBITAL ENERGIES
----------------

  NO   OCC          E(Eh)            E(eV)
   0   2.0000     -14.664356      -399.0374
   1   2.0000     -14.663073      -399.0025
   2   2.0000     -14.662730      -398.9932
   3   2.0000     -10.629921      -289.2549
   4   2.0000     -10.496262      -285.6178
   5   2.0000     -10.441244      -284.1207
   6   2.0000     -10.415974      -283.4331
   7   2.0000      -1.332392       -36.2562
   8   2.0000      -1.216783       -33.1104
   9   2.0000      -1.208209       -32.8770
  10   2.0000      -1.055905       -28.7326
  11   2.0000      -0.974122       -26.5072
  12   2.0000      -0.927146       -25.2289
  13   2.0000      -0.887799       -24.1582
  14   2.0000      -0.870209       -23.6796
  15   2.0000      -0.841190       -22.8899
  16   2.0000      -0.802214       -21.8294
  17   2.0000      -0.787625       -21.4324
  18   2.0000      -0.749205       -20.3869
  19   2.0000      -0.732593       -19.9349
  20   2.0000      -0.691582       -18.8189
  21   2.0000      -0.683776       -18.6065
  22   2.0000      -0.656165       -17.8552
  23   2.0000      -0.610013       -16.5993
  24   2.0000      -0.590955       -16.0807
  25   2.0000      -0.589597       -16.0438
  26   2.0000      -0.581213       -15.8156
  27   2.0000      -0.548146       -14.9158
  28   0.0000      -0.111439        -3.0324
  29   0.0000      -0.075956        -2.0669
  30   0.0000      -0.045306        -1.2328
  31   0.0000      -0.029417        -0.8005
  32   0.0000      -0.015065        -0.4100

MULLIKEN ATOMIC CHARGES
-----------------------
   0 C :    0.710723
   1 N :   -0.407839
   2 C :   -0.368506
   3 C :    0.747367
   4 C :    0.901220
   5 N :   -0.016571
   6 N :   -0.046491
   7 H :    0.009270
   8 H :    0.046051
   9 H :   -0.077215
  10 H :    0.008776
  11 H :    0.041522
  12 H :   -0.023786
  13 H :   -0.260498
  14 H :   -0.020252
  15 H :   -0.051414
  16 H :    0.053086
  17 H :    0.008024
  18 H :   -0.253467
Sum of atomic charges:    1.0000000

LOEWDIN ATOMIC CHARGES
----------------------
   0 C :    0.073915
   1 N :    0.054544
   2 C :   -0.048169
   3 C :    0.141423
   4 C :   -0.041860
   5 N :    0.266704
   6 N :    0.276389
   7 H :    0.040174
   8 H :    0.026579
   9 H :    0.044701
  10 H :    0.033958
  11 H :    0.039705
  12 H :    0.024942
  13 H :    0.038089
  14 H :    0.029228
  15 H :    0.038999
  16 H :   -0.007015
  17 H :    0.000683
  18 H :   -0.032989

  Mayer bond orders larger than 0.100000
B(  0-C ,  1-N ) :   0.8430 B(  0-C ,  2-C ) :   1.1277 B(  0-C , 12-H ) :   0.7730
B(  0-C , 13-H ) :   0.9846 B(  0-C , 15-H ) :   0.1327 B(  1-N ,  4-C ) :   1.1813
B(  1-N ,  5-N ) :   0.1789 B(  1-N ,  9-H ) :   1.1178 B(  1-N , 12-H ) :   0.1152
B(  1-N , 13-H ) :   0.1087 B(  2-C ,  3-C ) :   1.2198 B(  2-C , 14-H ) :   0.9429
B(  2-C , 15-H ) :   0.9892 B(  2-C , 16-H ) :   0.1850 B(  2-C , 17-H ) :   0.1866
B(  2-C , 18-H ) :   0.2132 B(  3-C , 16-H ) :   0.7607 B(  3-C , 17-H ) :   0.7906
B(  3-C , 18-H ) :   0.8340 B(  4-C ,  5-N ) :   0.9936 B(  4-C ,  6-N ) :   1.0049
B(  4-C ,  9-H ) :  -0.1532 B(  5-N ,  6-N ) :   0.1092 B(  5-N , 10-H ) :   1.0107
B(  5-N , 11-H ) :   0.9766 B(  6-N ,  7-H ) :   1.1201 B(  6-N ,  8-H ) :   0.9447
B(  7-H ,  8-H ) :  -0.1104 B( 16-H , 18-H ) :   0.1176

Dispersion correction           -0.005480949
FINAL SINGLE POINT ENERGY      -323.407167087510

DIPOLE MOMENT
-------------
                                X             Y             Z
Electronic contribution:      4.02763       5.69943      -2.06237
Nuclear contribution   :     -3.60155      -5.39511       0.90505
                        -----------------------------------------
Total Dipole Moment    :      0.42608       0.30433      -1.15732
                        -----------------------------------------
Magnitude (a.u.)       :      1.27026
Magnitude (Debye)      :      3.22874

Rotational constants in cm-1:     0.145371     0.050507     0.045444
Rotational constants in MHz :  4358.114605  1514.164418  1362.368391

                             ****ORCA TERMINATED NORMALLY****
TOTAL RUN TIME: 0 days 0 hours 0 minutes 16 seconds 647 msec
