                         Program Version 5.0.0 -  RELEASE  -
|  1> !wB97X-D3 RIJCOSX def2-SVPD def2/J TightSCF xyzfile
|  2>
|  3> *xyzfile 0 1 B.xyz
|  4>
|  5> %MaxCore 64000
|  6>
|  7> %pal nprocs 18
|  8> end
|  9>
| 10> %scf
| 11>   MaxIter 150
| 12> end
| 13>
| 14>
| 15>                          ****END OF INPUT****

CARTESIAN COORDINATES (ANGSTROEM)
---------------------------------
  C      3.905947    2.819855   -3.752920
  N      5.295615    3.131515   -4.105334
  C      3.803511    1.374716   -3.260807
  C      3.939934    0.320362   -4.367729
  H      4.105043   -0.655085   -3.907733
  H      3.022801    0.280517   -4.957117
  C      5.105846    0.668022   -5.305463
  C      5.708619    3.468885   -5.324190
  N      6.904696    3.038954   -5.717084
  N      4.981884    4.293570   -6.097457
  H      5.000546    4.101311   -7.087761
  H      4.084693    4.596899   -5.739652
  H      5.963358    2.526112   -3.642391
  H      7.047164    2.066861   -5.473604
  H      7.198145    3.307994   -6.645225
  H      3.282025    2.949187   -4.640259
  H      3.565254    3.514574   -2.982523
  H      4.574833    1.215157   -2.500443
  H      2.843514    1.260845   -2.751465
  O      4.809132    1.150187   -6.414361
  O      6.267366    0.564999   -4.819481

 Total Charge           Charge          ....    0
 Multiplicity           Mult            ....    1
 Number of Electrons    NEL             ....   78
 Basis Dimension        Dim             ....  294

ORBITAL ENERGIES
----------------

  NO   OCC          E(Eh)            E(eV)
   0   2.0000     -19.164317      -521.4876
   1   2.0000     -19.161783      -521.4186
   2   2.0000     -14.504907      -394.6986
   3   2.0000     -14.496065      -394.4580
   4   2.0000     -14.473591      -393.8464
   5   2.0000     -10.462907      -284.7102
   6   2.0000     -10.353537      -281.7341
   7   2.0000     -10.353196      -281.7248
   8   2.0000     -10.303411      -280.3701
   9   2.0000     -10.269352      -279.4433
  10   2.0000      -1.164688       -31.6928
  11   2.0000      -1.112668       -30.2772
  12   2.0000      -1.054233       -28.6871
  13   2.0000      -1.035083       -28.1660
  14   2.0000      -1.017201       -27.6795
  15   2.0000      -0.908637       -24.7253
  16   2.0000      -0.824533       -22.4367
  17   2.0000      -0.764912       -20.8143
  18   2.0000      -0.732563       -19.9340
  19   2.0000      -0.715359       -19.4659
  20   2.0000      -0.680871       -18.5274
  21   2.0000      -0.641213       -17.4483
  22   2.0000      -0.619844       -16.8668
  23   2.0000      -0.602856       -16.4046
  24   2.0000      -0.582288       -15.8449
  25   2.0000      -0.576599       -15.6901
  26   2.0000      -0.534247       -14.5376
  27   2.0000      -0.525492       -14.2994
  28   2.0000      -0.511923       -13.9301
  29   2.0000      -0.490220       -13.3396
  30   2.0000      -0.482223       -13.1220
  31   2.0000      -0.476796       -12.9743
  32   2.0000      -0.439331       -11.9548
  33   2.0000      -0.433153       -11.7867
  34   2.0000      -0.414566       -11.2809
  35   2.0000      -0.387172       -10.5355
  36   2.0000      -0.329230        -8.9588
  37   2.0000      -0.314677        -8.5628
  38   2.0000      -0.306551        -8.3417
  39   0.0000       0.056383         1.5343
  40   0.0000       0.069913         1.9024
  41   0.0000       0.092853         2.5267
  42   0.0000       0.104134         2.8336
  43   0.0000       0.123791         3.3685

MULLIKEN ATOMIC CHARGES
-----------------------
   0 C :    0.780850
   1 N :   -0.428179
   2 C :    0.010618
   3 C :    0.288897
   4 H :   -0.057020
   5 H :    0.012472
   6 C :    0.337279
   7 C :    0.886341
   8 N :    0.086356
   9 N :   -0.121842
  10 H :    0.010532
  11 H :    0.034049
  12 H :   -0.097516
  13 H :   -0.099009
  14 H :    0.047402
  15 H :    0.001164
  16 H :   -0.319940
  17 H :    0.066365
  18 H :   -0.137793
  19 O :   -0.590608
  20 O :   -0.710420
Sum of atomic charges:   -0.0000000

LOEWDIN ATOMIC CHARGES
----------------------
   0 C :    0.075478
   1 N :    0.058844
   2 C :   -0.010309
   3 C :    0.036834
   4 H :    0.027049
   5 H :    0.021375
   6 C :   -0.254525
   7 C :   -0.068872
   8 N :    0.279287
   9 N :    0.258776
  10 H :    0.027806
  11 H :    0.010273
  12 H :    0.024809
  13 H :   -0.061302
  14 H :    0.029630
  15 H :    0.024366
  16 H :    0.020718
  17 H :    0.028616
  18 H :    0.023468
  19 O :   -0.269602
  20 O :   -0.282720

  Mayer bond orders larger than 0.100000
B(  0-C ,  1-N ) :   0.8015 B(  0-C ,  2-C ) :   1.1654 B(  0-C , 15-H ) :   0.7466
B(  0-C , 16-H ) :   0.9189 B(  0-C , 18-H ) :   0.1665 B(  1-N ,  2-C ) :   0.1444
B(  1-N ,  7-C ) :   1.0959 B(  1-N ,  8-N ) :   0.1509 B(  1-N , 12-H ) :   1.1356
B(  1-N , 15-H ) :   0.1141 B(  2-C ,  3-C ) :   1.1910 B(  2-C ,  4-H ) :   0.1644
B(  2-C ,  5-H ) :   0.1199 B(  2-C , 17-H ) :   0.8483 B(  2-C , 18-H ) :   0.9482
B(  3-C ,  4-H ) :   0.8219 B(  3-C ,  5-H ) :   0.8386 B(  3-C ,  6-C ) :   1.0359
B(  4-H ,  6-C ) :   0.1317 B(  5-H ,  6-C ) :   0.2492 B(  6-C , 19-O ) :   1.6069
B(  6-C , 20-O ) :   1.3711 B(  7-C ,  8-N ) :   1.0267 B(  7-C ,  9-N ) :   0.8807
B(  7-C , 12-H ) :  -0.1927 B(  8-N ,  9-N ) :   0.1346 B(  8-N , 13-H ) :   0.9541
B(  8-N , 14-H ) :   0.9208 B(  9-N , 10-H ) :   1.1135 B(  9-N , 11-H ) :   0.9331
B( 10-H , 11-H ) :  -0.1112 B( 13-H , 20-O ) :   0.1873

Dispersion correction           -0.009113476
FINAL SINGLE POINT ENERGY      -511.417790837166

DIPOLE MOMENT
-------------
                                X             Y             Z
Electronic contribution:      4.14740       0.43731      -3.40350
Nuclear contribution   :     -4.94498       2.03334       3.78956
                        -----------------------------------------
Total Dipole Moment    :     -0.79758       2.47065       0.38606
                        -----------------------------------------
Magnitude (a.u.)       :      2.62475
Magnitude (Debye)      :      6.67158

Rotational constants in cm-1:     0.062533     0.042832     0.033687
Rotational constants in MHz :  1874.701390  1284.063603  1009.911042

                             ****ORCA TERMINATED NORMALLY****
TOTAL RUN TIME: 0 days 0 hours 0 minutes 34 seconds 26 msec
