                         Program Version 5.0.0 -  RELEASE  -
|  1> !wB97X-D3 RIJCOSX def2-SVPD def2/J TightSCF
|  2> *xyz 0 1
|  3> C          3.90595        2.81985       -3.75292
|  4> C          3.80351        1.37472       -3.26081
|  5> C          3.93993        0.32036       -4.36773
|  6> H          4.10504       -0.65508       -3.90773
|  7> H          3.02280        0.28052       -4.95712
|  8> C          5.10585        0.66802       -5.30546
|  9> H          4.57483        1.21516       -2.50044
| 10> H          2.84351        1.26085       -2.75146
| 11> F          4.80913        1.15019       -6.41436
| 12> O          6.26737        0.56500       -4.81948
| 13> H          3.15892        2.99660       -4.49832
| 14> H          4.87575        2.98549       -4.17357
| 15> H          3.75481        3.48808       -2.93101
| 16> *
| 17>
| 18> %MaxCore 64000
| 19>
| 20> %pal nprocs 18
| 21> end
| 22>
| 23> %scf
| 24>   MaxIter 150
| 25> end
| 26>
| 27>
| 28>                          ****END OF INPUT****

CARTESIAN COORDINATES (ANGSTROEM)
---------------------------------
  C      3.905950    2.819850   -3.752920
  C      3.803510    1.374720   -3.260810
  C      3.939930    0.320360   -4.367730
  H      4.105040   -0.655080   -3.907730
  H      3.022800    0.280520   -4.957120
  C      5.105850    0.668020   -5.305460
  H      4.574830    1.215160   -2.500440
  H      2.843510    1.260850   -2.751460
  F      4.809130    1.150190   -6.414360
  O      6.267370    0.565000   -4.819480
  H      3.158920    2.996600   -4.498320
  H      4.875750    2.985490   -4.173570
  H      3.754810    3.488080   -2.931010

 Total Charge           Charge          ....    0
 Multiplicity           Mult            ....    1
 Number of Electrons    NEL             ....   48
 Basis Dimension        Dim             ....  182

ORBITAL ENERGIES
----------------

  NO   OCC          E(Eh)            E(eV)
   0   2.0000     -24.880160      -677.0236
   1   2.0000     -19.254645      -523.9455
   2   2.0000     -10.476736      -285.0865
   3   2.0000     -10.320813      -280.8436
   4   2.0000     -10.307517      -280.4818
   5   2.0000     -10.284615      -279.8586
   6   2.0000      -1.433718       -39.0135
   7   2.0000      -1.138121       -30.9699
   8   2.0000      -0.927566       -25.2404
   9   2.0000      -0.839207       -22.8360
  10   2.0000      -0.776953       -21.1420
  11   2.0000      -0.721339       -19.6286
  12   2.0000      -0.664354       -18.0780
  13   2.0000      -0.644174       -17.5289
  14   2.0000      -0.614435       -16.7196
  15   2.0000      -0.569318       -15.4919
  16   2.0000      -0.559365       -15.2211
  17   2.0000      -0.518634       -14.1128
  18   2.0000      -0.504684       -13.7332
  19   2.0000      -0.472449       -12.8560
  20   2.0000      -0.454137       -12.3577
  21   2.0000      -0.443381       -12.0650
  22   2.0000      -0.441160       -12.0046
  23   2.0000      -0.389973       -10.6117
  24   0.0000       0.048582         1.3220
  25   0.0000       0.085557         2.3281
  26   0.0000       0.113490         3.0882
  27   0.0000       0.117262         3.1909
  28   0.0000       0.132336         3.6010

MULLIKEN ATOMIC CHARGES
-----------------------
   0 C :    0.575137
   1 C :   -0.393509
   2 C :    0.079022
   3 H :    0.026733
   4 H :    0.051869
   5 C :    0.785362
   6 H :    0.006789
   7 H :   -0.108770
   8 F :   -0.366052
   9 O :   -0.534986
  10 H :   -0.039315
  11 H :   -0.019411
  12 H :   -0.062868
Sum of atomic charges:   -0.0000000

LOEWDIN ATOMIC CHARGES
----------------------
   0 C :    0.124215
   1 C :   -0.060548
   2 C :    0.042668
   3 H :    0.036879
   4 H :    0.025222
   5 C :   -0.010070
   6 H :    0.030965
   7 H :    0.022761
   8 F :   -0.027502
   9 O :   -0.144553
  10 H :   -0.010790
  11 H :   -0.016735
  12 H :   -0.012513

  Mayer bond orders larger than 0.100000
B(  0-C ,  1-C ) :   1.3210 B(  0-C ,  7-H ) :   0.1006 B(  0-C , 10-H ) :   0.8109
B(  0-C , 11-H ) :   0.8417 B(  0-C , 12-H ) :   0.8105 B(  1-C ,  2-C ) :   1.1855
B(  1-C ,  3-H ) :   0.1276 B(  1-C ,  4-H ) :   0.1307 B(  1-C ,  6-H ) :   0.9410
B(  1-C ,  7-H ) :   0.9858 B(  1-C , 10-H ) :   0.1770 B(  1-C , 11-H ) :   0.1835
B(  1-C , 12-H ) :   0.1872 B(  2-C ,  3-H ) :   0.8662 B(  2-C ,  4-H ) :   0.8862
B(  2-C ,  5-C ) :   1.0707 B(  5-C ,  8-F ) :   0.7196 B(  5-C ,  9-O ) :   1.8068

Dispersion correction           -0.003458981
FINAL SINGLE POINT ENERGY      -331.389551263998

DIPOLE MOMENT
-------------
                                X             Y             Z
Electronic contribution:      4.78466      -3.19422      -8.24350
Nuclear contribution   :     -5.98367       3.22001       8.44002
                        -----------------------------------------
Total Dipole Moment    :     -1.19901       0.02579       0.19653
                        -----------------------------------------
Magnitude (a.u.)       :      1.21528
Magnitude (Debye)      :      3.08900

Rotational constants in cm-1:     0.177409     0.085514     0.078973
Rotational constants in MHz :  5318.577687  2563.657993  2367.557452

                             ****ORCA TERMINATED NORMALLY****
TOTAL RUN TIME: 0 days 0 hours 0 minutes 10 seconds 521 msec
