                         Program Version 5.0.0 -  RELEASE  -
|  1> !wB97X-D3 RIJCOSX def2-SVPD def2/J TightSCF
|  2> *xyz 0 1
|  3> C          3.90595        2.81985       -3.75292
|  4> C          5.29562        3.13151       -4.10533
|  5> C          3.80351        1.37472       -3.26081
|  6> C          3.93993        0.32036       -4.36773
|  7> C          5.70862        3.46889       -5.32419
|  8> N          6.90470        3.03895       -5.71708
|  9> N          4.98188        4.29357       -6.09746
| 10> H          5.00055        4.10131       -7.08776
| 11> H          4.08469        4.59690       -5.73965
| 12> H          5.96336        2.52611       -3.64239
| 13> H          7.04716        2.06686       -5.47360
| 14> H          7.19815        3.30799       -6.64523
| 15> H          3.28202        2.94919       -4.64026
| 16> H          3.56525        3.51457       -2.98252
| 17> H          4.57483        1.21516       -2.50044
| 18> H          2.84351        1.26085       -2.75146
| 19> H          3.18417        0.48061       -5.10803
| 20> H          3.82485       -0.65632       -3.94614
| 21> H          4.90589        0.40174       -4.82073
| 22> *
| 23>
| 24> %MaxCore 64000
| 25>
| 26> %pal nprocs 18
| 27> end
| 28>
| 29> %scf
| 30>   MaxIter 150
| 31> end
| 32>
| 33>
| 34>                          ****END OF INPUT****

CARTESIAN COORDINATES (ANGSTROEM)
---------------------------------
  C      3.905950    2.819850   -3.752920
  C      5.295620    3.131510   -4.105330
  C      3.803510    1.374720   -3.260810
  C      3.939930    0.320360   -4.367730
  C      5.708620    3.468890   -5.324190
  N      6.904700    3.038950   -5.717080
  N      4.981880    4.293570   -6.097460
  H      5.000550    4.101310   -7.087760
  H      4.084690    4.596900   -5.739650
  H      5.963360    2.526110   -3.642390
  H      7.047160    2.066860   -5.473600
  H      7.198150    3.307990   -6.645230
  H      3.282020    2.949190   -4.640260
  H      3.565250    3.514570   -2.982520
  H      4.574830    1.215160   -2.500440
  H      2.843510    1.260850   -2.751460
  H      3.184170    0.480610   -5.108030
  H      3.824850   -0.656320   -3.946140
  H      4.905890    0.401740   -4.820730

 Total Charge           Charge          ....    0
 Multiplicity           Mult            ....    1
 Number of Electrons    NEL             ....   56
 Basis Dimension        Dim             ....  236

ORBITAL ENERGIES
----------------

  NO   OCC          E(Eh)            E(eV)
   0   2.0000     -14.442842      -393.0097
   1   2.0000     -14.439439      -392.9171
   2   2.0000     -10.334828      -281.2250
   3   2.0000     -10.273403      -279.5535
   4   2.0000     -10.267042      -279.3804
   5   2.0000     -10.266483      -279.3652
   6   2.0000     -10.215125      -277.9677
   7   2.0000      -1.077412       -29.3179
   8   2.0000      -0.985672       -26.8215
   9   2.0000      -0.902302       -24.5529
  10   2.0000      -0.833339       -22.6763
  11   2.0000      -0.768989       -20.9253
  12   2.0000      -0.699309       -19.0292
  13   2.0000      -0.674905       -18.3651
  14   2.0000      -0.639295       -17.3961
  15   2.0000      -0.616114       -16.7653
  16   2.0000      -0.579720       -15.7750
  17   2.0000      -0.548201       -14.9173
  18   2.0000      -0.539833       -14.6896
  19   2.0000      -0.515230       -14.0201
  20   2.0000      -0.483670       -13.1613
  21   2.0000      -0.471695       -12.8355
  22   2.0000      -0.447553       -12.1785
  23   2.0000      -0.428050       -11.6478
  24   2.0000      -0.413758       -11.2589
  25   2.0000      -0.408647       -11.1198
  26   2.0000      -0.371518       -10.1095
  27   2.0000      -0.257976        -7.0199
  28   0.0000       0.083516         2.2726
  29   0.0000       0.110008         2.9935
  30   0.0000       0.114140         3.1059
  31   0.0000       0.125211         3.4072
  32   0.0000       0.133046         3.6204

MULLIKEN ATOMIC CHARGES
-----------------------
   0 C :    0.306705
   1 C :    0.041859
   2 C :   -0.247874
   3 C :    0.790178
   4 C :    0.235676
   5 N :    0.066848
   6 N :   -0.032470
   7 H :   -0.076974
   8 H :    0.033901
   9 H :   -0.262996
  10 H :   -0.001420
  11 H :   -0.084097
  12 H :   -0.182317
  13 H :   -0.180585
  14 H :   -0.053286
  15 H :   -0.114158
  16 H :    0.024380
  17 H :   -0.012461
  18 H :   -0.250908
Sum of atomic charges:    0.0000000

LOEWDIN ATOMIC CHARGES
----------------------
   0 C :   -0.068700
   1 C :   -0.019749
   2 C :   -0.078743
   3 C :    0.125201
   4 C :   -0.237953
   5 N :    0.184704
   6 N :    0.193371
   7 H :   -0.008135
   8 H :   -0.004410
   9 H :   -0.054780
  10 H :    0.000189
  11 H :   -0.007775
  12 H :    0.003632
  13 H :    0.009903
  14 H :    0.018978
  15 H :    0.013801
  16 H :   -0.018021
  17 H :   -0.020427
  18 H :   -0.031087

  Mayer bond orders larger than 0.100000
B(  0-C ,  1-C ) :   0.9454 B(  0-C ,  2-C ) :   1.1658 B(  0-C ,  9-H ) :   0.2032
B(  0-C , 12-H ) :   0.8053 B(  0-C , 13-H ) :   0.8910 B(  0-C , 14-H ) :   0.1365
B(  0-C , 15-H ) :   0.1730 B(  1-C ,  4-C ) :   1.9353 B(  1-C ,  5-N ) :   0.2885
B(  1-C ,  6-N ) :   0.1562 B(  1-C ,  9-H ) :   0.5262 B(  1-C , 12-H ) :   0.1062
B(  1-C , 13-H ) :   0.1405 B(  2-C ,  3-C ) :   1.1986 B(  2-C , 14-H ) :   0.9360
B(  2-C , 15-H ) :   0.9344 B(  2-C , 16-H ) :   0.1936 B(  2-C , 17-H ) :   0.1851
B(  2-C , 18-H ) :   0.2349 B(  3-C , 16-H ) :   0.7590 B(  3-C , 17-H ) :   0.7593
B(  3-C , 18-H ) :   0.8432 B(  4-C ,  5-N ) :   0.9588 B(  4-C ,  6-N ) :   0.9856
B(  4-C ,  9-H ) :   0.3468 B(  5-N , 10-H ) :   0.9940 B(  5-N , 11-H ) :   0.9379
B(  6-N ,  7-H ) :   1.0924 B(  6-N ,  8-H ) :   0.9576 B( 16-H , 18-H ) :   0.1115

Dispersion correction           -0.005455308
FINAL SINGLE POINT ENERGY      -306.939130358837

DIPOLE MOMENT
-------------
                                X             Y             Z
Electronic contribution:      3.40213       4.92276      -2.12878
Nuclear contribution   :     -3.52450      -5.28471       1.03374
                        -----------------------------------------
Total Dipole Moment    :     -0.12238      -0.36195      -1.09504
                        -----------------------------------------
Magnitude (a.u.)       :      1.15978
Magnitude (Debye)      :      2.94792

Rotational constants in cm-1:     0.147126     0.050704     0.045476
Rotational constants in MHz :  4410.719889  1520.080198  1363.327077

                             ****ORCA TERMINATED NORMALLY****
TOTAL RUN TIME: 0 days 0 hours 0 minutes 18 seconds 272 msec
