                         Program Version 5.0.0 -  RELEASE  -
|  1> !wB97X-D3 RIJCOSX def2-SVPD def2/J TightSCF
|  2> *xyz 0 1
|  3> C          3.90595        2.81985       -3.75292
|  4> C          3.80351        1.37472       -3.26081
|  5> C          3.93993        0.32036       -4.36773
|  6> H          4.10504       -0.65508       -3.90773
|  7> H          3.02280        0.28052       -4.95712
|  8> C          5.10585        0.66802       -5.30546
|  9> H          4.57483        1.21516       -2.50044
| 10> H          2.84351        1.26085       -2.75146
| 11> O          4.80913        1.15019       -6.41436
| 12> F          6.26737        0.56500       -4.81948
| 13> H          3.15892        2.99660       -4.49832
| 14> H          4.87575        2.98549       -4.17357
| 15> H          3.75481        3.48808       -2.93101
| 16> *
| 17>
| 18> %MaxCore 64000
| 19>
| 20> %pal nprocs 18
| 21> end
| 22>
| 23> %scf
| 24>   MaxIter 150
| 25> end
| 26>
| 27>
| 28>                          ****END OF INPUT****

CARTESIAN COORDINATES (ANGSTROEM)
---------------------------------
  C      3.905950    2.819850   -3.752920
  C      3.803510    1.374720   -3.260810
  C      3.939930    0.320360   -4.367730
  H      4.105040   -0.655080   -3.907730
  H      3.022800    0.280520   -4.957120
  C      5.105850    0.668020   -5.305460
  H      4.574830    1.215160   -2.500440
  H      2.843510    1.260850   -2.751460
  O      4.809130    1.150190   -6.414360
  F      6.267370    0.565000   -4.819480
  H      3.158920    2.996600   -4.498320
  H      4.875750    2.985490   -4.173570
  H      3.754810    3.488080   -2.931010

 Total Charge           Charge          ....    0
 Multiplicity           Mult            ....    1
 Number of Electrons    NEL             ....   48
 Basis Dimension        Dim             ....  182

ORBITAL ENERGIES
----------------

  NO   OCC          E(Eh)            E(eV)
   0   2.0000     -24.873579      -676.8445
   1   2.0000     -19.257478      -524.0226
   2   2.0000     -10.474731      -285.0319
   3   2.0000     -10.320176      -280.8263
   4   2.0000     -10.309665      -280.5402
   5   2.0000     -10.283071      -279.8166
   6   2.0000      -1.420074       -38.6422
   7   2.0000      -1.149231       -31.2722
   8   2.0000      -0.928723       -25.2718
   9   2.0000      -0.837407       -22.7870
  10   2.0000      -0.768965       -20.9246
  11   2.0000      -0.720789       -19.6137
  12   2.0000      -0.658460       -17.9176
  13   2.0000      -0.644066       -17.5259
  14   2.0000      -0.602559       -16.3965
  15   2.0000      -0.576498       -15.6873
  16   2.0000      -0.559277       -15.2187
  17   2.0000      -0.519798       -14.1444
  18   2.0000      -0.500488       -13.6190
  19   2.0000      -0.472197       -12.8491
  20   2.0000      -0.462603       -12.5881
  21   2.0000      -0.448836       -12.2135
  22   2.0000      -0.442530       -12.0418
  23   2.0000      -0.389988       -10.6121
  24   0.0000       0.052788         1.4364
  25   0.0000       0.084028         2.2865
  26   0.0000       0.114314         3.1106
  27   0.0000       0.119550         3.2531
  28   0.0000       0.127950         3.4817

MULLIKEN ATOMIC CHARGES
-----------------------
   0 C :    0.597131
   1 C :   -0.428969
   2 C :    0.103162
   3 H :    0.024371
   4 H :    0.041495
   5 C :    0.785191
   6 H :   -0.015498
   7 H :   -0.107867
   8 O :   -0.479283
   9 F :   -0.416348
  10 H :   -0.016362
  11 H :   -0.012056
  12 H :   -0.074967
Sum of atomic charges:    0.0000000

LOEWDIN ATOMIC CHARGES
----------------------
   0 C :    0.125756
   1 C :   -0.066093
   2 C :    0.045176
   3 H :    0.029213
   4 H :    0.036327
   5 C :   -0.010483
   6 H :    0.024876
   7 H :    0.023449
   8 O :   -0.133645
   9 F :   -0.038454
  10 H :   -0.005082
  11 H :   -0.017336
  12 H :   -0.013703

  Mayer bond orders larger than 0.100000
B(  0-C ,  1-C ) :   1.3229 B(  0-C , 10-H ) :   0.8082 B(  0-C , 11-H ) :   0.8357
B(  0-C , 12-H ) :   0.8012 B(  1-C ,  2-C ) :   1.1627 B(  1-C ,  3-H ) :   0.1291
B(  1-C ,  4-H ) :   0.1281 B(  1-C ,  6-H ) :   0.9443 B(  1-C ,  7-H ) :   0.9834
B(  1-C , 10-H ) :   0.1841 B(  1-C , 11-H ) :   0.1828 B(  1-C , 12-H ) :   0.1946
B(  2-C ,  3-H ) :   0.8672 B(  2-C ,  4-H ) :   0.9075 B(  2-C ,  5-C ) :   1.0409
B(  4-H ,  5-C ) :   0.1165 B(  5-C ,  8-O ) :   1.8436 B(  5-C ,  9-F ) :   0.6792
B(  8-O ,  9-F ) :   0.1007

Dispersion correction           -0.003455041
FINAL SINGLE POINT ENERGY      -331.394823401221

DIPOLE MOMENT
-------------
                                X             Y             Z
Electronic contribution:      7.26046      -4.19187      -5.52825
Nuclear contribution   :     -7.63086       3.88103       6.63849
                        -----------------------------------------
Total Dipole Moment    :     -0.37040      -0.31085       1.11024
                        -----------------------------------------
Magnitude (a.u.)       :      1.21097
Magnitude (Debye)      :      3.07805

Rotational constants in cm-1:     0.177064     0.085023     0.079676
Rotational constants in MHz :  5308.232158  2548.918275  2388.614336

                             ****ORCA TERMINATED NORMALLY****
TOTAL RUN TIME: 0 days 0 hours 0 minutes 10 seconds 907 msec
