                         Program Version 5.0.0 -  RELEASE  -
|  1> !wB97X-D3 RIJCOSX def2-SVPD def2/J TightSCF
|  2> *xyz 0 1
|  3> C          3.90595        2.81985       -3.75292
|  4> N          5.29562        3.13151       -4.10533
|  5> C          3.80351        1.37472       -3.26081
|  6> C          3.93993        0.32036       -4.36773
|  7> C          5.70862        3.46889       -5.32419
|  8> C          6.90470        3.03895       -5.71708
|  9> N          4.98188        4.29357       -6.09746
| 10> H          5.00055        4.10131       -7.08776
| 11> H          4.08469        4.59690       -5.73965
| 12> H          5.96336        2.52611       -3.64239
| 13> H          7.04716        2.06686       -5.47360
| 14> H          7.19815        3.30799       -6.64523
| 15> H          3.28202        2.94919       -4.64026
| 16> H          3.56525        3.51457       -2.98252
| 17> H          4.57483        1.21516       -2.50044
| 18> H          2.84351        1.26085       -2.75146
| 19> H          3.18417        0.48061       -5.10803
| 20> H          3.82485       -0.65632       -3.94614
| 21> H          4.90589        0.40174       -4.82073
| 22> *
| 23>
| 24> %MaxCore 64000
| 25>
| 26> %pal nprocs 18
| 27> end
| 28>
| 29> %scf
| 30>   MaxIter 150
| 31> end
| 32>
| 33>
| 34>                          ****END OF INPUT****

CARTESIAN COORDINATES (ANGSTROEM)
---------------------------------
  C      3.905950    2.819850   -3.752920
  N      5.295620    3.131510   -4.105330
  C      3.803510    1.374720   -3.260810
  C      3.939930    0.320360   -4.367730
  C      5.708620    3.468890   -5.324190
  C      6.904700    3.038950   -5.717080
  N      4.981880    4.293570   -6.097460
  H      5.000550    4.101310   -7.087760
  H      4.084690    4.596900   -5.739650
  H      5.963360    2.526110   -3.642390
  H      7.047160    2.066860   -5.473600
  H      7.198150    3.307990   -6.645230
  H      3.282020    2.949190   -4.640260
  H      3.565250    3.514570   -2.982520
  H      4.574830    1.215160   -2.500440
  H      2.843510    1.260850   -2.751460
  H      3.184170    0.480610   -5.108030
  H      3.824850   -0.656320   -3.946140
  H      4.905890    0.401740   -4.820730

 Total Charge           Charge          ....    0
 Multiplicity           Mult            ....    1
 Number of Electrons    NEL             ....   56
 Basis Dimension        Dim             ....  236

ORBITAL ENERGIES
----------------

  NO   OCC          E(Eh)            E(eV)
   0   2.0000     -14.442168      -392.9914
   1   2.0000     -14.439497      -392.9187
   2   2.0000     -10.340086      -281.3680
   3   2.0000     -10.328882      -281.0632
   4   2.0000     -10.300367      -280.2872
   5   2.0000     -10.282444      -279.7995
   6   2.0000     -10.200843      -277.5791
   7   2.0000      -1.082346       -29.4521
   8   2.0000      -0.998174       -27.1617
   9   2.0000      -0.903309       -24.5803
  10   2.0000      -0.838486       -22.8164
  11   2.0000      -0.782715       -21.2988
  12   2.0000      -0.710949       -19.3459
  13   2.0000      -0.701020       -19.0757
  14   2.0000      -0.639393       -17.3988
  15   2.0000      -0.600627       -16.3439
  16   2.0000      -0.580393       -15.7933
  17   2.0000      -0.565960       -15.4005
  18   2.0000      -0.547107       -14.8875
  19   2.0000      -0.506630       -13.7861
  20   2.0000      -0.498737       -13.5713
  21   2.0000      -0.485917       -13.2225
  22   2.0000      -0.462710       -12.5910
  23   2.0000      -0.450134       -12.2488
  24   2.0000      -0.447042       -12.1646
  25   2.0000      -0.432400       -11.7662
  26   2.0000      -0.355822        -9.6824
  27   2.0000      -0.262564        -7.1447
  28   0.0000       0.083851         2.2817
  29   0.0000       0.103587         2.8188
  30   0.0000       0.110752         3.0137
  31   0.0000       0.119961         3.2643
  32   0.0000       0.129846         3.5333

MULLIKEN ATOMIC CHARGES
-----------------------
   0 C :    0.712397
   1 N :   -0.414117
   2 C :   -0.361025
   3 C :    0.760343
   4 C :    0.222434
   5 C :    0.526699
   6 N :    0.020384
   7 H :   -0.015007
   8 H :   -0.051391
   9 H :   -0.052599
  10 H :   -0.315225
  11 H :   -0.307940
  12 H :   -0.055976
  13 H :   -0.313312
  14 H :   -0.041373
  15 H :   -0.102566
  16 H :    0.041331
  17 H :   -0.019408
  18 H :   -0.233649
Sum of atomic charges:   -0.0000000

LOEWDIN ATOMIC CHARGES
----------------------
   0 C :    0.042886
   1 N :   -0.006924
   2 C :   -0.068446
   3 C :    0.131015
   4 C :   -0.243095
   5 C :    0.138515
   6 N :    0.197305
   7 H :    0.006953
   8 H :   -0.016685
   9 H :    0.018293
  10 H :   -0.106467
  11 H :   -0.101853
  12 H :    0.012150
  13 H :    0.014147
  14 H :    0.019523
  15 H :    0.018810
  16 H :   -0.015456
  17 H :   -0.016482
  18 H :   -0.024186

  Mayer bond orders larger than 0.100000
B(  0-C ,  1-N ) :   0.8641 B(  0-C ,  2-C ) :   1.1259 B(  0-C , 12-H ) :   0.7693
B(  0-C , 13-H ) :   0.9579 B(  0-C , 15-H ) :   0.1387 B(  1-N ,  4-C ) :   1.1370
B(  1-N ,  5-C ) :   0.2100 B(  1-N ,  9-H ) :   1.0528 B(  1-N , 12-H ) :   0.1263
B(  1-N , 13-H ) :   0.1082 B(  2-C ,  3-C ) :   1.2210 B(  2-C , 14-H ) :   0.9319
B(  2-C , 15-H ) :   0.9869 B(  2-C , 16-H ) :   0.1910 B(  2-C , 17-H ) :   0.1976
B(  2-C , 18-H ) :   0.2284 B(  3-C , 16-H ) :   0.7412 B(  3-C , 17-H ) :   0.7642
B(  3-C , 18-H ) :   0.8501 B(  4-C ,  5-C ) :   1.8547 B(  4-C ,  6-N ) :   0.9457
B(  4-C ,  9-H ) :  -0.1249 B(  4-C , 10-H ) :   0.1901 B(  4-C , 11-H ) :   0.3441
B(  5-C ,  6-N ) :   0.2323 B(  5-C , 10-H ) :   0.8562 B(  5-C , 11-H ) :   0.5340
B(  6-N ,  7-H ) :   1.0798 B(  6-N ,  8-H ) :   0.9058 B(  6-N , 11-H ) :   0.1054
B(  7-H ,  8-H ) :  -0.1109 B( 10-H , 11-H ) :   0.1328 B( 16-H , 18-H ) :   0.1466

Dispersion correction           -0.005520942
FINAL SINGLE POINT ENERGY      -306.927648373462

DIPOLE MOMENT
-------------
                                X             Y             Z
Electronic contribution:      1.75516       4.86487      -0.59371
Nuclear contribution   :     -3.17203      -5.30499       0.68068
                        -----------------------------------------
Total Dipole Moment    :     -1.41687      -0.44011       0.08697
                        -----------------------------------------
Magnitude (a.u.)       :      1.48620
Magnitude (Debye)      :      3.77761

Rotational constants in cm-1:     0.149640     0.051631     0.046708
Rotational constants in MHz :  4486.107270  1547.846261  1400.277765

                             ****ORCA TERMINATED NORMALLY****
TOTAL RUN TIME: 0 days 0 hours 0 minutes 19 seconds 37 msec
