                         Program Version 5.0.0 -  RELEASE  -
|  1> !wB97X-D3 RIJCOSX def2-SVPD def2/J TightSCF
|  2> *xyz 0 1
|  3> C          3.90595        2.81985       -3.75292
|  4> N          5.29562        3.13151       -4.10533
|  5> C          3.80351        1.37472       -3.26081
|  6> C          3.93993        0.32036       -4.36773
|  7> C          5.70862        3.46889       -5.32419
|  8> N          6.90470        3.03895       -5.71708
|  9> C          4.98188        4.29357       -6.09746
| 10> H          5.00055        4.10131       -7.08776
| 11> H          4.08469        4.59690       -5.73965
| 12> H          5.96336        2.52611       -3.64239
| 13> H          7.04716        2.06686       -5.47360
| 14> H          7.19815        3.30799       -6.64523
| 15> H          3.28202        2.94919       -4.64026
| 16> H          3.56525        3.51457       -2.98252
| 17> H          4.57483        1.21516       -2.50044
| 18> H          2.84351        1.26085       -2.75146
| 19> H          3.18417        0.48061       -5.10803
| 20> H          3.82485       -0.65632       -3.94614
| 21> H          4.90589        0.40174       -4.82073
| 22> *
| 23>
| 24> %MaxCore 64000
| 25>
| 26> %pal nprocs 18
| 27> end
| 28>
| 29> %scf
| 30>   MaxIter 150
| 31> end
| 32>
| 33>
| 34>                          ****END OF INPUT****

CARTESIAN COORDINATES (ANGSTROEM)
---------------------------------
  C      3.905950    2.819850   -3.752920
  N      5.295620    3.131510   -4.105330
  C      3.803510    1.374720   -3.260810
  C      3.939930    0.320360   -4.367730
  C      5.708620    3.468890   -5.324190
  N      6.904700    3.038950   -5.717080
  C      4.981880    4.293570   -6.097460
  H      5.000550    4.101310   -7.087760
  H      4.084690    4.596900   -5.739650
  H      5.963360    2.526110   -3.642390
  H      7.047160    2.066860   -5.473600
  H      7.198150    3.307990   -6.645230
  H      3.282020    2.949190   -4.640260
  H      3.565250    3.514570   -2.982520
  H      4.574830    1.215160   -2.500440
  H      2.843510    1.260850   -2.751460
  H      3.184170    0.480610   -5.108030
  H      3.824850   -0.656320   -3.946140
  H      4.905890    0.401740   -4.820730

 Total Charge           Charge          ....    0
 Multiplicity           Mult            ....    1
 Number of Electrons    NEL             ....   56
 Basis Dimension        Dim             ....  236

ORBITAL ENERGIES
----------------

  NO   OCC          E(Eh)            E(eV)
   0   2.0000     -14.441578      -392.9753
   1   2.0000     -14.441101      -392.9623
   2   2.0000     -10.338908      -281.3360
   3   2.0000     -10.323059      -280.9047
   4   2.0000     -10.298691      -280.2416
   5   2.0000     -10.284230      -279.8481
   6   2.0000     -10.206127      -277.7228
   7   2.0000      -1.087205       -29.5844
   8   2.0000      -1.000254       -27.2183
   9   2.0000      -0.898229       -24.4420
  10   2.0000      -0.824101       -22.4249
  11   2.0000      -0.801543       -21.8111
  12   2.0000      -0.716741       -19.5035
  13   2.0000      -0.672940       -18.3116
  14   2.0000      -0.639869       -17.4117
  15   2.0000      -0.620536       -16.8856
  16   2.0000      -0.575997       -15.6737
  17   2.0000      -0.569502       -15.4969
  18   2.0000      -0.533834       -14.5264
  19   2.0000      -0.514945       -14.0124
  20   2.0000      -0.497359       -13.5338
  21   2.0000      -0.481175       -13.0934
  22   2.0000      -0.464853       -12.6493
  23   2.0000      -0.451101       -12.2751
  24   2.0000      -0.444818       -12.1041
  25   2.0000      -0.432694       -11.7742
  26   2.0000      -0.353557        -9.6208
  27   2.0000      -0.265362        -7.2209
  28   0.0000       0.081025         2.2048
  29   0.0000       0.106584         2.9003
  30   0.0000       0.114605         3.1186
  31   0.0000       0.117979         3.2104
  32   0.0000       0.130504         3.5512

MULLIKEN ATOMIC CHARGES
-----------------------
   0 C :    0.711033
   1 N :   -0.318625
   2 C :   -0.305830
   3 C :    0.756144
   4 C :    0.124720
   5 N :   -0.022651
   6 C :    0.463251
   7 H :   -0.380276
   8 H :   -0.099069
   9 H :   -0.181760
  10 H :   -0.055489
  11 H :    0.040720
  12 H :    0.002497
  13 H :   -0.359958
  14 H :   -0.065521
  15 H :   -0.087844
  16 H :    0.034982
  17 H :   -0.016629
  18 H :   -0.239694
Sum of atomic charges:    0.0000000

LOEWDIN ATOMIC CHARGES
----------------------
   0 C :    0.054469
   1 N :   -0.005986
   2 C :   -0.069262
   3 C :    0.128320
   4 C :   -0.255420
   5 N :    0.186422
   6 C :    0.155510
   7 H :   -0.101928
   8 H :   -0.107582
   9 H :    0.008877
  10 H :   -0.011835
  11 H :    0.006395
  12 H :    0.017398
  13 H :    0.018814
  14 H :    0.016181
  15 H :    0.020046
  16 H :   -0.013247
  17 H :   -0.017011
  18 H :   -0.030161

  Mayer bond orders larger than 0.100000
B(  0-C ,  1-N ) :   0.9054 B(  0-C ,  2-C ) :   1.1145 B(  0-C , 12-H ) :   0.7930
B(  0-C , 13-H ) :   0.9763 B(  0-C , 15-H ) :   0.1468 B(  1-N ,  4-C ) :   1.1352
B(  1-N ,  5-N ) :   0.1505 B(  1-N ,  6-C ) :   0.1921 B(  1-N ,  9-H ) :   1.0168
B(  1-N , 12-H ) :   0.1241 B(  2-C ,  3-C ) :   1.2150 B(  2-C , 14-H ) :   0.9366
B(  2-C , 15-H ) :   0.9703 B(  2-C , 16-H ) :   0.1926 B(  2-C , 17-H ) :   0.1942
B(  2-C , 18-H ) :   0.2224 B(  3-C , 16-H ) :   0.7610 B(  3-C , 17-H ) :   0.7682
B(  3-C , 18-H ) :   0.8445 B(  4-C ,  5-N ) :   1.0100 B(  4-C ,  6-C ) :   1.9421
B(  4-C ,  7-H ) :   0.1900 B(  4-C ,  8-H ) :   0.2958 B(  5-N ,  6-C ) :   0.1372
B(  5-N , 10-H ) :   0.9419 B(  5-N , 11-H ) :   0.9682 B(  6-C ,  7-H ) :   0.8505
B(  6-C ,  8-H ) :   0.5156 B(  7-H ,  8-H ) :   0.2601 B( 16-H , 18-H ) :   0.1198

Dispersion correction           -0.005502046
FINAL SINGLE POINT ENERGY      -306.931870291920

DIPOLE MOMENT
-------------
                                X             Y             Z
Electronic contribution:      3.60916       3.68610      -0.29282
Nuclear contribution   :     -3.59323      -5.03016       0.59736
                        -----------------------------------------
Total Dipole Moment    :      0.01593      -1.34406       0.30454
                        -----------------------------------------
Magnitude (a.u.)       :      1.37822
Magnitude (Debye)      :      3.50316

Rotational constants in cm-1:     0.148888     0.051791     0.046487
Rotational constants in MHz :  4463.542717  1552.665696  1393.643356

                             ****ORCA TERMINATED NORMALLY****
TOTAL RUN TIME: 0 days 0 hours 0 minutes 17 seconds 158 msec
