                         Program Version 5.0.0 -  RELEASE  -
|  1> !wB97X-D3 RIJCOSX def2-SVPD def2/J TightSCF xyzfile
|  2>
|  3> *xyzfile 0 1 D1.xyz
|  4>
|  5> %MaxCore 64000
|  6>
|  7> %pal nprocs 18
|  8> end
|  9>
| 10> %scf
| 11>   MaxIter 150
| 12> end
| 13>
| 14>
| 15>                          ****END OF INPUT****

CARTESIAN COORDINATES (ANGSTROEM)
---------------------------------
  C      3.905947    2.819855   -3.752920
  C      5.295615    3.131515   -4.105334
  C      3.803511    1.374716   -3.260807
  C      3.939934    0.320362   -4.367729
  H      4.105043   -0.655085   -3.907733
  H      3.022801    0.280517   -4.957117
  C      5.105846    0.668022   -5.305463
  C      5.708619    3.468885   -5.324190
  N      6.904696    3.038954   -5.717084
  N      4.981884    4.293570   -6.097457
  H      5.000546    4.101311   -7.087761
  H      4.084693    4.596899   -5.739652
  H      5.963358    2.526112   -3.642391
  H      7.047164    2.066861   -5.473604
  H      7.198145    3.307994   -6.645225
  H      3.282025    2.949187   -4.640259
  H      3.565254    3.514574   -2.982523
  H      4.574833    1.215157   -2.500443
  H      2.843514    1.260845   -2.751465
  F      4.809132    1.150187   -6.414361
  O      6.267366    0.564999   -4.819481

 Total Charge           Charge          ....    0
 Multiplicity           Mult            ....    1
 Number of Electrons    NEL             ....   78
 Basis Dimension        Dim             ....  294

ORBITAL ENERGIES
----------------

  NO   OCC          E(Eh)            E(eV)
   0   2.0000     -24.886177      -677.1873
   1   2.0000     -19.258876      -524.0607
   2   2.0000     -14.441669      -392.9778
   3   2.0000     -14.419710      -392.3803
   4   2.0000     -10.484536      -285.2987
   5   2.0000     -10.333292      -281.1832
   6   2.0000     -10.320320      -280.8302
   7   2.0000     -10.298693      -280.2417
   8   2.0000     -10.280349      -279.7425
   9   2.0000     -10.214685      -277.9557
  10   2.0000      -1.440130       -39.1879
  11   2.0000      -1.149454       -31.2782
  12   2.0000      -1.071151       -29.1475
  13   2.0000      -0.978145       -26.6167
  14   2.0000      -0.931536       -25.3484
  15   2.0000      -0.863215       -23.4893
  16   2.0000      -0.805098       -21.9078
  17   2.0000      -0.771016       -20.9804
  18   2.0000      -0.717434       -19.5224
  19   2.0000      -0.686489       -18.6803
  20   2.0000      -0.670290       -18.2395
  21   2.0000      -0.651512       -17.7285
  22   2.0000      -0.640051       -17.4167
  23   2.0000      -0.624483       -16.9930
  24   2.0000      -0.605291       -16.4708
  25   2.0000      -0.570242       -15.5171
  26   2.0000      -0.563224       -15.3261
  27   2.0000      -0.543798       -14.7975
  28   2.0000      -0.532367       -14.4864
  29   2.0000      -0.500832       -13.6283
  30   2.0000      -0.488215       -13.2850
  31   2.0000      -0.465967       -12.6796
  32   2.0000      -0.463613       -12.6156
  33   2.0000      -0.444403       -12.0928
  34   2.0000      -0.431203       -11.7336
  35   2.0000      -0.417800       -11.3689
  36   2.0000      -0.399244       -10.8640
  37   2.0000      -0.361146        -9.8273
  38   2.0000      -0.257942        -7.0190
  39   0.0000       0.042649         1.1605
  40   0.0000       0.081714         2.2236
  41   0.0000       0.102930         2.8009
  42   0.0000       0.111255         3.0274
  43   0.0000       0.120602         3.2818

MULLIKEN ATOMIC CHARGES
-----------------------
   0 C :    0.309819
   1 C :    0.061301
   2 C :    0.162530
   3 C :    0.191074
   4 H :   -0.030895
   5 H :    0.023980
   6 C :    0.823686
   7 C :    0.144367
   8 N :    0.198600
   9 N :   -0.039916
  10 H :   -0.034109
  11 H :    0.019447
  12 H :   -0.260555
  13 H :   -0.106634
  14 H :   -0.020296
  15 H :   -0.159275
  16 H :   -0.204199
  17 H :    0.062205
  18 H :   -0.140965
  19 F :   -0.400271
  20 O :   -0.599895
Sum of atomic charges:   -0.0000000

LOEWDIN ATOMIC CHARGES
----------------------
   0 C :   -0.048854
   1 C :   -0.016791
   2 C :   -0.015289
   3 C :    0.064040
   4 H :    0.038561
   5 H :    0.026731
   6 C :    0.020394
   7 C :   -0.245826
   8 N :    0.214236
   9 N :    0.200899
  10 H :   -0.007399
  11 H :   -0.004893
  12 H :   -0.053719
  13 H :   -0.073272
  14 H :    0.000096
  15 H :    0.007434
  16 H :    0.013162
  17 H :    0.034393
  18 H :    0.022480
  19 F :   -0.021534
  20 O :   -0.154849

  Mayer bond orders larger than 0.100000
B(  0-C ,  1-C ) :   1.0119 B(  0-C ,  2-C ) :   1.1905 B(  0-C , 12-H ) :   0.2091
B(  0-C , 15-H ) :   0.7936 B(  0-C , 16-H ) :   0.8566 B(  0-C , 18-H ) :   0.1995
B(  1-C ,  2-C ) :   0.1001 B(  1-C ,  7-C ) :   1.8290 B(  1-C ,  8-N ) :   0.3090
B(  1-C ,  9-N ) :   0.1506 B(  1-C , 12-H ) :   0.4488 B(  1-C , 15-H ) :   0.1114
B(  1-C , 16-H ) :   0.1557 B(  2-C ,  3-C ) :   1.1902 B(  2-C ,  4-H ) :   0.1698
B(  2-C ,  5-H ) :   0.1100 B(  2-C , 17-H ) :   0.8403 B(  2-C , 18-H ) :   0.8916
B(  3-C ,  4-H ) :   0.8296 B(  3-C ,  5-H ) :   0.8850 B(  3-C ,  6-C ) :   1.1115
B(  4-H ,  6-C ) :   0.1178 B(  5-H ,  6-C ) :   0.1086 B(  6-C , 19-F ) :   0.6495
B(  6-C , 20-O ) :   1.6440 B(  7-C ,  8-N ) :   0.9035 B(  7-C ,  9-N ) :   0.9575
B(  7-C , 12-H ) :   0.2936 B(  7-C , 14-H ) :   0.1799 B(  8-N ,  9-N ) :   0.1167
B(  8-N , 13-H ) :   0.9022 B(  8-N , 14-H ) :   0.8314 B(  9-N , 10-H ) :   1.0492
B(  9-N , 11-H ) :   0.9600 B( 13-H , 20-O ) :   0.1303

Dispersion correction           -0.008897222
FINAL SINGLE POINT ENERGY      -519.301744669302

DIPOLE MOMENT
-------------
                                X             Y             Z
Electronic contribution:      3.36236      -3.66134      -6.46951
Nuclear contribution   :     -4.60158       3.22721       5.56005
                        -----------------------------------------
Total Dipole Moment    :     -1.23922      -0.43412      -0.90946
                        -----------------------------------------
Magnitude (a.u.)       :      1.59726
Magnitude (Debye)      :      4.05992

Rotational constants in cm-1:     0.061224     0.042534     0.033552
Rotational constants in MHz :  1835.464095  1275.135177  1005.856966

                             ****ORCA TERMINATED NORMALLY****
TOTAL RUN TIME: 0 days 0 hours 0 minutes 38 seconds 973 msec
