                         Program Version 5.0.0 -  RELEASE  -
|  1> !wB97X-D3 RIJCOSX def2-SVPD def2/J TightSCF xyzfile
|  2>
|  3> *xyzfile 0 1 D6.xyz
|  4>
|  5> %MaxCore 64000
|  6>
|  7> %pal nprocs 18
|  8> end
|  9>
| 10> %scf
| 11>   MaxIter 150
| 12> end
| 13>
| 14>
| 15>                          ****END OF INPUT****

CARTESIAN COORDINATES (ANGSTROEM)
---------------------------------
  C      3.905947    2.819855   -3.752920
  N      5.295615    3.131515   -4.105334
  C      3.803511    1.374716   -3.260807
  C      3.939934    0.320362   -4.367729
  H      4.105043   -0.655085   -3.907733
  H      3.022801    0.280517   -4.957117
  C      5.105846    0.668022   -5.305463
  C      5.708619    3.468885   -5.324190
  N      6.904696    3.038954   -5.717084
  C      4.981884    4.293570   -6.097457
  H      5.000546    4.101311   -7.087761
  H      4.084693    4.596899   -5.739652
  H      5.963358    2.526112   -3.642391
  H      7.047164    2.066861   -5.473604
  H      7.198145    3.307994   -6.645225
  H      3.282025    2.949187   -4.640259
  H      3.565254    3.514574   -2.982523
  H      4.574833    1.215157   -2.500443
  H      2.843514    1.260845   -2.751465
  O      4.809132    1.150187   -6.414361
  F      6.267366    0.564999   -4.819481

 Total Charge           Charge          ....    0
 Multiplicity           Mult            ....    1
 Number of Electrons    NEL             ....   78
 Basis Dimension        Dim             ....  294

ORBITAL ENERGIES
----------------

  NO   OCC          E(Eh)            E(eV)
   0   2.0000     -24.897717      -677.5013
   1   2.0000     -19.269498      -524.3497
   2   2.0000     -14.446991      -393.1226
   3   2.0000     -14.426426      -392.5630
   4   2.0000     -10.487323      -285.3746
   5   2.0000     -10.334937      -281.2279
   6   2.0000     -10.333709      -281.1945
   7   2.0000     -10.333377      -281.1855
   8   2.0000     -10.323945      -280.9288
   9   2.0000     -10.199444      -277.5410
  10   2.0000      -1.446973       -39.3741
  11   2.0000      -1.162933       -31.6450
  12   2.0000      -1.086667       -29.5697
  13   2.0000      -1.000622       -27.2283
  14   2.0000      -0.930971       -25.3330
  15   2.0000      -0.849541       -23.1172
  16   2.0000      -0.812582       -22.1115
  17   2.0000      -0.791523       -21.5384
  18   2.0000      -0.744322       -20.2540
  19   2.0000      -0.689609       -18.7652
  20   2.0000      -0.682760       -18.5788
  21   2.0000      -0.670730       -18.2515
  22   2.0000      -0.629673       -17.1343
  23   2.0000      -0.616345       -16.7716
  24   2.0000      -0.605959       -16.4890
  25   2.0000      -0.588590       -16.0163
  26   2.0000      -0.584016       -15.8919
  27   2.0000      -0.533188       -14.5088
  28   2.0000      -0.529688       -14.4135
  29   2.0000      -0.505905       -13.7664
  30   2.0000      -0.495086       -13.4720
  31   2.0000      -0.488658       -13.2971
  32   2.0000      -0.480878       -13.0854
  33   2.0000      -0.465009       -12.6535
  34   2.0000      -0.457730       -12.4555
  35   2.0000      -0.430652       -11.7186
  36   2.0000      -0.400407       -10.8956
  37   2.0000      -0.352097        -9.5810
  38   2.0000      -0.259759        -7.0684
  39   0.0000       0.039678         1.0797
  40   0.0000       0.076664         2.0861
  41   0.0000       0.104047         2.8313
  42   0.0000       0.108266         2.9461
  43   0.0000       0.115845         3.1523

MULLIKEN ATOMIC CHARGES
-----------------------
   0 C :    0.787354
   1 N :   -0.294124
   2 C :    0.088827
   3 C :    0.215056
   4 H :   -0.030128
   5 H :    0.044558
   6 C :    0.669759
   7 C :    0.118164
   8 N :    0.104919
   9 C :    0.444171
  10 H :   -0.402797
  11 H :   -0.154144
  12 H :   -0.199126
  13 H :   -0.145439
  14 H :    0.088619
  15 H :    0.023145
  16 H :   -0.382459
  17 H :    0.014636
  18 H :   -0.111247
  19 O :   -0.424093
  20 F :   -0.455648
Sum of atomic charges:   -0.0000000

LOEWDIN ATOMIC CHARGES
----------------------
   0 C :    0.073985
   1 N :    0.004053
   2 C :   -0.011868
   3 C :    0.064603
   4 H :    0.032399
   5 H :    0.040170
   6 C :   -0.002135
   7 C :   -0.267356
   8 N :    0.211820
   9 C :    0.160929
  10 H :   -0.092400
  11 H :   -0.106034
  12 H :    0.004600
  13 H :   -0.061329
  14 H :    0.017010
  15 H :    0.026434
  16 H :    0.022375
  17 H :    0.025531
  18 H :    0.028125
  19 O :   -0.115931
  20 F :   -0.054981

  Mayer bond orders larger than 0.100000
B(  0-C ,  1-N ) :   0.8352 B(  0-C ,  2-C ) :   1.1275 B(  0-C , 15-H ) :   0.7675
B(  0-C , 16-H ) :   0.9420 B(  0-C , 18-H ) :   0.1744 B(  1-N ,  2-C ) :   0.1547
B(  1-N ,  7-C ) :   1.1614 B(  1-N ,  9-C ) :   0.2153 B(  1-N , 12-H ) :   0.9958
B(  1-N , 15-H ) :   0.1351 B(  2-C ,  3-C ) :   1.1714 B(  2-C ,  4-H ) :   0.1721
B(  2-C ,  5-H ) :   0.1029 B(  2-C , 17-H ) :   0.8481 B(  2-C , 18-H ) :   0.9315
B(  3-C ,  4-H ) :   0.8290 B(  3-C ,  5-H ) :   0.8543 B(  3-C ,  6-C ) :   1.1112
B(  4-H ,  6-C ) :   0.1024 B(  5-H ,  6-C ) :   0.2092 B(  6-C , 19-O ) :   1.8322
B(  6-C , 20-F ) :   0.5788 B(  7-C ,  8-N ) :   0.9947 B(  7-C ,  9-C ) :   1.9840
B(  7-C , 10-H ) :   0.2015 B(  7-C , 11-H ) :   0.3092 B(  7-C , 12-H ) :  -0.1343
B(  7-C , 13-H ) :   0.1301 B(  7-C , 14-H ) :   0.1048 B(  8-N ,  9-C ) :   0.1379
B(  8-N , 13-H ) :   0.8529 B(  8-N , 14-H ) :   0.8871 B(  9-C , 10-H ) :   0.8463
B(  9-C , 11-H ) :   0.5554 B( 10-H , 11-H ) :   0.1528 B( 15-H , 16-H ) :  -0.1004

Dispersion correction           -0.009056826
FINAL SINGLE POINT ENERGY      -519.288211430068

DIPOLE MOMENT
-------------
                                X             Y             Z
Electronic contribution:      5.94480      -5.72732      -2.30728
Nuclear contribution   :     -6.29470       4.03423       3.50525
                        -----------------------------------------
Total Dipole Moment    :     -0.34990      -1.69309       1.19797
                        -----------------------------------------
Magnitude (a.u.)       :      2.10336
Magnitude (Debye)      :      5.34630

Rotational constants in cm-1:     0.061094     0.043661     0.033867
Rotational constants in MHz :  1831.559881  1308.929520  1015.295167

                             ****ORCA TERMINATED NORMALLY****
TOTAL RUN TIME: 0 days 0 hours 0 minutes 35 seconds 754 msec
