                         Program Version 5.0.0 -  RELEASE  -
|  1> !PBE0 D3BJ RIJCOSX def2-TZVPD def2/J TightSCF
|  2> *xyz -1 1
|  3> C          2.49556        1.81615       -2.13636
|  4> C          1.87218        0.42790       -2.07750
|  5> H          2.61427       -0.36583       -2.19889
|  6> H          1.38995        0.27309       -1.11236
|  7> S          0.57902        0.14047       -3.29794
|  8> O          0.22886       -1.24687       -3.12787
|  9> O         -0.43927        1.11897       -3.01455
| 10> O          1.24788        0.40347       -4.59565
| 11> H          2.96535        1.95613       -3.08747
| 12> H          3.22581        1.91242       -1.36024
| 13> H          1.73350        2.55528       -2.00274
| 14> *
| 15>
| 16> %MaxCore 64000
| 17>
| 18> %pal nprocs 4
| 19> end
| 20>
| 21> %scf
| 22>   MaxIter 150
| 23> end
| 24>
| 25>
| 26>                          ****END OF INPUT****

CARTESIAN COORDINATES (ANGSTROEM)
---------------------------------
  C      2.495560    1.816150   -2.136360
  C      1.872180    0.427900   -2.077500
  H      2.614270   -0.365830   -2.198890
  H      1.389950    0.273090   -1.112360
  S      0.579020    0.140470   -3.297940
  O      0.228860   -1.246870   -3.127870
  O     -0.439270    1.118970   -3.014550
  O      1.247880    0.403470   -4.595650
  H      2.965350    1.956130   -3.087470
  H      3.225810    1.912420   -1.360240
  H      1.733500    2.555280   -2.002740

 Total Charge           Charge          ....   -1
 Multiplicity           Mult            ....    1
 Number of Electrons    NEL             ....   58
 Basis Dimension        Dim             ....  285

ORBITAL ENERGIES
----------------

  NO   OCC          E(Eh)            E(eV)
   0   2.0000     -88.998692     -2421.7775
   1   2.0000     -18.986983      -516.6621
   2   2.0000     -18.986830      -516.6579
   3   2.0000     -18.972660      -516.2723
   4   2.0000     -10.078995      -274.2634
   5   2.0000     -10.070926      -274.0438
   6   2.0000      -7.944654      -216.1850
   7   2.0000      -5.881990      -160.0571
   8   2.0000      -5.880733      -160.0229
   9   2.0000      -5.880499      -160.0165
  10   2.0000      -0.953146       -25.9364
  11   2.0000      -0.825242       -22.4560
  12   2.0000      -0.798765       -21.7355
  13   2.0000      -0.652037       -17.7428
  14   2.0000      -0.521756       -14.1977
  15   2.0000      -0.397029       -10.8037
  16   2.0000      -0.329421        -8.9640
  17   2.0000      -0.327943        -8.9238
  18   2.0000      -0.288654        -7.8547
  19   2.0000      -0.277046        -7.5388
  20   2.0000      -0.266738        -7.2583
  21   2.0000      -0.240834        -6.5534
  22   2.0000      -0.221797        -6.0354
  23   2.0000      -0.166881        -4.5411
  24   2.0000      -0.166061        -4.5188
  25   2.0000      -0.131875        -3.5885
  26   2.0000      -0.121028        -3.2933
  27   2.0000      -0.111696        -3.0394
  28   2.0000      -0.078255        -2.1294
  29   0.0000       0.130269         3.5448
  30   0.0000       0.150223         4.0878
  31   0.0000       0.154575         4.2062
  32   0.0000       0.162487         4.4215
  33   0.0000       0.180910         4.9228

MULLIKEN ATOMIC CHARGES
-----------------------
   0 C :   -0.846192
   1 C :   -0.138829
   2 H :    0.168646
   3 H :    0.165565
   4 S :    1.088791
   5 O :   -0.666366
   6 O :   -0.677793
   7 O :   -0.718897
   8 H :    0.221977
   9 H :    0.183998
  10 H :    0.219100
Sum of atomic charges:   -1.0000000

LOEWDIN ATOMIC CHARGES
----------------------
   0 C :   -0.152530
   1 C :   -0.333560
   2 H :    0.084918
   3 H :    0.080515
   4 S :    0.333184
   5 O :   -0.386143
   6 O :   -0.379682
   7 O :   -0.414332
   8 H :    0.058948
   9 H :    0.048365
  10 H :    0.060317

  Mayer bond orders larger than 0.100000
B(  0-C ,  1-C ) :   0.9068 B(  0-C ,  4-S ) :   0.1022 B(  0-C ,  8-H ) :   0.9931
B(  0-C ,  9-H ) :   0.9744 B(  0-C , 10-H ) :   0.9861 B(  1-C ,  2-H ) :   0.9612
B(  1-C ,  3-H ) :   0.9646 B(  1-C ,  4-S ) :   0.8223 B(  1-C ,  5-O ) :   0.1354
B(  1-C ,  6-O ) :   0.1149 B(  1-C ,  7-O ) :   0.1012 B(  4-S ,  5-O ) :   1.5508
B(  4-S ,  6-O ) :   1.5602 B(  4-S ,  7-O ) :   1.5024

Dispersion correction           -0.008288434
FINAL SINGLE POINT ENERGY      -702.848784590584

DIPOLE MOMENT
-------------
                                X             Y             Z
Electronic contribution:     -5.69338      -3.59394      -4.09514
Nuclear contribution   :      6.89220       4.11756       5.35566
                        -----------------------------------------
Total Dipole Moment    :      1.19881       0.52362       1.26052
                        -----------------------------------------
Magnitude (a.u.)       :      1.81666
Magnitude (Debye)      :      4.61758

Rotational constants in cm-1:     0.162183     0.084017     0.082390
Rotational constants in MHz :  4862.117324  2518.774315  2469.980309

                             ****ORCA TERMINATED NORMALLY****
TOTAL RUN TIME: 0 days 0 hours 0 minutes 30 seconds 157 msec
