                         Program Version 5.0.0 -  RELEASE  -
|  1> !PBE0 D3BJ RIJCOSX def2-TZVPD def2/J TightSCF
|  2> *xyz 1 1
|  3> C          3.38093        2.08304       -3.35013
|  4> N          4.53592        1.18245       -3.42852
|  5> C          2.49556        1.81615       -2.13636
|  6> C          4.67196        0.12227       -4.22060
|  7> N          5.86602       -0.50785       -4.22428
|  8> N          3.69888       -0.31284       -4.98699
|  9> H          2.73141       -0.05009       -4.84900
| 10> H          3.89005       -1.05517       -5.64373
| 11> H          5.25193        1.30346       -2.72101
| 12> H          6.69516       -0.06232       -3.85160
| 13> H          5.97538       -1.39688       -4.69141
| 14> H          2.80646        1.98651       -4.26848
| 15> H          3.77871        3.09828       -3.30738
| 16> H          2.11090        0.81901       -2.18783
| 17> H          1.68276        2.51198       -2.12786
| 18> H          3.07216        1.93031       -1.24227
| 19> *
| 20>
| 21> %MaxCore 64000
| 22>
| 23> %pal nprocs 4
| 24> end
| 25>
| 26> %scf
| 27>   MaxIter 150
| 28> end
| 29>
| 30>
| 31>                          ****END OF INPUT****

CARTESIAN COORDINATES (ANGSTROEM)
---------------------------------
  C      3.380930    2.083040   -3.350130
  N      4.535920    1.182450   -3.428520
  C      2.495560    1.816150   -2.136360
  C      4.671960    0.122270   -4.220600
  N      5.866020   -0.507850   -4.224280
  N      3.698880   -0.312840   -4.986990
  H      2.731410   -0.050090   -4.849000
  H      3.890050   -1.055170   -5.643730
  H      5.251930    1.303460   -2.721010
  H      6.695160   -0.062320   -3.851600
  H      5.975380   -1.396880   -4.691410
  H      2.806460    1.986510   -4.268480
  H      3.778710    3.098280   -3.307380
  H      2.110900    0.819010   -2.187830
  H      1.682760    2.511980   -2.127860
  H      3.072160    1.930310   -1.242270

 Total Charge           Charge          ....    1
 Multiplicity           Mult            ....    1
 Number of Electrons    NEL             ....   48
 Basis Dimension        Dim             ....  312

ORBITAL ENERGIES
----------------

  NO   OCC          E(Eh)            E(eV)
   0   2.0000     -14.609147      -397.5351
   1   2.0000     -14.606624      -397.4665
   2   2.0000     -14.601315      -397.3220
   3   2.0000     -10.555165      -287.2206
   4   2.0000     -10.427105      -283.7360
   5   2.0000     -10.353764      -281.7403
   6   2.0000      -1.240641       -33.7596
   7   2.0000      -1.129693       -30.7405
   8   2.0000      -1.114213       -30.3193
   9   2.0000      -0.952475       -25.9182
  10   2.0000      -0.861034       -23.4299
  11   2.0000      -0.820759       -22.3340
  12   2.0000      -0.801871       -21.8200
  13   2.0000      -0.757821       -20.6213
  14   2.0000      -0.710039       -19.3212
  15   2.0000      -0.706138       -19.2150
  16   2.0000      -0.655806       -17.8454
  17   2.0000      -0.644857       -17.5474
  18   2.0000      -0.616622       -16.7791
  19   2.0000      -0.570947       -15.5363
  20   2.0000      -0.542247       -14.7553
  21   2.0000      -0.525520       -14.3001
  22   2.0000      -0.490259       -13.3406
  23   2.0000      -0.458439       -12.4747
  24   0.0000      -0.163203        -4.4410
  25   0.0000      -0.152793        -4.1577
  26   0.0000      -0.121096        -3.2952
  27   0.0000      -0.112090        -3.0501
  28   0.0000      -0.091830        -2.4988

MULLIKEN ATOMIC CHARGES
-----------------------
   0 C :   -0.426631
   1 N :   -0.047579
   2 C :   -0.627938
   3 C :    0.549236
   4 N :   -0.268026
   5 N :   -0.217753
   6 H :    0.193114
   7 H :    0.184668
   8 H :    0.225707
   9 H :    0.190801
  10 H :    0.176906
  11 H :    0.247185
  12 H :    0.145461
  13 H :    0.209409
  14 H :    0.237326
  15 H :    0.228115
Sum of atomic charges:    1.0000000

LOEWDIN ATOMIC CHARGES
----------------------
   0 C :   -0.201491
   1 N :    0.086147
   2 C :   -0.061704
   3 C :   -0.440804
   4 N :    0.196707
   5 N :    0.223225
   6 H :    0.137527
   7 H :    0.142502
   8 H :    0.168547
   9 H :    0.136913
  10 H :    0.132927
  11 H :    0.115926
  12 H :    0.130070
  13 H :    0.072946
  14 H :    0.083195
  15 H :    0.077368

  Mayer bond orders larger than 0.100000
B(  0-C ,  1-N ) :   1.0238 B(  0-C ,  2-C ) :   0.8524 B(  0-C ,  3-C ) :  -0.1199
B(  0-C , 11-H ) :   0.9098 B(  0-C , 12-H ) :   1.0139 B(  1-N ,  3-C ) :   1.2342
B(  1-N ,  4-N ) :   0.1135 B(  1-N ,  8-H ) :   0.9485 B(  2-C , 13-H ) :   0.9938
B(  2-C , 14-H ) :   0.9858 B(  2-C , 15-H ) :   0.9545 B(  3-C ,  4-N ) :   1.0932
B(  3-C ,  5-N ) :   1.2174 B(  4-N ,  9-H ) :   0.9810 B(  4-N , 10-H ) :   1.0166
B(  5-N ,  6-H ) :   0.9554 B(  5-N ,  7-H ) :   1.0086

Dispersion correction           -0.010226723
FINAL SINGLE POINT ENERGY      -284.184592922296

DIPOLE MOMENT
-------------
                                X             Y             Z
Electronic contribution:      3.55256      -2.64506      -2.81409
Nuclear contribution   :     -2.93277       1.85779       2.25966
                        -----------------------------------------
Total Dipole Moment    :      0.61979      -0.78727      -0.55443
                        -----------------------------------------
Magnitude (a.u.)       :      1.14513
Magnitude (Debye)      :      2.91070

Rotational constants in cm-1:     0.245511     0.068839     0.059711
Rotational constants in MHz :  7360.233487  2063.743353  1790.088408

                             ****ORCA TERMINATED NORMALLY****
TOTAL RUN TIME: 0 days 0 hours 0 minutes 45 seconds 144 msec
