                         Program Version 5.0.0 -  RELEASE  -
|  1> !PBE0 D3BJ RIJCOSX def2-TZVPD def2/J TightSCF xyzfile
|  2>
|  3> *xyzfile 0 1 B.xyz
|  4>
|  5> %MaxCore 64000
|  6>
|  7> %pal nprocs 4
|  8> end
|  9>
| 10> %scf
| 11>   MaxIter 150
| 12> end
| 13>
| 14>
| 15>                          ****END OF INPUT****

CARTESIAN COORDINATES (ANGSTROEM)
---------------------------------
  C      3.380928    2.083045   -3.350127
  N      4.535924    1.182447   -3.428518
  C      2.495557    1.816150   -2.136364
  C      1.872181    0.427903   -2.077497
  H      2.614270   -0.365825   -2.198894
  H      1.389953    0.273087   -1.112360
  S      0.579024    0.140472   -3.297943
  C      4.671956    0.122273   -4.220598
  N      5.866023   -0.507849   -4.224284
  N      3.698881   -0.312844   -4.986988
  H      2.731405   -0.050091   -4.849000
  H      3.890046   -1.055172   -5.643730
  H      5.251933    1.303459   -2.721014
  H      6.695165   -0.062322   -3.851596
  H      5.975383   -1.396884   -4.691414
  O      0.228860   -1.246868   -3.127871
  O     -0.439269    1.118966   -3.014550
  O      1.247881    0.403474   -4.595647
  H      1.697003    2.561969   -2.141109
  H      3.080787    1.987436   -1.225838
  H      2.806463    1.986511   -4.268484
  H      3.778714    3.098282   -3.307383

 Total Charge           Charge          ....    0
 Multiplicity           Mult            ....    1
 Number of Electrons    NEL             ....   96
 Basis Dimension        Dim             ....  524

ORBITAL ENERGIES
----------------

  NO   OCC          E(Eh)            E(eV)
   0   2.0000     -89.146108     -2425.7889
   1   2.0000     -19.140332      -520.8349
   2   2.0000     -19.124422      -520.4020
   3   2.0000     -19.124389      -520.4011
   4   2.0000     -14.477785      -393.9605
   5   2.0000     -14.474325      -393.8664
   6   2.0000     -14.442556      -393.0019
   7   2.0000     -10.416212      -283.4395
   8   2.0000     -10.285954      -279.8950
   9   2.0000     -10.236816      -278.5579
  10   2.0000     -10.222469      -278.1675
  11   2.0000      -8.092166      -220.1990
  12   2.0000      -6.029751      -164.0779
  13   2.0000      -6.028592      -164.0463
  14   2.0000      -6.027387      -164.0135
  15   2.0000      -1.104490       -30.0547
  16   2.0000      -1.099626       -29.9223
  17   2.0000      -0.993365       -27.0308
  18   2.0000      -0.978749       -26.6331
  19   2.0000      -0.962372       -26.1875
  20   2.0000      -0.960733       -26.1429
  21   2.0000      -0.832859       -22.6632
  22   2.0000      -0.759777       -20.6746
  23   2.0000      -0.705504       -19.1977
  24   2.0000      -0.666773       -18.1438
  25   2.0000      -0.658369       -17.9151
  26   2.0000      -0.621688       -16.9170
  27   2.0000      -0.579991       -15.7824
  28   2.0000      -0.565434       -15.3862
  29   2.0000      -0.545787       -14.8516
  30   2.0000      -0.522910       -14.2291
  31   2.0000      -0.503650       -13.7050
  32   2.0000      -0.487060       -13.2536
  33   2.0000      -0.465380       -12.6636
  34   2.0000      -0.449947       -12.2437
  35   2.0000      -0.434440       -11.8217
  36   2.0000      -0.415081       -11.2949
  37   2.0000      -0.393440       -10.7061
  38   2.0000      -0.387535       -10.5454
  39   2.0000      -0.375177       -10.2091
  40   2.0000      -0.352698        -9.5974
  41   2.0000      -0.324288        -8.8243
  42   2.0000      -0.316992        -8.6258
  43   2.0000      -0.309168        -8.4129
  44   2.0000      -0.278250        -7.5716
  45   2.0000      -0.268356        -7.3023
  46   2.0000      -0.259834        -7.0704
  47   2.0000      -0.229181        -6.2363
  48   0.0000      -0.045143        -1.2284
  49   0.0000      -0.028925        -0.7871
  50   0.0000      -0.010450        -0.2844
  51   0.0000       0.006729         0.1831
  52   0.0000       0.023411         0.6370

MULLIKEN ATOMIC CHARGES
-----------------------
   0 C :   -0.578635
   1 N :   -0.066958
   2 C :   -0.155005
   3 C :   -0.344431
   4 H :    0.160084
   5 H :    0.161110
   6 S :    1.108526
   7 C :    0.441535
   8 N :   -0.273881
   9 N :   -0.055996
  10 H :    0.114863
  11 H :    0.193970
  12 H :    0.239332
  13 H :    0.177169
  14 H :    0.167465
  15 O :   -0.648886
  16 O :   -0.639188
  17 O :   -0.810026
  18 H :    0.166419
  19 H :    0.135715
  20 H :    0.417399
  21 H :    0.089418
Sum of atomic charges:   -0.0000000

LOEWDIN ATOMIC CHARGES
----------------------
   0 C :   -0.162145
   1 N :    0.087250
   2 C :   -0.204955
   3 C :   -0.254616
   4 H :    0.090372
   5 H :    0.102331
   6 S :    0.406907
   7 C :   -0.452055
   8 N :    0.169452
   9 N :    0.234549
  10 H :    0.025246
  11 H :    0.137884
  12 H :    0.158943
  13 H :    0.121362
  14 H :    0.121382
  15 O :   -0.335994
  16 O :   -0.325318
  17 O :   -0.390924
  18 H :    0.120483
  19 H :    0.110364
  20 H :    0.115020
  21 H :    0.124463

  Mayer bond orders larger than 0.100000
B(  0-C ,  1-N ) :   1.0516 B(  0-C ,  2-C ) :   0.9549 B(  0-C ,  7-C ) :  -0.1496
B(  0-C , 20-H ) :   0.8136 B(  0-C , 21-H ) :   0.9905 B(  1-N ,  7-C ) :   1.2337
B(  1-N ,  8-N ) :   0.1173 B(  1-N , 12-H ) :   0.9161 B(  2-C ,  3-C ) :   1.2079
B(  2-C ,  6-S ) :   0.1571 B(  2-C , 18-H ) :   0.9584 B(  2-C , 19-H ) :   0.8955
B(  3-C ,  4-H ) :   0.9332 B(  3-C ,  5-H ) :   0.9526 B(  3-C ,  6-S ) :   0.7925
B(  3-C , 15-O ) :   0.1377 B(  3-C , 16-O ) :   0.1113 B(  6-S , 15-O ) :   1.5414
B(  6-S , 16-O ) :   1.5655 B(  6-S , 17-O ) :   1.3785 B(  7-C ,  8-N ) :   1.0660
B(  7-C ,  9-N ) :   1.2906 B(  8-N , 13-H ) :   0.9793 B(  8-N , 14-H ) :   1.0163
B(  9-N , 10-H ) :   0.8419 B(  9-N , 11-H ) :   0.9766 B(  9-N , 17-O ) :  -0.1036
B( 10-H , 17-O ) :   0.1769

Dispersion correction           -0.021968678
FINAL SINGLE POINT ENERGY      -946.704602841504

DIPOLE MOMENT
-------------
                                X             Y             Z
Electronic contribution:     -7.11519      -3.19507      -2.44195
Nuclear contribution   :     13.40759       3.44219       2.21042
                        -----------------------------------------
Total Dipole Moment    :      6.29240       0.24712      -0.23153
                        -----------------------------------------
Magnitude (a.u.)       :      6.30151
Magnitude (Debye)      :     16.01715

Rotational constants in cm-1:     0.059860     0.020817     0.017914
Rotational constants in MHz :  1794.564877   624.092098   537.039275

                             ****ORCA TERMINATED NORMALLY****
TOTAL RUN TIME: 0 days 0 hours 2 minutes 59 seconds 45 msec
