                         Program Version 5.0.0 -  RELEASE  -
|  1> !PBE0 D3BJ RIJCOSX def2-TZVPD def2/J TightSCF
|  2> *xyz 0 1
|  3> C          2.49556        1.81615       -2.13636
|  4> C          1.87218        0.42790       -2.07750
|  5> H          2.61427       -0.36583       -2.19889
|  6> H          1.38995        0.27309       -1.11236
|  7> S          0.57902        0.14047       -3.29794
|  8> F          0.22886       -1.24687       -3.12787
|  9> O         -0.43927        1.11897       -3.01455
| 10> O          1.24788        0.40347       -4.59565
| 11> H          2.96535        1.95613       -3.08747
| 12> H          3.22581        1.91242       -1.36024
| 13> H          1.73350        2.55528       -2.00274
| 14> *
| 15>
| 16> %MaxCore 64000
| 17>
| 18> %pal nprocs 4
| 19> end
| 20>
| 21> %scf
| 22>   MaxIter 150
| 23> end
| 24>
| 25>
| 26>                          ****END OF INPUT****

CARTESIAN COORDINATES (ANGSTROEM)
---------------------------------
  C      2.495560    1.816150   -2.136360
  C      1.872180    0.427900   -2.077500
  H      2.614270   -0.365830   -2.198890
  H      1.389950    0.273090   -1.112360
  S      0.579020    0.140470   -3.297940
  F      0.228860   -1.246870   -3.127870
  O     -0.439270    1.118970   -3.014550
  O      1.247880    0.403470   -4.595650
  H      2.965350    1.956130   -3.087470
  H      3.225810    1.912420   -1.360240
  H      1.733500    2.555280   -2.002740

 Total Charge           Charge          ....    0
 Multiplicity           Mult            ....    1
 Number of Electrons    NEL             ....   58
 Basis Dimension        Dim             ....  285

ORBITAL ENERGIES
----------------

  NO   OCC          E(Eh)            E(eV)
   0   2.0000     -89.262238     -2428.9490
   1   2.0000     -24.895766      -677.4482
   2   2.0000     -19.221958      -523.0561
   3   2.0000     -19.207349      -522.6585
   4   2.0000     -10.281589      -279.7763
   5   2.0000     -10.235644      -278.5260
   6   2.0000      -8.208646      -223.3686
   7   2.0000      -6.148901      -167.3201
   8   2.0000      -6.142799      -167.1540
   9   2.0000      -6.142419      -167.1437
  10   2.0000      -1.419705       -38.6321
  11   2.0000      -1.135492       -30.8983
  12   2.0000      -1.033563       -28.1247
  13   2.0000      -0.843566       -22.9546
  14   2.0000      -0.759973       -20.6799
  15   2.0000      -0.694036       -18.8857
  16   2.0000      -0.608230       -16.5508
  17   2.0000      -0.605949       -16.4887
  18   2.0000      -0.574124       -15.6227
  19   2.0000      -0.507669       -13.8144
  20   2.0000      -0.498903       -13.5758
  21   2.0000      -0.460302       -12.5255
  22   2.0000      -0.443520       -12.0688
  23   2.0000      -0.421719       -11.4755
  24   2.0000      -0.401049       -10.9131
  25   2.0000      -0.398994       -10.8572
  26   2.0000      -0.349826        -9.5193
  27   2.0000      -0.335318        -9.1245
  28   2.0000      -0.320547        -8.7225
  29   0.0000      -0.003821        -0.1040
  30   0.0000       0.016327         0.4443
  31   0.0000       0.028774         0.7830
  32   0.0000       0.031275         0.8510
  33   0.0000       0.050953         1.3865

MULLIKEN ATOMIC CHARGES
-----------------------
   0 C :   -0.885742
   1 C :   -0.138457
   2 H :    0.230282
   3 H :    0.228489
   4 S :    1.032025
   5 F :   -0.090225
   6 O :   -0.527231
   7 O :   -0.564072
   8 H :    0.257872
   9 H :    0.195735
  10 H :    0.261325
Sum of atomic charges:    0.0000000

LOEWDIN ATOMIC CHARGES
----------------------
   0 C :   -0.106049
   1 C :   -0.290202
   2 H :    0.102285
   3 H :    0.098174
   4 S :    0.583357
   5 F :   -0.049413
   6 O :   -0.266113
   7 O :   -0.299118
   8 H :    0.075230
   9 H :    0.075516
  10 H :    0.076332

  Mayer bond orders larger than 0.100000
B(  0-C ,  1-C ) :   0.9594 B(  0-C ,  4-S ) :   0.1077 B(  0-C ,  8-H ) :   0.9618
B(  0-C ,  9-H ) :   0.9755 B(  0-C , 10-H ) :   0.9515 B(  1-C ,  2-H ) :   0.9056
B(  1-C ,  3-H ) :   0.9103 B(  1-C ,  4-S ) :   0.8208 B(  4-S ,  5-F ) :   1.0569
B(  4-S ,  6-O ) :   1.7637 B(  4-S ,  7-O ) :   1.7029

Dispersion correction           -0.007925029
FINAL SINGLE POINT ENERGY      -727.352875956779

DIPOLE MOMENT
-------------
                                X             Y             Z
Electronic contribution:     -6.82086      -6.39346      -4.10117
Nuclear contribution   :      7.60530       5.82028       5.38743
                        -----------------------------------------
Total Dipole Moment    :      0.78443      -0.57318       1.28626
                        -----------------------------------------
Magnitude (a.u.)       :      1.61194
Magnitude (Debye)      :      4.09722

Rotational constants in cm-1:     0.157861     0.081452     0.078859
Rotational constants in MHz :  4732.562506  2441.865430  2364.129821

                             ****ORCA TERMINATED NORMALLY****
TOTAL RUN TIME: 0 days 0 hours 0 minutes 33 seconds 104 msec
