                         Program Version 5.0.0 -  RELEASE  -
|  1> !PBE0 D3BJ RIJCOSX def2-TZVPD def2/J TightSCF
|  2> *xyz 0 1
|  3> C          3.38093        2.08304       -3.35013
|  4> C          4.53592        1.18245       -3.42852
|  5> C          2.49556        1.81615       -2.13636
|  6> C          4.67196        0.12227       -4.22060
|  7> N          5.86602       -0.50785       -4.22428
|  8> N          3.69888       -0.31284       -4.98699
|  9> H          2.73141       -0.05009       -4.84900
| 10> H          3.89005       -1.05517       -5.64373
| 11> H          5.25193        1.30346       -2.72101
| 12> H          6.69516       -0.06232       -3.85160
| 13> H          5.97538       -1.39688       -4.69141
| 14> H          2.80646        1.98651       -4.26848
| 15> H          3.77871        3.09828       -3.30738
| 16> H          2.11090        0.81901       -2.18783
| 17> H          1.68276        2.51198       -2.12786
| 18> H          3.07216        1.93031       -1.24227
| 19> *
| 20>
| 21> %MaxCore 64000
| 22>
| 23> %pal nprocs 4
| 24> end
| 25>
| 26> %scf
| 27>   MaxIter 150
| 28> end
| 29>
| 30>
| 31>                          ****END OF INPUT****

CARTESIAN COORDINATES (ANGSTROEM)
---------------------------------
  C      3.380930    2.083040   -3.350130
  C      4.535920    1.182450   -3.428520
  C      2.495560    1.816150   -2.136360
  C      4.671960    0.122270   -4.220600
  N      5.866020   -0.507850   -4.224280
  N      3.698880   -0.312840   -4.986990
  H      2.731410   -0.050090   -4.849000
  H      3.890050   -1.055170   -5.643730
  H      5.251930    1.303460   -2.721010
  H      6.695160   -0.062320   -3.851600
  H      5.975380   -1.396880   -4.691410
  H      2.806460    1.986510   -4.268480
  H      3.778710    3.098280   -3.307380
  H      2.110900    0.819010   -2.187830
  H      1.682760    2.511980   -2.127860
  H      3.072160    1.930310   -1.242270

 Total Charge           Charge          ....    0
 Multiplicity           Mult            ....    1
 Number of Electrons    NEL             ....   48
 Basis Dimension        Dim             ....  312

ORBITAL ENERGIES
----------------

  NO   OCC          E(Eh)            E(eV)
   0   2.0000     -14.387140      -391.4940
   1   2.0000     -14.379878      -391.2964
   2   2.0000     -10.263872      -279.2942
   3   2.0000     -10.193879      -277.3896
   4   2.0000     -10.182931      -277.0916
   5   2.0000     -10.143167      -276.0096
   6   2.0000      -0.988482       -26.8980
   7   2.0000      -0.894759       -24.3476
   8   2.0000      -0.793979       -21.6053
   9   2.0000      -0.715499       -19.4697
  10   2.0000      -0.635570       -17.2947
  11   2.0000      -0.594715       -16.1830
  12   2.0000      -0.559611       -15.2278
  13   2.0000      -0.521815       -14.1993
  14   2.0000      -0.494175       -13.4472
  15   2.0000      -0.454912       -12.3788
  16   2.0000      -0.428026       -11.6472
  17   2.0000      -0.406402       -11.0588
  18   2.0000      -0.390334       -10.6215
  19   2.0000      -0.362505        -9.8643
  20   2.0000      -0.337621        -9.1871
  21   2.0000      -0.330889        -9.0040
  22   2.0000      -0.277170        -7.5422
  23   2.0000      -0.168028        -4.5723
  24   0.0000       0.004150         0.1129
  25   0.0000       0.028898         0.7864
  26   0.0000       0.039364         1.0712
  27   0.0000       0.050481         1.3737
  28   0.0000       0.064156         1.7458

MULLIKEN ATOMIC CHARGES
-----------------------
   0 C :   -0.237546
   1 C :   -0.730760
   2 C :   -0.696968
   3 C :    0.527871
   4 N :   -0.327868
   5 N :   -0.276382
   6 H :    0.156738
   7 H :    0.136698
   8 H :    0.292335
   9 H :    0.155143
  10 H :    0.136786
  11 H :    0.163168
  12 H :    0.096245
  13 H :    0.200570
  14 H :    0.186486
  15 H :    0.217483
Sum of atomic charges:    0.0000000

LOEWDIN ATOMIC CHARGES
----------------------
   0 C :   -0.283703
   1 C :   -0.141891
   2 C :   -0.111922
   3 C :   -0.553334
   4 N :    0.100680
   5 N :    0.129216
   6 H :    0.110365
   7 H :    0.102945
   8 H :    0.068072
   9 H :    0.107326
  10 H :    0.091635
  11 H :    0.093944
  12 H :    0.101593
  13 H :    0.063061
  14 H :    0.057066
  15 H :    0.064947

  Mayer bond orders larger than 0.100000
B(  0-C ,  1-C ) :   1.0038 B(  0-C ,  2-C ) :   0.6711 B(  0-C , 11-H ) :   0.9784
B(  0-C , 12-H ) :   1.0726 B(  1-C ,  2-C ) :   0.1496 B(  1-C ,  3-C ) :   1.3981
B(  1-C ,  4-N ) :   0.1984 B(  1-C ,  5-N ) :   0.1021 B(  1-C ,  8-H ) :   0.8881
B(  2-C , 13-H ) :   1.0103 B(  2-C , 14-H ) :   0.9909 B(  2-C , 15-H ) :   0.9909
B(  3-C ,  4-N ) :   0.9030 B(  3-C ,  5-N ) :   1.0509 B(  4-N ,  9-H ) :   1.0144
B(  4-N , 10-H ) :   1.0505 B(  5-N ,  6-H ) :   0.9820 B(  5-N ,  7-H ) :   1.0427

Dispersion correction           -0.010650433
FINAL SINGLE POINT ENERGY      -267.709837212417

DIPOLE MOMENT
-------------
                                X             Y             Z
Electronic contribution:      2.99600      -2.78490      -2.88837
Nuclear contribution   :     -2.84307       1.95814       2.32378
                        -----------------------------------------
Total Dipole Moment    :      0.15292      -0.82676      -0.56459
                        -----------------------------------------
Magnitude (a.u.)       :      1.01276
Magnitude (Debye)      :      2.57423

Rotational constants in cm-1:     0.248902     0.068887     0.059904
Rotational constants in MHz :  7461.898926  2065.183281  1795.882140

                             ****ORCA TERMINATED NORMALLY****
TOTAL RUN TIME: 0 days 0 hours 0 minutes 45 seconds 628 msec
