                         Program Version 5.0.0 -  RELEASE  -
|  1> !PBE0 D3BJ RIJCOSX def2-TZVPD def2/J TightSCF
|  2> *xyz 0 1
|  3> C          2.49556        1.81615       -2.13636
|  4> C          1.87218        0.42790       -2.07750
|  5> H          2.61427       -0.36583       -2.19889
|  6> H          1.38995        0.27309       -1.11236
|  7> S          0.57902        0.14047       -3.29794
|  8> O          0.22886       -1.24687       -3.12787
|  9> F         -0.43927        1.11897       -3.01455
| 10> O          1.24788        0.40347       -4.59565
| 11> H          2.96535        1.95613       -3.08747
| 12> H          3.22581        1.91242       -1.36024
| 13> H          1.73350        2.55528       -2.00274
| 14> *
| 15>
| 16> %MaxCore 64000
| 17>
| 18> %pal nprocs 4
| 19> end
| 20>
| 21> %scf
| 22>   MaxIter 150
| 23> end
| 24>
| 25>
| 26>                          ****END OF INPUT****

CARTESIAN COORDINATES (ANGSTROEM)
---------------------------------
  C      2.495560    1.816150   -2.136360
  C      1.872180    0.427900   -2.077500
  H      2.614270   -0.365830   -2.198890
  H      1.389950    0.273090   -1.112360
  S      0.579020    0.140470   -3.297940
  O      0.228860   -1.246870   -3.127870
  F     -0.439270    1.118970   -3.014550
  O      1.247880    0.403470   -4.595650
  H      2.965350    1.956130   -3.087470
  H      3.225810    1.912420   -1.360240
  H      1.733500    2.555280   -2.002740

 Total Charge           Charge          ....    0
 Multiplicity           Mult            ....    1
 Number of Electrons    NEL             ....   58
 Basis Dimension        Dim             ....  285

ORBITAL ENERGIES
----------------

  NO   OCC          E(Eh)            E(eV)
   0   2.0000     -89.262429     -2428.9542
   1   2.0000     -24.895873      -677.4511
   2   2.0000     -19.222347      -523.0667
   3   2.0000     -19.207991      -522.6760
   4   2.0000     -10.281516      -279.7743
   5   2.0000     -10.238387      -278.6007
   6   2.0000      -8.208801      -223.3728
   7   2.0000      -6.149182      -167.3278
   8   2.0000      -6.142950      -167.1582
   9   2.0000      -6.142469      -167.1451
  10   2.0000      -1.420180       -38.6451
  11   2.0000      -1.135015       -30.8853
  12   2.0000      -1.034582       -28.1524
  13   2.0000      -0.846481       -23.0339
  14   2.0000      -0.756537       -20.5864
  15   2.0000      -0.698019       -18.9941
  16   2.0000      -0.616145       -16.7662
  17   2.0000      -0.607042       -16.5185
  18   2.0000      -0.567535       -15.4434
  19   2.0000      -0.507567       -13.8116
  20   2.0000      -0.495292       -13.4776
  21   2.0000      -0.469292       -12.7701
  22   2.0000      -0.447981       -12.1902
  23   2.0000      -0.421388       -11.4665
  24   2.0000      -0.411203       -11.1894
  25   2.0000      -0.392684       -10.6855
  26   2.0000      -0.349265        -9.5040
  27   2.0000      -0.335272        -9.1232
  28   2.0000      -0.322616        -8.7788
  29   0.0000      -0.007293        -0.1984
  30   0.0000       0.020973         0.5707
  31   0.0000       0.026863         0.7310
  32   0.0000       0.029831         0.8117
  33   0.0000       0.048639         1.3235

MULLIKEN ATOMIC CHARGES
-----------------------
   0 C :   -0.867981
   1 C :   -0.116481
   2 H :    0.211741
   3 H :    0.227708
   4 S :    1.015282
   5 O :   -0.516851
   6 F :   -0.104928
   7 O :   -0.562523
   8 H :    0.257840
   9 H :    0.192758
  10 H :    0.263435
Sum of atomic charges:    0.0000000

LOEWDIN ATOMIC CHARGES
----------------------
   0 C :   -0.117695
   1 C :   -0.281701
   2 H :    0.113842
   3 H :    0.098694
   4 S :    0.581509
   5 O :   -0.269845
   6 F :   -0.045433
   7 O :   -0.296875
   8 H :    0.073262
   9 H :    0.073683
  10 H :    0.070559

  Mayer bond orders larger than 0.100000
B(  0-C ,  1-C ) :   0.9003 B(  0-C ,  4-S ) :   0.1030 B(  0-C ,  8-H ) :   0.9893
B(  0-C ,  9-H ) :   0.9878 B(  0-C , 10-H ) :   0.9302 B(  1-C ,  2-H ) :   0.9283
B(  1-C ,  3-H ) :   0.9298 B(  1-C ,  4-S ) :   0.8190 B(  1-C ,  5-O ) :   0.1029
B(  4-S ,  5-O ) :   1.7612 B(  4-S ,  6-F ) :   1.0635 B(  4-S ,  7-O ) :   1.7092

Dispersion correction           -0.007884603
FINAL SINGLE POINT ENERGY      -727.352904568216

DIPOLE MOMENT
-------------
                                X             Y             Z
Electronic contribution:     -7.93478      -2.41430      -3.90506
Nuclear contribution   :      8.30151       3.35500       5.26935
                        -----------------------------------------
Total Dipole Moment    :      0.36672       0.94070       1.36429
                        -----------------------------------------
Magnitude (a.u.)       :      1.69726
Magnitude (Debye)      :      4.31410

Rotational constants in cm-1:     0.152913     0.083043     0.080351
Rotational constants in MHz :  4584.227971  2489.580280  2408.872860

                             ****ORCA TERMINATED NORMALLY****
TOTAL RUN TIME: 0 days 0 hours 0 minutes 33 seconds 25 msec
