                         Program Version 5.0.0 -  RELEASE  -
|  1> !PBE0 D3BJ RIJCOSX def2-TZVPD def2/J TightSCF
|  2> *xyz 0 1
|  3> C          3.38093        2.08304       -3.35013
|  4> N          4.53592        1.18245       -3.42852
|  5> C          2.49556        1.81615       -2.13636
|  6> C          4.67196        0.12227       -4.22060
|  7> C          5.86602       -0.50785       -4.22428
|  8> N          3.69888       -0.31284       -4.98699
|  9> H          2.73141       -0.05009       -4.84900
| 10> H          3.89005       -1.05517       -5.64373
| 11> H          5.25193        1.30346       -2.72101
| 12> H          6.69516       -0.06232       -3.85160
| 13> H          5.97538       -1.39688       -4.69141
| 14> H          2.80646        1.98651       -4.26848
| 15> H          3.77871        3.09828       -3.30738
| 16> H          2.11090        0.81901       -2.18783
| 17> H          1.68276        2.51198       -2.12786
| 18> H          3.07216        1.93031       -1.24227
| 19> *
| 20>
| 21> %MaxCore 64000
| 22>
| 23> %pal nprocs 4
| 24> end
| 25>
| 26> %scf
| 27>   MaxIter 150
| 28> end
| 29>
| 30>
| 31>                          ****END OF INPUT****

CARTESIAN COORDINATES (ANGSTROEM)
---------------------------------
  C      3.380930    2.083040   -3.350130
  N      4.535920    1.182450   -3.428520
  C      2.495560    1.816150   -2.136360
  C      4.671960    0.122270   -4.220600
  C      5.866020   -0.507850   -4.224280
  N      3.698880   -0.312840   -4.986990
  H      2.731410   -0.050090   -4.849000
  H      3.890050   -1.055170   -5.643730
  H      5.251930    1.303460   -2.721010
  H      6.695160   -0.062320   -3.851600
  H      5.975380   -1.396880   -4.691410
  H      2.806460    1.986510   -4.268480
  H      3.778710    3.098280   -3.307380
  H      2.110900    0.819010   -2.187830
  H      1.682760    2.511980   -2.127860
  H      3.072160    1.930310   -1.242270

 Total Charge           Charge          ....    0
 Multiplicity           Mult            ....    1
 Number of Electrons    NEL             ....   48
 Basis Dimension        Dim             ....  312

ORBITAL ENERGIES
----------------

  NO   OCC          E(Eh)            E(eV)
   0   2.0000     -14.386660      -391.4809
   1   2.0000     -14.385185      -391.4408
   2   2.0000     -10.267931      -279.4046
   3   2.0000     -10.261104      -279.2188
   4   2.0000     -10.211833      -277.8781
   5   2.0000     -10.128421      -275.6083
   6   2.0000      -0.995818       -27.0976
   7   2.0000      -0.913551       -24.8590
   8   2.0000      -0.794332       -21.6149
   9   2.0000      -0.718593       -19.5539
  10   2.0000      -0.646757       -17.5992
  11   2.0000      -0.620403       -16.8820
  12   2.0000      -0.559820       -15.2335
  13   2.0000      -0.513241       -13.9660
  14   2.0000      -0.495188       -13.4748
  15   2.0000      -0.459537       -12.5046
  16   2.0000      -0.442396       -12.0382
  17   2.0000      -0.415269       -11.3001
  18   2.0000      -0.401275       -10.9193
  19   2.0000      -0.380588       -10.3563
  20   2.0000      -0.374476       -10.1900
  21   2.0000      -0.365254        -9.9391
  22   2.0000      -0.266026        -7.2389
  23   2.0000      -0.167465        -4.5569
  24   0.0000       0.003292         0.0896
  25   0.0000       0.030796         0.8380
  26   0.0000       0.035356         0.9621
  27   0.0000       0.040288         1.0963
  28   0.0000       0.065374         1.7789

MULLIKEN ATOMIC CHARGES
-----------------------
   0 C :   -0.396305
   1 N :   -0.071157
   2 C :   -0.630867
   3 C :    0.762284
   4 C :   -1.262075
   5 N :   -0.272455
   6 H :    0.145298
   7 H :    0.160041
   8 H :    0.188822
   9 H :    0.216841
  10 H :    0.186958
  11 H :    0.240201
  12 H :    0.129503
  13 H :    0.189741
  14 H :    0.220462
  15 H :    0.192709
Sum of atomic charges:    0.0000000

LOEWDIN ATOMIC CHARGES
----------------------
   0 C :   -0.239108
   1 N :    0.020215
   2 C :   -0.090530
   3 C :   -0.576499
   4 C :   -0.006859
   5 N :    0.125078
   6 H :    0.099658
   7 H :    0.115330
   8 H :    0.146062
   9 H :    0.001768
  10 H :   -0.003083
  11 H :    0.103750
  12 H :    0.109457
  13 H :    0.065555
  14 H :    0.063791
  15 H :    0.065416

  Mayer bond orders larger than 0.100000
B(  0-C ,  1-N ) :   0.9980 B(  0-C ,  2-C ) :   0.8140 B(  0-C , 11-H ) :   0.9334
B(  0-C , 12-H ) :   1.0271 B(  1-N ,  3-C ) :   1.1350 B(  1-N ,  4-C ) :   0.1288
B(  1-N ,  8-H ) :   0.9521 B(  2-C , 13-H ) :   1.0258 B(  2-C , 14-H ) :   0.9982
B(  2-C , 15-H ) :   0.9748 B(  3-C ,  4-C ) :   1.0800 B(  3-C ,  5-N ) :   1.0877
B(  4-C ,  9-H ) :   0.9712 B(  4-C , 10-H ) :   1.1209 B(  5-N ,  6-H ) :   1.0018
B(  5-N ,  7-H ) :   1.0067

Dispersion correction           -0.010548447
FINAL SINGLE POINT ENERGY      -267.698197294375

DIPOLE MOMENT
-------------
                                X             Y             Z
Electronic contribution:      1.50187      -1.09569      -2.03927
Nuclear contribution   :     -2.56090       1.59955       2.15496
                        -----------------------------------------
Total Dipole Moment    :     -1.05903       0.50386       0.11569
                        -----------------------------------------
Magnitude (a.u.)       :      1.17848
Magnitude (Debye)      :      2.99545

Rotational constants in cm-1:     0.249834     0.071381     0.061833
Rotational constants in MHz :  7489.842787  2139.945635  1853.706310

                             ****ORCA TERMINATED NORMALLY****
TOTAL RUN TIME: 0 days 0 hours 0 minutes 45 seconds 162 msec
