                         Program Version 5.0.0 -  RELEASE  -
|  1> !PBE0 D3BJ RIJCOSX def2-TZVPD def2/J TightSCF
|  2> *xyz 0 1
|  3> C          2.49556        1.81615       -2.13636
|  4> C          1.87218        0.42790       -2.07750
|  5> H          2.61427       -0.36583       -2.19889
|  6> H          1.38995        0.27309       -1.11236
|  7> S          0.57902        0.14047       -3.29794
|  8> O          0.22886       -1.24687       -3.12787
|  9> O         -0.43927        1.11897       -3.01455
| 10> F          1.24788        0.40347       -4.59565
| 11> H          2.96535        1.95613       -3.08747
| 12> H          3.22581        1.91242       -1.36024
| 13> H          1.73350        2.55528       -2.00274
| 14> *
| 15>
| 16> %MaxCore 64000
| 17>
| 18> %pal nprocs 4
| 19> end
| 20>
| 21> %scf
| 22>   MaxIter 150
| 23> end
| 24>
| 25>
| 26>                          ****END OF INPUT****

CARTESIAN COORDINATES (ANGSTROEM)
---------------------------------
  C      2.495560    1.816150   -2.136360
  C      1.872180    0.427900   -2.077500
  H      2.614270   -0.365830   -2.198890
  H      1.389950    0.273090   -1.112360
  S      0.579020    0.140470   -3.297940
  O      0.228860   -1.246870   -3.127870
  O     -0.439270    1.118970   -3.014550
  F      1.247880    0.403470   -4.595650
  H      2.965350    1.956130   -3.087470
  H      3.225810    1.912420   -1.360240
  H      1.733500    2.555280   -2.002740

 Total Charge           Charge          ....    0
 Multiplicity           Mult            ....    1
 Number of Electrons    NEL             ....   58
 Basis Dimension        Dim             ....  285

ORBITAL ENERGIES
----------------

  NO   OCC          E(Eh)            E(eV)
   0   2.0000     -89.259860     -2428.8843
   1   2.0000     -24.873300      -676.8369
   2   2.0000     -19.221940      -523.0556
   3   2.0000     -19.221716      -523.0495
   4   2.0000     -10.280395      -279.7438
   5   2.0000     -10.238872      -278.6139
   6   2.0000      -8.206294      -223.3046
   7   2.0000      -6.146706      -167.2604
   8   2.0000      -6.140575      -167.0935
   9   2.0000      -6.139939      -167.0762
  10   2.0000      -1.383700       -37.6524
  11   2.0000      -1.145907       -31.1817
  12   2.0000      -1.055729       -28.7278
  13   2.0000      -0.845700       -23.0127
  14   2.0000      -0.742063       -20.1926
  15   2.0000      -0.691047       -18.8043
  16   2.0000      -0.597555       -16.2603
  17   2.0000      -0.581932       -15.8352
  18   2.0000      -0.565397       -15.3852
  19   2.0000      -0.509161       -13.8550
  20   2.0000      -0.492240       -13.3945
  21   2.0000      -0.473391       -12.8816
  22   2.0000      -0.451711       -12.2917
  23   2.0000      -0.422860       -11.5066
  24   2.0000      -0.416505       -11.3337
  25   2.0000      -0.394641       -10.7387
  26   2.0000      -0.357934        -9.7399
  27   2.0000      -0.345206        -9.3935
  28   2.0000      -0.337905        -9.1949
  29   0.0000      -0.005334        -0.1451
  30   0.0000       0.023655         0.6437
  31   0.0000       0.027361         0.7445
  32   0.0000       0.031130         0.8471
  33   0.0000       0.050351         1.3701

MULLIKEN ATOMIC CHARGES
-----------------------
   0 C :   -0.874186
   1 C :   -0.112618
   2 H :    0.226160
   3 H :    0.211423
   4 S :    1.037442
   5 O :   -0.523692
   6 O :   -0.535227
   7 F :   -0.143832
   8 H :    0.262071
   9 H :    0.190310
  10 H :    0.262151
Sum of atomic charges:   -0.0000000

LOEWDIN ATOMIC CHARGES
----------------------
   0 C :   -0.117587
   1 C :   -0.280481
   2 H :    0.104016
   3 H :    0.109470
   4 S :    0.582088
   5 O :   -0.270303
   6 O :   -0.264820
   7 F :   -0.079793
   8 H :    0.069975
   9 H :    0.073715
  10 H :    0.073720

  Mayer bond orders larger than 0.100000
B(  0-C ,  1-C ) :   0.8945 B(  0-C ,  8-H ) :   0.9396 B(  0-C ,  9-H ) :   0.9886
B(  0-C , 10-H ) :   0.9769 B(  1-C ,  2-H ) :   0.9317 B(  1-C ,  3-H ) :   0.9302
B(  1-C ,  4-S ) :   0.8147 B(  1-C ,  5-O ) :   0.1019 B(  4-S ,  5-O ) :   1.7534
B(  4-S ,  6-O ) :   1.7597 B(  4-S ,  7-F ) :   1.0144

Dispersion correction           -0.007882547
FINAL SINGLE POINT ENERGY      -727.371270254009

DIPOLE MOMENT
-------------
                                X             Y             Z
Electronic contribution:     -5.08739      -3.61018      -6.57855
Nuclear contribution   :      6.54345       4.10057       6.91691
                        -----------------------------------------
Total Dipole Moment    :      1.45606       0.49040       0.33836
                        -----------------------------------------
Magnitude (a.u.)       :      1.57324
Magnitude (Debye)      :      3.99885

Rotational constants in cm-1:     0.152835     0.082826     0.080611
Rotational constants in MHz :  4581.878371  2483.049050  2416.647141

                             ****ORCA TERMINATED NORMALLY****
TOTAL RUN TIME: 0 days 0 hours 0 minutes 32 seconds 989 msec
