                         Program Version 5.0.0 -  RELEASE  -
|  1> !PBE0 D3BJ RIJCOSX def2-TZVPD def2/J TightSCF
|  2> *xyz 0 1
|  3> C          3.38093        2.08304       -3.35013
|  4> N          4.53592        1.18245       -3.42852
|  5> C          2.49556        1.81615       -2.13636
|  6> C          4.67196        0.12227       -4.22060
|  7> N          5.86602       -0.50785       -4.22428
|  8> C          3.69888       -0.31284       -4.98699
|  9> H          2.73141       -0.05009       -4.84900
| 10> H          3.89005       -1.05517       -5.64373
| 11> H          5.25193        1.30346       -2.72101
| 12> H          6.69516       -0.06232       -3.85160
| 13> H          5.97538       -1.39688       -4.69141
| 14> H          2.80646        1.98651       -4.26848
| 15> H          3.77871        3.09828       -3.30738
| 16> H          2.11090        0.81901       -2.18783
| 17> H          1.68276        2.51198       -2.12786
| 18> H          3.07216        1.93031       -1.24227
| 19> *
| 20>
| 21> %MaxCore 64000
| 22>
| 23> %pal nprocs 4
| 24> end
| 25>
| 26> %scf
| 27>   MaxIter 150
| 28> end
| 29>
| 30>
| 31>                          ****END OF INPUT****

CARTESIAN COORDINATES (ANGSTROEM)
---------------------------------
  C      3.380930    2.083040   -3.350130
  N      4.535920    1.182450   -3.428520
  C      2.495560    1.816150   -2.136360
  C      4.671960    0.122270   -4.220600
  N      5.866020   -0.507850   -4.224280
  C      3.698880   -0.312840   -4.986990
  H      2.731410   -0.050090   -4.849000
  H      3.890050   -1.055170   -5.643730
  H      5.251930    1.303460   -2.721010
  H      6.695160   -0.062320   -3.851600
  H      5.975380   -1.396880   -4.691410
  H      2.806460    1.986510   -4.268480
  H      3.778710    3.098280   -3.307380
  H      2.110900    0.819010   -2.187830
  H      1.682760    2.511980   -2.127860
  H      3.072160    1.930310   -1.242270

 Total Charge           Charge          ....    0
 Multiplicity           Mult            ....    1
 Number of Electrons    NEL             ....   48
 Basis Dimension        Dim             ....  312

ORBITAL ENERGIES
----------------

  NO   OCC          E(Eh)            E(eV)
   0   2.0000     -14.385560      -391.4510
   1   2.0000     -14.380254      -391.3066
   2   2.0000     -10.265085      -279.3272
   3   2.0000     -10.253120      -279.0016
   4   2.0000     -10.204438      -277.6769
   5   2.0000     -10.132111      -275.7088
   6   2.0000      -0.989234       -26.9184
   7   2.0000      -0.904165       -24.6036
   8   2.0000      -0.779509       -21.2115
   9   2.0000      -0.733667       -19.9641
  10   2.0000      -0.658226       -17.9113
  11   2.0000      -0.582115       -15.8401
  12   2.0000      -0.559607       -15.2277
  13   2.0000      -0.529795       -14.4165
  14   2.0000      -0.471929       -12.8418
  15   2.0000      -0.462073       -12.5736
  16   2.0000      -0.434179       -11.8146
  17   2.0000      -0.415517       -11.3068
  18   2.0000      -0.392564       -10.6822
  19   2.0000      -0.387608       -10.5473
  20   2.0000      -0.365600        -9.9485
  21   2.0000      -0.360943        -9.8218
  22   2.0000      -0.258462        -7.0331
  23   2.0000      -0.180016        -4.8985
  24   0.0000       0.007879         0.2144
  25   0.0000       0.027338         0.7439
  26   0.0000       0.039640         1.0787
  27   0.0000       0.044263         1.2045
  28   0.0000       0.065599         1.7850

MULLIKEN ATOMIC CHARGES
-----------------------
   0 C :   -0.383798
   1 N :   -0.130322
   2 C :   -0.641996
   3 C :    0.799991
   4 N :   -0.304051
   5 C :   -1.226571
   6 H :    0.222538
   7 H :    0.187026
   8 H :    0.195661
   9 H :    0.144863
  10 H :    0.149722
  11 H :    0.266238
  12 H :    0.120028
  13 H :    0.179927
  14 H :    0.222748
  15 H :    0.197995
Sum of atomic charges:   -0.0000000

LOEWDIN ATOMIC CHARGES
----------------------
   0 C :   -0.234278
   1 N :    0.011537
   2 C :   -0.087368
   3 C :   -0.569165
   4 N :    0.104697
   5 C :    0.003386
   6 H :    0.009411
   7 H :    0.011189
   8 H :    0.137716
   9 H :    0.096211
  10 H :    0.104751
  11 H :    0.107214
  12 H :    0.109373
  13 H :    0.068236
  14 H :    0.064413
  15 H :    0.062679

  Mayer bond orders larger than 0.100000
B(  0-C ,  1-N ) :   0.9955 B(  0-C ,  2-C ) :   0.8018 B(  0-C ,  5-C ) :   0.1396
B(  0-C , 11-H ) :   0.9192 B(  0-C , 12-H ) :   0.9959 B(  1-N ,  3-C ) :   1.1031
B(  1-N ,  8-H ) :   0.9657 B(  2-C , 13-H ) :   1.0474 B(  2-C , 14-H ) :   0.9789
B(  2-C , 15-H ) :   0.9693 B(  3-C ,  4-N ) :   0.9603 B(  3-C ,  5-C ) :   1.2459
B(  3-C ,  7-H ) :  -0.1214 B(  4-N ,  5-C ) :   0.1092 B(  4-N ,  9-H ) :   1.0265
B(  4-N , 10-H ) :   1.0210 B(  5-C ,  6-H ) :   0.9430 B(  5-C ,  7-H ) :   1.1356

Dispersion correction           -0.010605433
FINAL SINGLE POINT ENERGY      -267.703097993040

DIPOLE MOMENT
-------------
                                X             Y             Z
Electronic contribution:      3.65841      -1.31836      -1.35001
Nuclear contribution   :     -3.02065       1.64092       1.99316
                        -----------------------------------------
Total Dipole Moment    :      0.63776       0.32256       0.64315
                        -----------------------------------------
Magnitude (a.u.)       :      0.96147
Magnitude (Debye)      :      2.44387

Rotational constants in cm-1:     0.259304     0.069422     0.060943
Rotational constants in MHz :  7773.747720  2081.225169  1827.013389

                             ****ORCA TERMINATED NORMALLY****
TOTAL RUN TIME: 0 days 0 hours 0 minutes 45 seconds 199 msec
