                         Program Version 5.0.0 -  RELEASE  -
|  1> !PBE0 D3BJ RIJCOSX def2-TZVPD def2/J TightSCF xyzfile
|  2>
|  3> *xyzfile 0 1 D1.xyz
|  4>
|  5> %MaxCore 64000
|  6>
|  7> %pal nprocs 4
|  8> end
|  9>
| 10> %scf
| 11>   MaxIter 150
| 12> end
| 13>
| 14>
| 15>                          ****END OF INPUT****

CARTESIAN COORDINATES (ANGSTROEM)
---------------------------------
  C      3.380928    2.083045   -3.350127
  C      4.535924    1.182447   -3.428518
  C      2.495557    1.816150   -2.136364
  C      1.872181    0.427903   -2.077497
  H      2.614270   -0.365825   -2.198894
  H      1.389953    0.273087   -1.112360
  S      0.579024    0.140472   -3.297943
  C      4.671956    0.122273   -4.220598
  N      5.866023   -0.507849   -4.224284
  N      3.698881   -0.312844   -4.986988
  H      2.731405   -0.050091   -4.849000
  H      3.890046   -1.055172   -5.643730
  H      5.251933    1.303459   -2.721014
  H      6.695165   -0.062322   -3.851596
  H      5.975383   -1.396884   -4.691414
  F      0.228860   -1.246868   -3.127871
  O     -0.439269    1.118966   -3.014550
  O      1.247881    0.403474   -4.595647
  H      1.697003    2.561969   -2.141109
  H      3.080787    1.987436   -1.225838
  H      2.806463    1.986511   -4.268484
  H      3.778714    3.098282   -3.307383

 Total Charge           Charge          ....    0
 Multiplicity           Mult            ....    1
 Number of Electrons    NEL             ....   96
 Basis Dimension        Dim             ....  524

ORBITAL ENERGIES
----------------

  NO   OCC          E(Eh)            E(eV)
   0   2.0000     -89.272105     -2429.2175
   1   2.0000     -24.902682      -677.6364
   2   2.0000     -19.229534      -523.2622
   3   2.0000     -19.224882      -523.1356
   4   2.0000     -14.377509      -391.2319
   5   2.0000     -14.360924      -390.7806
   6   2.0000     -10.273922      -279.5676
   7   2.0000     -10.261321      -279.2247
   8   2.0000     -10.231319      -278.4084
   9   2.0000     -10.197886      -277.4986
  10   2.0000     -10.142754      -275.9984
  11   2.0000      -8.218778      -223.6443
  12   2.0000      -6.158991      -167.5947
  13   2.0000      -6.153031      -167.4325
  14   2.0000      -6.152420      -167.4158
  15   2.0000      -1.426938       -38.8290
  16   2.0000      -1.148118       -31.2419
  17   2.0000      -1.053518       -28.6677
  18   2.0000      -0.979568       -26.6554
  19   2.0000      -0.885786       -24.1035
  20   2.0000      -0.848186       -23.0803
  21   2.0000      -0.788109       -21.4455
  22   2.0000      -0.749311       -20.3898
  23   2.0000      -0.702640       -19.1198
  24   2.0000      -0.647008       -17.6060
  25   2.0000      -0.618344       -16.8260
  26   2.0000      -0.608049       -16.5459
  27   2.0000      -0.599405       -16.3106
  28   2.0000      -0.570585       -15.5264
  29   2.0000      -0.551314       -15.0020
  30   2.0000      -0.531528       -14.4636
  31   2.0000      -0.506567       -13.7844
  32   2.0000      -0.498861       -13.5747
  33   2.0000      -0.484496       -13.1838
  34   2.0000      -0.466536       -12.6951
  35   2.0000      -0.453099       -12.3295
  36   2.0000      -0.421959       -11.4821
  37   2.0000      -0.418106       -11.3772
  38   2.0000      -0.406450       -11.0601
  39   2.0000      -0.394976       -10.7478
  40   2.0000      -0.371058       -10.0970
  41   2.0000      -0.366550        -9.9743
  42   2.0000      -0.351092        -9.5537
  43   2.0000      -0.348209        -9.4752
  44   2.0000      -0.333231        -9.0677
  45   2.0000      -0.324128        -8.8200
  46   2.0000      -0.267544        -7.2802
  47   2.0000      -0.168744        -4.5918
  48   0.0000      -0.005523        -0.1503
  49   0.0000       0.012830         0.3491
  50   0.0000       0.017838         0.4854
  51   0.0000       0.028746         0.7822
  52   0.0000       0.039075         1.0633

MULLIKEN ATOMIC CHARGES
-----------------------
   0 C :   -0.221263
   1 C :   -0.995172
   2 C :   -0.262828
   3 C :   -0.339161
   4 H :    0.278698
   5 H :    0.184877
   6 S :    1.032899
   7 C :    0.595438
   8 N :   -0.311203
   9 N :   -0.179069
  10 H :    0.133308
  11 H :    0.142274
  12 H :    0.252640
  13 H :    0.165844
  14 H :    0.136578
  15 F :   -0.102998
  16 O :   -0.527250
  17 O :   -0.656779
  18 H :    0.057922
  19 H :    0.224266
  20 H :    0.287729
  21 H :    0.103250
Sum of atomic charges:   -0.0000000

LOEWDIN ATOMIC CHARGES
----------------------
   0 C :   -0.223829
   1 C :   -0.134184
   2 C :   -0.209910
   3 C :   -0.222427
   4 H :    0.106484
   5 H :    0.103781
   6 S :    0.633845
   7 C :   -0.547260
   8 N :    0.103750
   9 N :    0.144118
  10 H :    0.014708
  11 H :    0.107764
  12 H :    0.067939
  13 H :    0.105783
  14 H :    0.092016
  15 F :   -0.038465
  16 O :   -0.248725
  17 O :   -0.303986
  18 H :    0.112046
  19 H :    0.123503
  20 H :    0.100891
  21 H :    0.112157

  Mayer bond orders larger than 0.100000
B(  0-C ,  1-C ) :   0.8257 B(  0-C ,  2-C ) :   0.7973 B(  0-C , 20-H ) :   0.9233
B(  0-C , 21-H ) :   1.0432 B(  1-C ,  2-C ) :   0.1930 B(  1-C ,  3-C ) :   0.1380
B(  1-C ,  7-C ) :   1.2671 B(  1-C ,  8-N ) :   0.2095 B(  1-C , 12-H ) :   0.9636
B(  2-C ,  3-C ) :   1.2667 B(  2-C ,  6-S ) :   0.1794 B(  2-C , 18-H ) :   0.9497
B(  2-C , 19-H ) :   0.8818 B(  3-C ,  4-H ) :   0.8649 B(  3-C ,  5-H ) :   0.8995
B(  3-C ,  6-S ) :   0.7724 B(  6-S , 15-F ) :   1.0215 B(  6-S , 16-O ) :   1.7530
B(  6-S , 17-O ) :   1.6440 B(  7-C ,  8-N ) :   0.9212 B(  7-C ,  9-N ) :   1.0182
B(  7-C , 10-H ) :  -0.1062 B(  7-C , 12-H ) :  -0.1010 B(  8-N , 13-H ) :   0.9947
B(  8-N , 14-H ) :   1.0484 B(  9-N , 10-H ) :   0.9049 B(  9-N , 11-H ) :   1.0107

Dispersion correction           -0.022087192
FINAL SINGLE POINT ENERGY      -954.595746997679

DIPOLE MOMENT
-------------
                                X             Y             Z
Electronic contribution:    -15.29865      -6.68658      -1.15809
Nuclear contribution   :     15.92508       5.34175       1.81950
                        -----------------------------------------
Total Dipole Moment    :      0.62643      -1.34483       0.66140
                        -----------------------------------------
Magnitude (a.u.)       :      1.62433
Magnitude (Debye)      :      4.12872

Rotational constants in cm-1:     0.058561     0.020662     0.017762
Rotational constants in MHz :  1755.621534   619.433801   532.501507

                             ****ORCA TERMINATED NORMALLY****
TOTAL RUN TIME: 0 days 0 hours 3 minutes 14 seconds 761 msec
