                         Program Version 5.0.0 -  RELEASE  -
|  1> !PBE0 D3BJ RIJCOSX def2-TZVPD def2/J TightSCF xyzfile
|  2>
|  3> *xyzfile 0 1 D2.xyz
|  4>
|  5> %MaxCore 64000
|  6>
|  7> %pal nprocs 4
|  8> end
|  9>
| 10> %scf
| 11>   MaxIter 150
| 12> end
| 13>
| 14>
| 15>                          ****END OF INPUT****

CARTESIAN COORDINATES (ANGSTROEM)
---------------------------------
  C      3.380928    2.083045   -3.350127
  N      4.535924    1.182447   -3.428518
  C      2.495557    1.816150   -2.136364
  C      1.872181    0.427903   -2.077497
  H      2.614270   -0.365825   -2.198894
  H      1.389953    0.273087   -1.112360
  S      0.579024    0.140472   -3.297943
  C      4.671956    0.122273   -4.220598
  C      5.866023   -0.507849   -4.224284
  N      3.698881   -0.312844   -4.986988
  H      2.731405   -0.050091   -4.849000
  H      3.890046   -1.055172   -5.643730
  H      5.251933    1.303459   -2.721014
  H      6.695165   -0.062322   -3.851596
  H      5.975383   -1.396884   -4.691414
  F      0.228860   -1.246868   -3.127871
  O     -0.439269    1.118966   -3.014550
  O      1.247881    0.403474   -4.595647
  H      1.697003    2.561969   -2.141109
  H      3.080787    1.987436   -1.225838
  H      2.806463    1.986511   -4.268484
  H      3.778714    3.098282   -3.307383

 Total Charge           Charge          ....    0
 Multiplicity           Mult            ....    1
 Number of Electrons    NEL             ....   96
 Basis Dimension        Dim             ....  524

ORBITAL ENERGIES
----------------

  NO   OCC          E(Eh)            E(eV)
   0   2.0000     -89.285930     -2429.5937
   1   2.0000     -24.914198      -677.9498
   2   2.0000     -19.242526      -523.6158
   3   2.0000     -19.236888      -523.4623
   4   2.0000     -14.386803      -391.4848
   5   2.0000     -14.358038      -390.7021
   6   2.0000     -10.292867      -280.0832
   7   2.0000     -10.264718      -279.3172
   8   2.0000     -10.260815      -279.2110
   9   2.0000     -10.258864      -279.1579
  10   2.0000     -10.122370      -275.4437
  11   2.0000      -8.232435      -224.0160
  12   2.0000      -6.172593      -167.9648
  13   2.0000      -6.166731      -167.8053
  14   2.0000      -6.166169      -167.7900
  15   2.0000      -1.438227       -39.1361
  16   2.0000      -1.160993       -31.5922
  17   2.0000      -1.066022       -29.0079
  18   2.0000      -0.989822       -26.9344
  19   2.0000      -0.906837       -24.6763
  20   2.0000      -0.859698       -23.3936
  21   2.0000      -0.794614       -21.6225
  22   2.0000      -0.749357       -20.3911
  23   2.0000      -0.709088       -19.2953
  24   2.0000      -0.657313       -17.8864
  25   2.0000      -0.628567       -17.1042
  26   2.0000      -0.616919       -16.7872
  27   2.0000      -0.614717       -16.7273
  28   2.0000      -0.600289       -16.3347
  29   2.0000      -0.561253       -15.2725
  30   2.0000      -0.523610       -14.2482
  31   2.0000      -0.509263       -13.8578
  32   2.0000      -0.503971       -13.7138
  33   2.0000      -0.495993       -13.4966
  34   2.0000      -0.481415       -13.1000
  35   2.0000      -0.461388       -12.5550
  36   2.0000      -0.431017       -11.7286
  37   2.0000      -0.423786       -11.5318
  38   2.0000      -0.420848       -11.4519
  39   2.0000      -0.401212       -10.9175
  40   2.0000      -0.396781       -10.7970
  41   2.0000      -0.382548       -10.4097
  42   2.0000      -0.371019       -10.0960
  43   2.0000      -0.360495        -9.8096
  44   2.0000      -0.353179        -9.6105
  45   2.0000      -0.340989        -9.2788
  46   2.0000      -0.260153        -7.0791
  47   2.0000      -0.162217        -4.4141
  48   0.0000      -0.012990        -0.3535
  49   0.0000       0.002060         0.0560
  50   0.0000       0.017968         0.4889
  51   0.0000       0.020545         0.5591
  52   0.0000       0.035432         0.9641

MULLIKEN ATOMIC CHARGES
-----------------------
   0 C :   -0.588835
   1 N :   -0.067884
   2 C :   -0.183734
   3 C :   -0.359770
   4 H :    0.281168
   5 H :    0.188184
   6 S :    1.036216
   7 C :    0.665062
   8 C :   -1.290460
   9 N :   -0.156425
  10 H :    0.148490
  11 H :    0.151455
  12 H :    0.213942
  13 H :    0.209881
  14 H :    0.204980
  15 F :   -0.097400
  16 O :   -0.525720
  17 O :   -0.652693
  18 H :    0.150733
  19 H :    0.161336
  20 H :    0.389329
  21 H :    0.122143
Sum of atomic charges:    0.0000000

LOEWDIN ATOMIC CHARGES
----------------------
   0 C :   -0.178994
   1 N :    0.032858
   2 C :   -0.193667
   3 C :   -0.219268
   4 H :    0.109912
   5 H :    0.106039
   6 S :    0.635096
   7 C :   -0.577465
   8 C :   -0.011079
   9 N :    0.140469
  10 H :    0.009295
  11 H :    0.119544
  12 H :    0.146854
  13 H :   -0.002428
  14 H :   -0.004372
  15 F :   -0.032168
  16 O :   -0.246458
  17 O :   -0.304063
  18 H :    0.117027
  19 H :    0.122876
  20 H :    0.109631
  21 H :    0.120362

  Mayer bond orders larger than 0.100000
B(  0-C ,  1-N ) :   0.9991 B(  0-C ,  2-C ) :   0.9725 B(  0-C ,  7-C ) :  -0.1116
B(  0-C , 20-H ) :   0.8393 B(  0-C , 21-H ) :   1.0103 B(  1-N ,  7-C ) :   1.1585
B(  1-N ,  8-C ) :   0.1422 B(  1-N , 12-H ) :   0.9164 B(  2-C ,  3-C ) :   1.2309
B(  2-C ,  6-S ) :   0.1778 B(  2-C , 18-H ) :   0.9572 B(  2-C , 19-H ) :   0.8869
B(  3-C ,  4-H ) :   0.8621 B(  3-C ,  5-H ) :   0.9175 B(  3-C ,  6-S ) :   0.7766
B(  6-S , 15-F ) :   1.0286 B(  6-S , 16-O ) :   1.7543 B(  6-S , 17-O ) :   1.6454
B(  7-C ,  8-C ) :   1.1388 B(  7-C ,  9-N ) :   1.1137 B(  8-C , 13-H ) :   1.0143
B(  8-C , 14-H ) :   1.0798 B(  9-N , 10-H ) :   0.8668 B(  9-N , 11-H ) :   0.9896

Dispersion correction           -0.021893949
FINAL SINGLE POINT ENERGY      -954.579115467017

DIPOLE MOMENT
-------------
                                X             Y             Z
Electronic contribution:    -16.77727      -5.22859      -0.38785
Nuclear contribution   :     16.05479       5.17692       1.74190
                        -----------------------------------------
Total Dipole Moment    :     -0.72248      -0.05167       1.35405
                        -----------------------------------------
Magnitude (a.u.)       :      1.53561
Magnitude (Debye)      :      3.90322

Rotational constants in cm-1:     0.058652     0.021107     0.018077
Rotational constants in MHz :  1758.344290   632.763813   541.920558

                             ****ORCA TERMINATED NORMALLY****
TOTAL RUN TIME: 0 days 0 hours 3 minutes 15 seconds 446 msec
