                         Program Version 5.0.0 -  RELEASE  -
|  1> !PBE0 D3BJ RIJCOSX def2-TZVPD def2/J TightSCF xyzfile
|  2>
|  3> *xyzfile 0 1 D3.xyz
|  4>
|  5> %MaxCore 64000
|  6>
|  7> %pal nprocs 4
|  8> end
|  9>
| 10> %scf
| 11>   MaxIter 150
| 12> end
| 13>
| 14>
| 15>                          ****END OF INPUT****

CARTESIAN COORDINATES (ANGSTROEM)
---------------------------------
  C      3.380928    2.083045   -3.350127
  N      4.535924    1.182447   -3.428518
  C      2.495557    1.816150   -2.136364
  C      1.872181    0.427903   -2.077497
  H      2.614270   -0.365825   -2.198894
  H      1.389953    0.273087   -1.112360
  S      0.579024    0.140472   -3.297943
  C      4.671956    0.122273   -4.220598
  N      5.866023   -0.507849   -4.224284
  C      3.698881   -0.312844   -4.986988
  H      2.731405   -0.050091   -4.849000
  H      3.890046   -1.055172   -5.643730
  H      5.251933    1.303459   -2.721014
  H      6.695165   -0.062322   -3.851596
  H      5.975383   -1.396884   -4.691414
  F      0.228860   -1.246868   -3.127871
  O     -0.439269    1.118966   -3.014550
  O      1.247881    0.403474   -4.595647
  H      1.697003    2.561969   -2.141109
  H      3.080787    1.987436   -1.225838
  H      2.806463    1.986511   -4.268484
  H      3.778714    3.098282   -3.307383

 Total Charge           Charge          ....    0
 Multiplicity           Mult            ....    1
 Number of Electrons    NEL             ....   96
 Basis Dimension        Dim             ....  524

ORBITAL ENERGIES
----------------

  NO   OCC          E(Eh)            E(eV)
   0   2.0000     -89.263718     -2428.9893
   1   2.0000     -24.895269      -677.4347
   2   2.0000     -19.222483      -523.0704
   3   2.0000     -19.207621      -522.6659
   4   2.0000     -14.387712      -391.5095
   5   2.0000     -14.376212      -391.1966
   6   2.0000     -10.278389      -279.6892
   7   2.0000     -10.258431      -279.1461
   8   2.0000     -10.257936      -279.1326
   9   2.0000     -10.250401      -278.9276
  10   2.0000     -10.110847      -275.1301
  11   2.0000      -8.210244      -223.4121
  12   2.0000      -6.150478      -167.3630
  13   2.0000      -6.144291      -167.1947
  14   2.0000      -6.144135      -167.1904
  15   2.0000      -1.419220       -38.6189
  16   2.0000      -1.138544       -30.9814
  17   2.0000      -1.040589       -28.3159
  18   2.0000      -0.988776       -26.9060
  19   2.0000      -0.905614       -24.6430
  20   2.0000      -0.846317       -23.0294
  21   2.0000      -0.776243       -21.1227
  22   2.0000      -0.739164       -20.1137
  23   2.0000      -0.716861       -19.5068
  24   2.0000      -0.661959       -18.0128
  25   2.0000      -0.608778       -16.5657
  26   2.0000      -0.604539       -16.4503
  27   2.0000      -0.591185       -16.0870
  28   2.0000      -0.572201       -15.5704
  29   2.0000      -0.553890       -15.0721
  30   2.0000      -0.532054       -14.4779
  31   2.0000      -0.508010       -13.8237
  32   2.0000      -0.505706       -13.7610
  33   2.0000      -0.472008       -12.8440
  34   2.0000      -0.466358       -12.6903
  35   2.0000      -0.461191       -12.5496
  36   2.0000      -0.420295       -11.4368
  37   2.0000      -0.412737       -11.2311
  38   2.0000      -0.404707       -11.0126
  39   2.0000      -0.395454       -10.7608
  40   2.0000      -0.391536       -10.6542
  41   2.0000      -0.381598       -10.3838
  42   2.0000      -0.362705        -9.8697
  43   2.0000      -0.349741        -9.5169
  44   2.0000      -0.332207        -9.0398
  45   2.0000      -0.296267        -8.0618
  46   2.0000      -0.260012        -7.0753
  47   2.0000      -0.173452        -4.7199
  48   0.0000      -0.004003        -0.1089
  49   0.0000       0.006946         0.1890
  50   0.0000       0.018087         0.4922
  51   0.0000       0.026103         0.7103
  52   0.0000       0.041120         1.1189

MULLIKEN ATOMIC CHARGES
-----------------------
   0 C :   -0.582362
   1 N :   -0.123037
   2 C :   -0.215478
   3 C :   -0.331203
   4 H :    0.278524
   5 H :    0.188745
   6 S :    1.007484
   7 C :    0.913492
   8 N :   -0.325571
   9 C :   -1.560922
  10 H :    0.454411
  11 H :    0.175295
  12 H :    0.209037
  13 H :    0.134399
  14 H :    0.155200
  15 F :   -0.107637
  16 O :   -0.538460
  17 O :   -0.531992
  18 H :    0.138837
  19 H :    0.162517
  20 H :    0.391692
  21 H :    0.107029
Sum of atomic charges:    0.0000000

LOEWDIN ATOMIC CHARGES
----------------------
   0 C :   -0.173348
   1 N :    0.023725
   2 C :   -0.193082
   3 C :   -0.220440
   4 H :    0.106639
   5 H :    0.103284
   6 S :    0.624996
   7 C :   -0.561571
   8 N :    0.102182
   9 C :    0.018865
  10 H :   -0.055847
  11 H :    0.024310
  12 H :    0.138274
  13 H :    0.093100
  14 H :    0.103820
  15 F :   -0.036942
  16 O :   -0.257785
  17 O :   -0.311129
  18 H :    0.116836
  19 H :    0.119585
  20 H :    0.114057
  21 H :    0.120472

  Mayer bond orders larger than 0.100000
B(  0-C ,  1-N ) :   1.0508 B(  0-C ,  2-C ) :   0.9776 B(  0-C ,  9-C ) :   0.1111
B(  0-C , 20-H ) :   0.8206 B(  0-C , 21-H ) :   0.9988 B(  1-N ,  7-C ) :   1.1069
B(  1-N , 12-H ) :   0.9339 B(  2-C ,  3-C ) :   1.2445 B(  2-C ,  6-S ) :   0.1911
B(  2-C , 18-H ) :   0.9392 B(  2-C , 19-H ) :   0.8878 B(  3-C ,  4-H ) :   0.8749
B(  3-C ,  5-H ) :   0.9181 B(  3-C ,  6-S ) :   0.7469 B(  6-S , 15-F ) :   1.0123
B(  6-S , 16-O ) :   1.7451 B(  6-S , 17-O ) :   1.7214 B(  7-C ,  8-N ) :   0.9533
B(  7-C ,  9-C ) :   0.8488 B(  7-C , 11-H ) :  -0.1832 B(  8-N ,  9-C ) :   0.1222
B(  8-N , 13-H ) :   1.0380 B(  8-N , 14-H ) :   1.0129 B(  9-C , 10-H ) :   1.0301
B(  9-C , 11-H ) :   1.1584 B(  9-C , 17-O ) :   0.1596 B( 10-H , 17-O ) :  -0.3238

Dispersion correction           -0.022076101
FINAL SINGLE POINT ENERGY      -954.563143112849

DIPOLE MOMENT
-------------
                                X             Y             Z
Electronic contribution:    -14.70576      -5.47497       0.03147
Nuclear contribution   :     15.84345       5.19593       1.66752
                        -----------------------------------------
Total Dipole Moment    :      1.13770      -0.27904       1.69899
                        -----------------------------------------
Magnitude (a.u.)       :      2.06368
Magnitude (Debye)      :      5.24546

Rotational constants in cm-1:     0.059060     0.020573     0.017713
Rotational constants in MHz :  1770.576058   616.749938   531.036486

                             ****ORCA TERMINATED NORMALLY****
TOTAL RUN TIME: 0 days 0 hours 3 minutes 15 seconds 113 msec
