                         Program Version 5.0.0 -  RELEASE  -
|  1> !PBE0 D3BJ RIJCOSX def2-TZVPD def2/J TightSCF xyzfile
|  2>
|  3> *xyzfile 0 1 D4.xyz
|  4>
|  5> %MaxCore 64000
|  6>
|  7> %pal nprocs 4
|  8> end
|  9>
| 10> %scf
| 11>   MaxIter 150
| 12> end
| 13>
| 14>
| 15>                          ****END OF INPUT****

CARTESIAN COORDINATES (ANGSTROEM)
---------------------------------
  C      3.380928    2.083045   -3.350127
  C      4.535924    1.182447   -3.428518
  C      2.495557    1.816150   -2.136364
  C      1.872181    0.427903   -2.077497
  H      2.614270   -0.365825   -2.198894
  H      1.389953    0.273087   -1.112360
  S      0.579024    0.140472   -3.297943
  C      4.671956    0.122273   -4.220598
  N      5.866023   -0.507849   -4.224284
  N      3.698881   -0.312844   -4.986988
  H      2.731405   -0.050091   -4.849000
  H      3.890046   -1.055172   -5.643730
  H      5.251933    1.303459   -2.721014
  H      6.695165   -0.062322   -3.851596
  H      5.975383   -1.396884   -4.691414
  O      0.228860   -1.246868   -3.127871
  F     -0.439269    1.118966   -3.014550
  O      1.247881    0.403474   -4.595647
  H      1.697003    2.561969   -2.141109
  H      3.080787    1.987436   -1.225838
  H      2.806463    1.986511   -4.268484
  H      3.778714    3.098282   -3.307383

 Total Charge           Charge          ....    0
 Multiplicity           Mult            ....    1
 Number of Electrons    NEL             ....   96
 Basis Dimension        Dim             ....  524

ORBITAL ENERGIES
----------------

  NO   OCC          E(Eh)            E(eV)
   0   2.0000     -89.272384     -2429.2251
   1   2.0000     -24.902371      -677.6280
   2   2.0000     -19.229920      -523.2727
   3   2.0000     -19.224157      -523.1159
   4   2.0000     -14.376910      -391.2156
   5   2.0000     -14.360195      -390.7608
   6   2.0000     -10.273307      -279.5509
   7   2.0000     -10.261602      -279.2324
   8   2.0000     -10.233231      -278.4604
   9   2.0000     -10.199875      -277.5527
  10   2.0000     -10.143088      -276.0075
  11   2.0000      -8.218922      -223.6482
  12   2.0000      -6.159205      -167.6005
  13   2.0000      -6.153199      -167.4371
  14   2.0000      -6.152508      -167.4183
  15   2.0000      -1.426591       -38.8195
  16   2.0000      -1.147733       -31.2314
  17   2.0000      -1.053617       -28.6704
  18   2.0000      -0.978849       -26.6358
  19   2.0000      -0.884949       -24.0807
  20   2.0000      -0.850741       -23.1498
  21   2.0000      -0.786031       -21.3890
  22   2.0000      -0.748949       -20.3800
  23   2.0000      -0.704400       -19.1677
  24   2.0000      -0.645586       -17.5673
  25   2.0000      -0.621265       -16.9055
  26   2.0000      -0.611938       -16.6517
  27   2.0000      -0.599055       -16.3011
  28   2.0000      -0.567360       -15.4386
  29   2.0000      -0.549034       -14.9400
  30   2.0000      -0.530529       -14.4364
  31   2.0000      -0.502722       -13.6798
  32   2.0000      -0.496935       -13.5223
  33   2.0000      -0.490013       -13.3339
  34   2.0000      -0.467956       -12.7337
  35   2.0000      -0.455927       -12.4064
  36   2.0000      -0.424594       -11.5538
  37   2.0000      -0.415170       -11.2974
  38   2.0000      -0.413554       -11.2534
  39   2.0000      -0.392776       -10.6880
  40   2.0000      -0.372220       -10.1286
  41   2.0000      -0.361747        -9.8436
  42   2.0000      -0.355521        -9.6742
  43   2.0000      -0.347403        -9.4533
  44   2.0000      -0.339417        -9.2360
  45   2.0000      -0.321119        -8.7381
  46   2.0000      -0.266423        -7.2497
  47   2.0000      -0.168911        -4.5963
  48   0.0000      -0.005852        -0.1593
  49   0.0000       0.013858         0.3771
  50   0.0000       0.019437         0.5289
  51   0.0000       0.029246         0.7958
  52   0.0000       0.038520         1.0482

MULLIKEN ATOMIC CHARGES
-----------------------
   0 C :   -0.204937
   1 C :   -1.029653
   2 C :   -0.220574
   3 C :   -0.307996
   4 H :    0.248613
   5 H :    0.189021
   6 S :    1.013660
   7 C :    0.615573
   8 N :   -0.310582
   9 N :   -0.166823
  10 H :    0.098301
  11 H :    0.143866
  12 H :    0.253213
  13 H :    0.166063
  14 H :    0.138465
  15 O :   -0.536587
  16 F :   -0.093021
  17 O :   -0.653037
  18 H :    0.056986
  19 H :    0.207150
  20 H :    0.290291
  21 H :    0.102007
Sum of atomic charges:   -0.0000000

LOEWDIN ATOMIC CHARGES
----------------------
   0 C :   -0.229520
   1 C :   -0.134462
   2 C :   -0.221878
   3 C :   -0.216104
   4 H :    0.117164
   5 H :    0.104147
   6 S :    0.631536
   7 C :   -0.543675
   8 N :    0.105457
   9 N :    0.150431
  10 H :    0.020618
  11 H :    0.110469
  12 H :    0.067746
  13 H :    0.105962
  14 H :    0.093389
  15 O :   -0.254950
  16 F :   -0.032663
  17 O :   -0.309021
  18 H :    0.105803
  19 H :    0.120797
  20 H :    0.097947
  21 H :    0.110809

  Mayer bond orders larger than 0.100000
B(  0-C ,  1-C ) :   0.8346 B(  0-C ,  2-C ) :   0.8126 B(  0-C , 20-H ) :   0.9082
B(  0-C , 21-H ) :   1.0539 B(  1-C ,  2-C ) :   0.2108 B(  1-C ,  3-C ) :   0.1417
B(  1-C ,  7-C ) :   1.2557 B(  1-C ,  8-N ) :   0.2071 B(  1-C , 12-H ) :   0.9637
B(  2-C ,  3-C ) :   1.1942 B(  2-C ,  6-S ) :   0.1496 B(  2-C , 18-H ) :   0.9300
B(  2-C , 19-H ) :   0.8982 B(  3-C ,  4-H ) :   0.8969 B(  3-C ,  5-H ) :   0.9305
B(  3-C ,  6-S ) :   0.7725 B(  6-S , 15-O ) :   1.7252 B(  6-S , 16-F ) :   1.0683
B(  6-S , 17-O ) :   1.6424 B(  7-C ,  8-N ) :   0.9264 B(  7-C ,  9-N ) :   1.0207
B(  7-C , 10-H ) :  -0.1113 B(  7-C , 12-H ) :  -0.1007 B(  8-N , 13-H ) :   0.9944
B(  8-N , 14-H ) :   1.0465 B(  9-N , 10-H ) :   0.9056 B(  9-N , 11-H ) :   1.0049
B( 10-H , 17-O ) :   0.1110

Dispersion correction           -0.022063420
FINAL SINGLE POINT ENERGY      -954.596054079776

DIPOLE MOMENT
-------------
                                X             Y             Z
Electronic contribution:    -16.40513      -2.66553      -0.98856
Nuclear contribution   :     16.65743       2.74852       1.69529
                        -----------------------------------------
Total Dipole Moment    :      0.25230       0.08299       0.70672
                        -----------------------------------------
Magnitude (a.u.)       :      0.75498
Magnitude (Debye)      :      1.91902

Rotational constants in cm-1:     0.059907     0.020458     0.017675
Rotational constants in MHz :  1795.978106   613.328205   529.885290

                             ****ORCA TERMINATED NORMALLY****
TOTAL RUN TIME: 0 days 0 hours 3 minutes 12 seconds 549 msec
