                         Program Version 5.0.0 -  RELEASE  -
|  1> !PBE0 D3BJ RIJCOSX def2-TZVPD def2/J TightSCF xyzfile
|  2>
|  3> *xyzfile 0 1 D5.xyz
|  4>
|  5> %MaxCore 64000
|  6>
|  7> %pal nprocs 4
|  8> end
|  9>
| 10> %scf
| 11>   MaxIter 150
| 12> end
| 13>
| 14>
| 15>                          ****END OF INPUT****

CARTESIAN COORDINATES (ANGSTROEM)
---------------------------------
  C      3.380928    2.083045   -3.350127
  N      4.535924    1.182447   -3.428518
  C      2.495557    1.816150   -2.136364
  C      1.872181    0.427903   -2.077497
  H      2.614270   -0.365825   -2.198894
  H      1.389953    0.273087   -1.112360
  S      0.579024    0.140472   -3.297943
  C      4.671956    0.122273   -4.220598
  C      5.866023   -0.507849   -4.224284
  N      3.698881   -0.312844   -4.986988
  H      2.731405   -0.050091   -4.849000
  H      3.890046   -1.055172   -5.643730
  H      5.251933    1.303459   -2.721014
  H      6.695165   -0.062322   -3.851596
  H      5.975383   -1.396884   -4.691414
  O      0.228860   -1.246868   -3.127871
  F     -0.439269    1.118966   -3.014550
  O      1.247881    0.403474   -4.595647
  H      1.697003    2.561969   -2.141109
  H      3.080787    1.987436   -1.225838
  H      2.806463    1.986511   -4.268484
  H      3.778714    3.098282   -3.307383

 Total Charge           Charge          ....    0
 Multiplicity           Mult            ....    1
 Number of Electrons    NEL             ....   96
 Basis Dimension        Dim             ....  524

ORBITAL ENERGIES
----------------

  NO   OCC          E(Eh)            E(eV)
   0   2.0000     -89.285528     -2429.5827
   1   2.0000     -24.915074      -677.9736
   2   2.0000     -19.241641      -523.5917
   3   2.0000     -19.236600      -523.4545
   4   2.0000     -14.387639      -391.5076
   5   2.0000     -14.356826      -390.6691
   6   2.0000     -10.292534      -280.0741
   7   2.0000     -10.266816      -279.3743
   8   2.0000     -10.260998      -279.2159
   9   2.0000     -10.259940      -279.1872
  10   2.0000     -10.121348      -275.4159
  11   2.0000      -8.231976      -224.0035
  12   2.0000      -6.172233      -167.9550
  13   2.0000      -6.166269      -167.7927
  14   2.0000      -6.165623      -167.7751
  15   2.0000      -1.439343       -39.1665
  16   2.0000      -1.159676       -31.5564
  17   2.0000      -1.065582       -28.9960
  18   2.0000      -0.989640       -26.9295
  19   2.0000      -0.906636       -24.6708
  20   2.0000      -0.861879       -23.4529
  21   2.0000      -0.792450       -21.5637
  22   2.0000      -0.750696       -20.4275
  23   2.0000      -0.710177       -19.3249
  24   2.0000      -0.656282       -17.8583
  25   2.0000      -0.631056       -17.1719
  26   2.0000      -0.628669       -17.1070
  27   2.0000      -0.613479       -16.6936
  28   2.0000      -0.592485       -16.1223
  29   2.0000      -0.557043       -15.1579
  30   2.0000      -0.523264       -14.2387
  31   2.0000      -0.513953       -13.9854
  32   2.0000      -0.503540       -13.7020
  33   2.0000      -0.495542       -13.4844
  34   2.0000      -0.477828       -13.0024
  35   2.0000      -0.466071       -12.6824
  36   2.0000      -0.434572       -11.8253
  37   2.0000      -0.427045       -11.6205
  38   2.0000      -0.420810       -11.4508
  39   2.0000      -0.404394       -11.0041
  40   2.0000      -0.395453       -10.7608
  41   2.0000      -0.379244       -10.3198
  42   2.0000      -0.367368        -9.9966
  43   2.0000      -0.356302        -9.6955
  44   2.0000      -0.352781        -9.5997
  45   2.0000      -0.346640        -9.4326
  46   2.0000      -0.259665        -7.0658
  47   2.0000      -0.161229        -4.3873
  48   0.0000      -0.017107        -0.4655
  49   0.0000       0.005067         0.1379
  50   0.0000       0.017318         0.4712
  51   0.0000       0.019337         0.5262
  52   0.0000       0.029135         0.7928

MULLIKEN ATOMIC CHARGES
-----------------------
   0 C :   -0.576329
   1 N :   -0.078373
   2 C :   -0.150425
   3 C :   -0.335197
   4 H :    0.253021
   5 H :    0.191942
   6 S :    1.021534
   7 C :    0.674077
   8 C :   -1.296104
   9 N :   -0.145466
  10 H :    0.118162
  11 H :    0.152436
  12 H :    0.216317
  13 H :    0.210925
  14 H :    0.205762
  15 O :   -0.528245
  16 F :   -0.094361
  17 O :   -0.650555
  18 H :    0.146531
  19 H :    0.151676
  20 H :    0.389979
  21 H :    0.122692
Sum of atomic charges:   -0.0000000

LOEWDIN ATOMIC CHARGES
----------------------
   0 C :   -0.184361
   1 N :    0.033343
   2 C :   -0.205060
   3 C :   -0.212505
   4 H :    0.120661
   5 H :    0.106452
   6 S :    0.631449
   7 C :   -0.575246
   8 C :   -0.009540
   9 N :    0.145912
  10 H :    0.014851
  11 H :    0.121727
  12 H :    0.146937
  13 H :   -0.002309
  14 H :   -0.003103
  15 O :   -0.246613
  16 F :   -0.031336
  17 O :   -0.308556
  18 H :    0.111199
  19 H :    0.120295
  20 H :    0.106624
  21 H :    0.119178

  Mayer bond orders larger than 0.100000
B(  0-C ,  1-N ) :   1.0089 B(  0-C ,  2-C ) :   0.9893 B(  0-C ,  7-C ) :  -0.1074
B(  0-C , 20-H ) :   0.8350 B(  0-C , 21-H ) :   1.0173 B(  1-N ,  7-C ) :   1.1480
B(  1-N ,  8-C ) :   0.1427 B(  1-N , 12-H ) :   0.9173 B(  2-C ,  3-C ) :   1.1597
B(  2-C ,  6-S ) :   0.1496 B(  2-C , 18-H ) :   0.9483 B(  2-C , 19-H ) :   0.9007
B(  3-C ,  4-H ) :   0.8927 B(  3-C ,  5-H ) :   0.9502 B(  3-C ,  6-S ) :   0.7801
B(  6-S , 15-O ) :   1.7322 B(  6-S , 16-F ) :   1.0696 B(  6-S , 17-O ) :   1.6416
B(  7-C ,  8-C ) :   1.1328 B(  7-C ,  9-N ) :   1.1163 B(  8-C , 13-H ) :   1.0153
B(  8-C , 14-H ) :   1.0776 B(  9-N , 10-H ) :   0.8658 B(  9-N , 11-H ) :   0.9838
B( 10-H , 17-O ) :   0.1246

Dispersion correction           -0.021870601
FINAL SINGLE POINT ENERGY      -954.578036073906

DIPOLE MOMENT
-------------
                                X             Y             Z
Electronic contribution:    -17.88845      -1.20332      -0.20347
Nuclear contribution   :     16.78714       2.58368       1.61768
                        -----------------------------------------
Total Dipole Moment    :     -1.10131       1.38036       1.41422
                        -----------------------------------------
Magnitude (a.u.)       :      2.26237
Magnitude (Debye)      :      5.75048

Rotational constants in cm-1:     0.059928     0.020911     0.017993
Rotational constants in MHz :  1796.610847   626.896941   539.414615

                             ****ORCA TERMINATED NORMALLY****
TOTAL RUN TIME: 0 days 0 hours 3 minutes 12 seconds 766 msec
