                         Program Version 5.0.0 -  RELEASE  -
|  1> !PBE0 D3BJ RIJCOSX def2-TZVPD def2/J TightSCF xyzfile
|  2>
|  3> *xyzfile 0 1 D6.xyz
|  4>
|  5> %MaxCore 64000
|  6>
|  7> %pal nprocs 4
|  8> end
|  9>
| 10> %scf
| 11>   MaxIter 150
| 12> end
| 13>
| 14>
| 15>                          ****END OF INPUT****

CARTESIAN COORDINATES (ANGSTROEM)
---------------------------------
  C      3.380928    2.083045   -3.350127
  N      4.535924    1.182447   -3.428518
  C      2.495557    1.816150   -2.136364
  C      1.872181    0.427903   -2.077497
  H      2.614270   -0.365825   -2.198894
  H      1.389953    0.273087   -1.112360
  S      0.579024    0.140472   -3.297943
  C      4.671956    0.122273   -4.220598
  N      5.866023   -0.507849   -4.224284
  C      3.698881   -0.312844   -4.986988
  H      2.731405   -0.050091   -4.849000
  H      3.890046   -1.055172   -5.643730
  H      5.251933    1.303459   -2.721014
  H      6.695165   -0.062322   -3.851596
  H      5.975383   -1.396884   -4.691414
  O      0.228860   -1.246868   -3.127871
  F     -0.439269    1.118966   -3.014550
  O      1.247881    0.403474   -4.595647
  H      1.697003    2.561969   -2.141109
  H      3.080787    1.987436   -1.225838
  H      2.806463    1.986511   -4.268484
  H      3.778714    3.098282   -3.307383

 Total Charge           Charge          ....    0
 Multiplicity           Mult            ....    1
 Number of Electrons    NEL             ....   96
 Basis Dimension        Dim             ....  524

ORBITAL ENERGIES
----------------

  NO   OCC          E(Eh)            E(eV)
   0   2.0000     -89.262718     -2428.9621
   1   2.0000     -24.895293      -677.4354
   2   2.0000     -19.221839      -523.0528
   3   2.0000     -19.209095      -522.7061
   4   2.0000     -14.388034      -391.5183
   5   2.0000     -14.374665      -391.1545
   6   2.0000     -10.278206      -279.6842
   7   2.0000     -10.260472      -279.2016
   8   2.0000     -10.256385      -279.0904
   9   2.0000     -10.252663      -278.9892
  10   2.0000     -10.110331      -275.1161
  11   2.0000      -8.209294      -223.3863
  12   2.0000      -6.149657      -167.3407
  13   2.0000      -6.143329      -167.1685
  14   2.0000      -6.143078      -167.1617
  15   2.0000      -1.419991       -38.6399
  16   2.0000      -1.137141       -30.9432
  17   2.0000      -1.040854       -28.3231
  18   2.0000      -0.988310       -26.8933
  19   2.0000      -0.905249       -24.6331
  20   2.0000      -0.848997       -23.1024
  21   2.0000      -0.773335       -21.0435
  22   2.0000      -0.740424       -20.1480
  23   2.0000      -0.717233       -19.5169
  24   2.0000      -0.662364       -18.0239
  25   2.0000      -0.616345       -16.7716
  26   2.0000      -0.609054       -16.5732
  27   2.0000      -0.586469       -15.9586
  28   2.0000      -0.570941       -15.5361
  29   2.0000      -0.550483       -14.9794
  30   2.0000      -0.530698       -14.4410
  31   2.0000      -0.508116       -13.8265
  32   2.0000      -0.501948       -13.6587
  33   2.0000      -0.479581       -13.0501
  34   2.0000      -0.465629       -12.6704
  35   2.0000      -0.458857       -12.4861
  36   2.0000      -0.429840       -11.6965
  37   2.0000      -0.412903       -11.2357
  38   2.0000      -0.407031       -11.0759
  39   2.0000      -0.399000       -10.8574
  40   2.0000      -0.388287       -10.5658
  41   2.0000      -0.380069       -10.3422
  42   2.0000      -0.364217        -9.9108
  43   2.0000      -0.337403        -9.1812
  44   2.0000      -0.324467        -8.8292
  45   2.0000      -0.310299        -8.4437
  46   2.0000      -0.259794        -7.0694
  47   2.0000      -0.171841        -4.6760
  48   0.0000      -0.007751        -0.2109
  49   0.0000       0.008641         0.2351
  50   0.0000       0.019015         0.5174
  51   0.0000       0.024042         0.6542
  52   0.0000       0.037858         1.0302

MULLIKEN ATOMIC CHARGES
-----------------------
   0 C :   -0.570111
   1 N :   -0.132366
   2 C :   -0.177097
   3 C :   -0.295250
   4 H :    0.241246
   5 H :    0.184600
   6 S :    0.998534
   7 C :    0.897242
   8 N :   -0.325969
   9 C :   -1.482712
  10 H :    0.373987
  11 H :    0.177789
  12 H :    0.209992
  13 H :    0.133414
  14 H :    0.155717
  15 O :   -0.546765
  16 F :   -0.100620
  17 O :   -0.525444
  18 H :    0.133658
  19 H :    0.152898
  20 H :    0.389524
  21 H :    0.107732
Sum of atomic charges:   -0.0000000

LOEWDIN ATOMIC CHARGES
----------------------
   0 C :   -0.178794
   1 N :    0.023549
   2 C :   -0.204267
   3 C :   -0.213514
   4 H :    0.117525
   5 H :    0.103787
   6 S :    0.620772
   7 C :   -0.559741
   8 N :    0.102614
   9 C :    0.025888
  10 H :   -0.049951
  11 H :    0.027105
  12 H :    0.138178
  13 H :    0.092854
  14 H :    0.104578
  15 O :   -0.254555
  16 F :   -0.040231
  17 O :   -0.314364
  18 H :    0.111104
  19 H :    0.117113
  20 H :    0.111035
  21 H :    0.119313

  Mayer bond orders larger than 0.100000
B(  0-C ,  1-N ) :   1.0587 B(  0-C ,  2-C ) :   0.9928 B(  0-C ,  9-C ) :   0.1093
B(  0-C , 20-H ) :   0.8193 B(  0-C , 21-H ) :   1.0047 B(  1-N ,  7-C ) :   1.0920
B(  1-N , 12-H ) :   0.9360 B(  2-C ,  3-C ) :   1.1748 B(  2-C ,  6-S ) :   0.1691
B(  2-C , 18-H ) :   0.9310 B(  2-C , 19-H ) :   0.9012 B(  3-C ,  4-H ) :   0.9084
B(  3-C ,  5-H ) :   0.9529 B(  3-C ,  6-S ) :   0.7442 B(  3-C , 15-O ) :   0.1120
B(  6-S , 15-O ) :   1.7053 B(  6-S , 16-F ) :   1.0648 B(  6-S , 17-O ) :   1.7014
B(  7-C ,  8-N ) :   0.9480 B(  7-C ,  9-C ) :   0.8693 B(  7-C , 11-H ) :  -0.1776
B(  8-N ,  9-C ) :   0.1280 B(  8-N , 13-H ) :   1.0391 B(  8-N , 14-H ) :   1.0131
B(  9-C , 10-H ) :   1.0473 B(  9-C , 11-H ) :   1.1315 B( 10-H , 17-O ) :  -0.2002

Dispersion correction           -0.022055674
FINAL SINGLE POINT ENERGY      -954.562642174360

DIPOLE MOMENT
-------------
                                X             Y             Z
Electronic contribution:    -15.83382      -1.43926       0.21499
Nuclear contribution   :     16.57580       2.60270       1.54331
                        -----------------------------------------
Total Dipole Moment    :      0.74198       1.16344       1.75830
                        -----------------------------------------
Magnitude (a.u.)       :      2.23512
Magnitude (Debye)      :      5.68121

Rotational constants in cm-1:     0.060402     0.020377     0.017632
Rotational constants in MHz :  1810.792194   610.900365   528.582827

                             ****ORCA TERMINATED NORMALLY****
TOTAL RUN TIME: 0 days 0 hours 3 minutes 12 seconds 178 msec
