                         Program Version 5.0.0 -  RELEASE  -
|  1> !PBE0 D3BJ RIJCOSX def2-TZVPD def2/J TightSCF xyzfile
|  2>
|  3> *xyzfile 0 1 D7.xyz
|  4>
|  5> %MaxCore 64000
|  6>
|  7> %pal nprocs 4
|  8> end
|  9>
| 10> %scf
| 11>   MaxIter 150
| 12> end
| 13>
| 14>
| 15>                          ****END OF INPUT****

CARTESIAN COORDINATES (ANGSTROEM)
---------------------------------
  C      3.380928    2.083045   -3.350127
  C      4.535924    1.182447   -3.428518
  C      2.495557    1.816150   -2.136364
  C      1.872181    0.427903   -2.077497
  H      2.614270   -0.365825   -2.198894
  H      1.389953    0.273087   -1.112360
  S      0.579024    0.140472   -3.297943
  C      4.671956    0.122273   -4.220598
  N      5.866023   -0.507849   -4.224284
  N      3.698881   -0.312844   -4.986988
  H      2.731405   -0.050091   -4.849000
  H      3.890046   -1.055172   -5.643730
  H      5.251933    1.303459   -2.721014
  H      6.695165   -0.062322   -3.851596
  H      5.975383   -1.396884   -4.691414
  O      0.228860   -1.246868   -3.127871
  O     -0.439269    1.118966   -3.014550
  F      1.247881    0.403474   -4.595647
  H      1.697003    2.561969   -2.141109
  H      3.080787    1.987436   -1.225838
  H      2.806463    1.986511   -4.268484
  H      3.778714    3.098282   -3.307383

 Total Charge           Charge          ....    0
 Multiplicity           Mult            ....    1
 Number of Electrons    NEL             ....   96
 Basis Dimension        Dim             ....  524

ORBITAL ENERGIES
----------------

  NO   OCC          E(Eh)            E(eV)
   0   2.0000     -89.261708     -2428.9346
   1   2.0000     -24.890053      -677.2928
   2   2.0000     -19.224463      -523.1242
   3   2.0000     -19.223798      -523.1061
   4   2.0000     -14.390222      -391.5778
   5   2.0000     -14.389602      -391.5610
   6   2.0000     -10.277448      -279.6636
   7   2.0000     -10.269900      -279.4582
   8   2.0000     -10.232804      -278.4488
   9   2.0000     -10.214397      -277.9479
  10   2.0000     -10.157741      -276.4062
  11   2.0000      -8.208760      -223.3717
  12   2.0000      -6.149553      -167.3379
  13   2.0000      -6.142547      -167.1472
  14   2.0000      -6.142233      -167.1387
  15   2.0000      -1.405110       -38.2350
  16   2.0000      -1.149652       -31.2836
  17   2.0000      -1.057889       -28.7866
  18   2.0000      -0.998808       -27.1789
  19   2.0000      -0.905231       -24.6326
  20   2.0000      -0.851797       -23.1786
  21   2.0000      -0.789753       -21.4903
  22   2.0000      -0.753183       -20.4952
  23   2.0000      -0.708937       -19.2912
  24   2.0000      -0.663708       -18.0604
  25   2.0000      -0.616216       -16.7681
  26   2.0000      -0.606444       -16.5022
  27   2.0000      -0.592440       -16.1211
  28   2.0000      -0.570308       -15.5189
  29   2.0000      -0.565006       -15.3746
  30   2.0000      -0.531125       -14.4527
  31   2.0000      -0.507991       -13.8231
  32   2.0000      -0.494509       -13.4563
  33   2.0000      -0.486885       -13.2488
  34   2.0000      -0.475888       -12.9496
  35   2.0000      -0.469590       -12.7782
  36   2.0000      -0.427929       -11.6445
  37   2.0000      -0.422112       -11.4862
  38   2.0000      -0.421122       -11.4593
  39   2.0000      -0.401526       -10.9261
  40   2.0000      -0.377435       -10.2705
  41   2.0000      -0.365736        -9.9522
  42   2.0000      -0.357366        -9.7244
  43   2.0000      -0.351158        -9.5555
  44   2.0000      -0.341946        -9.3048
  45   2.0000      -0.335140        -9.1196
  46   2.0000      -0.286139        -7.7862
  47   2.0000      -0.183572        -4.9952
  48   0.0000      -0.003682        -0.1002
  49   0.0000       0.010444         0.2842
  50   0.0000       0.018749         0.5102
  51   0.0000       0.028939         0.7875
  52   0.0000       0.039876         1.0851

MULLIKEN ATOMIC CHARGES
-----------------------
   0 C :   -0.179818
   1 C :   -0.958875
   2 C :   -0.250701
   3 C :   -0.272118
   4 H :    0.235920
   5 H :    0.174391
   6 S :    0.989197
   7 C :    0.610197
   8 N :   -0.314741
   9 N :   -0.216357
  10 H :    0.173965
  11 H :    0.150416
  12 H :    0.254054
  13 H :    0.168870
  14 H :    0.139761
  15 O :   -0.542248
  16 O :   -0.532488
  17 F :   -0.238955
  18 H :    0.061496
  19 H :    0.221672
  20 H :    0.236238
  21 H :    0.090125
Sum of atomic charges:   -0.0000000

LOEWDIN ATOMIC CHARGES
----------------------
   0 C :   -0.225337
   1 C :   -0.130244
   2 C :   -0.220700
   3 C :   -0.217954
   4 H :    0.107717
   5 H :    0.114543
   6 S :    0.600322
   7 C :   -0.542388
   8 N :    0.109009
   9 N :    0.149868
  10 H :    0.047758
  11 H :    0.113490
  12 H :    0.072209
  13 H :    0.108925
  14 H :    0.095087
  15 O :   -0.260791
  16 O :   -0.252642
  17 F :   -0.113475
  18 H :    0.109995
  19 H :    0.121792
  20 H :    0.098916
  21 H :    0.113900

  Mayer bond orders larger than 0.100000
B(  0-C ,  1-C ) :   0.8400 B(  0-C ,  2-C ) :   0.7948 B(  0-C , 20-H ) :   0.9043
B(  0-C , 21-H ) :   1.0583 B(  1-C ,  2-C ) :   0.1612 B(  1-C ,  3-C ) :   0.1411
B(  1-C ,  7-C ) :   1.2796 B(  1-C ,  8-N ) :   0.2077 B(  1-C , 12-H ) :   0.9544
B(  2-C ,  3-C ) :   1.2437 B(  2-C ,  6-S ) :   0.1707 B(  2-C , 18-H ) :   0.9890
B(  2-C , 19-H ) :   0.8756 B(  3-C ,  4-H ) :   0.9303 B(  3-C ,  5-H ) :   0.9106
B(  3-C ,  6-S ) :   0.7480 B(  6-S , 15-O ) :   1.7099 B(  6-S , 16-O ) :   1.7313
B(  6-S , 17-F ) :   1.0338 B(  7-C ,  8-N ) :   0.9196 B(  7-C ,  9-N ) :   1.0086
B(  7-C , 10-H ) :  -0.1017 B(  8-N , 13-H ) :   0.9943 B(  8-N , 14-H ) :   1.0458
B(  9-N , 10-H ) :   0.9101 B(  9-N , 11-H ) :   1.0110

Dispersion correction           -0.021866888
FINAL SINGLE POINT ENERGY      -954.601038628966

DIPOLE MOMENT
-------------
                                X             Y             Z
Electronic contribution:    -13.22053      -3.84626      -3.65819
Nuclear contribution   :     14.80811       3.53278       3.42836
                        -----------------------------------------
Total Dipole Moment    :      1.58758      -0.31348      -0.22984
                        -----------------------------------------
Magnitude (a.u.)       :      1.63447
Magnitude (Debye)      :      4.15450

Rotational constants in cm-1:     0.059173     0.020923     0.018056
Rotational constants in MHz :  1773.956621   627.264018   541.303397

                             ****ORCA TERMINATED NORMALLY****
TOTAL RUN TIME: 0 days 0 hours 2 minutes 59 seconds 599 msec
