                         Program Version 5.0.0 -  RELEASE  -
|  1> !PBE0 D3BJ RIJCOSX def2-TZVPD def2/J TightSCF xyzfile
|  2>
|  3> *xyzfile 0 1 D8.xyz
|  4>
|  5> %MaxCore 64000
|  6>
|  7> %pal nprocs 4
|  8> end
|  9>
| 10> %scf
| 11>   MaxIter 150
| 12> end
| 13>
| 14>
| 15>                          ****END OF INPUT****

CARTESIAN COORDINATES (ANGSTROEM)
---------------------------------
  C      3.380928    2.083045   -3.350127
  N      4.535924    1.182447   -3.428518
  C      2.495557    1.816150   -2.136364
  C      1.872181    0.427903   -2.077497
  H      2.614270   -0.365825   -2.198894
  H      1.389953    0.273087   -1.112360
  S      0.579024    0.140472   -3.297943
  C      4.671956    0.122273   -4.220598
  C      5.866023   -0.507849   -4.224284
  N      3.698881   -0.312844   -4.986988
  H      2.731405   -0.050091   -4.849000
  H      3.890046   -1.055172   -5.643730
  H      5.251933    1.303459   -2.721014
  H      6.695165   -0.062322   -3.851596
  H      5.975383   -1.396884   -4.691414
  O      0.228860   -1.246868   -3.127871
  O     -0.439269    1.118966   -3.014550
  F      1.247881    0.403474   -4.595647
  H      1.697003    2.561969   -2.141109
  H      3.080787    1.987436   -1.225838
  H      2.806463    1.986511   -4.268484
  H      3.778714    3.098282   -3.307383

 Total Charge           Charge          ....    0
 Multiplicity           Mult            ....    1
 Number of Electrons    NEL             ....   96
 Basis Dimension        Dim             ....  524

ORBITAL ENERGIES
----------------

  NO   OCC          E(Eh)            E(eV)
   0   2.0000     -89.274761     -2429.2898
   1   2.0000     -24.901510      -677.6045
   2   2.0000     -19.236525      -523.4524
   3   2.0000     -19.235688      -523.4297
   4   2.0000     -14.400123      -391.8473
   5   2.0000     -14.387037      -391.4912
   6   2.0000     -10.288402      -279.9617
   7   2.0000     -10.280311      -279.7415
   8   2.0000     -10.277001      -279.6514
   9   2.0000     -10.259535      -279.1761
  10   2.0000     -10.137167      -275.8463
  11   2.0000      -8.221688      -223.7235
  12   2.0000      -6.162445      -167.6887
  13   2.0000      -6.155633      -167.5033
  14   2.0000      -6.155098      -167.4887
  15   2.0000      -1.416750       -38.5517
  16   2.0000      -1.161594       -31.6086
  17   2.0000      -1.069691       -29.1078
  18   2.0000      -1.008008       -27.4293
  19   2.0000      -0.926418       -25.2091
  20   2.0000      -0.862336       -23.4654
  21   2.0000      -0.795435       -21.6449
  22   2.0000      -0.748583       -20.3700
  23   2.0000      -0.724870       -19.7247
  24   2.0000      -0.663569       -18.0566
  25   2.0000      -0.634365       -17.2619
  26   2.0000      -0.628205       -17.0943
  27   2.0000      -0.613044       -16.6818
  28   2.0000      -0.582492       -15.8504
  29   2.0000      -0.554653       -15.0929
  30   2.0000      -0.532831       -14.4991
  31   2.0000      -0.513333       -13.9685
  32   2.0000      -0.507517       -13.8102
  33   2.0000      -0.500941       -13.6313
  34   2.0000      -0.487136       -13.2557
  35   2.0000      -0.474502       -12.9119
  36   2.0000      -0.443088       -12.0570
  37   2.0000      -0.424088       -11.5400
  38   2.0000      -0.422353       -11.4928
  39   2.0000      -0.407720       -11.0946
  40   2.0000      -0.401068       -10.9136
  41   2.0000      -0.393200       -10.6995
  42   2.0000      -0.376016       -10.2319
  43   2.0000      -0.369716       -10.0605
  44   2.0000      -0.356327        -9.6962
  45   2.0000      -0.350494        -9.5374
  46   2.0000      -0.278200        -7.5702
  47   2.0000      -0.177359        -4.8262
  48   0.0000      -0.010478        -0.2851
  49   0.0000       0.006626         0.1803
  50   0.0000       0.015627         0.4252
  51   0.0000       0.018147         0.4938
  52   0.0000       0.037547         1.0217

MULLIKEN ATOMIC CHARGES
-----------------------
   0 C :   -0.572366
   1 N :   -0.055579
   2 C :   -0.160122
   3 C :   -0.298033
   4 H :    0.240685
   5 H :    0.174759
   6 S :    0.995654
   7 C :    0.722355
   8 C :   -1.294279
   9 N :   -0.193409
  10 H :    0.190196
  11 H :    0.159009
  12 H :    0.216216
  13 H :    0.211097
  14 H :    0.204534
  15 O :   -0.533579
  16 O :   -0.531308
  17 F :   -0.244167
  18 H :    0.153456
  19 H :    0.162256
  20 H :    0.341157
  21 H :    0.111467
Sum of atomic charges:   -0.0000000

LOEWDIN ATOMIC CHARGES
----------------------
   0 C :   -0.181716
   1 N :    0.033867
   2 C :   -0.205338
   3 C :   -0.215486
   4 H :    0.110646
   5 H :    0.116576
   6 S :    0.601029
   7 C :   -0.572120
   8 C :   -0.000245
   9 N :    0.145346
  10 H :    0.041469
  11 H :    0.124543
  12 H :    0.149906
  13 H :    0.003055
  14 H :    0.000351
  15 O :   -0.252745
  16 O :   -0.250479
  17 F :   -0.114153
  18 H :    0.114757
  19 H :    0.121106
  20 H :    0.108075
  21 H :    0.121556

  Mayer bond orders larger than 0.100000
B(  0-C ,  1-N ) :   1.0161 B(  0-C ,  2-C ) :   0.9452 B(  0-C ,  7-C ) :  -0.1178
B(  0-C , 20-H ) :   0.8292 B(  0-C , 21-H ) :   1.0372 B(  1-N ,  7-C ) :   1.1474
B(  1-N ,  8-C ) :   0.1448 B(  1-N , 12-H ) :   0.9128 B(  2-C ,  3-C ) :   1.1922
B(  2-C ,  6-S ) :   0.1654 B(  2-C , 18-H ) :   0.9906 B(  2-C , 19-H ) :   0.8842
B(  3-C ,  4-H ) :   0.9218 B(  3-C ,  5-H ) :   0.9304 B(  3-C ,  6-S ) :   0.7603
B(  6-S , 15-O ) :   1.7181 B(  6-S , 16-O ) :   1.7318 B(  6-S , 17-F ) :   1.0317
B(  7-C ,  8-C ) :   1.0952 B(  7-C ,  9-N ) :   1.0869 B(  8-C , 13-H ) :   1.0113
B(  8-C , 14-H ) :   1.0800 B(  9-N , 10-H ) :   0.8707 B(  9-N , 11-H ) :   0.9847

Dispersion correction           -0.021677976
FINAL SINGLE POINT ENERGY      -954.584021753061

DIPOLE MOMENT
-------------
                                X             Y             Z
Electronic contribution:    -14.66026      -2.42678      -2.89901
Nuclear contribution   :     14.93782       3.36795       3.35075
                        -----------------------------------------
Total Dipole Moment    :      0.27756       0.94117       0.45175
                        -----------------------------------------
Magnitude (a.u.)       :      1.08023
Magnitude (Debye)      :      2.74574

Rotational constants in cm-1:     0.059219     0.021387     0.018380
Rotational constants in MHz :  1775.354399   641.172207   551.019443

                             ****ORCA TERMINATED NORMALLY****
TOTAL RUN TIME: 0 days 0 hours 3 minutes 12 seconds 150 msec
