                         Program Version 5.0.0 -  RELEASE  -
|  1> !PBE0 D3BJ RIJCOSX def2-TZVPD def2/J TightSCF xyzfile
|  2>
|  3> *xyzfile 0 1 D9.xyz
|  4>
|  5> %MaxCore 64000
|  6>
|  7> %pal nprocs 4
|  8> end
|  9>
| 10> %scf
| 11>   MaxIter 150
| 12> end
| 13>
| 14>
| 15>                          ****END OF INPUT****

CARTESIAN COORDINATES (ANGSTROEM)
---------------------------------
  C      3.380928    2.083045   -3.350127
  N      4.535924    1.182447   -3.428518
  C      2.495557    1.816150   -2.136364
  C      1.872181    0.427903   -2.077497
  H      2.614270   -0.365825   -2.198894
  H      1.389953    0.273087   -1.112360
  S      0.579024    0.140472   -3.297943
  C      4.671956    0.122273   -4.220598
  N      5.866023   -0.507849   -4.224284
  C      3.698881   -0.312844   -4.986988
  H      2.731405   -0.050091   -4.849000
  H      3.890046   -1.055172   -5.643730
  H      5.251933    1.303459   -2.721014
  H      6.695165   -0.062322   -3.851596
  H      5.975383   -1.396884   -4.691414
  O      0.228860   -1.246868   -3.127871
  O     -0.439269    1.118966   -3.014550
  F      1.247881    0.403474   -4.595647
  H      1.697003    2.561969   -2.141109
  H      3.080787    1.987436   -1.225838
  H      2.806463    1.986511   -4.268484
  H      3.778714    3.098282   -3.307383

 Total Charge           Charge          ....    0
 Multiplicity           Mult            ....    1
 Number of Electrons    NEL             ....   96
 Basis Dimension        Dim             ....  524

ORBITAL ENERGIES
----------------

  NO   OCC          E(Eh)            E(eV)
   0   2.0000     -89.257027     -2428.8072
   1   2.0000     -24.870964      -676.7733
   2   2.0000     -19.219588      -522.9916
   3   2.0000     -19.218034      -522.9493
   4   2.0000     -14.401936      -391.8966
   5   2.0000     -14.389978      -391.5712
   6   2.0000     -10.276462      -279.6367
   7   2.0000     -10.274905      -279.5944
   8   2.0000     -10.273932      -279.5679
   9   2.0000     -10.251934      -278.9693
  10   2.0000     -10.135771      -275.8084
  11   2.0000      -8.203649      -223.2326
  12   2.0000      -6.144140      -167.1905
  13   2.0000      -6.137877      -167.0201
  14   2.0000      -6.137213      -167.0021
  15   2.0000      -1.387547       -37.7571
  16   2.0000      -1.143703       -31.1217
  17   2.0000      -1.052722       -28.6460
  18   2.0000      -1.003804       -27.3149
  19   2.0000      -0.919327       -25.0162
  20   2.0000      -0.849020       -23.1030
  21   2.0000      -0.772448       -21.0194
  22   2.0000      -0.753980       -20.5168
  23   2.0000      -0.716355       -19.4930
  24   2.0000      -0.671173       -18.2636
  25   2.0000      -0.606038       -16.4911
  26   2.0000      -0.601176       -16.3588
  27   2.0000      -0.582066       -15.8388
  28   2.0000      -0.572542       -15.5797
  29   2.0000      -0.561556       -15.2807
  30   2.0000      -0.534420       -14.5423
  31   2.0000      -0.511077       -13.9071
  32   2.0000      -0.495639       -13.4870
  33   2.0000      -0.482192       -13.1211
  34   2.0000      -0.477909       -13.0046
  35   2.0000      -0.462876       -12.5955
  36   2.0000      -0.432042       -11.7565
  37   2.0000      -0.425041       -11.5659
  38   2.0000      -0.413117       -11.2415
  39   2.0000      -0.398480       -10.8432
  40   2.0000      -0.393958       -10.7202
  41   2.0000      -0.385900       -10.5009
  42   2.0000      -0.370230       -10.0745
  43   2.0000      -0.353797        -9.6273
  44   2.0000      -0.340915        -9.2768
  45   2.0000      -0.333717        -9.0809
  46   2.0000      -0.273088        -7.4311
  47   2.0000      -0.191858        -5.2207
  48   0.0000      -0.006120        -0.1665
  49   0.0000       0.010821         0.2945
  50   0.0000       0.018455         0.5022
  51   0.0000       0.023127         0.6293
  52   0.0000       0.041760         1.1363

MULLIKEN ATOMIC CHARGES
-----------------------
   0 C :   -0.573917
   1 N :   -0.109412
   2 C :   -0.196111
   3 C :   -0.262053
   4 H :    0.244596
   5 H :    0.170392
   6 S :    0.997149
   7 C :    0.925157
   8 N :   -0.324633
   9 C :   -1.619126
  10 H :    0.511819
  11 H :    0.172249
  12 H :    0.213641
  13 H :    0.138195
  14 H :    0.157957
  15 O :   -0.549758
  16 O :   -0.542701
  17 F :   -0.113126
  18 H :    0.145269
  19 H :    0.161370
  20 H :    0.356315
  21 H :    0.096729
Sum of atomic charges:    0.0000000

LOEWDIN ATOMIC CHARGES
----------------------
   0 C :   -0.176101
   1 N :    0.026931
   2 C :   -0.204149
   3 C :   -0.216014
   4 H :    0.108266
   5 H :    0.114007
   6 S :    0.597887
   7 C :   -0.555273
   8 N :    0.110601
   9 C :    0.022625
  10 H :   -0.029749
  11 H :    0.027382
  12 H :    0.141993
  13 H :    0.097455
  14 H :    0.107260
  15 O :   -0.257939
  16 O :   -0.258952
  17 F :   -0.122823
  18 H :    0.114668
  19 H :    0.117984
  20 H :    0.112204
  21 H :    0.121737

  Mayer bond orders larger than 0.100000
B(  0-C ,  1-N ) :   1.0615 B(  0-C ,  2-C ) :   0.9551 B(  0-C ,  9-C ) :   0.1077
B(  0-C , 20-H ) :   0.8086 B(  0-C , 21-H ) :   1.0261 B(  1-N ,  7-C ) :   1.1050
B(  1-N , 12-H ) :   0.9300 B(  2-C ,  3-C ) :   1.2107 B(  2-C ,  6-S ) :   0.1764
B(  2-C , 18-H ) :   0.9727 B(  2-C , 19-H ) :   0.8861 B(  3-C ,  4-H ) :   0.9256
B(  3-C ,  5-H ) :   0.9334 B(  3-C ,  6-S ) :   0.7406 B(  3-C , 15-O ) :   0.1125
B(  6-S , 15-O ) :   1.6981 B(  6-S , 16-O ) :   1.7177 B(  6-S , 17-F ) :   1.0752
B(  7-C ,  8-N ) :   0.9534 B(  7-C ,  9-C ) :   0.8851 B(  7-C , 11-H ) :  -0.1581
B(  8-N ,  9-C ) :   0.1283 B(  8-N , 13-H ) :   1.0332 B(  8-N , 14-H ) :   1.0093
B(  9-C , 10-H ) :   0.8598 B(  9-C , 11-H ) :   1.1296 B(  9-C , 17-F ) :   0.1224
B( 10-H , 17-F ) :  -0.2499

Dispersion correction           -0.021856663
FINAL SINGLE POINT ENERGY      -954.581435763339

DIPOLE MOMENT
-------------
                                X             Y             Z
Electronic contribution:    -12.65231      -2.64449      -2.43346
Nuclear contribution   :     14.72648       3.38697       3.27638
                        -----------------------------------------
Total Dipole Moment    :      2.07417       0.74247       0.84292
                        -----------------------------------------
Magnitude (a.u.)       :      2.35881
Magnitude (Debye)      :      5.99561

Rotational constants in cm-1:     0.059651     0.020833     0.018010
Rotational constants in MHz :  1788.283887   624.555661   539.921162

                             ****ORCA TERMINATED NORMALLY****
TOTAL RUN TIME: 0 days 0 hours 2 minutes 59 seconds 149 msec
