                         Program Version 5.0.0 -  RELEASE  -
|  1> !M062X D3Zero RIJCOSX def2-SVPD def2/J TightSCF
|  2>
|  3> *xyz -1 1
|  4> C          2.95263        1.86308       -3.57485
|  5> C          4.12921        0.89839       -3.41895
|  6> H          3.73369       -0.10060       -3.23763
|  7> H          4.71910        0.86256       -4.33901
|  8> C          5.01734        1.31521       -2.22130
|  9> O          4.73706        0.85411       -1.12283
| 10> O          5.92815        2.16811       -2.49136
| 11> H          2.35067        1.56005       -4.40594
| 12> H          3.32277        2.85258       -3.74453
| 13> H          2.36134        1.85149       -2.68315
| 14> *
| 15> %MaxCore 64000
| 16>
| 17> %pal nprocs 4
| 18> end
| 19>
| 20> %scf
| 21>   MaxIter 150
| 22> end
| 23>
| 24>
| 25>                          ****END OF INPUT****

CARTESIAN COORDINATES (ANGSTROEM)
---------------------------------
  C      2.952630    1.863080   -3.574850
  C      4.129210    0.898390   -3.418950
  H      3.733690   -0.100600   -3.237630
  H      4.719100    0.862560   -4.339010
  C      5.017340    1.315210   -2.221300
  O      4.737060    0.854110   -1.122830
  O      5.928150    2.168110   -2.491360
  H      2.350670    1.560050   -4.405940
  H      3.322770    2.852580   -3.744530
  H      2.361340    1.851490   -2.683150

 Total Charge           Charge          ....   -1
 Multiplicity           Mult            ....    1
 Number of Electrons    NEL             ....   40
 Basis Dimension        Dim             ....  146

ORBITAL ENERGIES
----------------

  NO   OCC          E(Eh)            E(eV)
   0   2.0000     -19.378652      -527.3199
   1   2.0000     -19.367178      -527.0077
   2   2.0000     -10.437970      -284.0316
   3   2.0000     -10.389446      -282.7112
   4   2.0000     -10.373278      -282.2712
   5   2.0000      -0.935323       -25.4514
   6   2.0000      -0.830917       -22.6104
   7   2.0000      -0.694082       -18.8869
   8   2.0000      -0.550083       -14.9685
   9   2.0000      -0.395611       -10.7651
  10   2.0000      -0.360647        -9.8137
  11   2.0000      -0.334666        -9.1067
  12   2.0000      -0.302957        -8.2439
  13   2.0000      -0.284939        -7.7536
  14   2.0000      -0.281236        -7.6528
  15   2.0000      -0.244128        -6.6431
  16   2.0000      -0.236352        -6.4315
  17   2.0000      -0.112859        -3.0711
  18   2.0000      -0.109384        -2.9765
  19   2.0000      -0.102259        -2.7826
  20   0.0000       0.174043         4.7360
  21   0.0000       0.206391         5.6162
  22   0.0000       0.215977         5.8770
  23   0.0000       0.246353         6.7036
  24   0.0000       0.263638         7.1740

MULLIKEN ATOMIC CHARGES
-----------------------
   0 C :    0.490098
   1 C :   -0.302785
   2 H :   -0.024617
   3 H :   -0.045590
   4 C :    0.591761
   5 O :   -0.708053
   6 O :   -0.803604
   7 H :   -0.083862
   8 H :   -0.060962
   9 H :   -0.052386
Sum of atomic charges:   -1.0000000

LOEWDIN ATOMIC CHARGES
----------------------
   0 C :    0.101294
   1 C :   -0.042190
   2 H :   -0.001754
   3 H :    0.002774
   4 C :   -0.296995
   5 O :   -0.314643
   6 O :   -0.361202
   7 H :   -0.042558
   8 H :   -0.022634
   9 H :   -0.022091

  Mayer bond orders larger than 0.100000
B(  0-C ,  1-C ) :   1.3196 B(  0-C ,  2-H ) :   0.1026 B(  0-C ,  7-H ) :   0.8651
B(  0-C ,  8-H ) :   0.8531 B(  0-C ,  9-H ) :   0.8426 B(  1-C ,  2-H ) :   0.9418
B(  1-C ,  3-H ) :   0.9653 B(  1-C ,  4-C ) :   0.9812 B(  1-C ,  7-H ) :   0.1397
B(  1-C ,  8-H ) :   0.1848 B(  1-C ,  9-H ) :   0.1886 B(  2-H ,  4-C ) :   0.1017
B(  4-C ,  5-O ) :   1.4464 B(  4-C ,  6-O ) :   1.3621

Dispersion correction           -0.000085620
FINAL SINGLE POINT ENERGY      -267.532310046238

DIPOLE MOMENT
-------------
                                X             Y             Z
Electronic contribution:      4.39124      -0.21568       3.87816
Nuclear contribution   :     -5.85873      -0.10793      -5.24103
                        -----------------------------------------
Total Dipole Moment    :     -1.46749      -0.32362      -1.36287
                        -----------------------------------------
Magnitude (a.u.)       :      2.02871
Magnitude (Debye)      :      5.15658

Rotational constants in cm-1:     0.292505     0.135951     0.110253
Rotational constants in MHz :  8769.065873  4075.717001  3305.311891

                             ****ORCA TERMINATED NORMALLY****
TOTAL RUN TIME: 0 days 0 hours 0 minutes 17 seconds 823 msec
