                         Program Version 5.0.0 -  RELEASE  -
|  1> !M062X D3Zero RIJCOSX def2-SVPD def2/J TightSCF
|  2>
|  3> *xyz 1 1
|  4> C          3.34350        3.35457       -3.59200
|  5> C          2.95263        1.86308       -3.57485
|  6> C          4.25587        3.70385       -4.72605
|  7> N          3.73403        4.29378       -5.80077
|  8> N          5.51504        3.40725       -4.63718
|  9> H          6.14919        3.60120       -5.39905
| 10> H          5.81358        2.89950       -3.80879
| 11> H          2.74138        4.51311       -5.82470
| 12> H          4.28755        4.52126       -6.61434
| 13> H          3.86125        3.59725       -2.66298
| 14> H          2.44649        3.97346       -3.65656
| 15> H          2.44395        1.61721       -4.48352
| 16> H          2.30781        1.67290       -2.74242
| 17> H          3.83491        1.26414       -3.48670
| 18> *
| 19> %MaxCore 64000
| 20>
| 21> %pal nprocs 4
| 22> end
| 23>
| 24> %scf
| 25>   MaxIter 150
| 26> end
| 27>
| 28>
| 29>                          ****END OF INPUT****

CARTESIAN COORDINATES (ANGSTROEM)
---------------------------------
  C      3.343500    3.354570   -3.592000
  C      2.952630    1.863080   -3.574850
  C      4.255870    3.703850   -4.726050
  N      3.734030    4.293780   -5.800770
  N      5.515040    3.407250   -4.637180
  H      6.149190    3.601200   -5.399050
  H      5.813580    2.899500   -3.808790
  H      2.741380    4.513110   -5.824700
  H      4.287550    4.521260   -6.614340
  H      3.861250    3.597250   -2.662980
  H      2.446490    3.973460   -3.656560
  H      2.443950    1.617210   -4.483520
  H      2.307810    1.672900   -2.742420
  H      3.834910    1.264140   -3.486700

 Total Charge           Charge          ....    1
 Multiplicity           Mult            ....    1
 Number of Electrons    NEL             ....   40
 Basis Dimension        Dim             ....  172

ORBITAL ENERGIES
----------------

  NO   OCC          E(Eh)            E(eV)
   0   2.0000     -15.012540      -408.5120
   1   2.0000     -15.007613      -408.3779
   2   2.0000     -10.878073      -296.0074
   3   2.0000     -10.750223      -292.5285
   4   2.0000     -10.708335      -291.3886
   5   2.0000      -1.306924       -35.5632
   6   2.0000      -1.204175       -32.7673
   7   2.0000      -1.058697       -28.8086
   8   2.0000      -0.943624       -25.6773
   9   2.0000      -0.896744       -24.4016
  10   2.0000      -0.855649       -23.2834
  11   2.0000      -0.827347       -22.5133
  12   2.0000      -0.774005       -21.0617
  13   2.0000      -0.722590       -19.6627
  14   2.0000      -0.693765       -18.8783
  15   2.0000      -0.682895       -18.5825
  16   2.0000      -0.608132       -16.5481
  17   2.0000      -0.599536       -16.3142
  18   2.0000      -0.591974       -16.1084
  19   2.0000      -0.555614       -15.1190
  20   0.0000      -0.170220        -4.6319
  21   0.0000      -0.137670        -3.7462
  22   0.0000      -0.095555        -2.6002
  23   0.0000      -0.093339        -2.5399
  24   0.0000      -0.066412        -1.8072

MULLIKEN ATOMIC CHARGES
-----------------------
   0 C :   -0.366476
   1 C :    0.586916
   2 C :    0.777845
   3 N :   -0.104060
   4 N :    0.076065
   5 H :   -0.146618
   6 H :    0.091156
   7 H :    0.069181
   8 H :   -0.118502
   9 H :    0.055911
  10 H :    0.027230
  11 H :   -0.015448
  12 H :    0.064154
  13 H :    0.002646
Sum of atomic charges:    1.0000000

LOEWDIN ATOMIC CHARGES
----------------------
   0 C :    0.010711
   1 C :    0.176781
   2 C :   -0.043229
   3 N :    0.276145
   4 N :    0.281225
   5 H :    0.055229
   6 H :    0.061721
   7 H :    0.053079
   8 H :    0.044857
   9 H :    0.045588
  10 H :    0.039493
  11 H :   -0.001367
  12 H :    0.008649
  13 H :   -0.008883

  Mayer bond orders larger than 0.100000
B(  0-C ,  1-C ) :   1.2711 B(  0-C ,  2-C ) :   1.1517 B(  0-C ,  9-H ) :   0.9084
B(  0-C , 10-H ) :   0.9070 B(  0-C , 11-H ) :   0.1583 B(  0-C , 12-H ) :   0.1404
B(  0-C , 13-H ) :   0.1874 B(  1-C , 11-H ) :   0.8656 B(  1-C , 12-H ) :   0.8512
B(  1-C , 13-H ) :   0.8008 B(  2-C ,  3-N ) :   0.9567 B(  2-C ,  4-N ) :   1.1929
B(  2-C ,  5-H ) :  -0.1662 B(  2-C ,  8-H ) :  -0.2181 B(  2-C , 10-H ) :   0.1346
B(  3-N ,  4-N ) :   0.1501 B(  3-N ,  7-H ) :   1.0764 B(  3-N ,  8-H ) :   1.3328
B(  4-N ,  5-H ) :   1.3024 B(  4-N ,  6-H ) :   1.0478 B(  5-H ,  6-H ) :  -0.1755
B(  7-H ,  8-H ) :  -0.1892

Dispersion correction           -0.000202321
FINAL SINGLE POINT ENERGY      -228.758154867143

DIPOLE MOMENT
-------------
                                X             Y             Z
Electronic contribution:      2.37182       2.56924      -2.27354
Nuclear contribution   :     -1.74195      -2.09431       1.58516
                        -----------------------------------------
Total Dipole Moment    :      0.62988       0.47494      -0.68838
                        -----------------------------------------
Magnitude (a.u.)       :      1.04698
Magnitude (Debye)      :      2.66122

Rotational constants in cm-1:     0.258965     0.126500     0.098780
Rotational constants in MHz :  7763.584551  3792.383135  2961.336502

                             ****ORCA TERMINATED NORMALLY****
TOTAL RUN TIME: 0 days 0 hours 0 minutes 23 seconds 287 msec
