                         Program Version 5.0.0 -  RELEASE  -
|  1> !M062X D3Zero RIJCOSX def2-SVPD def2/J TightSCF
|  2>
|  3> *xyz 0 1
|  4> C          2.95263        1.86308       -3.57485
|  5> C          4.12921        0.89839       -3.41895
|  6> H          3.73369       -0.10060       -3.23763
|  7> H          4.71910        0.86256       -4.33901
|  8> C          5.01734        1.31521       -2.22130
|  9> F          4.73706        0.85411       -1.12283
| 10> O          5.92815        2.16811       -2.49136
| 11> H          2.35067        1.56005       -4.40594
| 12> H          3.32277        2.85258       -3.74453
| 13> H          2.36134        1.85149       -2.68315
| 14> *
| 15> %MaxCore 64000
| 16>
| 17> %pal nprocs 4
| 18> end
| 19>
| 20> %scf
| 21>   MaxIter 150
| 22> end
| 23>
| 24>
| 25>                          ****END OF INPUT****

CARTESIAN COORDINATES (ANGSTROEM)
---------------------------------
  C      2.952630    1.863080   -3.574850
  C      4.129210    0.898390   -3.418950
  H      3.733690   -0.100600   -3.237630
  H      4.719100    0.862560   -4.339010
  C      5.017340    1.315210   -2.221300
  F      4.737060    0.854110   -1.122830
  O      5.928150    2.168110   -2.491360
  H      2.350670    1.560050   -4.405940
  H      3.322770    2.852580   -3.744530
  H      2.361340    1.851490   -2.683150

 Total Charge           Charge          ....    0
 Multiplicity           Mult            ....    1
 Number of Electrons    NEL             ....   40
 Basis Dimension        Dim             ....  146

ORBITAL ENERGIES
----------------

  NO   OCC          E(Eh)            E(eV)
   0   2.0000     -25.343558      -689.6333
   1   2.0000     -19.645850      -534.5908
   2   2.0000     -10.742148      -292.3087
   3   2.0000     -10.583480      -287.9911
   4   2.0000     -10.560826      -287.3747
   5   2.0000      -1.472775       -40.0762
   6   2.0000      -1.130966       -30.7751
   7   2.0000      -0.893883       -24.3238
   8   2.0000      -0.789420       -21.4812
   9   2.0000      -0.737791       -20.0763
  10   2.0000      -0.662010       -18.0142
  11   2.0000      -0.647203       -17.6113
  12   2.0000      -0.588855       -16.0236
  13   2.0000      -0.538006       -14.6399
  14   2.0000      -0.510755       -13.8984
  15   2.0000      -0.469591       -12.7782
  16   2.0000      -0.449663       -12.2359
  17   2.0000      -0.437466       -11.9041
  18   2.0000      -0.412596       -11.2273
  19   2.0000      -0.363625        -9.8947
  20   0.0000       0.010749         0.2925
  21   0.0000       0.028330         0.7709
  22   0.0000       0.060505         1.6464
  23   0.0000       0.067827         1.8457
  24   0.0000       0.093835         2.5534

MULLIKEN ATOMIC CHARGES
-----------------------
   0 C :    0.481715
   1 C :   -0.380105
   2 H :    0.039289
   3 H :    0.019504
   4 C :    0.868626
   5 F :   -0.378011
   6 O :   -0.575924
   7 H :   -0.023227
   8 H :   -0.025123
   9 H :   -0.026743
Sum of atomic charges:   -0.0000000

LOEWDIN ATOMIC CHARGES
----------------------
   0 C :    0.139433
   1 C :    0.006368
   2 H :    0.021943
   3 H :    0.036405
   4 C :    0.006148
   5 F :   -0.022729
   6 O :   -0.161235
   7 H :   -0.010984
   8 H :   -0.005610
   9 H :   -0.009740

  Mayer bond orders larger than 0.100000
B(  0-C ,  1-C ) :   1.3316 B(  0-C ,  7-H ) :   0.8790 B(  0-C ,  8-H ) :   0.8607
B(  0-C ,  9-H ) :   0.8417 B(  1-C ,  2-H ) :   0.9350 B(  1-C ,  3-H ) :   0.9696
B(  1-C ,  4-C ) :   1.0467 B(  1-C ,  7-H ) :   0.1284 B(  1-C ,  8-H ) :   0.1640
B(  1-C ,  9-H ) :   0.1635 B(  4-C ,  5-F ) :   0.7013 B(  4-C ,  6-O ) :   1.7358

Dispersion correction           -0.000091050
FINAL SINGLE POINT ENERGY      -292.053312263495

DIPOLE MOMENT
-------------
                                X             Y             Z
Electronic contribution:      5.02879      -1.18964       6.49524
Nuclear contribution   :     -6.06116       0.51860      -6.80802
                        -----------------------------------------
Total Dipole Moment    :     -1.03236      -0.67104      -0.31278
                        -----------------------------------------
Magnitude (a.u.)       :      1.27039
Magnitude (Debye)      :      3.22908

Rotational constants in cm-1:     0.276196     0.132056     0.105465
Rotational constants in MHz :  8280.156449  3958.940601  3161.775929

                             ****ORCA TERMINATED NORMALLY****
TOTAL RUN TIME: 0 days 0 hours 0 minutes 18 seconds 602 msec
