                         Program Version 5.0.0 -  RELEASE  -
|  1> !M062X D3Zero RIJCOSX def2-SVPD def2/J TightSCF
|  2>
|  3> *xyz 0 1
|  4> C          3.34350        3.35457       -3.59200
|  5> C          2.95263        1.86308       -3.57485
|  6> C          4.25587        3.70385       -4.72605
|  7> C          3.73403        4.29378       -5.80077
|  8> N          5.51504        3.40725       -4.63718
|  9> H          6.14919        3.60120       -5.39905
| 10> H          5.81358        2.89950       -3.80879
| 11> H          2.74138        4.51311       -5.82470
| 12> H          4.28755        4.52126       -6.61434
| 13> H          3.86125        3.59725       -2.66298
| 14> H          2.44649        3.97346       -3.65656
| 15> H          2.44395        1.61721       -4.48352
| 16> H          2.30781        1.67290       -2.74242
| 17> H          3.83491        1.26414       -3.48670
| 18> *
| 19> %MaxCore 64000
| 20>
| 21> %pal nprocs 4
| 22> end
| 23>
| 24> %scf
| 25>   MaxIter 150
| 26> end
| 27>
| 28>
| 29>                          ****END OF INPUT****

CARTESIAN COORDINATES (ANGSTROEM)
---------------------------------
  C      3.343500    3.354570   -3.592000
  C      2.952630    1.863080   -3.574850
  C      4.255870    3.703850   -4.726050
  C      3.734030    4.293780   -5.800770
  N      5.515040    3.407250   -4.637180
  H      6.149190    3.601200   -5.399050
  H      5.813580    2.899500   -3.808790
  H      2.741380    4.513110   -5.824700
  H      4.287550    4.521260   -6.614340
  H      3.861250    3.597250   -2.662980
  H      2.446490    3.973460   -3.656560
  H      2.443950    1.617210   -4.483520
  H      2.307810    1.672900   -2.742420
  H      3.834910    1.264140   -3.486700

 Total Charge           Charge          ....    0
 Multiplicity           Mult            ....    1
 Number of Electrons    NEL             ....   40
 Basis Dimension        Dim             ....  172

ORBITAL ENERGIES
----------------

  NO   OCC          E(Eh)            E(eV)
   0   2.0000     -14.765364      -401.7860
   1   2.0000     -10.570649      -287.6420
   2   2.0000     -10.549892      -287.0772
   3   2.0000     -10.537728      -286.7462
   4   2.0000     -10.482632      -285.2469
   5   2.0000      -1.035651       -28.1815
   6   2.0000      -0.867286       -23.6001
   7   2.0000      -0.799707       -21.7611
   8   2.0000      -0.716668       -19.5015
   9   2.0000      -0.645981       -17.5780
  10   2.0000      -0.606522       -16.5043
  11   2.0000      -0.550799       -14.9880
  12   2.0000      -0.505959       -13.7679
  13   2.0000      -0.488885       -13.3032
  14   2.0000      -0.459565       -12.5054
  15   2.0000      -0.448736       -12.2107
  16   2.0000      -0.415888       -11.3169
  17   2.0000      -0.396981       -10.8024
  18   2.0000      -0.393783       -10.7154
  19   2.0000      -0.240050        -6.5321
  20   0.0000       0.034802         0.9470
  21   0.0000       0.064572         1.7571
  22   0.0000       0.073530         2.0008
  23   0.0000       0.075834         2.0635
  24   0.0000       0.090903         2.4736

MULLIKEN ATOMIC CHARGES
-----------------------
   0 C :   -0.163637
   1 C :    0.620052
   2 C :   -0.077600
   3 C :    0.423044
   4 N :    0.179143
   5 H :   -0.187101
   6 H :   -0.075268
   7 H :   -0.150639
   8 H :   -0.498268
   9 H :   -0.056288
  10 H :    0.070501
  11 H :   -0.063035
  12 H :    0.011447
  13 H :   -0.032353
Sum of atomic charges:    0.0000000

LOEWDIN ATOMIC CHARGES
----------------------
   0 C :   -0.032176
   1 C :    0.136957
   2 C :   -0.275847
   3 C :    0.180896
   4 N :    0.161792
   5 H :    0.015896
   6 H :    0.009666
   7 H :   -0.085782
   8 H :   -0.092010
   9 H :    0.017924
  10 H :    0.022345
  11 H :   -0.014589
  12 H :   -0.019760
  13 H :   -0.025311

  Mayer bond orders larger than 0.100000
B(  0-C ,  1-C ) :   1.2550 B(  0-C ,  2-C ) :   1.1766 B(  0-C ,  3-C ) :   0.1333
B(  0-C ,  9-H ) :   0.8638 B(  0-C , 10-H ) :   0.8527 B(  0-C , 11-H ) :   0.1751
B(  0-C , 12-H ) :   0.1615 B(  0-C , 13-H ) :   0.2092 B(  1-C , 11-H ) :   0.8731
B(  1-C , 12-H ) :   0.8277 B(  1-C , 13-H ) :   0.8008 B(  2-C ,  3-C ) :   1.7039
B(  2-C ,  4-N ) :   1.2373 B(  2-C ,  8-H ) :   0.1501 B(  2-C ,  9-H ) :   0.1738
B(  2-C , 10-H ) :   0.1595 B(  3-C ,  4-N ) :   0.2310 B(  3-C ,  7-H ) :   0.9589
B(  3-C ,  8-H ) :   0.7423 B(  4-N ,  5-H ) :   1.2437 B(  4-N ,  6-H ) :   1.1026
B(  5-H ,  6-H ) :  -0.1468 B(  7-H ,  8-H ) :  -0.1166

Dispersion correction           -0.000198859
FINAL SINGLE POINT ENERGY      -212.304392155916

DIPOLE MOMENT
-------------
                                X             Y             Z
Electronic contribution:      2.32631       1.47990      -0.86133
Nuclear contribution   :     -1.79713      -1.86925       1.28073
                        -----------------------------------------
Total Dipole Moment    :      0.52918      -0.38935       0.41940
                        -----------------------------------------
Magnitude (a.u.)       :      0.77944
Magnitude (Debye)      :      1.98117

Rotational constants in cm-1:     0.269040     0.129645     0.102087
Rotational constants in MHz :  8065.609820  3886.645139  3060.489045

                             ****ORCA TERMINATED NORMALLY****
TOTAL RUN TIME: 0 days 0 hours 0 minutes 24 seconds 436 msec
