                         Program Version 5.0.0 -  RELEASE  -
|  1> !M062X D3Zero RIJCOSX def2-SVPD def2/J TightSCF
|  2>
|  3> *xyz 0 1
|  4> C          2.95263        1.86308       -3.57485
|  5> C          4.12921        0.89839       -3.41895
|  6> H          3.73369       -0.10060       -3.23763
|  7> H          4.71910        0.86256       -4.33901
|  8> C          5.01734        1.31521       -2.22130
|  9> O          4.73706        0.85411       -1.12283
| 10> F          5.92815        2.16811       -2.49136
| 11> H          2.35067        1.56005       -4.40594
| 12> H          3.32277        2.85258       -3.74453
| 13> H          2.36134        1.85149       -2.68315
| 14> *
| 15> %MaxCore 64000
| 16>
| 17> %pal nprocs 4
| 18> end
| 19>
| 20> %scf
| 21>   MaxIter 150
| 22> end
| 23>
| 24>
| 25>                          ****END OF INPUT****

CARTESIAN COORDINATES (ANGSTROEM)
---------------------------------
  C      2.952630    1.863080   -3.574850
  C      4.129210    0.898390   -3.418950
  H      3.733690   -0.100600   -3.237630
  H      4.719100    0.862560   -4.339010
  C      5.017340    1.315210   -2.221300
  O      4.737060    0.854110   -1.122830
  F      5.928150    2.168110   -2.491360
  H      2.350670    1.560050   -4.405940
  H      3.322770    2.852580   -3.744530
  H      2.361340    1.851490   -2.683150

 Total Charge           Charge          ....    0
 Multiplicity           Mult            ....    1
 Number of Electrons    NEL             ....   40
 Basis Dimension        Dim             ....  146

ORBITAL ENERGIES
----------------

  NO   OCC          E(Eh)            E(eV)
   0   2.0000     -25.322318      -689.0553
   1   2.0000     -19.655614      -534.8565
   2   2.0000     -10.737755      -292.1892
   3   2.0000     -10.582799      -287.9726
   4   2.0000     -10.560970      -287.3786
   5   2.0000      -1.430882       -38.9363
   6   2.0000      -1.166242       -31.7351
   7   2.0000      -0.893137       -24.3035
   8   2.0000      -0.773486       -21.0476
   9   2.0000      -0.726193       -19.7607
  10   2.0000      -0.638291       -17.3688
  11   2.0000      -0.626118       -17.0375
  12   2.0000      -0.591634       -16.0992
  13   2.0000      -0.537731       -14.6324
  14   2.0000      -0.516609       -14.0576
  15   2.0000      -0.477295       -12.9879
  16   2.0000      -0.457388       -12.4462
  17   2.0000      -0.438058       -11.9202
  18   2.0000      -0.428268       -11.6538
  19   2.0000      -0.372821       -10.1450
  20   0.0000       0.015792         0.4297
  21   0.0000       0.030068         0.8182
  22   0.0000       0.061200         1.6653
  23   0.0000       0.068669         1.8686
  24   0.0000       0.093060         2.5323

MULLIKEN ATOMIC CHARGES
-----------------------
   0 C :    0.479841
   1 C :   -0.376497
   2 H :    0.039258
   3 H :    0.017313
   4 C :    0.858442
   5 O :   -0.503856
   6 F :   -0.440528
   7 H :   -0.023508
   8 H :   -0.035378
   9 H :   -0.015087
Sum of atomic charges:   -0.0000000

LOEWDIN ATOMIC CHARGES
----------------------
   0 C :    0.139113
   1 C :    0.007874
   2 H :    0.031883
   3 H :    0.027069
   4 C :    0.007844
   5 O :   -0.123277
   6 F :   -0.064103
   7 H :   -0.011037
   8 H :   -0.010303
   9 H :   -0.005062

  Mayer bond orders larger than 0.100000
B(  0-C ,  1-C ) :   1.3310 B(  0-C ,  7-H ) :   0.8805 B(  0-C ,  8-H ) :   0.8504
B(  0-C ,  9-H ) :   0.8509 B(  1-C ,  2-H ) :   0.9511 B(  1-C ,  3-H ) :   0.9577
B(  1-C ,  4-C ) :   1.0349 B(  1-C ,  7-H ) :   0.1279 B(  1-C ,  8-H ) :   0.1584
B(  1-C ,  9-H ) :   0.1685 B(  4-C ,  5-O ) :   1.8030 B(  4-C ,  6-F ) :   0.6296

Dispersion correction           -0.000091188
FINAL SINGLE POINT ENERGY      -292.070091990579

DIPOLE MOMENT
-------------
                                X             Y             Z
Electronic contribution:      7.01186       0.99655       4.21475
Nuclear contribution   :     -7.35982      -0.91407      -5.31589
                        -----------------------------------------
Total Dipole Moment    :     -0.34796       0.08248      -1.10114
                        -----------------------------------------
Magnitude (a.u.)       :      1.15775
Magnitude (Debye)      :      2.94277

Rotational constants in cm-1:     0.275433     0.132201     0.105422
Rotational constants in MHz :  8257.268192  3963.279062  3160.465566

                             ****ORCA TERMINATED NORMALLY****
TOTAL RUN TIME: 0 days 0 hours 0 minutes 18 seconds 194 msec
