                         Program Version 5.0.0 -  RELEASE  -
|  1> !M062X D3Zero RIJCOSX def2-SVPD def2/J TightSCF
|  2>
|  3> *xyz 0 1
|  4> C          3.34350        3.35457       -3.59200
|  5> C          2.95263        1.86308       -3.57485
|  6> C          4.25587        3.70385       -4.72605
|  7> N          3.73403        4.29378       -5.80077
|  8> C          5.51504        3.40725       -4.63718
|  9> H          6.14919        3.60120       -5.39905
| 10> H          5.81358        2.89950       -3.80879
| 11> H          2.74138        4.51311       -5.82470
| 12> H          4.28755        4.52126       -6.61434
| 13> H          3.86125        3.59725       -2.66298
| 14> H          2.44649        3.97346       -3.65656
| 15> H          2.44395        1.61721       -4.48352
| 16> H          2.30781        1.67290       -2.74242
| 17> H          3.83491        1.26414       -3.48670
| 18> *
| 19> %MaxCore 64000
| 20>
| 21> %pal nprocs 4
| 22> end
| 23>
| 24> %scf
| 25>   MaxIter 150
| 26> end
| 27>
| 28>
| 29>                          ****END OF INPUT****

CARTESIAN COORDINATES (ANGSTROEM)
---------------------------------
  C      3.343500    3.354570   -3.592000
  C      2.952630    1.863080   -3.574850
  C      4.255870    3.703850   -4.726050
  N      3.734030    4.293780   -5.800770
  C      5.515040    3.407250   -4.637180
  H      6.149190    3.601200   -5.399050
  H      5.813580    2.899500   -3.808790
  H      2.741380    4.513110   -5.824700
  H      4.287550    4.521260   -6.614340
  H      3.861250    3.597250   -2.662980
  H      2.446490    3.973460   -3.656560
  H      2.443950    1.617210   -4.483520
  H      2.307810    1.672900   -2.742420
  H      3.834910    1.264140   -3.486700

 Total Charge           Charge          ....    0
 Multiplicity           Mult            ....    1
 Number of Electrons    NEL             ....   40
 Basis Dimension        Dim             ....  172

ORBITAL ENERGIES
----------------

  NO   OCC          E(Eh)            E(eV)
   0   2.0000     -14.761369      -401.6773
   1   2.0000     -10.568199      -287.5753
   2   2.0000     -10.549431      -287.0646
   3   2.0000     -10.535702      -286.6910
   4   2.0000     -10.481470      -285.2153
   5   2.0000      -1.020352       -27.7652
   6   2.0000      -0.870112       -23.6769
   7   2.0000      -0.803845       -21.8737
   8   2.0000      -0.717789       -19.5320
   9   2.0000      -0.639133       -17.3917
  10   2.0000      -0.593934       -16.1618
  11   2.0000      -0.554876       -15.0990
  12   2.0000      -0.508197       -13.8287
  13   2.0000      -0.481277       -13.0962
  14   2.0000      -0.459624       -12.5070
  15   2.0000      -0.449228       -12.2241
  16   2.0000      -0.411263       -11.1910
  17   2.0000      -0.398706       -10.8493
  18   2.0000      -0.392766       -10.6877
  19   2.0000      -0.245660        -6.6847
  20   0.0000       0.036656         0.9975
  21   0.0000       0.064345         1.7509
  22   0.0000       0.072084         1.9615
  23   0.0000       0.077832         2.1179
  24   0.0000       0.091629         2.4934

MULLIKEN ATOMIC CHARGES
-----------------------
   0 C :   -0.145766
   1 C :    0.581133
   2 C :    0.097457
   3 N :   -0.006213
   4 C :    0.376491
   5 H :   -0.452760
   6 H :   -0.120138
   7 H :   -0.066636
   8 H :   -0.167128
   9 H :    0.085846
  10 H :   -0.096641
  11 H :   -0.057303
  12 H :    0.019146
  13 H :   -0.047489
Sum of atomic charges:   -0.0000000

LOEWDIN ATOMIC CHARGES
----------------------
   0 C :   -0.032166
   1 C :    0.138184
   2 C :   -0.266469
   3 N :    0.160320
   4 C :    0.170864
   5 H :   -0.080683
   6 H :   -0.072099
   7 H :   -0.001436
   8 H :    0.004211
   9 H :    0.024636
  10 H :    0.012515
  11 H :   -0.017139
  12 H :   -0.020531
  13 H :   -0.020208

  Mayer bond orders larger than 0.100000
B(  0-C ,  1-C ) :   1.2725 B(  0-C ,  2-C ) :   1.0886 B(  0-C ,  3-N ) :   0.1124
B(  0-C ,  4-C ) :   0.1509 B(  0-C ,  9-H ) :   0.8415 B(  0-C , 10-H ) :   0.8703
B(  0-C , 11-H ) :   0.1866 B(  0-C , 12-H ) :   0.1453 B(  0-C , 13-H ) :   0.1915
B(  1-C , 11-H ) :   0.8541 B(  1-C , 12-H ) :   0.8261 B(  1-C , 13-H ) :   0.8448
B(  2-C ,  3-N ) :   1.0267 B(  2-C ,  4-C ) :   1.8323 B(  2-C ,  5-H ) :   0.2139
B(  2-C ,  6-H ) :   0.1702 B(  2-C ,  8-H ) :  -0.1528 B(  2-C ,  9-H ) :   0.1157
B(  2-C , 10-H ) :   0.1543 B(  3-N ,  4-C ) :   0.2476 B(  3-N ,  7-H ) :   1.1077
B(  3-N ,  8-H ) :   1.2982 B(  4-C ,  5-H ) :   0.7449 B(  4-C ,  6-H ) :   0.7890
B(  5-H ,  6-H ) :  -0.1180 B(  7-H ,  8-H ) :  -0.1771

Dispersion correction           -0.000199056
FINAL SINGLE POINT ENERGY      -212.304609569958

DIPOLE MOMENT
-------------
                                X             Y             Z
Electronic contribution:      0.79113       2.26338      -1.85643
Nuclear contribution   :     -1.38463      -2.07457       1.55023
                        -----------------------------------------
Total Dipole Moment    :     -0.59350       0.18880      -0.30620
                        -----------------------------------------
Magnitude (a.u.)       :      0.69401
Magnitude (Debye)      :      1.76402

Rotational constants in cm-1:     0.272312     0.128195     0.101724
Rotational constants in MHz :  8163.717141  3843.180148  3049.598073

                             ****ORCA TERMINATED NORMALLY****
TOTAL RUN TIME: 0 days 0 hours 0 minutes 22 seconds 966 msec
