                         Program Version 5.0.0 -  RELEASE  -
|  1> !M062X D3Zero RIJCOSX def2-SVPD def2/J TightSCF xyzfile
|  2>
|  3> *xyzfile 0 1 D1.xyz
|  4>
|  5> %MaxCore 64000
|  6>
|  7> %pal nprocs 4
|  8> end
|  9>
| 10> %scf
| 11>   MaxIter 150
| 12> end
| 13>
| 14>
| 15>                          ****END OF INPUT****

CARTESIAN COORDINATES (ANGSTROEM)
---------------------------------
  C      3.343500    3.354571   -3.591998
  C      2.952633    1.863077   -3.574849
  C      4.129209    0.898394   -3.418950
  H      3.733687   -0.100605   -3.237633
  H      4.719095    0.862556   -4.339005
  C      5.017344    1.315212   -2.221305
  C      4.255868    3.703851   -4.726054
  C      3.734032    4.293783   -5.800770
  N      5.515039    3.407255   -4.637185
  H      6.149187    3.601203   -5.399053
  H      5.813584    2.899504   -3.808785
  H      2.741380    4.513109   -5.824701
  H      4.287548    4.521260   -6.614341
  H      2.278938    1.735250   -2.725496
  H      2.377466    1.625787   -4.475869
  F      4.737055    0.854112   -1.122825
  O      5.928146    2.168108   -2.491365
  H      3.861246    3.597252   -2.662979
  H      2.446493    3.973461   -3.656556

 Total Charge           Charge          ....    0
 Multiplicity           Mult            ....    1
 Number of Electrons    NEL             ....   70
 Basis Dimension        Dim             ....  266

ORBITAL ENERGIES
----------------

  NO   OCC          E(Eh)            E(eV)
   0   2.0000     -25.366476      -690.2569
   1   2.0000     -19.674421      -535.3682
   2   2.0000     -14.727692      -400.7609
   3   2.0000     -10.771279      -293.1014
   4   2.0000     -10.592863      -288.2465
   5   2.0000     -10.575653      -287.7781
   6   2.0000     -10.561770      -287.4004
   7   2.0000     -10.553294      -287.1697
   8   2.0000     -10.473016      -284.9852
   9   2.0000      -1.494402       -40.6648
  10   2.0000      -1.170269       -31.8446
  11   2.0000      -1.014931       -27.6177
  12   2.0000      -0.916735       -24.9456
  13   2.0000      -0.841802       -22.9066
  14   2.0000      -0.805699       -21.9242
  15   2.0000      -0.769758       -20.9462
  16   2.0000      -0.716723       -19.5030
  17   2.0000      -0.683519       -18.5995
  18   2.0000      -0.670561       -18.2469
  19   2.0000      -0.629957       -17.1420
  20   2.0000      -0.626634       -17.0516
  21   2.0000      -0.584611       -15.9081
  22   2.0000      -0.559233       -15.2175
  23   2.0000      -0.532362       -14.4863
  24   2.0000      -0.515549       -14.0288
  25   2.0000      -0.505799       -13.7635
  26   2.0000      -0.463519       -12.6130
  27   2.0000      -0.453063       -12.3285
  28   2.0000      -0.443840       -12.0775
  29   2.0000      -0.439821       -11.9681
  30   2.0000      -0.421782       -11.4773
  31   2.0000      -0.397402       -10.8139
  32   2.0000      -0.386923       -10.5287
  33   2.0000      -0.376120       -10.2348
  34   2.0000      -0.226135        -6.1534
  35   0.0000      -0.015283        -0.4159
  36   0.0000       0.021045         0.5727
  37   0.0000       0.053148         1.4462
  38   0.0000       0.054851         1.4926
  39   0.0000       0.062221         1.6931

MULLIKEN ATOMIC CHARGES
-----------------------
   0 C :    0.419766
   1 C :    0.006466
   2 C :    0.134969
   3 H :   -0.138737
   4 H :    0.161714
   5 C :    0.906659
   6 C :   -0.008977
   7 C :    0.295508
   8 N :    0.557183
   9 H :   -0.226024
  10 H :   -0.459710
  11 H :   -0.165040
  12 H :   -0.424207
  13 H :    0.036880
  14 H :   -0.174174
  15 F :   -0.398690
  16 O :   -0.548303
  17 H :    0.064021
  18 H :   -0.039306
Sum of atomic charges:   -0.0000000

LOEWDIN ATOMIC CHARGES
----------------------
   0 C :    0.022142
   1 C :    0.002261
   2 C :    0.065914
   3 H :    0.025201
   4 H :    0.036383
   5 C :    0.069771
   6 C :   -0.249962
   7 C :    0.173765
   8 N :    0.192902
   9 H :    0.018885
  10 H :   -0.141740
  11 H :   -0.092470
  12 H :   -0.093134
  13 H :    0.023910
  14 H :    0.034123
  15 F :    0.001204
  16 O :   -0.135002
  17 H :    0.018582
  18 H :    0.027267

  Mayer bond orders larger than 0.100000
B(  0-C ,  1-C ) :   1.1591 B(  0-C ,  6-C ) :   1.1338 B(  0-C ,  8-N ) :   0.1060
B(  0-C , 14-H ) :   0.1410 B(  0-C , 17-H ) :   0.6499 B(  0-C , 18-H ) :   0.8336
B(  1-C ,  2-C ) :   1.2791 B(  1-C ,  3-H ) :   0.1838 B(  1-C ,  4-H ) :   0.1578
B(  1-C , 13-H ) :   0.8454 B(  1-C , 14-H ) :   0.9904 B(  1-C , 17-H ) :   0.1502
B(  1-C , 18-H ) :   0.1451 B(  2-C ,  3-H ) :   0.8598 B(  2-C ,  4-H ) :   0.8325
B(  2-C ,  5-C ) :   1.0627 B(  2-C , 13-H ) :   0.1187 B(  3-H ,  5-C ) :   0.1013
B(  5-C , 15-F ) :   0.6539 B(  5-C , 16-O ) :   1.5714 B(  6-C ,  7-C ) :   1.6290
B(  6-C ,  8-N ) :   1.1131 B(  6-C ,  9-H ) :  -0.1276 B(  6-C , 12-H ) :   0.1538
B(  6-C , 17-H ) :   0.2054 B(  6-C , 18-H ) :   0.1509 B(  7-C ,  8-N ) :   0.1761
B(  7-C , 11-H ) :   0.9812 B(  7-C , 12-H ) :   0.6998 B(  8-N ,  9-H ) :   1.2191
B(  8-N , 10-H ) :   1.0060 B(  8-N , 16-O ) :  -0.1247 B(  9-H , 10-H ) :  -0.2294
B( 10-H , 16-O ) :   0.1690

Dispersion correction           -0.000548324
FINAL SINGLE POINT ENERGY      -463.906915216227

DIPOLE MOMENT
-------------
                                X             Y             Z
Electronic contribution:      5.51252      -5.94852      10.51801
Nuclear contribution   :     -5.86483       4.68058     -10.07545
                        -----------------------------------------
Total Dipole Moment    :     -0.35231      -1.26794       0.44256
                        -----------------------------------------
Magnitude (a.u.)       :      1.38840
Magnitude (Debye)      :      3.52902

Rotational constants in cm-1:     0.107256     0.035474     0.030113
Rotational constants in MHz :  3215.453922  1063.481574   902.777619

                             ****ORCA TERMINATED NORMALLY****
TOTAL RUN TIME: 0 days 0 hours 1 minutes 4 seconds 196 msec
