                         Program Version 5.0.0 -  RELEASE  -
|  1> !M062X D3Zero RIJCOSX def2-SVPD def2/J TightSCF xyzfile
|  2>
|  3> *xyzfile 0 1 D3.xyz
|  4>
|  5> %MaxCore 64000
|  6>
|  7> %pal nprocs 4
|  8> end
|  9>
| 10> %scf
| 11>   MaxIter 150
| 12> end
| 13>
| 14>
| 15>                          ****END OF INPUT****

CARTESIAN COORDINATES (ANGSTROEM)
---------------------------------
  C      3.343500    3.354571   -3.591998
  C      2.952633    1.863077   -3.574849
  C      4.129209    0.898394   -3.418950
  H      3.733687   -0.100605   -3.237633
  H      4.719095    0.862556   -4.339005
  C      5.017344    1.315212   -2.221305
  C      4.255868    3.703851   -4.726054
  C      3.734032    4.293783   -5.800770
  N      5.515039    3.407255   -4.637185
  H      6.149187    3.601203   -5.399053
  H      5.813584    2.899504   -3.808785
  H      2.741380    4.513109   -5.824701
  H      4.287548    4.521260   -6.614341
  H      2.278938    1.735250   -2.725496
  H      2.377466    1.625787   -4.475869
  O      4.737055    0.854112   -1.122825
  F      5.928146    2.168108   -2.491365
  H      3.861246    3.597252   -2.662979
  H      2.446493    3.973461   -3.656556

 Total Charge           Charge          ....    0
 Multiplicity           Mult            ....    1
 Number of Electrons    NEL             ....   70
 Basis Dimension        Dim             ....  266

ORBITAL ENERGIES
----------------

  NO   OCC          E(Eh)            E(eV)
   0   2.0000     -25.354108      -689.9203
   1   2.0000     -19.672848      -535.3254
   2   2.0000     -14.755452      -401.5162
   3   2.0000     -10.755195      -292.6637
   4   2.0000     -10.588403      -288.1251
   5   2.0000     -10.575523      -287.7746
   6   2.0000     -10.574278      -287.7407
   7   2.0000     -10.562284      -287.4144
   8   2.0000     -10.486943      -285.3642
   9   2.0000      -1.468129       -39.9498
  10   2.0000      -1.183010       -32.1913
  11   2.0000      -1.037565       -28.2336
  12   2.0000      -0.916465       -24.9383
  13   2.0000      -0.847162       -23.0524
  14   2.0000      -0.811110       -22.0714
  15   2.0000      -0.769993       -20.9526
  16   2.0000      -0.725596       -19.7445
  17   2.0000      -0.676676       -18.4133
  18   2.0000      -0.664977       -18.0949
  19   2.0000      -0.637683       -17.3522
  20   2.0000      -0.606666       -16.5082
  21   2.0000      -0.589825       -16.0500
  22   2.0000      -0.560845       -15.2614
  23   2.0000      -0.541616       -14.7381
  24   2.0000      -0.521414       -14.1884
  25   2.0000      -0.502393       -13.6708
  26   2.0000      -0.471079       -12.8187
  27   2.0000      -0.466282       -12.6882
  28   2.0000      -0.454579       -12.3697
  29   2.0000      -0.448396       -12.2015
  30   2.0000      -0.423968       -11.5367
  31   2.0000      -0.404173       -10.9981
  32   2.0000      -0.397169       -10.8075
  33   2.0000      -0.383659       -10.4399
  34   2.0000      -0.242676        -6.6036
  35   0.0000       0.000422         0.0115
  36   0.0000       0.027048         0.7360
  37   0.0000       0.050906         1.3852
  38   0.0000       0.054898         1.4938
  39   0.0000       0.058026         1.5790

MULLIKEN ATOMIC CHARGES
-----------------------
   0 C :    0.380930
   1 C :    0.032103
   2 C :    0.144557
   3 H :   -0.150018
   4 H :    0.181753
   5 C :    0.833971
   6 C :    0.035460
   7 C :    0.294357
   8 N :    0.545703
   9 H :   -0.220919
  10 H :   -0.391211
  11 H :   -0.151284
  12 H :   -0.428044
  13 H :    0.048846
  14 H :   -0.172010
  15 O :   -0.476727
  16 F :   -0.503629
  17 H :    0.030734
  18 H :   -0.034572
Sum of atomic charges:    0.0000000

LOEWDIN ATOMIC CHARGES
----------------------
   0 C :    0.022414
   1 C :    0.003797
   2 C :    0.060955
   3 H :    0.033536
   4 H :    0.025820
   5 C :    0.030227
   6 C :   -0.250605
   7 C :    0.182396
   8 N :    0.192580
   9 H :    0.022783
  10 H :   -0.095344
  11 H :   -0.086437
  12 H :   -0.089659
  13 H :    0.029811
  14 H :    0.032907
  15 O :   -0.099338
  16 F :   -0.066677
  17 H :    0.021633
  18 H :    0.029199

  Mayer bond orders larger than 0.100000
B(  0-C ,  1-C ) :   1.1687 B(  0-C ,  6-C ) :   1.1362 B(  0-C ,  8-N ) :   0.1109
B(  0-C , 14-H ) :   0.1483 B(  0-C , 17-H ) :   0.6487 B(  0-C , 18-H ) :   0.8391
B(  1-C ,  2-C ) :   1.2799 B(  1-C ,  3-H ) :   0.1724 B(  1-C ,  4-H ) :   0.1524
B(  1-C , 13-H ) :   0.8564 B(  1-C , 14-H ) :   0.9770 B(  1-C , 17-H ) :   0.1561
B(  1-C , 18-H ) :   0.1372 B(  2-C ,  3-H ) :   0.8713 B(  2-C ,  4-H ) :   0.8145
B(  2-C ,  5-C ) :   1.0465 B(  2-C , 13-H ) :   0.1211 B(  2-C , 16-F ) :   0.1339
B(  3-H ,  5-C ) :   0.1339 B(  5-C , 15-O ) :   1.7887 B(  5-C , 16-F ) :   0.5086
B(  6-C ,  7-C ) :   1.6216 B(  6-C ,  8-N ) :   1.0937 B(  6-C ,  9-H ) :  -0.1390
B(  6-C , 12-H ) :   0.1479 B(  6-C , 17-H ) :   0.1896 B(  6-C , 18-H ) :   0.1649
B(  7-C ,  8-N ) :   0.1814 B(  7-C , 11-H ) :   0.9914 B(  7-C , 12-H ) :   0.6944
B(  8-N ,  9-H ) :   1.2397 B(  8-N , 10-H ) :   1.0177 B(  9-H , 10-H ) :  -0.2270

Dispersion correction           -0.000550500
FINAL SINGLE POINT ENERGY      -463.913904866244

DIPOLE MOMENT
-------------
                                X             Y             Z
Electronic contribution:      7.42864      -3.57601       8.01216
Nuclear contribution   :     -7.21688       3.18902      -8.52197
                        -----------------------------------------
Total Dipole Moment    :      0.21176      -0.38699      -0.50981
                        -----------------------------------------
Magnitude (a.u.)       :      0.67417
Magnitude (Debye)      :      1.71362

Rotational constants in cm-1:     0.103917     0.036987     0.030872
Rotational constants in MHz :  3115.342573  1108.839114   925.506342

                             ****ORCA TERMINATED NORMALLY****
TOTAL RUN TIME: 0 days 0 hours 1 minutes 0 seconds 143 msec
