                         Program Version 5.0.0 -  RELEASE  -
|  1> !M062X D3Zero RIJCOSX def2-SVPD def2/J TightSCF xyzfile
|  2>
|  3> *xyzfile 0 1 D4.xyz
|  4>
|  5> %MaxCore 64000
|  6>
|  7> %pal nprocs 4
|  8> end
|  9>
| 10> %scf
| 11>   MaxIter 150
| 12> end
| 13>
| 14>
| 15>                          ****END OF INPUT****

CARTESIAN COORDINATES (ANGSTROEM)
---------------------------------
  C      3.343500    3.354571   -3.591998
  C      2.952633    1.863077   -3.574849
  C      4.129209    0.898394   -3.418950
  H      3.733687   -0.100605   -3.237633
  H      4.719095    0.862556   -4.339005
  C      5.017344    1.315212   -2.221305
  C      4.255868    3.703851   -4.726054
  N      3.734032    4.293783   -5.800770
  C      5.515039    3.407255   -4.637185
  H      6.149187    3.601203   -5.399053
  H      5.813584    2.899504   -3.808785
  H      2.741380    4.513109   -5.824701
  H      4.287548    4.521260   -6.614341
  H      2.278938    1.735250   -2.725496
  H      2.377466    1.625787   -4.475869
  O      4.737055    0.854112   -1.122825
  F      5.928146    2.168108   -2.491365
  H      3.861246    3.597252   -2.662979
  H      2.446493    3.973461   -3.656556

 Total Charge           Charge          ....    0
 Multiplicity           Mult            ....    1
 Number of Electrons    NEL             ....   70
 Basis Dimension        Dim             ....  266

ORBITAL ENERGIES
----------------

  NO   OCC          E(Eh)            E(eV)
   0   2.0000     -25.325389      -689.1389
   1   2.0000     -19.657788      -534.9156
   2   2.0000     -14.765602      -401.7925
   3   2.0000     -10.739609      -292.2396
   4   2.0000     -10.576995      -287.8147
   5   2.0000     -10.572534      -287.6933
   6   2.0000     -10.571819      -287.6738
   7   2.0000     -10.562086      -287.4090
   8   2.0000     -10.474176      -285.0168
   9   2.0000      -1.441494       -39.2251
  10   2.0000      -1.168273       -31.7903
  11   2.0000      -1.025564       -27.9070
  12   2.0000      -0.913181       -24.8489
  13   2.0000      -0.844776       -22.9875
  14   2.0000      -0.798303       -21.7229
  15   2.0000      -0.769278       -20.9331
  16   2.0000      -0.704585       -19.1727
  17   2.0000      -0.669994       -18.2315
  18   2.0000      -0.640020       -17.4158
  19   2.0000      -0.622769       -16.9464
  20   2.0000      -0.602238       -16.3877
  21   2.0000      -0.587348       -15.9826
  22   2.0000      -0.557118       -15.1599
  23   2.0000      -0.537871       -14.6362
  24   2.0000      -0.519365       -14.1326
  25   2.0000      -0.495772       -13.4906
  26   2.0000      -0.466654       -12.6983
  27   2.0000      -0.452928       -12.3248
  28   2.0000      -0.445538       -12.1237
  29   2.0000      -0.437249       -11.8982
  30   2.0000      -0.418449       -11.3866
  31   2.0000      -0.398778       -10.8513
  32   2.0000      -0.392503       -10.6805
  33   2.0000      -0.372585       -10.1386
  34   2.0000      -0.249333        -6.7847
  35   0.0000       0.013374         0.3639
  36   0.0000       0.030776         0.8375
  37   0.0000       0.048796         1.3278
  38   0.0000       0.054709         1.4887
  39   0.0000       0.061042         1.6610

MULLIKEN ATOMIC CHARGES
-----------------------
   0 C :    0.289323
   1 C :    0.041368
   2 C :    0.104735
   3 H :   -0.208661
   4 H :    0.269532
   5 C :    0.846084
   6 C :    0.241756
   7 N :   -0.047362
   8 C :    0.872163
   9 H :   -0.687791
  10 H :   -0.272254
  11 H :   -0.093813
  12 H :   -0.170276
  13 H :    0.031636
  14 H :   -0.160581
  15 O :   -0.499571
  16 F :   -0.536234
  17 H :    0.213504
  18 H :   -0.233559
Sum of atomic charges:    0.0000000

LOEWDIN ATOMIC CHARGES
----------------------
   0 C :    0.022989
   1 C :    0.000970
   2 C :    0.062277
   3 H :    0.031832
   4 H :    0.025118
   5 C :    0.032016
   6 C :   -0.234336
   7 N :    0.160507
   8 C :    0.203121
   9 H :   -0.069895
  10 H :   -0.151556
  11 H :   -0.002209
  12 H :    0.005408
  13 H :    0.029297
  14 H :    0.029493
  15 O :   -0.109299
  16 F :   -0.082095
  17 H :    0.027048
  18 H :    0.019312

  Mayer bond orders larger than 0.100000
B(  0-C ,  1-C ) :   1.1796 B(  0-C ,  6-C ) :   1.0504 B(  0-C ,  7-N ) :   0.1228
B(  0-C ,  8-C ) :   0.1820 B(  0-C , 13-H ) :   0.1091 B(  0-C , 14-H ) :   0.1116
B(  0-C , 17-H ) :   0.7169 B(  0-C , 18-H ) :   0.8994 B(  1-C ,  2-C ) :   1.2765
B(  1-C ,  3-H ) :   0.1698 B(  1-C ,  4-H ) :   0.1336 B(  1-C , 13-H ) :   0.8229
B(  1-C , 14-H ) :   0.9618 B(  1-C , 17-H ) :   0.1429 B(  1-C , 18-H ) :   0.1657
B(  2-C ,  3-H ) :   0.9130 B(  2-C ,  4-H ) :   0.7834 B(  2-C ,  5-C ) :   1.0354
B(  2-C , 10-H ) :   0.1089 B(  2-C , 13-H ) :   0.1293 B(  2-C , 16-F ) :   0.1603
B(  3-H ,  5-C ) :   0.1369 B(  3-H , 10-H ) :  -0.1138 B(  4-H , 10-H ) :   0.1005
B(  5-C , 15-O ) :   1.7763 B(  5-C , 16-F ) :   0.5376 B(  6-C ,  7-N ) :   0.9151
B(  6-C ,  8-C ) :   1.8703 B(  6-C ,  9-H ) :   0.2540 B(  6-C , 10-H ) :   0.3699
B(  6-C , 12-H ) :  -0.1466 B(  6-C , 17-H ) :   0.1054 B(  6-C , 18-H ) :   0.1142
B(  7-N ,  8-C ) :   0.2691 B(  7-N , 11-H ) :   1.1746 B(  7-N , 12-H ) :   1.3246
B(  8-C ,  9-H ) :   0.7490 B(  8-C , 10-H ) :   0.4378 B(  9-H , 10-H ) :  -0.3563
B( 11-H , 12-H ) :  -0.1756 B( 15-O , 16-F ) :   0.1117

Dispersion correction           -0.000552957
FINAL SINGLE POINT ENERGY      -463.900453840059

DIPOLE MOMENT
-------------
                                X             Y             Z
Electronic contribution:      6.17720      -2.82447       7.08380
Nuclear contribution   :     -6.99695       3.07955      -8.37829
                        -----------------------------------------
Total Dipole Moment    :     -0.81976       0.25508      -1.29449
                        -----------------------------------------
Magnitude (a.u.)       :      1.55331
Magnitude (Debye)      :      3.94821

Rotational constants in cm-1:     0.106302     0.035771     0.030198
Rotational constants in MHz :  3186.860872  1072.397550   905.318354

                             ****ORCA TERMINATED NORMALLY****
TOTAL RUN TIME: 0 days 0 hours 1 minutes 0 seconds 53 msec
