                         Program Version 5.0.0 -  RELEASE  -
|  1> !DLPNO-CCSD(T) aug-cc-pVTZ aug-cc-pVTZ/C TightSCF TightPNO RIJCOSX def2/J
|  2> *xyz -1 1
|  3> C          1.44442        5.26658       -0.97546
|  4> O          1.56525        4.23349       -1.86489
|  5> H          1.76623        6.17572       -1.43893
|  6> H          2.05096        5.07018       -0.11614
|  7> H          0.42160        5.36155       -0.67592
|  8> *
|  9> %MaxCore 64000
| 10>
| 11> %pal nprocs 2
| 12> end
| 13>
| 14> %scf
| 15>   MaxIter 150
| 16> end
| 17>
| 18>
| 19>                          ****END OF INPUT****

CARTESIAN COORDINATES (ANGSTROEM)
---------------------------------
  C      1.444420    5.266580   -0.975460
  O      1.565250    4.233490   -1.864890
  H      1.766230    6.175720   -1.438930
  H      2.050960    5.070180   -0.116140
  H      0.421600    5.361550   -0.675920

 Total Charge           Charge          ....   -1
 Multiplicity           Mult            ....    1
 Number of Electrons    NEL             ....   18
 Basis Dimension        Dim             ....  161

ORBITAL ENERGIES
----------------

  NO   OCC          E(Eh)            E(eV)
   0   2.0000     -20.185720      -549.2814
   1   2.0000     -11.004519      -299.4482
   2   2.0000      -0.974656       -26.5217
   3   2.0000      -0.632650       -17.2153
   4   2.0000      -0.357260        -9.7216
   5   2.0000      -0.357225        -9.7206
   6   2.0000      -0.249300        -6.7838
   7   2.0000      -0.096181        -2.6172
   8   2.0000      -0.096142        -2.6162
   9   0.0000       0.144801         3.9402
  10   0.0000       0.154673         4.2089
  11   0.0000       0.154674         4.2089
  12   0.0000       0.215873         5.8742
  13   0.0000       0.262353         7.1390

MULLIKEN ATOMIC CHARGES
-----------------------
   0 C :   -0.668167
   1 O :   -1.049429
   2 H :    0.240525
   3 H :    0.228448
   4 H :    0.248623
Sum of atomic charges:   -1.0000000

LOEWDIN ATOMIC CHARGES
----------------------
   0 C :   -0.139917
   1 O :    0.040514
   2 H :   -0.300222
   3 H :   -0.300234
   4 H :   -0.300142

  Mayer bond orders larger than 0.100000
B(  0-C ,  1-O ) :   1.1044 B(  0-C ,  2-H ) :   0.9413 B(  0-C ,  3-H ) :   0.9544
B(  0-C ,  4-H ) :   0.9330

E(0)                                       ...   -114.448476137
E(0)                                       ...   -114.448476137
E(CORR)(strong-pairs)                      ...     -0.463212098
E(CORR)(weak-pairs)                        ...     -0.000192003
E(CORR)(corrected)                         ...     -0.463404102
E(TOT)                                     ...   -114.911880238
E(CCSD(T))                                 ...   -114.929993280
FINAL SINGLE POINT ENERGY      -114.929993279918

DIPOLE MOMENT
-------------
                                X             Y             Z
Electronic contribution:      0.16026      -1.36802      -1.17771
Nuclear contribution   :     -0.25440       2.17514       1.87266
                        -----------------------------------------
Total Dipole Moment    :     -0.09414       0.80712       0.69495
                        -----------------------------------------
Magnitude (a.u.)       :      1.06923
Magnitude (Debye)      :      2.71778

Rotational constants in cm-1:     5.477715     0.940444     0.940443
Rotational constants in MHz : 164217.753846 28193.799011 28193.774483

                             ****ORCA TERMINATED NORMALLY****
TOTAL RUN TIME: 0 days 0 hours 2 minutes 28 seconds 10 msec
