                         Program Version 5.0.0 -  RELEASE  -
|  1> !DLPNO-CCSD(T) aug-cc-pVTZ aug-cc-pVTZ/C TightSCF TightPNO RIJCOSX def2/J
|  2> *xyz 1 1
|  3> C         -0.70169        4.07250       -4.00392
|  4> N          0.68053        4.61482       -4.04800
|  5> H          0.69993        5.58489       -4.38827
|  6> H          1.27804        4.05598       -4.66824
|  7> H          1.08573        4.53358       -3.10652
|  8> H         -1.14500        4.14653       -4.97495
|  9> H         -1.28296        4.63405       -3.30271
| 10> H         -0.67274        3.04629       -3.70235
| 11> *
| 12> %MaxCore 64000
| 13>
| 14> %pal nprocs 2
| 15> end
| 16>
| 17> %scf
| 18>   MaxIter 150
| 19> end
| 20>
| 21>
| 22>                          ****END OF INPUT****

CARTESIAN COORDINATES (ANGSTROEM)
---------------------------------
  C     -0.701690    4.072500   -4.003920
  N      0.680530    4.614820   -4.048000
  H      0.699930    5.584890   -4.388270
  H      1.278040    4.055980   -4.668240
  H      1.085730    4.533580   -3.106520
  H     -1.145000    4.146530   -4.974950
  H     -1.282960    4.634050   -3.302710
  H     -0.672740    3.046290   -3.702350

 Total Charge           Charge          ....    1
 Multiplicity           Mult            ....    1
 Number of Electrons    NEL             ....   18
 Basis Dimension        Dim             ....  230

ORBITAL ENERGIES
----------------

  NO   OCC          E(Eh)            E(eV)
   0   2.0000     -15.914792      -433.0635
   1   2.0000     -11.483320      -312.4770
   2   2.0000      -1.530590       -41.6495
   3   2.0000      -1.180450       -32.1217
   4   2.0000      -0.995451       -27.0876
   5   2.0000      -0.984324       -26.7848
   6   2.0000      -0.872722       -23.7480
   7   2.0000      -0.784669       -21.3519
   8   2.0000      -0.782743       -21.2995
   9   0.0000      -0.127631        -3.4730
  10   0.0000      -0.086517        -2.3543
  11   0.0000      -0.085801        -2.3348
  12   0.0000      -0.083110        -2.2615
  13   0.0000      -0.047106        -1.2818

MULLIKEN ATOMIC CHARGES
-----------------------
   0 C :   -0.802582
   1 N :    0.086961
   2 H :    0.183025
   3 H :    0.177979
   4 H :    0.172572
   5 H :    0.377894
   6 H :    0.409163
   7 H :    0.394988
Sum of atomic charges:    1.0000000

LOEWDIN ATOMIC CHARGES
----------------------
   0 C :    0.689498
   1 N :    1.095086
   2 H :   -0.118980
   3 H :   -0.127003
   4 H :   -0.126905
   5 H :   -0.138011
   6 H :   -0.136984
   7 H :   -0.136700

  Mayer bond orders larger than 0.100000
B(  0-C ,  1-N ) :   0.8146 B(  0-C ,  5-H ) :   0.8690 B(  0-C ,  6-H ) :   0.8279
B(  0-C ,  7-H ) :   0.8454 B(  1-N ,  2-H ) :   0.9747 B(  1-N ,  3-H ) :   0.9790
B(  1-N ,  4-H ) :   0.9850

E(0)                                       ...    -95.617161502
E(0)                                       ...    -95.617161502
E(CORR)(strong-pairs)                      ...     -0.429281572
E(CORR)(weak-pairs)                        ...     -0.000231141
E(CORR)(corrected)                         ...     -0.429512713
E(TOT)                                     ...    -96.046674214
E(CCSD(T))                                 ...    -96.060133267
FINAL SINGLE POINT ENERGY       -96.060133266602

DIPOLE MOMENT
-------------
                                X             Y             Z
Electronic contribution:      1.00954       0.42179      -0.03847
Nuclear contribution   :     -0.21844      -0.13976       0.01729
                        -----------------------------------------
Total Dipole Moment    :      0.79110       0.28202      -0.02118
                        -----------------------------------------
Magnitude (a.u.)       :      0.84014
Magnitude (Debye)      :      2.13546

Rotational constants in cm-1:     2.865765     0.688517     0.685249
Rotational constants in MHz : 85913.460223 20641.211162 20543.252263

                             ****ORCA TERMINATED NORMALLY****
TOTAL RUN TIME: 0 days 0 hours 2 minutes 30 seconds 664 msec
