                         Program Version 5.0.0 -  RELEASE  -
|  1> !DLPNO-CCSD(T) aug-cc-pVTZ aug-cc-pVTZ/C TightSCF TightPNO RIJCOSX def2/J
|  2>
|  3> *xyzfile 0 1 B.xyz
|  4>
|  5> %MaxCore 64000
|  6>
|  7> %pal nprocs 18
|  8> end
|  9>
| 10> %scf
| 11>   MaxIter 150
| 12> end
| 13>
| 14>
| 15>                          ****END OF INPUT****

CARTESIAN COORDINATES (ANGSTROEM)
---------------------------------
  C     -0.701686    4.072499   -4.003920
  N      0.680528    4.614820   -4.048005
  C      1.444422    5.266576   -0.975463
  O      1.565248    4.233493   -1.864885
  H      0.699926    5.584890   -4.388272
  H      1.278044    4.055977   -4.668235
  H      1.085729    4.533581   -3.106524
  C     -1.703475    5.093197   -3.477396
  H     -0.995895    3.740394   -5.000654
  H     -0.643580    3.201910   -3.351533
  C     -1.313997    5.785995   -2.169271
  H     -1.877057    5.850103   -4.251154
  H     -2.653264    4.564475   -3.354796
  H     -2.097137    6.509395   -1.929558
  H     -0.416875    6.387594   -2.339097
  C     -1.073895    4.844728   -0.979904
  H     -1.968893    4.809608   -0.352568
  C      0.148120    5.210874   -0.138092
  H     -0.909754    3.827531   -1.338975
  H      1.474250    6.264638   -1.476917
  H      2.289622    5.303267   -0.264450
  H      0.261827    4.450942    0.640711
  H     -0.002516    6.171031    0.371483

 Total Charge           Charge          ....    0
 Multiplicity           Mult            ....    1
 Number of Electrons    NEL             ....   66
 Basis Dimension        Dim             ....  713

ORBITAL ENERGIES
----------------

  NO   OCC          E(Eh)            E(eV)
   0   2.0000     -20.409130      -555.3607
   1   2.0000     -15.644680      -425.7134
   2   2.0000     -11.293598      -307.3144
   3   2.0000     -11.244980      -305.9914
   4   2.0000     -11.218891      -305.2815
   5   2.0000     -11.207909      -304.9827
   6   2.0000     -11.196408      -304.6697
   7   2.0000     -11.177813      -304.1638
   8   2.0000      -1.297694       -35.3121
   9   2.0000      -1.212503       -32.9939
  10   2.0000      -1.085781       -29.5456
  11   2.0000      -1.010610       -27.5001
  12   2.0000      -0.941068       -25.6078
  13   2.0000      -0.865817       -23.5601
  14   2.0000      -0.804757       -21.8986
  15   2.0000      -0.763022       -20.7629
  16   2.0000      -0.747263       -20.3341
  17   2.0000      -0.722303       -19.6549
  18   2.0000      -0.653497       -17.7825
  19   2.0000      -0.633177       -17.2296
  20   2.0000      -0.621550       -16.9132
  21   2.0000      -0.577444       -15.7130
  22   2.0000      -0.563720       -15.3396
  23   2.0000      -0.546872       -14.8811
  24   2.0000      -0.524854       -14.2820
  25   2.0000      -0.503831       -13.7099
  26   2.0000      -0.498666       -13.5694
  27   2.0000      -0.475939       -12.9510
  28   2.0000      -0.450094       -12.2477
  29   2.0000      -0.437489       -11.9047
  30   2.0000      -0.432669       -11.7735
  31   2.0000      -0.324666        -8.8346
  32   2.0000      -0.322405        -8.7731
  33   0.0000       0.012989         0.3534
  34   0.0000       0.029482         0.8022
  35   0.0000       0.029554         0.8042
  36   0.0000       0.039139         1.0650
  37   0.0000       0.048744         1.3264

MULLIKEN ATOMIC CHARGES
-----------------------
   0 C :   -0.342744
   1 N :    0.090782
   2 C :   -0.161892
   3 O :   -1.015588
   4 H :    0.011230
   5 H :    0.050371
   6 H :    0.224167
   7 C :   -0.514609
   8 H :    0.342061
   9 H :    0.265202
  10 C :   -0.428840
  11 H :    0.241846
  12 H :    0.254127
  13 H :    0.308037
  14 H :    0.240715
  15 C :   -0.369654
  16 H :    0.303092
  17 C :   -0.631989
  18 H :    0.230657
  19 H :    0.139938
  20 H :    0.302646
  21 H :    0.276126
  22 H :    0.184321
Sum of atomic charges:    0.0000000

LOEWDIN ATOMIC CHARGES
----------------------
   0 C :    0.317693
   1 N :    1.048246
   2 C :   -0.161063
   3 O :    0.522180
   4 H :   -0.135238
   5 H :   -0.126561
   6 H :   -0.770936
   7 C :    0.317619
   8 H :   -0.124294
   9 H :   -0.132169
  10 C :    0.299207
  11 H :   -0.141040
  12 H :   -0.133293
  13 H :   -0.137191
  14 H :   -0.189426
  15 C :    0.283982
  16 H :   -0.143728
  17 C :    0.267106
  18 H :   -0.185516
  19 H :   -0.186631
  20 H :   -0.181549
  21 H :   -0.155496
  22 H :   -0.151902

  Mayer bond orders larger than 0.100000
B(  0-C ,  1-N ) :   0.8305 B(  0-C ,  7-C ) :   0.7923 B(  0-C ,  8-H ) :   0.8985
B(  0-C ,  9-H ) :   0.9869 B(  1-N ,  4-H ) :   1.0813 B(  1-N ,  5-H ) :   1.0761
B(  1-N ,  6-H ) :   0.7495 B(  2-C ,  3-O ) :   0.9859 B(  2-C , 17-C ) :   0.8332
B(  2-C , 19-H ) :   1.0891 B(  2-C , 20-H ) :   0.9518 B(  3-O ,  6-H ) :   0.3269
B(  7-C , 10-C ) :   0.8728 B(  7-C , 11-H ) :   0.9778 B(  7-C , 12-H ) :   0.9901
B( 10-C , 13-H ) :   0.9413 B( 10-C , 14-H ) :   1.0165 B( 10-C , 15-C ) :   0.8205
B( 15-C , 16-H ) :   0.9191 B( 15-C , 17-C ) :   0.8964 B( 15-C , 18-H ) :   1.0248
B( 17-C , 21-H ) :   0.9607 B( 17-C , 22-H ) :   1.0172

E(0)                                       ...   -365.313450832
E(0)                                       ...   -365.313450832
E(CORR)(strong-pairs)                      ...     -1.619955214
E(CORR)(weak-pairs)                        ...     -0.001994704
E(CORR)(corrected)                         ...     -1.621949917
E(TOT)                                     ...   -366.935400750
E(CCSD(T))                                 ...   -367.000677934
FINAL SINGLE POINT ENERGY      -367.000677933520

DIPOLE MOMENT
-------------
                                X             Y             Z
Electronic contribution:      1.94403      -1.50639      -1.37397
Nuclear contribution   :     -3.16446       1.92310      -1.11926
                        -----------------------------------------
Total Dipole Moment    :     -1.22044       0.41671      -2.49323
                        -----------------------------------------
Magnitude (a.u.)       :      2.80701
Magnitude (Debye)      :      7.13485

Rotational constants in cm-1:     0.085554     0.055600     0.038553
Rotational constants in MHz :  2564.854379  1666.836664  1155.798427

                             ****ORCA TERMINATED NORMALLY****
TOTAL RUN TIME: 0 days 0 hours 55 minutes 52 seconds 557 msec
