                         Program Version 5.0.0 -  RELEASE  -
|  1> !DLPNO-CCSD(T) aug-cc-pVTZ aug-cc-pVTZ/C TightSCF TightPNO RIJCOSX def2/J
|  2> *xyz 0 1
|  3> C          1.44442        5.26658       -0.97546
|  4> F          1.56525        4.23349       -1.86489
|  5> H          1.76623        6.17572       -1.43893
|  6> H          2.05096        5.07018       -0.11614
|  7> H          0.42160        5.36155       -0.67592
|  8> *
|  9> %MaxCore 64000
| 10>
| 11> %pal nprocs 2
| 12> end
| 13>
| 14> %scf
| 15>   MaxIter 150
| 16> end
| 17>
| 18>
| 19>                          ****END OF INPUT****

CARTESIAN COORDINATES (ANGSTROEM)
---------------------------------
  C      1.444420    5.266580   -0.975460
  F      1.565250    4.233490   -1.864890
  H      1.766230    6.175720   -1.438930
  H      2.050960    5.070180   -0.116140
  H      0.421600    5.361550   -0.675920

 Total Charge           Charge          ....    0
 Multiplicity           Mult            ....    1
 Number of Electrons    NEL             ....   18
 Basis Dimension        Dim             ....  161

ORBITAL ENERGIES
----------------

  NO   OCC          E(Eh)            E(eV)
   0   2.0000     -26.279878      -715.1118
   1   2.0000     -11.297439      -307.4189
   2   2.0000      -1.593293       -43.3557
   3   2.0000      -0.961701       -26.1692
   4   2.0000      -0.700985       -19.0748
   5   2.0000      -0.700972       -19.0744
   6   2.0000      -0.681674       -18.5493
   7   2.0000      -0.532463       -14.4891
   8   2.0000      -0.532442       -14.4885
   9   0.0000       0.029437         0.8010
  10   0.0000       0.047186         1.2840
  11   0.0000       0.047188         1.2840
  12   0.0000       0.074981         2.0403
  13   0.0000       0.124012         3.3745

MULLIKEN ATOMIC CHARGES
-----------------------
   0 C :   -0.485336
   1 F :   -0.422515
   2 H :    0.303753
   3 H :    0.293017
   4 H :    0.311081
Sum of atomic charges:    0.0000000

LOEWDIN ATOMIC CHARGES
----------------------
   0 C :    0.217333
   1 F :    0.431493
   2 H :   -0.216293
   3 H :   -0.216306
   4 H :   -0.216227

  Mayer bond orders larger than 0.100000
B(  0-C ,  1-F ) :   0.6722 B(  0-C ,  2-H ) :   0.9129 B(  0-C ,  3-H ) :   0.9253
B(  0-C ,  4-H ) :   0.9048

E(0)                                       ...   -139.097698884
E(0)                                       ...   -139.097698884
E(CORR)(strong-pairs)                      ...     -0.458384019
E(CORR)(weak-pairs)                        ...     -0.000192424
E(CORR)(corrected)                         ...     -0.458576443
E(TOT)                                     ...   -139.556275328
E(CCSD(T))                                 ...   -139.569903854
FINAL SINGLE POINT ENERGY      -139.569903853739

DIPOLE MOMENT
-------------
                                X             Y             Z
Electronic contribution:      0.25347      -2.16519      -1.86409
Nuclear contribution   :     -0.32265       2.75860       2.37499
                        -----------------------------------------
Total Dipole Moment    :     -0.06917       0.59341       0.51090
                        -----------------------------------------
Magnitude (a.u.)       :      0.78609
Magnitude (Debye)      :      1.99809

Rotational constants in cm-1:     5.477715     0.875416     0.875415
Rotational constants in MHz : 164217.753846 26244.308980 26244.287726

                             ****ORCA TERMINATED NORMALLY****
TOTAL RUN TIME: 0 days 0 hours 1 minutes 24 seconds 862 msec
