                         Program Version 5.0.0 -  RELEASE  -
|  1> !DLPNO-CCSD(T) aug-cc-pVTZ aug-cc-pVTZ/C TightSCF TightPNO RIJCOSX def2/J
|  2> *xyz 0 1
|  3> C         -0.70169        4.07250       -4.00392
|  4> C          0.68053        4.61482       -4.04800
|  5> H          0.69993        5.58489       -4.38827
|  6> H          1.27804        4.05598       -4.66824
|  7> H          1.08573        4.53358       -3.10652
|  8> H         -1.14500        4.14653       -4.97495
|  9> H         -1.28296        4.63405       -3.30271
| 10> H         -0.67274        3.04629       -3.70235
| 11> *
| 12> %MaxCore 64000
| 13>
| 14> %pal nprocs 2
| 15> end
| 16>
| 17> %scf
| 18>   MaxIter 150
| 19> end
| 20>
| 21>
| 22>                          ****END OF INPUT****

CARTESIAN COORDINATES (ANGSTROEM)
---------------------------------
  C     -0.701690    4.072500   -4.003920
  C      0.680530    4.614820   -4.048000
  H      0.699930    5.584890   -4.388270
  H      1.278040    4.055980   -4.668240
  H      1.085730    4.533580   -3.106520
  H     -1.145000    4.146530   -4.974950
  H     -1.282960    4.634050   -3.302710
  H     -0.672740    3.046290   -3.702350

 Total Charge           Charge          ....    0
 Multiplicity           Mult            ....    1
 Number of Electrons    NEL             ....   18
 Basis Dimension        Dim             ....  230

ORBITAL ENERGIES
----------------

  NO   OCC          E(Eh)            E(eV)
   0   2.0000     -11.196750      -304.6790
   1   2.0000     -11.180859      -304.2467
   2   2.0000      -1.039907       -28.2973
   3   2.0000      -0.851087       -23.1593
   4   2.0000      -0.619663       -16.8619
   5   2.0000      -0.612362       -16.6632
   6   2.0000      -0.511577       -13.9207
   7   2.0000      -0.496434       -13.5086
   8   2.0000      -0.489953       -13.3323
   9   0.0000       0.033178         0.9028
  10   0.0000       0.043420         1.1815
  11   0.0000       0.043825         1.1925
  12   0.0000       0.044118         1.2005
  13   0.0000       0.068686         1.8690

MULLIKEN ATOMIC CHARGES
-----------------------
   0 C :   -0.852213
   1 C :   -0.951535
   2 H :    0.318050
   3 H :    0.315469
   4 H :    0.300487
   5 H :    0.277173
   6 H :    0.301369
   7 H :    0.291201
Sum of atomic charges:    0.0000000

LOEWDIN ATOMIC CHARGES
----------------------
   0 C :    0.582008
   1 C :    0.597952
   2 H :   -0.206656
   3 H :   -0.214508
   4 H :   -0.213367
   5 H :   -0.182861
   6 H :   -0.181612
   7 H :   -0.180956

  Mayer bond orders larger than 0.100000
B(  0-C ,  1-C ) :   0.7927 B(  0-C ,  5-H ) :   0.9426 B(  0-C ,  6-H ) :   0.9161
B(  0-C ,  7-H ) :   0.9303 B(  1-C ,  2-H ) :   0.9081 B(  1-C ,  3-H ) :   0.9162
B(  1-C ,  4-H ) :   0.9329

E(0)                                       ...    -79.250745638
E(0)                                       ...    -79.250745638
E(CORR)(strong-pairs)                      ...     -0.403652358
E(CORR)(weak-pairs)                        ...     -0.000234621
E(CORR)(corrected)                         ...     -0.403886979
E(TOT)                                     ...    -79.654632617
E(CCSD(T))                                 ...    -79.667635265
FINAL SINGLE POINT ENERGY       -79.667635265176

DIPOLE MOMENT
-------------
                                X             Y             Z
Electronic contribution:      0.00921       0.04807      -0.01124
Nuclear contribution   :      0.01985      -0.04545       0.00953
                        -----------------------------------------
Total Dipole Moment    :      0.02906       0.00262      -0.00171
                        -----------------------------------------
Magnitude (a.u.)       :      0.02922
Magnitude (Debye)      :      0.07428

Rotational constants in cm-1:     2.865782     0.718825     0.715264
Rotational constants in MHz : 85913.996449 21549.842906 21443.078705

                             ****ORCA TERMINATED NORMALLY****
TOTAL RUN TIME: 0 days 0 hours 2 minutes 56 seconds 877 msec
