                         Program Version 5.0.0 -  RELEASE  -
|  1> !DLPNO-CCSD(T) aug-cc-pVTZ aug-cc-pVTZ/C TightSCF TightPNO RIJCOSX def2/J
|  2>
|  3> *xyzfile 0 1 D.xyz
|  4>
|  5> %MaxCore 64000
|  6>
|  7> %pal nprocs 18
|  8> end
|  9>
| 10> %scf
| 11>   MaxIter 150
| 12> end
| 13>
| 14>
| 15>                          ****END OF INPUT****

CARTESIAN COORDINATES (ANGSTROEM)
---------------------------------
  C     -0.701686    4.072499   -4.003920
  C      0.680528    4.614820   -4.048005
  C      1.444422    5.266576   -0.975463
  F      1.565248    4.233493   -1.864885
  H      0.699926    5.584890   -4.388272
  H      1.278044    4.055977   -4.668235
  H      1.085729    4.533581   -3.106524
  C     -1.703475    5.093197   -3.477396
  H     -0.995895    3.740394   -5.000654
  H     -0.643580    3.201910   -3.351533
  C     -1.313997    5.785995   -2.169271
  H     -1.877057    5.850103   -4.251154
  H     -2.653264    4.564475   -3.354796
  H     -2.097137    6.509395   -1.929558
  H     -0.416875    6.387594   -2.339097
  C     -1.073895    4.844728   -0.979904
  H     -1.968893    4.809608   -0.352568
  C      0.148120    5.210874   -0.138092
  H     -0.909754    3.827531   -1.338975
  H      1.474250    6.264638   -1.476917
  H      2.289622    5.303267   -0.264450
  H      0.261827    4.450942    0.640711
  H     -0.002516    6.171031    0.371483

 Total Charge           Charge          ....    0
 Multiplicity           Mult            ....    1
 Number of Electrons    NEL             ....   66
 Basis Dimension        Dim             ....  713

ORBITAL ENERGIES
----------------

  NO   OCC          E(Eh)            E(eV)
   0   2.0000     -26.301346      -715.6960
   1   2.0000     -11.318720      -307.9980
   2   2.0000     -11.234762      -305.7134
   3   2.0000     -11.218360      -305.2671
   4   2.0000     -11.211820      -305.0891
   5   2.0000     -11.204479      -304.8894
   6   2.0000     -11.189593      -304.4843
   7   2.0000     -11.130038      -302.8637
   8   2.0000      -1.632042       -44.4101
   9   2.0000      -1.094626       -29.7863
  10   2.0000      -1.057773       -28.7835
  11   2.0000      -0.983574       -26.7644
  12   2.0000      -0.938423       -25.5358
  13   2.0000      -0.863908       -23.5081
  14   2.0000      -0.815149       -22.1813
  15   2.0000      -0.756131       -20.5754
  16   2.0000      -0.743347       -20.2275
  17   2.0000      -0.725444       -19.7403
  18   2.0000      -0.687964       -18.7205
  19   2.0000      -0.631568       -17.1859
  20   2.0000      -0.626983       -17.0611
  21   2.0000      -0.593643       -16.1539
  22   2.0000      -0.579238       -15.7619
  23   2.0000      -0.546450       -14.8697
  24   2.0000      -0.531394       -14.4600
  25   2.0000      -0.520663       -14.1680
  26   2.0000      -0.512840       -13.9551
  27   2.0000      -0.483896       -13.1675
  28   2.0000      -0.470734       -12.8093
  29   2.0000      -0.452140       -12.3034
  30   2.0000      -0.437038       -11.8924
  31   2.0000      -0.435382       -11.8473
  32   2.0000      -0.422408       -11.4943
  33   0.0000       0.027069         0.7366
  34   0.0000       0.034185         0.9302
  35   0.0000       0.035661         0.9704
  36   0.0000       0.038618         1.0509
  37   0.0000       0.049356         1.3430

MULLIKEN ATOMIC CHARGES
-----------------------
   0 C :   -0.299425
   1 C :   -1.084895
   2 C :   -0.185393
   3 F :   -0.553662
   4 H :    0.290274
   5 H :    0.086100
   6 H :    0.740355
   7 C :   -0.518570
   8 H :    0.415073
   9 H :    0.079854
  10 C :   -0.479817
  11 H :    0.166607
  12 H :    0.201144
  13 H :    0.346173
  14 H :    0.144756
  15 C :   -0.368373
  16 H :    0.304352
  17 C :   -0.652681
  18 H :    0.236223
  19 H :    0.270639
  20 H :    0.359153
  21 H :    0.280016
  22 H :    0.222096
Sum of atomic charges:    0.0000000

LOEWDIN ATOMIC CHARGES
----------------------
   0 C :    0.282996
   1 C :    0.593394
   2 C :    0.015475
   3 F :    0.744078
   4 H :   -0.188269
   5 H :   -0.185636
   6 H :   -0.666453
   7 C :    0.299650
   8 H :   -0.135587
   9 H :   -0.152767
  10 C :    0.299174
  11 H :   -0.137125
  12 H :   -0.144144
  13 H :   -0.139405
  14 H :   -0.188078
  15 C :    0.297729
  16 H :   -0.135765
  17 C :    0.298272
  18 H :   -0.175313
  19 H :   -0.144994
  20 H :   -0.150058
  21 H :   -0.152271
  22 H :   -0.134902

  Mayer bond orders larger than 0.100000
B(  0-C ,  1-C ) :   0.7102 B(  0-C ,  7-C ) :   0.7587 B(  0-C ,  8-H ) :   0.8514
B(  0-C ,  9-H ) :   1.1228 B(  1-C ,  4-H ) :   1.0304 B(  1-C ,  5-H ) :   1.2005
B(  1-C ,  6-H ) :   0.7173 B(  1-C ,  7-C ) :   0.1081 B(  2-C ,  3-F ) :   0.6907
B(  2-C , 17-C ) :   0.8986 B(  2-C , 19-H ) :   1.0017 B(  2-C , 20-H ) :   0.9067
B(  3-F ,  6-H ) :  -0.1801 B(  3-F , 17-C ) :   0.1603 B(  4-H ,  5-H ) :   0.1052
B(  7-C , 10-C ) :   0.8752 B(  7-C , 11-H ) :   1.0482 B(  7-C , 12-H ) :   1.0212
B( 10-C , 13-H ) :   0.9187 B( 10-C , 14-H ) :   1.0719 B( 10-C , 15-C ) :   0.7892
B( 15-C , 16-H ) :   0.9198 B( 15-C , 17-C ) :   0.9122 B( 15-C , 18-H ) :   1.0453
B( 17-C , 21-H ) :   0.9621 B( 17-C , 22-H ) :   0.9795

E(0)                                       ...   -373.309137600
E(0)                                       ...   -373.309137600
E(CORR)(strong-pairs)                      ...     -1.591240170
E(CORR)(weak-pairs)                        ...     -0.001928580
E(CORR)(corrected)                         ...     -1.593168749
E(TOT)                                     ...   -374.902306349
E(CCSD(T))                                 ...   -374.962674755
FINAL SINGLE POINT ENERGY      -374.962674755151

DIPOLE MOMENT
-------------
                                X             Y             Z
Electronic contribution:      5.13719      -2.21866       2.83110
Nuclear contribution   :     -5.08831       2.68947      -1.99048
                        -----------------------------------------
Total Dipole Moment    :      0.04888       0.47082       0.84062
                        -----------------------------------------
Magnitude (a.u.)       :      0.96473
Magnitude (Debye)      :      2.45215

Rotational constants in cm-1:     0.084646     0.055672     0.038419
Rotational constants in MHz :  2537.625105  1668.992890  1151.781380

                             ****ORCA TERMINATED NORMALLY****
TOTAL RUN TIME: 0 days 0 hours 53 minutes 42 seconds 961 msec
