                         Program Version 5.0.0 -  RELEASE  -
|  1> !PBE D3BJ RIJCOSX def2-SVPD def2/J TightSCF
|  2> *xyz -1 1
|  3> C         -1.10433        0.25137       -2.86006
|  4> C         -0.71189        0.84252       -4.21834
|  5> H          0.15463        1.49980       -4.13091
|  6> H         -1.53813        1.45922       -4.58267
|  7> C         -0.39762       -0.20587       -5.28802
|  8> O          0.61717       -0.00535       -5.99827
|  9> O         -1.13317       -1.22138       -5.34147
| 10> C         -0.19626       -0.86337       -2.32576
| 11> H         -1.14384        1.06671       -2.12968
| 12> H         -2.11440       -0.15683       -2.93032
| 13> H         -0.15538       -1.66172       -3.03700
| 14> H         -0.58845       -1.22999       -1.40020
| 15> H          0.78852       -0.47602       -2.16737
| 16> *
| 17>
| 18> %MaxCore 64000
| 19>
| 20> %pal nprocs 4
| 21> end
| 22>
| 23> %scf
| 24>   MaxIter 150
| 25> end
| 26>
| 27>
| 28>                          ****END OF INPUT****

CARTESIAN COORDINATES (ANGSTROEM)
---------------------------------
  C     -1.104330    0.251370   -2.860060
  C     -0.711890    0.842520   -4.218340
  H      0.154630    1.499800   -4.130910
  H     -1.538130    1.459220   -4.582670
  C     -0.397620   -0.205870   -5.288020
  O      0.617170   -0.005350   -5.998270
  O     -1.133170   -1.221380   -5.341470
  C     -0.196260   -0.863370   -2.325760
  H     -1.143840    1.066710   -2.129680
  H     -2.114400   -0.156830   -2.930320
  H     -0.155380   -1.661720   -3.037000
  H     -0.588450   -1.229990   -1.400200
  H      0.788520   -0.476020   -2.167370

 Total Charge           Charge          ....   -1
 Multiplicity           Mult            ....    1
 Number of Electrons    NEL             ....   48
 Basis Dimension        Dim             ....  182

ORBITAL ENERGIES
----------------

  NO   OCC          E(Eh)            E(eV)
   0   2.0000     -18.509636      -503.6728
   1   2.0000     -18.508312      -503.6368
   2   2.0000      -9.775475      -266.0042
   3   2.0000      -9.747202      -265.2349
   4   2.0000      -9.737629      -264.9744
   5   2.0000      -9.723161      -264.5807
   6   2.0000      -0.729693       -19.8560
   7   2.0000      -0.640825       -17.4377
   8   2.0000      -0.556015       -15.1299
   9   2.0000      -0.469357       -12.7719
  10   2.0000      -0.379264       -10.3203
  11   2.0000      -0.271872        -7.3980
  12   2.0000      -0.255194        -6.9442
  13   2.0000      -0.238073        -6.4783
  14   2.0000      -0.208984        -5.6868
  15   2.0000      -0.182492        -4.9659
  16   2.0000      -0.169825        -4.6212
  17   2.0000      -0.161543        -4.3958
  18   2.0000      -0.149292        -4.0624
  19   2.0000      -0.131864        -3.5882
  20   2.0000      -0.122194        -3.3251
  21   2.0000      -0.018108        -0.4927
  22   2.0000      -0.002966        -0.0807
  23   2.0000       0.013305         0.3620
  24   0.0000       0.130238         3.5440
  25   0.0000       0.154870         4.2142
  26   0.0000       0.171926         4.6783
  27   0.0000       0.180591         4.9141
  28   0.0000       0.196258         5.3405

MULLIKEN ATOMIC CHARGES
-----------------------
   0 C :   -0.450920
   1 C :    0.116203
   2 H :    0.011568
   3 H :   -0.031765
   4 C :    0.325440
   5 O :   -0.633026
   6 O :   -0.691037
   7 C :    0.666698
   8 H :   -0.170590
   9 H :    0.020639
  10 H :   -0.066655
  11 H :   -0.066893
  12 H :   -0.029662
Sum of atomic charges:   -1.0000000

LOEWDIN ATOMIC CHARGES
----------------------
   0 C :   -0.096250
   1 C :   -0.004486
   2 H :   -0.001242
   3 H :    0.009026
   4 C :   -0.325286
   5 O :   -0.308469
   6 O :   -0.296115
   7 C :    0.113015
   8 H :   -0.004432
   9 H :    0.008562
  10 H :   -0.029446
  11 H :   -0.037948
  12 H :   -0.026930

  Mayer bond orders larger than 0.100000
B(  0-C ,  1-C ) :   1.2353 B(  0-C ,  2-H ) :   0.1496 B(  0-C ,  3-H ) :   0.1374
B(  0-C ,  7-C ) :   1.3784 B(  0-C ,  8-H ) :   0.9698 B(  0-C ,  9-H ) :   0.8664
B(  0-C , 10-H ) :   0.2231 B(  0-C , 11-H ) :   0.2394 B(  0-C , 12-H ) :   0.2113
B(  1-C ,  2-H ) :   0.8597 B(  1-C ,  3-H ) :   0.8181 B(  1-C ,  4-C ) :   1.0813
B(  1-C ,  8-H ) :   0.1261 B(  1-C ,  9-H ) :   0.1299 B(  2-H ,  4-C ) :   0.2171
B(  3-H ,  4-C ) :   0.1005 B(  4-C ,  5-O ) :   1.4117 B(  4-C ,  6-O ) :   1.4952
B(  7-C ,  8-H ) :   0.1129 B(  7-C , 10-H ) :   0.8359 B(  7-C , 11-H ) :   0.7317
B(  7-C , 12-H ) :   0.7847

Dispersion correction           -0.009856078
FINAL SINGLE POINT ENERGY      -306.591583905663

DIPOLE MOMENT
-------------
                                X             Y             Z
Electronic contribution:      0.68094      -1.07555      -7.20968
Nuclear contribution   :     -1.15173       1.87787       9.37659
                        -----------------------------------------
Total Dipole Moment    :     -0.47080       0.80232       2.16691
                        -----------------------------------------
Magnitude (a.u.)       :      2.35815
Magnitude (Debye)      :      5.99394

Rotational constants in cm-1:     0.203160     0.081703     0.075834
Rotational constants in MHz :  6090.598467  2449.397428  2273.436534

                             ****ORCA TERMINATED NORMALLY****
TOTAL RUN TIME: 0 days 0 hours 0 minutes 6 seconds 645 msec
