                         Program Version 5.0.0 -  RELEASE  -
|  1> !PBE D3BJ RIJCOSX def2-SVPD def2/J TightSCF
|  2> *xyz 1 1
|  3> C          2.23447       -2.98975       -2.39762
|  4> N          2.75680       -2.94555       -3.76503
|  5> C          1.98721       -2.59045       -4.81898
|  6> N          0.74322       -3.01749       -4.91352
|  7> N          2.49964       -1.84860       -5.80324
|  8> H          3.30978       -1.29282       -5.55895
|  9> H          1.80103       -1.30430       -6.28913
| 10> H          3.71612       -2.62880       -3.82953
| 11> H          0.39583       -3.62775       -4.18502
| 12> H          0.03920       -2.45438       -5.37137
| 13> C          2.19120       -1.61950       -1.71549
| 14> H          2.87278       -3.66637       -1.82801
| 15> H          1.24619       -3.44744       -2.40784
| 16> C          1.29873       -0.55431       -2.35977
| 17> H          1.87292       -1.78796       -0.68131
| 18> H          3.21681       -1.23843       -1.65443
| 19> H          1.61097       -0.39090       -3.37007
| 20> H          1.37981        0.35955       -1.80916
| 21> H          0.28197       -0.88750       -2.35015
| 22> *
| 23>
| 24> %MaxCore 64000
| 25>
| 26> %pal nprocs 4
| 27> end
| 28>
| 29> %scf
| 30>   MaxIter 150
| 31> end
| 32>
| 33>
| 34>                          ****END OF INPUT****

CARTESIAN COORDINATES (ANGSTROEM)
---------------------------------
  C      2.234470   -2.989750   -2.397620
  N      2.756800   -2.945550   -3.765030
  C      1.987210   -2.590450   -4.818980
  N      0.743220   -3.017490   -4.913520
  N      2.499640   -1.848600   -5.803240
  H      3.309780   -1.292820   -5.558950
  H      1.801030   -1.304300   -6.289130
  H      3.716120   -2.628800   -3.829530
  H      0.395830   -3.627750   -4.185020
  H      0.039200   -2.454380   -5.371370
  C      2.191200   -1.619500   -1.715490
  H      2.872780   -3.666370   -1.828010
  H      1.246190   -3.447440   -2.407840
  C      1.298730   -0.554310   -2.359770
  H      1.872920   -1.787960   -0.681310
  H      3.216810   -1.238430   -1.654430
  H      1.610970   -0.390900   -3.370070
  H      1.379810    0.359550   -1.809160
  H      0.281970   -0.887500   -2.350150

 Total Charge           Charge          ....    1
 Multiplicity           Mult            ....    1
 Number of Electrons    NEL             ....   56
 Basis Dimension        Dim             ....  236

ORBITAL ENERGIES
----------------

  NO   OCC          E(Eh)            E(eV)
   0   2.0000     -14.226423      -387.1206
   1   2.0000     -14.223231      -387.0338
   2   2.0000     -14.222917      -387.0252
   3   2.0000     -10.220967      -278.1266
   4   2.0000     -10.101822      -274.8845
   5   2.0000     -10.047504      -273.4065
   6   2.0000     -10.026739      -272.8414
   7   2.0000      -1.126818       -30.6623
   8   2.0000      -1.020439       -27.7675
   9   2.0000      -1.015557       -27.6347
  10   2.0000      -0.865939       -23.5634
  11   2.0000      -0.801262       -21.8034
  12   2.0000      -0.765312       -20.8252
  13   2.0000      -0.730815       -19.8865
  14   2.0000      -0.709613       -19.3095
  15   2.0000      -0.675847       -18.3907
  16   2.0000      -0.649436       -17.6720
  17   2.0000      -0.635834       -17.3019
  18   2.0000      -0.602673       -16.3996
  19   2.0000      -0.578748       -15.7485
  20   2.0000      -0.551652       -15.0112
  21   2.0000      -0.541585       -14.7373
  22   2.0000      -0.515718       -14.0334
  23   2.0000      -0.479059       -13.0359
  24   2.0000      -0.457433       -12.4474
  25   2.0000      -0.451577       -12.2880
  26   2.0000      -0.442433       -12.0392
  27   2.0000      -0.410334       -11.1657
  28   0.0000      -0.226450        -6.1620
  29   0.0000      -0.175207        -4.7676
  30   0.0000      -0.148154        -4.0315
  31   0.0000      -0.135890        -3.6978
  32   0.0000      -0.117447        -3.1959

MULLIKEN ATOMIC CHARGES
-----------------------
   0 C :    0.790686
   1 N :   -0.417467
   2 C :    1.033736
   3 N :    0.068309
   4 N :   -0.007240
   5 H :   -0.016887
   6 H :    0.016108
   7 H :   -0.179258
   8 H :   -0.004016
   9 H :   -0.051101
  10 C :   -0.347304
  11 H :   -0.283347
  12 H :   -0.079110
  13 C :    0.829650
  14 H :   -0.037648
  15 H :   -0.036276
  16 H :   -0.189797
  17 H :   -0.099551
  18 H :    0.010512
Sum of atomic charges:    1.0000000

LOEWDIN ATOMIC CHARGES
----------------------
   0 C :    0.068914
   1 N :    0.070919
   2 C :   -0.084189
   3 N :    0.297719
   4 N :    0.284815
   5 H :    0.032009
   6 H :    0.032552
   7 H :    0.049727
   8 H :    0.023528
   9 H :    0.045909
  10 C :   -0.045512
  11 H :    0.041454
  12 H :    0.019017
  13 C :    0.141365
  14 H :    0.041341
  15 H :    0.030795
  16 H :   -0.040265
  17 H :    0.000262
  18 H :   -0.010361

  Mayer bond orders larger than 0.100000
B(  0-C ,  1-N ) :   0.9359 B(  0-C , 10-C ) :   1.1582 B(  0-C , 11-H ) :   0.8263
B(  0-C , 12-H ) :   0.7505 B(  0-C , 14-H ) :   0.1514 B(  0-C , 15-H ) :   0.1271
B(  1-N ,  2-C ) :   1.0473 B(  1-N ,  3-N ) :   0.1315 B(  1-N ,  4-N ) :   0.1907
B(  1-N ,  7-H ) :   1.1816 B(  1-N , 11-H ) :   0.2107 B(  1-N , 12-H ) :   0.1319
B(  2-C ,  3-N ) :   0.9993 B(  2-C ,  4-N ) :   0.9231 B(  2-C ,  7-H ) :  -0.1795
B(  2-C ,  9-H ) :  -0.1124 B(  3-N ,  4-N ) :   0.1835 B(  3-N ,  8-H ) :   0.9690
B(  3-N ,  9-H ) :   1.1916 B(  4-N ,  5-H ) :   1.0084 B(  4-N ,  6-H ) :   1.0036
B(  8-H ,  9-H ) :  -0.1607 B( 10-C , 12-H ) :   0.1411 B( 10-C , 13-C ) :   1.3378
B( 10-C , 14-H ) :   0.8923 B( 10-C , 15-H ) :   0.9108 B( 10-C , 16-H ) :   0.2439
B( 10-C , 17-H ) :   0.2235 B( 10-C , 18-H ) :   0.2440 B( 11-H , 12-H ) :  -0.1170
B( 13-C , 14-H ) :   0.1045 B( 13-C , 16-H ) :   0.8122 B( 13-C , 17-H ) :   0.7559
B( 13-C , 18-H ) :   0.7177 B( 16-H , 18-H ) :   0.1205

Dispersion correction           -0.016547961
FINAL SINGLE POINT ENERGY      -323.089438386866

DIPOLE MOMENT
-------------
                                X             Y             Z
Electronic contribution:      1.24988      -3.57773      -5.56101
Nuclear contribution   :     -1.48325       3.81474       4.74728
                        -----------------------------------------
Total Dipole Moment    :     -0.23337       0.23701      -0.81374
                        -----------------------------------------
Magnitude (a.u.)       :      0.87909
Magnitude (Debye)      :      2.23447

Rotational constants in cm-1:     0.127669     0.058023     0.053953
Rotational constants in MHz :  3827.411023  1739.493733  1617.466565

                             ****ORCA TERMINATED NORMALLY****
TOTAL RUN TIME: 0 days 0 hours 0 minutes 11 seconds 289 msec
