                         Program Version 5.0.0 -  RELEASE  -
|  1> !PBE D3BJ RIJCOSX def2-SVPD def2/J TightSCF
|  2> *xyz 0 1
|  3> C         -1.10433        0.25137       -2.86006
|  4> C         -0.71189        0.84252       -4.21834
|  5> H          0.15463        1.49980       -4.13091
|  6> H         -1.53813        1.45922       -4.58267
|  7> C         -0.39762       -0.20587       -5.28802
|  8> F          0.61717       -0.00535       -5.99827
|  9> O         -1.13317       -1.22138       -5.34147
| 10> C         -0.19626       -0.86337       -2.32576
| 11> H         -1.14384        1.06671       -2.12968
| 12> H         -2.11440       -0.15683       -2.93032
| 13> H         -0.15538       -1.66172       -3.03700
| 14> H         -0.58845       -1.22999       -1.40020
| 15> H          0.78852       -0.47602       -2.16737
| 16> *
| 17>
| 18> %MaxCore 64000
| 19>
| 20> %pal nprocs 4
| 21> end
| 22>
| 23> %scf
| 24>   MaxIter 150
| 25> end
| 26>
| 27>
| 28>                          ****END OF INPUT****

CARTESIAN COORDINATES (ANGSTROEM)
---------------------------------
  C     -1.104330    0.251370   -2.860060
  C     -0.711890    0.842520   -4.218340
  H      0.154630    1.499800   -4.130910
  H     -1.538130    1.459220   -4.582670
  C     -0.397620   -0.205870   -5.288020
  F      0.617170   -0.005350   -5.998270
  O     -1.133170   -1.221380   -5.341470
  C     -0.196260   -0.863370   -2.325760
  H     -1.143840    1.066710   -2.129680
  H     -2.114400   -0.156830   -2.930320
  H     -0.155380   -1.661720   -3.037000
  H     -0.588450   -1.229990   -1.400200
  H      0.788520   -0.476020   -2.167370

 Total Charge           Charge          ....    0
 Multiplicity           Mult            ....    1
 Number of Electrons    NEL             ....   48
 Basis Dimension        Dim             ....  182

ORBITAL ENERGIES
----------------

  NO   OCC          E(Eh)            E(eV)
   0   2.0000     -24.345358      -662.4709
   1   2.0000     -18.773279      -510.8469
   2   2.0000     -10.067191      -273.9422
   3   2.0000      -9.927065      -270.1292
   4   2.0000      -9.910234      -269.6712
   5   2.0000      -9.885684      -269.0031
   6   2.0000      -1.205171       -32.7944
   7   2.0000      -0.940235       -25.5851
   8   2.0000      -0.732786       -19.9401
   9   2.0000      -0.656631       -17.8678
  10   2.0000      -0.597384       -16.2556
  11   2.0000      -0.547362       -14.8945
  12   2.0000      -0.492477       -13.4010
  13   2.0000      -0.472423       -12.8553
  14   2.0000      -0.451564       -12.2877
  15   2.0000      -0.418205       -11.3799
  16   2.0000      -0.405625       -11.0376
  17   2.0000      -0.372394       -10.1333
  18   2.0000      -0.353330        -9.6146
  19   2.0000      -0.328945        -8.9511
  20   2.0000      -0.315496        -8.5851
  21   2.0000      -0.308784        -8.4024
  22   2.0000      -0.302388        -8.2284
  23   2.0000      -0.247806        -6.7431
  24   0.0000      -0.072140        -1.9630
  25   0.0000      -0.004211        -0.1146
  26   0.0000       0.024711         0.6724
  27   0.0000       0.031037         0.8445
  28   0.0000       0.040084         1.0907

MULLIKEN ATOMIC CHARGES
-----------------------
   0 C :   -0.384234
   1 C :    0.052141
   2 H :    0.041847
   3 H :    0.027041
   4 C :    0.681794
   5 F :   -0.319026
   6 O :   -0.511697
   7 C :    0.700015
   8 H :   -0.146677
   9 H :    0.024633
  10 H :   -0.090589
  11 H :   -0.051676
  12 H :   -0.023572
Sum of atomic charges:   -0.0000000

LOEWDIN ATOMIC CHARGES
----------------------
   0 C :   -0.065108
   1 C :    0.036897
   2 H :    0.023602
   3 H :    0.041343
   4 C :   -0.037393
   5 F :   -0.013779
   6 O :   -0.113632
   7 C :    0.133800
   8 H :    0.024236
   9 H :    0.026625
  10 H :   -0.026628
  11 H :   -0.014194
  12 H :   -0.015769

  Mayer bond orders larger than 0.100000
B(  0-C ,  1-C ) :   1.2745 B(  0-C ,  2-H ) :   0.1425 B(  0-C ,  3-H ) :   0.1394
B(  0-C ,  7-C ) :   1.4081 B(  0-C ,  8-H ) :   0.9385 B(  0-C ,  9-H ) :   0.8581
B(  0-C , 10-H ) :   0.2081 B(  0-C , 11-H ) :   0.2246 B(  0-C , 12-H ) :   0.2021
B(  1-C ,  2-H ) :   0.8541 B(  1-C ,  3-H ) :   0.8014 B(  1-C ,  4-C ) :   1.1143
B(  1-C ,  8-H ) :   0.1195 B(  1-C ,  9-H ) :   0.1202 B(  2-H ,  4-C ) :   0.1213
B(  4-C ,  5-F ) :   0.7453 B(  4-C ,  6-O ) :   1.7825 B(  5-F ,  6-O ) :   0.1058
B(  7-C ,  8-H ) :   0.1061 B(  7-C , 10-H ) :   0.8354 B(  7-C , 11-H ) :   0.7322
B(  7-C , 12-H ) :   0.7834

Dispersion correction           -0.009497630
FINAL SINGLE POINT ENERGY      -331.107370716391

DIPOLE MOMENT
-------------
                                X             Y             Z
Electronic contribution:      2.60278      -0.71229     -10.70119
Nuclear contribution   :     -2.39146       1.63977      11.24418
                        -----------------------------------------
Total Dipole Moment    :      0.21132       0.92748       0.54298
                        -----------------------------------------
Magnitude (a.u.)       :      1.09531
Magnitude (Debye)      :      2.78405

Rotational constants in cm-1:     0.198868     0.077542     0.072498
Rotational constants in MHz :  5961.919605  2324.650173  2173.425242

                             ****ORCA TERMINATED NORMALLY****
TOTAL RUN TIME: 0 days 0 hours 0 minutes 6 seconds 505 msec
