                         Program Version 5.0.0 -  RELEASE  -
|  1> !PBE D3BJ RIJCOSX def2-SVPD def2/J TightSCF
|  2> *xyz 0 1
|  3> C          2.23447       -2.98975       -2.39762
|  4> C          2.75680       -2.94555       -3.76503
|  5> C          1.98721       -2.59045       -4.81898
|  6> N          0.74322       -3.01749       -4.91352
|  7> N          2.49964       -1.84860       -5.80324
|  8> H          3.30978       -1.29282       -5.55895
|  9> H          1.80103       -1.30430       -6.28913
| 10> H          3.71612       -2.62880       -3.82953
| 11> H          0.39583       -3.62775       -4.18502
| 12> H          0.03920       -2.45438       -5.37137
| 13> C          2.19120       -1.61950       -1.71549
| 14> H          2.87278       -3.66637       -1.82801
| 15> H          1.24619       -3.44744       -2.40784
| 16> C          1.29873       -0.55431       -2.35977
| 17> H          1.87292       -1.78796       -0.68131
| 18> H          3.21681       -1.23843       -1.65443
| 19> H          1.61097       -0.39090       -3.37007
| 20> H          1.37981        0.35955       -1.80916
| 21> H          0.28197       -0.88750       -2.35015
| 22> *
| 23>
| 24> %MaxCore 64000
| 25>
| 26> %pal nprocs 4
| 27> end
| 28>
| 29> %scf
| 30>   MaxIter 150
| 31> end
| 32>
| 33>
| 34>                          ****END OF INPUT****

CARTESIAN COORDINATES (ANGSTROEM)
---------------------------------
  C      2.234470   -2.989750   -2.397620
  C      2.756800   -2.945550   -3.765030
  C      1.987210   -2.590450   -4.818980
  N      0.743220   -3.017490   -4.913520
  N      2.499640   -1.848600   -5.803240
  H      3.309780   -1.292820   -5.558950
  H      1.801030   -1.304300   -6.289130
  H      3.716120   -2.628800   -3.829530
  H      0.395830   -3.627750   -4.185020
  H      0.039200   -2.454380   -5.371370
  C      2.191200   -1.619500   -1.715490
  H      2.872780   -3.666370   -1.828010
  H      1.246190   -3.447440   -2.407840
  C      1.298730   -0.554310   -2.359770
  H      1.872920   -1.787960   -0.681310
  H      3.216810   -1.238430   -1.654430
  H      1.610970   -0.390900   -3.370070
  H      1.379810    0.359550   -1.809160
  H      0.281970   -0.887500   -2.350150

 Total Charge           Charge          ....    0
 Multiplicity           Mult            ....    1
 Number of Electrons    NEL             ....   56
 Basis Dimension        Dim             ....  236

ORBITAL ENERGIES
----------------

  NO   OCC          E(Eh)            E(eV)
   0   2.0000     -14.008607      -381.1936
   1   2.0000     -14.005146      -381.0994
   2   2.0000      -9.939324      -270.4628
   3   2.0000      -9.879339      -268.8305
   4   2.0000      -9.875045      -268.7136
   5   2.0000      -9.872737      -268.6508
   6   2.0000      -9.826077      -267.3811
   7   2.0000      -0.883617       -24.0444
   8   2.0000      -0.797671       -21.7057
   9   2.0000      -0.709170       -19.2975
  10   2.0000      -0.648723       -17.6527
  11   2.0000      -0.593682       -16.1549
  12   2.0000      -0.542866       -14.7721
  13   2.0000      -0.509697       -13.8696
  14   2.0000      -0.493260       -13.4223
  15   2.0000      -0.456988       -12.4353
  16   2.0000      -0.425667       -11.5830
  17   2.0000      -0.402635       -10.9562
  18   2.0000      -0.392410       -10.6780
  19   2.0000      -0.367463        -9.9992
  20   2.0000      -0.342672        -9.3246
  21   2.0000      -0.332655        -9.0520
  22   2.0000      -0.310403        -8.4465
  23   2.0000      -0.299374        -8.1464
  24   2.0000      -0.277432        -7.5493
  25   2.0000      -0.272961        -7.4277
  26   2.0000      -0.235012        -6.3950
  27   2.0000      -0.134455        -3.6587
  28   0.0000      -0.015954        -0.4341
  29   0.0000       0.013596         0.3700
  30   0.0000       0.021769         0.5924
  31   0.0000       0.022748         0.6190
  32   0.0000       0.039646         1.0788

MULLIKEN ATOMIC CHARGES
-----------------------
   0 C :    0.155352
   1 C :   -0.133520
   2 C :    0.332402
   3 N :    0.044412
   4 N :    0.008023
   5 H :    0.031196
   6 H :   -0.009508
   7 H :   -0.138982
   8 H :   -0.010853
   9 H :   -0.138355
  10 C :   -0.342869
  11 H :   -0.072295
  12 H :   -0.149726
  13 C :    0.853393
  14 H :   -0.094343
  15 H :   -0.058588
  16 H :   -0.146964
  17 H :   -0.135218
  18 H :    0.006445
Sum of atomic charges:   -0.0000000

LOEWDIN ATOMIC CHARGES
----------------------
   0 C :   -0.072283
   1 C :   -0.013102
   2 C :   -0.263687
   3 N :    0.214279
   4 N :    0.206435
   5 H :   -0.000129
   6 H :   -0.015114
   7 H :   -0.054298
   8 H :   -0.005747
   9 H :   -0.005303
  10 C :   -0.073329
  11 H :    0.011281
  12 H :   -0.004853
  13 C :    0.124960
  14 H :    0.014188
  15 H :    0.019739
  16 H :   -0.038518
  17 H :   -0.022727
  18 H :   -0.021790

  Mayer bond orders larger than 0.100000
B(  0-C ,  1-C ) :   1.2724 B(  0-C ,  2-C ) :   0.1529 B(  0-C ,  7-H ) :   0.3310
B(  0-C , 10-C ) :   1.1960 B(  0-C , 11-H ) :   0.7925 B(  0-C , 12-H ) :   0.7699
B(  0-C , 14-H ) :   0.2173 B(  0-C , 15-H ) :   0.1800 B(  1-C ,  2-C ) :   1.6108
B(  1-C ,  3-N ) :   0.1492 B(  1-C ,  4-N ) :   0.2893 B(  1-C ,  7-H ) :   0.6169
B(  1-C , 11-H ) :   0.2025 B(  1-C , 12-H ) :   0.2190 B(  2-C ,  3-N ) :   1.0294
B(  2-C ,  4-N ) :   0.9037 B(  2-C ,  7-H ) :   0.2808 B(  3-N ,  4-N ) :   0.1512
B(  3-N ,  8-H ) :   0.9773 B(  3-N ,  9-H ) :   1.1958 B(  4-N ,  5-H ) :   0.9391
B(  4-N ,  6-H ) :   0.8767 B(  8-H ,  9-H ) :  -0.1428 B( 10-C , 12-H ) :   0.1423
B( 10-C , 13-C ) :   1.3376 B( 10-C , 14-H ) :   0.8748 B( 10-C , 15-H ) :   0.9005
B( 10-C , 16-H ) :   0.2586 B( 10-C , 17-H ) :   0.2468 B( 10-C , 18-H ) :   0.2350
B( 13-C , 15-H ) :   0.1056 B( 13-C , 16-H ) :   0.8084 B( 13-C , 17-H ) :   0.7214
B( 13-C , 18-H ) :   0.7294 B( 16-H , 18-H ) :   0.1235

Dispersion correction           -0.017077715
FINAL SINGLE POINT ENERGY      -306.627304213363

DIPOLE MOMENT
-------------
                                X             Y             Z
Electronic contribution:      0.60314      -2.87952      -5.05137
Nuclear contribution   :     -1.30515       3.65216       4.73330
                        -----------------------------------------
Total Dipole Moment    :     -0.70201       0.77264      -0.31807
                        -----------------------------------------
Magnitude (a.u.)       :      1.09131
Magnitude (Debye)      :      2.77388

Rotational constants in cm-1:     0.129987     0.058163     0.054282
Rotational constants in MHz :  3896.918182  1743.696851  1627.337267

                             ****ORCA TERMINATED NORMALLY****
TOTAL RUN TIME: 0 days 0 hours 0 minutes 10 seconds 726 msec
