                         Program Version 5.0.0 -  RELEASE  -
|  1> !PBE D3BJ RIJCOSX def2-SVPD def2/J TightSCF
|  2> *xyz 0 1
|  3> C         -1.10433        0.25137       -2.86006
|  4> C         -0.71189        0.84252       -4.21834
|  5> H          0.15463        1.49980       -4.13091
|  6> H         -1.53813        1.45922       -4.58267
|  7> C         -0.39762       -0.20587       -5.28802
|  8> O          0.61717       -0.00535       -5.99827
|  9> F         -1.13317       -1.22138       -5.34147
| 10> C         -0.19626       -0.86337       -2.32576
| 11> H         -1.14384        1.06671       -2.12968
| 12> H         -2.11440       -0.15683       -2.93032
| 13> H         -0.15538       -1.66172       -3.03700
| 14> H         -0.58845       -1.22999       -1.40020
| 15> H          0.78852       -0.47602       -2.16737
| 16> *
| 17>
| 18> %MaxCore 64000
| 19>
| 20> %pal nprocs 4
| 21> end
| 22>
| 23> %scf
| 24>   MaxIter 150
| 25> end
| 26>
| 27>
| 28>                          ****END OF INPUT****

CARTESIAN COORDINATES (ANGSTROEM)
---------------------------------
  C     -1.104330    0.251370   -2.860060
  C     -0.711890    0.842520   -4.218340
  H      0.154630    1.499800   -4.130910
  H     -1.538130    1.459220   -4.582670
  C     -0.397620   -0.205870   -5.288020
  O      0.617170   -0.005350   -5.998270
  F     -1.133170   -1.221380   -5.341470
  C     -0.196260   -0.863370   -2.325760
  H     -1.143840    1.066710   -2.129680
  H     -2.114400   -0.156830   -2.930320
  H     -0.155380   -1.661720   -3.037000
  H     -0.588450   -1.229990   -1.400200
  H      0.788520   -0.476020   -2.167370

 Total Charge           Charge          ....    0
 Multiplicity           Mult            ....    1
 Number of Electrons    NEL             ....   48
 Basis Dimension        Dim             ....  182

ORBITAL ENERGIES
----------------

  NO   OCC          E(Eh)            E(eV)
   0   2.0000     -24.346185      -662.4934
   1   2.0000     -18.771616      -510.8017
   2   2.0000     -10.066309      -273.9182
   3   2.0000      -9.925945      -270.0987
   4   2.0000      -9.915040      -269.8019
   5   2.0000      -9.893395      -269.2130
   6   2.0000      -1.205699       -32.8087
   7   2.0000      -0.938460       -25.5368
   8   2.0000      -0.738026       -20.0827
   9   2.0000      -0.657221       -17.8839
  10   2.0000      -0.597666       -16.2633
  11   2.0000      -0.553241       -15.0545
  12   2.0000      -0.494318       -13.4511
  13   2.0000      -0.482622       -13.1328
  14   2.0000      -0.436357       -11.8739
  15   2.0000      -0.424785       -11.5590
  16   2.0000      -0.407731       -11.0949
  17   2.0000      -0.374563       -10.1924
  18   2.0000      -0.354675        -9.6512
  19   2.0000      -0.336880        -9.1670
  20   2.0000      -0.322404        -8.7731
  21   2.0000      -0.313585        -8.5331
  22   2.0000      -0.304823        -8.2947
  23   2.0000      -0.242683        -6.6038
  24   0.0000      -0.069562        -1.8929
  25   0.0000      -0.008331        -0.2267
  26   0.0000       0.026302         0.7157
  27   0.0000       0.029478         0.8021
  28   0.0000       0.037814         1.0290

MULLIKEN ATOMIC CHARGES
-----------------------
   0 C :   -0.385497
   1 C :    0.075916
   2 H :    0.022518
   3 H :    0.014159
   4 C :    0.705704
   5 O :   -0.458869
   6 F :   -0.372466
   7 C :    0.702092
   8 H :   -0.158070
   9 H :    0.007801
  10 H :   -0.089386
  11 H :   -0.051822
  12 H :   -0.012080
Sum of atomic charges:    0.0000000

LOEWDIN ATOMIC CHARGES
----------------------
   0 C :   -0.073909
   1 C :    0.042902
   2 H :    0.035425
   3 H :    0.039121
   4 C :   -0.043095
   5 O :   -0.116459
   6 F :   -0.011869
   7 C :    0.133034
   8 H :    0.024181
   9 H :    0.021438
  10 H :   -0.025853
  11 H :   -0.014049
  12 H :   -0.010866

  Mayer bond orders larger than 0.100000
B(  0-C ,  1-C ) :   1.2471 B(  0-C ,  2-H ) :   0.1383 B(  0-C ,  3-H ) :   0.1297
B(  0-C ,  7-C ) :   1.4053 B(  0-C ,  8-H ) :   0.9460 B(  0-C ,  9-H ) :   0.8638
B(  0-C , 10-H ) :   0.2075 B(  0-C , 11-H ) :   0.2290 B(  0-C , 12-H ) :   0.2073
B(  1-C ,  2-H ) :   0.8776 B(  1-C ,  3-H ) :   0.8116 B(  1-C ,  4-C ) :   1.0671
B(  1-C ,  8-H ) :   0.1220 B(  1-C ,  9-H ) :   0.1129 B(  2-H ,  4-C ) :   0.1482
B(  4-C ,  5-O ) :   1.7540 B(  4-C ,  6-F ) :   0.7218 B(  5-O ,  6-F ) :   0.1229
B(  7-C ,  8-H ) :   0.1017 B(  7-C , 10-H ) :   0.8358 B(  7-C , 11-H ) :   0.7309
B(  7-C , 12-H ) :   0.7851

Dispersion correction           -0.009418470
FINAL SINGLE POINT ENERGY      -331.106325362508

DIPOLE MOMENT
-------------
                                X             Y             Z
Electronic contribution:     -0.33507      -2.73729      -9.54190
Nuclear contribution   :     -0.41432       3.01336      10.50227
                        -----------------------------------------
Total Dipole Moment    :     -0.74939       0.27607       0.96037
                        -----------------------------------------
Magnitude (a.u.)       :      1.24904
Magnitude (Debye)      :      3.17481

Rotational constants in cm-1:     0.192167     0.080512     0.073747
Rotational constants in MHz :  5761.018137  2413.690728  2210.882638

                             ****ORCA TERMINATED NORMALLY****
TOTAL RUN TIME: 0 days 0 hours 0 minutes 6 seconds 253 msec
