                         Program Version 5.0.0 -  RELEASE  -
|  1> !PBE D3BJ RIJCOSX def2-SVPD def2/J TightSCF
|  2> *xyz 0 1
|  3> C          2.23447       -2.98975       -2.39762
|  4> N          2.75680       -2.94555       -3.76503
|  5> C          1.98721       -2.59045       -4.81898
|  6> C          0.74322       -3.01749       -4.91352
|  7> N          2.49964       -1.84860       -5.80324
|  8> H          3.30978       -1.29282       -5.55895
|  9> H          1.80103       -1.30430       -6.28913
| 10> H          3.71612       -2.62880       -3.82953
| 11> H          0.39583       -3.62775       -4.18502
| 12> H          0.03920       -2.45438       -5.37137
| 13> C          2.19120       -1.61950       -1.71549
| 14> H          2.87278       -3.66637       -1.82801
| 15> H          1.24619       -3.44744       -2.40784
| 16> C          1.29873       -0.55431       -2.35977
| 17> H          1.87292       -1.78796       -0.68131
| 18> H          3.21681       -1.23843       -1.65443
| 19> H          1.61097       -0.39090       -3.37007
| 20> H          1.37981        0.35955       -1.80916
| 21> H          0.28197       -0.88750       -2.35015
| 22> *
| 23>
| 24> %MaxCore 64000
| 25>
| 26> %pal nprocs 4
| 27> end
| 28>
| 29> %scf
| 30>   MaxIter 150
| 31> end
| 32>
| 33>
| 34>                          ****END OF INPUT****

CARTESIAN COORDINATES (ANGSTROEM)
---------------------------------
  C      2.234470   -2.989750   -2.397620
  N      2.756800   -2.945550   -3.765030
  C      1.987210   -2.590450   -4.818980
  C      0.743220   -3.017490   -4.913520
  N      2.499640   -1.848600   -5.803240
  H      3.309780   -1.292820   -5.558950
  H      1.801030   -1.304300   -6.289130
  H      3.716120   -2.628800   -3.829530
  H      0.395830   -3.627750   -4.185020
  H      0.039200   -2.454380   -5.371370
  C      2.191200   -1.619500   -1.715490
  H      2.872780   -3.666370   -1.828010
  H      1.246190   -3.447440   -2.407840
  C      1.298730   -0.554310   -2.359770
  H      1.872920   -1.787960   -0.681310
  H      3.216810   -1.238430   -1.654430
  H      1.610970   -0.390900   -3.370070
  H      1.379810    0.359550   -1.809160
  H      0.281970   -0.887500   -2.350150

 Total Charge           Charge          ....    0
 Multiplicity           Mult            ....    1
 Number of Electrons    NEL             ....   56
 Basis Dimension        Dim             ....  236

ORBITAL ENERGIES
----------------

  NO   OCC          E(Eh)            E(eV)
   0   2.0000     -14.006180      -381.1275
   1   2.0000     -14.003070      -381.0429
   2   2.0000      -9.936394      -270.3830
   3   2.0000      -9.927225      -270.1335
   4   2.0000      -9.897952      -269.3370
   5   2.0000      -9.880968      -268.8748
   6   2.0000      -9.816368      -267.1170
   7   2.0000      -0.880728       -23.9658
   8   2.0000      -0.806476       -21.9453
   9   2.0000      -0.702180       -19.1073
  10   2.0000      -0.647205       -17.6113
  11   2.0000      -0.619295       -16.8519
  12   2.0000      -0.543530       -14.7902
  13   2.0000      -0.505162       -13.7462
  14   2.0000      -0.491767       -13.3817
  15   2.0000      -0.460690       -12.5360
  16   2.0000      -0.423175       -11.5152
  17   2.0000      -0.408426       -11.1138
  18   2.0000      -0.384164       -10.4536
  19   2.0000      -0.366389        -9.9700
  20   2.0000      -0.354918        -9.6578
  21   2.0000      -0.336448        -9.1552
  22   2.0000      -0.323979        -8.8159
  23   2.0000      -0.313691        -8.5360
  24   2.0000      -0.303501        -8.2587
  25   2.0000      -0.294599        -8.0164
  26   2.0000      -0.214058        -5.8248
  27   2.0000      -0.147065        -4.0018
  28   0.0000      -0.012100        -0.3293
  29   0.0000       0.011190         0.3045
  30   0.0000       0.017713         0.4820
  31   0.0000       0.029280         0.7968
  32   0.0000       0.036857         1.0029

MULLIKEN ATOMIC CHARGES
-----------------------
   0 C :    0.767015
   1 N :   -0.360204
   2 C :    0.451049
   3 C :    0.352832
   4 N :   -0.001635
   5 H :   -0.064886
   6 H :    0.030840
   7 H :   -0.287148
   8 H :   -0.147766
   9 H :   -0.381763
  10 C :   -0.405657
  11 H :   -0.302521
  12 H :   -0.069092
  13 C :    0.855095
  14 H :   -0.069842
  15 H :   -0.054062
  16 H :   -0.219513
  17 H :   -0.080307
  18 H :   -0.012437
Sum of atomic charges:    0.0000000

LOEWDIN ATOMIC CHARGES
----------------------
   0 C :    0.044688
   1 N :    0.011422
   2 C :   -0.272285
   3 C :    0.161115
   4 N :    0.203573
   5 H :   -0.019526
   6 H :   -0.001769
   7 H :    0.009970
   8 H :   -0.101391
   9 H :   -0.088970
  10 C :   -0.067290
  11 H :    0.017753
  12 H :    0.010304
  13 C :    0.129980
  14 H :    0.018870
  15 H :    0.015280
  16 H :   -0.036168
  17 H :   -0.020713
  18 H :   -0.014843

  Mayer bond orders larger than 0.100000
B(  0-C ,  1-N ) :   0.9349 B(  0-C , 10-C ) :   1.1196 B(  0-C , 11-H ) :   0.8430
B(  0-C , 12-H ) :   0.7281 B(  0-C , 14-H ) :   0.1644 B(  0-C , 15-H ) :   0.1297
B(  1-N ,  2-C ) :   1.0170 B(  1-N ,  3-C ) :   0.3100 B(  1-N ,  4-N ) :   0.1593
B(  1-N ,  7-H ) :   1.1275 B(  1-N , 11-H ) :   0.1896 B(  1-N , 12-H ) :   0.1343
B(  2-C ,  3-C ) :   1.7029 B(  2-C ,  4-N ) :   0.8589 B(  2-C ,  7-H ) :  -0.1378
B(  2-C ,  8-H ) :   0.3048 B(  2-C ,  9-H ) :   0.1796 B(  3-C ,  4-N ) :   0.2517
B(  3-C ,  8-H ) :   0.5107 B(  3-C ,  9-H ) :   0.8599 B(  4-N ,  5-H ) :   0.9384
B(  4-N ,  6-H ) :   0.9314 B(  8-H ,  9-H ) :   0.1690 B( 10-C , 12-H ) :   0.1514
B( 10-C , 13-C ) :   1.3304 B( 10-C , 14-H ) :   0.9059 B( 10-C , 15-H ) :   0.9232
B( 10-C , 16-H ) :   0.2619 B( 10-C , 17-H ) :   0.2182 B( 10-C , 18-H ) :   0.2452
B( 11-H , 12-H ) :  -0.1221 B( 13-C , 14-H ) :   0.1059 B( 13-C , 16-H ) :   0.8203
B( 13-C , 17-H ) :   0.7245 B( 13-C , 18-H ) :   0.7179 B( 16-H , 18-H ) :   0.1486

Dispersion correction           -0.017010098
FINAL SINGLE POINT ENERGY      -306.618733040937

DIPOLE MOMENT
-------------
                                X             Y             Z
Electronic contribution:      2.35431      -2.73494      -3.91725
Nuclear contribution   :     -1.74624       3.63640       4.48172
                        -----------------------------------------
Total Dipole Moment    :      0.60808       0.90146       0.56447
                        -----------------------------------------
Magnitude (a.u.)       :      1.22516
Magnitude (Debye)      :      3.11412

Rotational constants in cm-1:     0.131012     0.059513     0.054636
Rotational constants in MHz :  3927.631151  1784.169731  1637.945644

                             ****ORCA TERMINATED NORMALLY****
TOTAL RUN TIME: 0 days 0 hours 0 minutes 11 seconds 98 msec
