                         Program Version 5.0.0 -  RELEASE  -
|  1> !PBE D3BJ RIJCOSX def2-SVPD def2/J TightSCF
|  2> *xyz 0 1
|  3> C          2.23447       -2.98975       -2.39762
|  4> N          2.75680       -2.94555       -3.76503
|  5> C          1.98721       -2.59045       -4.81898
|  6> N          0.74322       -3.01749       -4.91352
|  7> C          2.49964       -1.84860       -5.80324
|  8> H          3.30978       -1.29282       -5.55895
|  9> H          1.80103       -1.30430       -6.28913
| 10> H          3.71612       -2.62880       -3.82953
| 11> H          0.39583       -3.62775       -4.18502
| 12> H          0.03920       -2.45438       -5.37137
| 13> C          2.19120       -1.61950       -1.71549
| 14> H          2.87278       -3.66637       -1.82801
| 15> H          1.24619       -3.44744       -2.40784
| 16> C          1.29873       -0.55431       -2.35977
| 17> H          1.87292       -1.78796       -0.68131
| 18> H          3.21681       -1.23843       -1.65443
| 19> H          1.61097       -0.39090       -3.37007
| 20> H          1.37981        0.35955       -1.80916
| 21> H          0.28197       -0.88750       -2.35015
| 22> *
| 23>
| 24> %MaxCore 64000
| 25>
| 26> %pal nprocs 4
| 27> end
| 28>
| 29> %scf
| 30>   MaxIter 150
| 31> end
| 32>
| 33>
| 34>                          ****END OF INPUT****

CARTESIAN COORDINATES (ANGSTROEM)
---------------------------------
  C      2.234470   -2.989750   -2.397620
  N      2.756800   -2.945550   -3.765030
  C      1.987210   -2.590450   -4.818980
  N      0.743220   -3.017490   -4.913520
  C      2.499640   -1.848600   -5.803240
  H      3.309780   -1.292820   -5.558950
  H      1.801030   -1.304300   -6.289130
  H      3.716120   -2.628800   -3.829530
  H      0.395830   -3.627750   -4.185020
  H      0.039200   -2.454380   -5.371370
  C      2.191200   -1.619500   -1.715490
  H      2.872780   -3.666370   -1.828010
  H      1.246190   -3.447440   -2.407840
  C      1.298730   -0.554310   -2.359770
  H      1.872920   -1.787960   -0.681310
  H      3.216810   -1.238430   -1.654430
  H      1.610970   -0.390900   -3.370070
  H      1.379810    0.359550   -1.809160
  H      0.281970   -0.887500   -2.350150

 Total Charge           Charge          ....    0
 Multiplicity           Mult            ....    1
 Number of Electrons    NEL             ....   56
 Basis Dimension        Dim             ....  236

ORBITAL ENERGIES
----------------

  NO   OCC          E(Eh)            E(eV)
   0   2.0000     -14.005733      -381.1154
   1   2.0000     -14.004860      -381.0916
   2   2.0000      -9.939686      -270.4726
   3   2.0000      -9.934814      -270.3400
   4   2.0000      -9.900735      -269.4127
   5   2.0000      -9.882877      -268.9268
   6   2.0000      -9.812652      -267.0158
   7   2.0000      -0.882232       -24.0068
   8   2.0000      -0.806018       -21.9329
   9   2.0000      -0.708935       -19.2911
  10   2.0000      -0.654905       -17.8209
  11   2.0000      -0.605533       -16.4774
  12   2.0000      -0.546165       -14.8619
  13   2.0000      -0.535797       -14.5798
  14   2.0000      -0.489222       -13.3124
  15   2.0000      -0.445625       -12.1261
  16   2.0000      -0.438823       -11.9410
  17   2.0000      -0.404965       -11.0197
  18   2.0000      -0.400030       -10.8854
  19   2.0000      -0.362186        -9.8556
  20   2.0000      -0.348313        -9.4781
  21   2.0000      -0.335281        -9.1235
  22   2.0000      -0.323917        -8.8142
  23   2.0000      -0.316439        -8.6108
  24   2.0000      -0.303173        -8.2498
  25   2.0000      -0.302024        -8.2185
  26   2.0000      -0.215698        -5.8695
  27   2.0000      -0.143228        -3.8974
  28   0.0000      -0.010488        -0.2854
  29   0.0000       0.008829         0.2403
  30   0.0000       0.012838         0.3493
  31   0.0000       0.025259         0.6873
  32   0.0000       0.033475         0.9109

MULLIKEN ATOMIC CHARGES
-----------------------
   0 C :    0.787925
   1 N :   -0.437387
   2 C :    0.316375
   3 N :    0.208584
   4 C :    0.486331
   5 H :   -0.174436
   6 H :   -0.404799
   7 H :   -0.174770
   8 H :   -0.106385
   9 H :   -0.100137
  10 C :   -0.409855
  11 H :   -0.316500
  12 H :   -0.102436
  13 C :    0.808180
  14 H :   -0.067108
  15 H :   -0.058630
  16 H :   -0.109821
  17 H :   -0.163899
  18 H :    0.018768
Sum of atomic charges:   -0.0000000

LOEWDIN ATOMIC CHARGES
----------------------
   0 C :    0.036959
   1 N :    0.015061
   2 C :   -0.268673
   3 N :    0.215352
   4 C :    0.142077
   5 H :   -0.103609
   6 H :   -0.103268
   7 H :    0.024407
   8 H :   -0.021083
   9 H :    0.011830
  10 C :   -0.067704
  11 H :    0.016238
  12 H :    0.003581
  13 C :    0.131992
  14 H :    0.017294
  15 H :    0.019297
  16 H :   -0.030969
  17 H :   -0.019461
  18 H :   -0.019321

  Mayer bond orders larger than 0.100000
B(  0-C ,  1-N ) :   0.9512 B(  0-C , 10-C ) :   1.1291 B(  0-C , 11-H ) :   0.8296
B(  0-C , 12-H ) :   0.7487 B(  0-C , 14-H ) :   0.1476 B(  0-C , 15-H ) :   0.1470
B(  1-N ,  2-C ) :   1.0122 B(  1-N ,  4-C ) :   0.2302 B(  1-N ,  7-H ) :   1.1140
B(  1-N , 11-H ) :   0.2152 B(  1-N , 12-H ) :   0.1463 B(  2-C ,  3-N ) :   1.0448
B(  2-C ,  4-C ) :   1.9131 B(  2-C ,  5-H ) :   0.2638 B(  2-C ,  6-H ) :   0.3066
B(  2-C ,  7-H ) :  -0.1134 B(  3-N ,  4-C ) :   0.2438 B(  3-N ,  8-H ) :   0.9648
B(  3-N ,  9-H ) :   1.0898 B(  4-C ,  5-H ) :   0.6833 B(  4-C ,  6-H ) :   0.6759
B(  5-H ,  6-H ) :   0.2715 B(  8-H ,  9-H ) :  -0.1505 B( 10-C , 11-H ) :   0.1004
B( 10-C , 12-H ) :   0.1535 B( 10-C , 13-C ) :   1.3399 B( 10-C , 14-H ) :   0.9229
B( 10-C , 15-H ) :   0.8948 B( 10-C , 16-H ) :   0.2559 B( 10-C , 17-H ) :   0.2340
B( 10-C , 18-H ) :   0.2420 B( 11-H , 12-H ) :  -0.1172 B( 13-C , 14-H ) :   0.1010
B( 13-C , 16-H ) :   0.8169 B( 13-C , 17-H ) :   0.7488 B( 13-C , 18-H ) :   0.7263
B( 16-H , 18-H ) :   0.1035

Dispersion correction           -0.016961322
FINAL SINGLE POINT ENERGY      -306.615120552546

DIPOLE MOMENT
-------------
                                X             Y             Z
Electronic contribution:      0.77097      -3.84321      -3.06613
Nuclear contribution   :     -1.36148       3.89245       4.28682
                        -----------------------------------------
Total Dipole Moment    :     -0.59051       0.04924       1.22069
                        -----------------------------------------
Magnitude (a.u.)       :      1.35691
Magnitude (Debye)      :      3.44900

Rotational constants in cm-1:     0.130039     0.059901     0.055416
Rotational constants in MHz :  3898.472533  1795.778295  1661.317267

                             ****ORCA TERMINATED NORMALLY****
TOTAL RUN TIME: 0 days 0 hours 0 minutes 11 seconds 9 msec
