                         Program Version 5.0.0 -  RELEASE  -
|  1> !PBE D3BJ RIJCOSX def2-SVPD def2/J TightSCF xyzfile
|  2>
|  3> *xyzfile 0 1 D1.xyz
|  4>
|  5> %MaxCore 64000
|  6>
|  7> %pal nprocs 4
|  8> end
|  9>
| 10> %scf
| 11>   MaxIter 150
| 12> end
| 13>
| 14>
| 15>                          ****END OF INPUT****

CARTESIAN COORDINATES (ANGSTROEM)
---------------------------------
  C      2.234473   -2.989754   -2.397622
  C      2.756799   -2.945553   -3.765029
  C     -1.104325    0.251374   -2.860056
  C     -0.711893    0.842517   -4.218344
  H      0.154626    1.499800   -4.130909
  H     -1.538134    1.459222   -4.582671
  C     -0.397624   -0.205875   -5.288018
  C      1.987208   -2.590451   -4.818975
  N      0.743221   -3.017493   -4.913524
  N      2.499636   -1.848598   -5.803241
  H      3.309780   -1.292818   -5.558947
  H      1.801025   -1.304298   -6.289129
  H      3.716116   -2.628797   -3.829533
  H      0.395828   -3.627747   -4.185024
  H      0.039201   -2.454383   -5.371367
  F      0.617165   -0.005348   -5.998273
  O     -1.133173   -1.221380   -5.341465
  C      2.191199   -1.619503   -1.715492
  H      2.872783   -3.666368   -1.828014
  H      1.246188   -3.447444   -2.407842
  C      1.298729   -0.554314   -2.359773
  H      1.872917   -1.787955   -0.681310
  H      3.216809   -1.238432   -1.654428
  C     -0.196255   -0.863365   -2.325763
  H      1.612531   -0.371346   -3.393065
  H      1.480944    0.388638   -1.834444
  H     -0.404105   -1.761825   -2.909448
  H     -0.490439   -1.087880   -1.294131
  H     -1.143842    1.066711   -2.129680
  H     -2.114401   -0.156834   -2.930323

 Total Charge           Charge          ....    0
 Multiplicity           Mult            ....    1
 Number of Electrons    NEL             ....  102
 Basis Dimension        Dim             ....  402

ORBITAL ENERGIES
----------------

  NO   OCC          E(Eh)            E(eV)
   0   2.0000     -24.375534      -663.2920
   1   2.0000     -18.799619      -511.5636
   2   2.0000     -13.992478      -380.7547
   3   2.0000     -13.983297      -380.5049
   4   2.0000     -10.086675      -274.4724
   5   2.0000      -9.937340      -270.4088
   6   2.0000      -9.930823      -270.2314
   7   2.0000      -9.914521      -269.7878
   8   2.0000      -9.895831      -269.2792
   9   2.0000      -9.892916      -269.1999
  10   2.0000      -9.882220      -268.9089
  11   2.0000      -9.873160      -268.6624
  12   2.0000      -9.820210      -267.2215
  13   2.0000      -1.236034       -33.6342
  14   2.0000      -0.970407       -26.4061
  15   2.0000      -0.871657       -23.7190
  16   2.0000      -0.784425       -21.3453
  17   2.0000      -0.749878       -20.4052
  18   2.0000      -0.713465       -19.4144
  19   2.0000      -0.679419       -18.4879
  20   2.0000      -0.639314       -17.3966
  21   2.0000      -0.620839       -16.8939
  22   2.0000      -0.587365       -15.9830
  23   2.0000      -0.551478       -15.0065
  24   2.0000      -0.528714       -14.3870
  25   2.0000      -0.525090       -14.2884
  26   2.0000      -0.508077       -13.8255
  27   2.0000      -0.493905       -13.4398
  28   2.0000      -0.484038       -13.1713
  29   2.0000      -0.463468       -12.6116
  30   2.0000      -0.445426       -12.1207
  31   2.0000      -0.431230       -11.7344
  32   2.0000      -0.426291       -11.6000
  33   2.0000      -0.412758       -11.2317
  34   2.0000      -0.396066       -10.7775
  35   2.0000      -0.392066       -10.6687
  36   2.0000      -0.377351       -10.2683
  37   2.0000      -0.363817        -9.9000
  38   2.0000      -0.351396        -9.5620
  39   2.0000      -0.345027        -9.3887
  40   2.0000      -0.335347        -9.1253
  41   2.0000      -0.324713        -8.8359
  42   2.0000      -0.317275        -8.6335
  43   2.0000      -0.307528        -8.3683
  44   2.0000      -0.297883        -8.1058
  45   2.0000      -0.286226        -7.7886
  46   2.0000      -0.275861        -7.5066
  47   2.0000      -0.270519        -7.3612
  48   2.0000      -0.267486        -7.2787
  49   2.0000      -0.219440        -5.9713
  50   2.0000      -0.127207        -3.4615
  51   0.0000      -0.094749        -2.5783
  52   0.0000      -0.013567        -0.3692
  53   0.0000       0.008021         0.2183
  54   0.0000       0.012725         0.3463
  55   0.0000       0.014174         0.3857

MULLIKEN ATOMIC CHARGES
-----------------------
   0 C :    0.281355
   1 C :   -0.150591
   2 C :    0.556228
   3 C :    0.138959
   4 H :    0.200491
   5 H :   -0.261782
   6 C :    0.628687
   7 C :    0.379785
   8 N :    0.254475
   9 N :    0.109291
  10 H :    0.107233
  11 H :   -0.170869
  12 H :   -0.147066
  13 H :    0.059225
  14 H :   -0.470071
  15 F :   -0.363913
  16 O :   -0.585944
  17 C :    0.432024
  18 H :   -0.176312
  19 H :   -0.130808
  20 C :   -0.059087
  21 H :   -0.008941
  22 H :   -0.087274
  23 C :   -0.071152
  24 H :   -0.086420
  25 H :   -0.115772
  26 H :   -0.113206
  27 H :   -0.139143
  28 H :   -0.094718
  29 H :    0.085319
Sum of atomic charges:    0.0000000

LOEWDIN ATOMIC CHARGES
----------------------
   0 C :   -0.062085
   1 C :   -0.008684
   2 C :   -0.014385
   3 C :    0.051581
   4 H :    0.025756
   5 H :    0.041680
   6 C :   -0.005831
   7 C :   -0.234376
   8 N :    0.246138
   9 N :    0.222654
  10 H :    0.004768
  11 H :   -0.068000
  12 H :   -0.056370
  13 H :    0.002064
  14 H :   -0.103260
  15 F :   -0.016409
  16 O :   -0.101531
  17 C :   -0.024066
  18 H :    0.011559
  19 H :   -0.006962
  20 C :   -0.029787
  21 H :    0.018396
  22 H :    0.022940
  23 C :   -0.025043
  24 H :    0.001733
  25 H :    0.024876
  26 H :   -0.005500
  27 H :    0.030765
  28 H :    0.028518
  29 H :    0.028861

  Mayer bond orders larger than 0.100000
B(  0-C ,  1-C ) :   1.2261 B(  0-C ,  7-C ) :   0.1499 B(  0-C , 12-H ) :   0.3838
B(  0-C , 17-C ) :   1.1594 B(  0-C , 18-H ) :   0.7097 B(  0-C , 19-H ) :   0.7467
B(  0-C , 21-H ) :   0.2211 B(  0-C , 22-H ) :   0.2083 B(  1-C ,  7-C ) :   1.4425
B(  1-C ,  8-N ) :   0.1718 B(  1-C ,  9-N ) :   0.3541 B(  1-C , 12-H ) :   0.5066
B(  1-C , 18-H ) :   0.2240 B(  1-C , 19-H ) :   0.2243 B(  2-C ,  3-C ) :   1.2038
B(  2-C ,  4-H ) :   0.1139 B(  2-C ,  5-H ) :   0.1890 B(  2-C , 23-C ) :   1.2710
B(  2-C , 26-H ) :   0.1063 B(  2-C , 28-H ) :   0.7514 B(  2-C , 29-H ) :   0.5964
B(  3-C ,  4-H ) :   0.7788 B(  3-C ,  5-H ) :   0.7626 B(  3-C ,  6-C ) :   1.2069
B(  3-C , 23-C ) :   0.1454 B(  3-C , 28-H ) :   0.1628 B(  3-C , 29-H ) :   0.1092
B(  4-H ,  6-C ) :   0.1628 B(  5-H ,  6-C ) :   0.1925 B(  6-C , 15-F ) :   0.6490
B(  6-C , 16-O ) :   1.6080 B(  7-C ,  8-N ) :   1.0006 B(  7-C ,  9-N ) :   0.8421
B(  7-C , 11-H ) :   0.1143 B(  7-C , 12-H ) :   0.3668 B(  8-N ,  9-N ) :   0.1439
B(  8-N , 13-H ) :   0.8762 B(  8-N , 14-H ) :   1.1702 B(  9-N , 10-H ) :   0.8592
B(  9-N , 11-H ) :   0.8062 B( 13-H , 14-H ) :  -0.2421 B( 14-H , 16-O ) :   0.1799
B( 17-C , 18-H ) :   0.1221 B( 17-C , 19-H ) :   0.1335 B( 17-C , 20-C ) :   1.2585
B( 17-C , 21-H ) :   0.7313 B( 17-C , 22-H ) :   0.6531 B( 17-C , 24-H ) :   0.1336
B( 20-C , 21-H ) :   0.1752 B( 20-C , 22-H ) :   0.2888 B( 20-C , 23-C ) :   1.3126
B( 20-C , 24-H ) :   0.8919 B( 20-C , 25-H ) :   0.7514 B( 20-C , 26-H ) :   0.1505
B( 20-C , 27-H ) :   0.2220 B( 21-H , 22-H ) :  -0.1344 B( 23-C , 24-H ) :   0.1567
B( 23-C , 25-H ) :   0.2210 B( 23-C , 26-H ) :   0.9179 B( 23-C , 27-H ) :   0.7532
B( 23-C , 28-H ) :   0.1814 B( 23-C , 29-H ) :   0.2680 B( 28-H , 29-H ) :  -0.1184

Dispersion correction           -0.035215986
FINAL SINGLE POINT ENERGY      -636.549627945113

DIPOLE MOMENT
-------------
                                X             Y             Z
Electronic contribution:     -2.94531       2.05506     -14.51237
Nuclear contribution   :      2.31842      -0.27661      14.74721
                        -----------------------------------------
Total Dipole Moment    :     -0.62689       1.77845       0.23484
                        -----------------------------------------
Magnitude (a.u.)       :      1.90027
Magnitude (Debye)      :      4.83011

Rotational constants in cm-1:     0.032691     0.023990     0.017099
Rotational constants in MHz :   980.050971   719.190545   512.606858

                             ****ORCA TERMINATED NORMALLY****
TOTAL RUN TIME: 0 days 0 hours 0 minutes 43 seconds 962 msec
