                         Program Version 5.0.0 -  RELEASE  -
|  1> !PBE D3BJ RIJCOSX def2-SVPD def2/J TightSCF xyzfile
|  2>
|  3> *xyzfile 0 1 D5.xyz
|  4>
|  5> %MaxCore 64000
|  6>
|  7> %pal nprocs 4
|  8> end
|  9>
| 10> %scf
| 11>   MaxIter 150
| 12> end
| 13>
| 14>
| 15>                          ****END OF INPUT****

CARTESIAN COORDINATES (ANGSTROEM)
---------------------------------
  C      2.234473   -2.989754   -2.397622
  N      2.756799   -2.945553   -3.765029
  C     -1.104325    0.251374   -2.860056
  C     -0.711893    0.842517   -4.218344
  H      0.154626    1.499800   -4.130909
  H     -1.538134    1.459222   -4.582671
  C     -0.397624   -0.205875   -5.288018
  C      1.987208   -2.590451   -4.818975
  C      0.743221   -3.017493   -4.913524
  N      2.499636   -1.848598   -5.803241
  H      3.309780   -1.292818   -5.558947
  H      1.801025   -1.304298   -6.289129
  H      3.716116   -2.628797   -3.829533
  H      0.395828   -3.627747   -4.185024
  H      0.039201   -2.454383   -5.371367
  O      0.617165   -0.005348   -5.998273
  F     -1.133173   -1.221380   -5.341465
  C      2.191199   -1.619503   -1.715492
  H      2.872783   -3.666368   -1.828014
  H      1.246188   -3.447444   -2.407842
  C      1.298729   -0.554314   -2.359773
  H      1.872917   -1.787955   -0.681310
  H      3.216809   -1.238432   -1.654428
  C     -0.196255   -0.863365   -2.325763
  H      1.612531   -0.371346   -3.393065
  H      1.480944    0.388638   -1.834444
  H     -0.404105   -1.761825   -2.909448
  H     -0.490439   -1.087880   -1.294131
  H     -1.143842    1.066711   -2.129680
  H     -2.114401   -0.156834   -2.930323

 Total Charge           Charge          ....    0
 Multiplicity           Mult            ....    1
 Number of Electrons    NEL             ....  102
 Basis Dimension        Dim             ....  402

ORBITAL ENERGIES
----------------

  NO   OCC          E(Eh)            E(eV)
   0   2.0000     -24.350921      -662.6222
   1   2.0000     -18.785100      -511.1686
   2   2.0000     -13.998559      -380.9202
   3   2.0000     -13.977897      -380.3579
   4   2.0000     -10.075532      -274.1692
   5   2.0000      -9.929104      -270.1846
   6   2.0000      -9.926263      -270.1073
   7   2.0000      -9.924904      -270.0704
   8   2.0000      -9.913545      -269.7613
   9   2.0000      -9.898718      -269.3578
  10   2.0000      -9.897752      -269.3315
  11   2.0000      -9.897117      -269.3142
  12   2.0000      -9.805037      -266.8086
  13   2.0000      -1.213946       -33.0331
  14   2.0000      -0.954561       -25.9749
  15   2.0000      -0.868592       -23.6356
  16   2.0000      -0.793158       -21.5829
  17   2.0000      -0.747885       -20.3510
  18   2.0000      -0.708843       -19.2886
  19   2.0000      -0.661930       -18.0120
  20   2.0000      -0.634212       -17.2578
  21   2.0000      -0.619068       -16.8457
  22   2.0000      -0.596458       -16.2305
  23   2.0000      -0.556043       -15.1307
  24   2.0000      -0.526689       -14.3319
  25   2.0000      -0.512206       -13.9378
  26   2.0000      -0.492225       -13.3941
  27   2.0000      -0.487281       -13.2596
  28   2.0000      -0.478919       -13.0321
  29   2.0000      -0.461739       -12.5645
  30   2.0000      -0.437245       -11.8980
  31   2.0000      -0.432279       -11.7629
  32   2.0000      -0.424714       -11.5571
  33   2.0000      -0.404035       -10.9944
  34   2.0000      -0.397206       -10.8085
  35   2.0000      -0.376296       -10.2395
  36   2.0000      -0.371116       -10.0986
  37   2.0000      -0.366479        -9.9724
  38   2.0000      -0.348452        -9.4818
  39   2.0000      -0.342852        -9.3295
  40   2.0000      -0.334650        -9.1063
  41   2.0000      -0.329432        -8.9643
  42   2.0000      -0.318386        -8.6637
  43   2.0000      -0.317089        -8.6284
  44   2.0000      -0.300568        -8.1789
  45   2.0000      -0.290875        -7.9151
  46   2.0000      -0.289388        -7.8746
  47   2.0000      -0.282454        -7.6860
  48   2.0000      -0.255740        -6.9590
  49   2.0000      -0.201354        -5.4791
  50   2.0000      -0.139093        -3.7849
  51   0.0000      -0.079061        -2.1514
  52   0.0000      -0.010166        -0.2766
  53   0.0000       0.001297         0.0353
  54   0.0000       0.012395         0.3373
  55   0.0000       0.020977         0.5708

MULLIKEN ATOMIC CHARGES
-----------------------
   0 C :    0.839114
   1 N :   -0.399745
   2 C :    0.561050
   3 C :    0.152846
   4 H :    0.181953
   5 H :   -0.269604
   6 C :    0.532473
   7 C :    0.483261
   8 C :    0.696279
   9 N :    0.122573
  10 H :    0.030068
  11 H :   -0.154025
  12 H :   -0.233079
  13 H :   -0.016028
  14 H :   -0.738163
  15 O :   -0.473642
  16 F :   -0.476668
  17 C :    0.350637
  18 H :   -0.401212
  19 H :    0.012839
  20 C :   -0.034716
  21 H :    0.020825
  22 H :   -0.076639
  23 C :   -0.125229
  24 H :   -0.149397
  25 H :   -0.155552
  26 H :   -0.107658
  27 H :   -0.125826
  28 H :   -0.104437
  29 H :    0.057704
Sum of atomic charges:    0.0000000

LOEWDIN ATOMIC CHARGES
----------------------
   0 C :    0.052850
   1 N :    0.014382
   2 C :   -0.021975
   3 C :    0.057305
   4 H :    0.034426
   5 H :    0.039269
   6 C :   -0.000702
   7 C :   -0.240292
   8 C :    0.181210
   9 N :    0.226768
  10 H :   -0.011143
  11 H :   -0.083533
  12 H :    0.010287
  13 H :   -0.088620
  14 H :   -0.138839
  15 O :   -0.113951
  16 F :   -0.019170
  17 C :   -0.018790
  18 H :    0.017797
  19 H :    0.006142
  20 C :   -0.025520
  21 H :    0.021796
  22 H :    0.019251
  23 C :   -0.026837
  24 H :    0.005610
  25 H :    0.026319
  26 H :   -0.004141
  27 H :    0.028658
  28 H :    0.026479
  29 H :    0.024962

  Mayer bond orders larger than 0.100000
B(  0-C ,  1-N ) :   0.9398 B(  0-C ,  8-C ) :   0.1124 B(  0-C , 17-C ) :   1.1013
B(  0-C , 18-H ) :   0.7610 B(  0-C , 19-H ) :   0.7301 B(  0-C , 21-H ) :   0.1716
B(  0-C , 22-H ) :   0.1274 B(  1-N ,  7-C ) :   0.9853 B(  1-N ,  8-C ) :   0.3398
B(  1-N ,  9-N ) :   0.1933 B(  1-N , 12-H ) :   1.0836 B(  1-N , 18-H ) :   0.2296
B(  1-N , 19-H ) :   0.1263 B(  2-C ,  3-C ) :   1.1737 B(  2-C ,  5-H ) :   0.1840
B(  2-C , 23-C ) :   1.2808 B(  2-C , 28-H ) :   0.7613 B(  2-C , 29-H ) :   0.6058
B(  3-C ,  4-H ) :   0.8043 B(  3-C ,  5-H ) :   0.7406 B(  3-C ,  6-C ) :   1.2121
B(  3-C , 23-C ) :   0.1166 B(  3-C , 28-H ) :   0.1569 B(  3-C , 29-H ) :   0.1075
B(  4-H ,  5-H ) :  -0.1047 B(  4-H ,  6-C ) :   0.2014 B(  5-H ,  6-C ) :   0.2212
B(  6-C , 14-H ) :   0.1560 B(  6-C , 15-O ) :   1.6052 B(  6-C , 16-F ) :   0.6527
B(  7-C ,  8-C ) :   1.6995 B(  7-C ,  9-N ) :   0.7928 B(  7-C , 13-H ) :   0.3521
B(  7-C , 14-H ) :   0.1596 B(  8-C ,  9-N ) :   0.2664 B(  8-C , 13-H ) :   0.3231
B(  8-C , 14-H ) :   0.2946 B(  9-N , 10-H ) :   0.8497 B(  9-N , 11-H ) :   0.8968
B( 11-H , 15-O ) :   0.1258 B( 13-H , 14-H ) :  -0.1023 B( 14-H , 16-F ) :   0.2408
B( 15-O , 16-F ) :   0.1005 B( 17-C , 18-H ) :   0.1202 B( 17-C , 19-H ) :   0.1325
B( 17-C , 20-C ) :   1.2457 B( 17-C , 21-H ) :   0.7559 B( 17-C , 22-H ) :   0.7012
B( 17-C , 24-H ) :   0.1338 B( 18-H , 19-H ) :  -0.1561 B( 20-C , 21-H ) :   0.1897
B( 20-C , 22-H ) :   0.2575 B( 20-C , 23-C ) :   1.3179 B( 20-C , 24-H ) :   0.9043
B( 20-C , 25-H ) :   0.7968 B( 20-C , 26-H ) :   0.1637 B( 20-C , 27-H ) :   0.2472
B( 21-H , 22-H ) :  -0.1096 B( 23-C , 24-H ) :   0.1679 B( 23-C , 25-H ) :   0.2275
B( 23-C , 26-H ) :   0.9196 B( 23-C , 27-H ) :   0.7408 B( 23-C , 28-H ) :   0.1839
B( 23-C , 29-H ) :   0.2589 B( 28-H , 29-H ) :  -0.1284

Dispersion correction           -0.035246701
FINAL SINGLE POINT ENERGY      -636.536575181408

DIPOLE MOMENT
-------------
                                X             Y             Z
Electronic contribution:     -4.29889       0.09453     -12.46601
Nuclear contribution   :      4.07548       1.14852      13.79455
                        -----------------------------------------
Total Dipole Moment    :     -0.22341       1.24305       1.32854
                        -----------------------------------------
Magnitude (a.u.)       :      1.83305
Magnitude (Debye)      :      4.65925

Rotational constants in cm-1:     0.033274     0.023559     0.016968
Rotational constants in MHz :   997.539108   706.293545   508.690532

                             ****ORCA TERMINATED NORMALLY****
TOTAL RUN TIME: 0 days 0 hours 0 minutes 43 seconds 73 msec
