                         Program Version 5.0.0 -  RELEASE  -
|  1> !LC-PBE RIJCOSX def2-TZVP def2/J TightSCF
|  2> *xyz -1 1
|  3> C          3.80351        1.37472       -3.26081
|  4> C          3.93993        0.32036       -4.36773
|  5> H          4.10504       -0.65508       -3.90773
|  6> H          3.02280        0.28052       -4.95712
|  7> C          5.10585        0.66802       -5.30546
|  8> O          4.80913        1.15019       -6.41436
|  9> O          6.26737        0.56500       -4.81948
| 10> H          3.64113        2.33595       -3.70189
| 11> H          4.69995        1.39701       -2.67703
| 12> H          2.97435        1.12625       -2.63180
| 13> *
| 14>
| 15> %MaxCore 64000
| 16>
| 17> %pal nprocs 4
| 18> end
| 19>
| 20> %scf
| 21>   MaxIter 150
| 22> end
| 23>
| 24>
| 25>                          ****END OF INPUT****

CARTESIAN COORDINATES (ANGSTROEM)
---------------------------------
  C      3.803510    1.374720   -3.260810
  C      3.939930    0.320360   -4.367730
  H      4.105040   -0.655080   -3.907730
  H      3.022800    0.280520   -4.957120
  C      5.105850    0.668020   -5.305460
  O      4.809130    1.150190   -6.414360
  O      6.267370    0.565000   -4.819480
  H      3.641130    2.335950   -3.701890
  H      4.699950    1.397010   -2.677030
  H      2.974350    1.126250   -2.631800

 Total Charge           Charge          ....   -1
 Multiplicity           Mult            ....    1
 Number of Electrons    NEL             ....   40
 Basis Dimension        Dim             ....  185

ORBITAL ENERGIES
----------------

  NO   OCC          E(Eh)            E(eV)
   0   2.0000     -18.701563      -508.8954
   1   2.0000     -18.697291      -508.7792
   2   2.0000      -9.994966      -271.9769
   3   2.0000      -9.948589      -270.7149
   4   2.0000      -9.936471      -270.3851
   5   2.0000      -0.981728       -26.7142
   6   2.0000      -0.879801       -23.9406
   7   2.0000      -0.779848       -21.2207
   8   2.0000      -0.633799       -17.2466
   9   2.0000      -0.467782       -12.7290
  10   2.0000      -0.434476       -11.8227
  11   2.0000      -0.399754       -10.8779
  12   2.0000      -0.369769       -10.0619
  13   2.0000      -0.348052        -9.4710
  14   2.0000      -0.343733        -9.3534
  15   2.0000      -0.306662        -8.3447
  16   2.0000      -0.297976        -8.1083
  17   2.0000      -0.170817        -4.6482
  18   2.0000      -0.163622        -4.4524
  19   2.0000      -0.156993        -4.2720
  20   0.0000       0.267517         7.2795
  21   0.0000       0.308718         8.4006
  22   0.0000       0.329503         8.9662
  23   0.0000       0.332703         9.0533
  24   0.0000       0.355393         9.6707

MULLIKEN ATOMIC CHARGES
-----------------------
   0 C :   -0.434406
   1 C :   -0.221214
   2 H :    0.077604
   3 H :    0.083513
   4 C :    0.160758
   5 O :   -0.496067
   6 O :   -0.529858
   7 H :    0.130072
   8 H :    0.137493
   9 H :    0.092105
Sum of atomic charges:   -1.0000000

LOEWDIN ATOMIC CHARGES
----------------------
   0 C :   -0.342456
   1 C :   -0.304656
   2 H :    0.125788
   3 H :    0.126304
   4 C :   -0.713921
   5 O :   -0.100037
   6 O :   -0.131745
   7 H :    0.118555
   8 H :    0.120566
   9 H :    0.101603

  Mayer bond orders larger than 0.100000
B(  0-C ,  1-C ) :   0.9527 B(  0-C ,  7-H ) :   0.9812 B(  0-C ,  8-H ) :   0.9701
B(  0-C ,  9-H ) :   0.9810 B(  1-C ,  2-H ) :   0.9667 B(  1-C ,  3-H ) :   0.9677
B(  1-C ,  4-C ) :   0.9380 B(  4-C ,  5-O ) :   1.9040 B(  4-C ,  6-O ) :   1.8480

FINAL SINGLE POINT ENERGY      -267.151994093453

DIPOLE MOMENT
-------------
                                X             Y             Z
Electronic contribution:      3.69061      -0.49497      -4.46903
Nuclear contribution   :     -5.15232       0.33441       5.87398
                        -----------------------------------------
Total Dipole Moment    :     -1.46171      -0.16056       1.40495
                        -----------------------------------------
Magnitude (a.u.)       :      2.03378
Magnitude (Debye)      :      5.16945

Rotational constants in cm-1:     0.295355     0.137164     0.110193
Rotational constants in MHz :  8854.523706  4112.077980  3303.490503

                             ****ORCA TERMINATED NORMALLY****
TOTAL RUN TIME: 0 days 0 hours 0 minutes 21 seconds 972 msec
