                         Program Version 5.0.0 -  RELEASE  -
|  1> !LC-PBE RIJCOSX def2-TZVP def2/J TightSCF
|  2> *xyz 1 1
|  3> C          3.90595        2.81985       -3.75292
|  4> N          5.29562        3.13151       -4.10533
|  5> C          3.80351        1.37472       -3.26081
|  6> C          5.70862        3.46889       -5.32419
|  7> N          6.90470        3.03895       -5.71708
|  8> N          4.98188        4.29357       -6.09746
|  9> H          5.00055        4.10131       -7.08776
| 10> H          4.08469        4.59690       -5.73965
| 11> H          5.96336        2.52611       -3.64239
| 12> H          7.04716        2.06686       -5.47360
| 13> H          7.19815        3.30799       -6.64523
| 14> H          3.28202        2.94919       -4.64026
| 15> H          3.56525        3.51457       -2.98252
| 16> H          4.14157        0.71142       -4.02935
| 17> H          2.78528        1.15146       -3.01944
| 18> H          4.41205        1.25066       -2.38949
| 19> *
| 20>
| 21> %MaxCore 64000
| 22>
| 23> %pal nprocs 4
| 24> end
| 25>
| 26> %scf
| 27>   MaxIter 150
| 28> end
| 29>
| 30>
| 31>                          ****END OF INPUT****

CARTESIAN COORDINATES (ANGSTROEM)
---------------------------------
  C      3.905950    2.819850   -3.752920
  N      5.295620    3.131510   -4.105330
  C      3.803510    1.374720   -3.260810
  C      5.708620    3.468890   -5.324190
  N      6.904700    3.038950   -5.717080
  N      4.981880    4.293570   -6.097460
  H      5.000550    4.101310   -7.087760
  H      4.084690    4.596900   -5.739650
  H      5.963360    2.526110   -3.642390
  H      7.047160    2.066860   -5.473600
  H      7.198150    3.307990   -6.645230
  H      3.282020    2.949190   -4.640260
  H      3.565250    3.514570   -2.982520
  H      4.141570    0.711420   -4.029350
  H      2.785280    1.151460   -3.019440
  H      4.412050    1.250660   -2.389490

 Total Charge           Charge          ....    1
 Multiplicity           Mult            ....    1
 Number of Electrons    NEL             ....   48
 Basis Dimension        Dim             ....  246

ORBITAL ENERGIES
----------------

  NO   OCC          E(Eh)            E(eV)
   0   2.0000     -14.443833      -393.0367
   1   2.0000     -14.442150      -392.9909
   2   2.0000     -14.441099      -392.9623
   3   2.0000     -10.462613      -284.7022
   4   2.0000     -10.326783      -281.0060
   5   2.0000     -10.256560      -279.0952
   6   2.0000      -1.403713       -38.1970
   7   2.0000      -1.282545       -34.8998
   8   2.0000      -1.272031       -34.6137
   9   2.0000      -1.109295       -30.1854
  10   2.0000      -0.995055       -27.0768
  11   2.0000      -0.969308       -26.3762
  12   2.0000      -0.930158       -25.3109
  13   2.0000      -0.896213       -24.3872
  14   2.0000      -0.849897       -23.1269
  15   2.0000      -0.829346       -22.5676
  16   2.0000      -0.798371       -21.7248
  17   2.0000      -0.768801       -20.9201
  18   2.0000      -0.741683       -20.1822
  19   2.0000      -0.698009       -18.9938
  20   2.0000      -0.670278       -18.2392
  21   2.0000      -0.653475       -17.7819
  22   2.0000      -0.624511       -16.9938
  23   2.0000      -0.587424       -15.9846
  24   0.0000      -0.099066        -2.6957
  25   0.0000      -0.066774        -1.8170
  26   0.0000      -0.032175        -0.8755
  27   0.0000      -0.018246        -0.4965
  28   0.0000       0.003997         0.1088

MULLIKEN ATOMIC CHARGES
-----------------------
   0 C :   -0.197693
   1 N :   -0.208334
   2 C :   -0.495685
   3 C :    0.327709
   4 N :   -0.393187
   5 N :   -0.413566
   6 H :    0.303308
   7 H :    0.307182
   8 H :    0.271073
   9 H :    0.300652
  10 H :    0.296911
  11 H :    0.152509
  12 H :    0.203763
  13 H :    0.162433
  14 H :    0.195859
  15 H :    0.187065
Sum of atomic charges:    1.0000000

LOEWDIN ATOMIC CHARGES
----------------------
   0 C :   -0.298163
   1 N :    0.166661
   2 C :   -0.305269
   3 C :   -0.415402
   4 N :    0.054213
   5 N :    0.056201
   6 H :    0.202232
   7 H :    0.202156
   8 H :    0.218325
   9 H :    0.207073
  10 H :    0.203133
  11 H :    0.144377
  12 H :    0.153606
  13 H :    0.129503
  14 H :    0.145957
  15 H :    0.135396

  Mayer bond orders larger than 0.100000
B(  0-C ,  1-N ) :   0.8508 B(  0-C ,  2-C ) :   0.9616 B(  0-C , 11-H ) :   0.9778
B(  0-C , 12-H ) :   0.9475 B(  1-N ,  3-C ) :   1.4059 B(  1-N ,  8-H ) :   0.9011
B(  2-C , 13-H ) :   0.9617 B(  2-C , 14-H ) :   0.9600 B(  2-C , 15-H ) :   0.9624
B(  3-C ,  4-N ) :   1.3092 B(  3-C ,  5-N ) :   1.3264 B(  4-N ,  9-H ) :   0.8842
B(  4-N , 10-H ) :   0.8924 B(  5-N ,  6-H ) :   0.8825 B(  5-N ,  7-H ) :   0.8913

FINAL SINGLE POINT ENERGY      -283.588854543592

DIPOLE MOMENT
-------------
                                X             Y             Z
Electronic contribution:      3.50978       3.37673      -2.69880
Nuclear contribution   :     -3.31456      -3.64300       1.57303
                        -----------------------------------------
Total Dipole Moment    :      0.19521      -0.26626      -1.12577
                        -----------------------------------------
Magnitude (a.u.)       :      1.17318
Magnitude (Debye)      :      2.98199

Rotational constants in cm-1:     0.229487     0.071000     0.059428
Rotational constants in MHz :  6879.840828  2128.520047  1781.605314

                             ****ORCA TERMINATED NORMALLY****
TOTAL RUN TIME: 0 days 0 hours 0 minutes 40 seconds 701 msec
