                         Program Version 5.0.0 -  RELEASE  -
|  1> !LC-PBE RIJCOSX def2-TZVP def2/J TightSCF xyzfile
|  2>
|  3> *xyzfile 0 1 B.xyz
|  4>
|  5> %MaxCore 64000
|  6>
|  7> %pal nprocs 18
|  8> end
|  9>
| 10> %scf
| 11>   MaxIter 150
| 12> end
| 13>
| 14>
| 15>                          ****END OF INPUT****

CARTESIAN COORDINATES (ANGSTROEM)
---------------------------------
  C      3.905947    2.819855   -3.752920
  N      5.295615    3.131515   -4.105334
  C      3.803511    1.374716   -3.260807
  C      3.939934    0.320362   -4.367729
  H      4.105043   -0.655085   -3.907733
  H      3.022801    0.280517   -4.957117
  C      5.105846    0.668022   -5.305463
  C      5.708619    3.468885   -5.324190
  N      6.904696    3.038954   -5.717084
  N      4.981884    4.293570   -6.097457
  H      5.000546    4.101311   -7.087761
  H      4.084693    4.596899   -5.739652
  H      5.963358    2.526112   -3.642391
  H      7.047164    2.066861   -5.473604
  H      7.198145    3.307994   -6.645225
  H      3.282025    2.949187   -4.640259
  H      3.565254    3.514574   -2.982523
  H      4.574833    1.215157   -2.500443
  H      2.843514    1.260845   -2.751465
  O      4.809132    1.150187   -6.414361
  O      6.267366    0.564999   -4.819481

 Total Charge           Charge          ....    0
 Multiplicity           Mult            ....    1
 Number of Electrons    NEL             ....   78
 Basis Dimension        Dim             ....  376

ORBITAL ENERGIES
----------------

  NO   OCC          E(Eh)            E(eV)
   0   2.0000     -18.889801      -514.0176
   1   2.0000     -18.887068      -513.9433
   2   2.0000     -14.279674      -388.5697
   3   2.0000     -14.273360      -388.3979
   4   2.0000     -14.248194      -387.7131
   5   2.0000     -10.291486      -280.0456
   6   2.0000     -10.178385      -276.9679
   7   2.0000     -10.177595      -276.9464
   8   2.0000     -10.128217      -275.6028
   9   2.0000     -10.093929      -274.6698
  10   2.0000      -1.232686       -33.5431
  11   2.0000      -1.171476       -31.8775
  12   2.0000      -1.116395       -30.3787
  13   2.0000      -1.095808       -29.8185
  14   2.0000      -1.069647       -29.1066
  15   2.0000      -0.973744       -26.4969
  16   2.0000      -0.884051       -24.0562
  17   2.0000      -0.814537       -22.1647
  18   2.0000      -0.786191       -21.3934
  19   2.0000      -0.761020       -20.7084
  20   2.0000      -0.725184       -19.7333
  21   2.0000      -0.685858       -18.6632
  22   2.0000      -0.659974       -17.9588
  23   2.0000      -0.647895       -17.6301
  24   2.0000      -0.622752       -16.9459
  25   2.0000      -0.619721       -16.8635
  26   2.0000      -0.576547       -15.6886
  27   2.0000      -0.568421       -15.4675
  28   2.0000      -0.552042       -15.0218
  29   2.0000      -0.531308       -14.4576
  30   2.0000      -0.520213       -14.1557
  31   2.0000      -0.514433       -13.9984
  32   2.0000      -0.476756       -12.9732
  33   2.0000      -0.466964       -12.7067
  34   2.0000      -0.450904       -12.2697
  35   2.0000      -0.420042       -11.4299
  36   2.0000      -0.361313        -9.8318
  37   2.0000      -0.349224        -9.5029
  38   2.0000      -0.340804        -9.2737
  39   0.0000       0.071990         1.9589
  40   0.0000       0.092364         2.5133
  41   0.0000       0.116664         3.1746
  42   0.0000       0.128713         3.5024
  43   0.0000       0.148370         4.0374

MULLIKEN ATOMIC CHARGES
-----------------------
   0 C :   -0.205554
   1 N :   -0.221758
   2 C :   -0.376979
   3 C :   -0.250170
   4 H :    0.146765
   5 H :    0.146070
   6 C :    0.166790
   7 C :    0.243399
   8 N :   -0.353927
   9 N :   -0.441417
  10 H :    0.297304
  11 H :    0.276774
  12 H :    0.288605
  13 H :    0.308963
  14 H :    0.254896
  15 H :    0.168783
  16 H :    0.168772
  17 H :    0.175166
  18 H :    0.154869
  19 O :   -0.424692
  20 O :   -0.522659
Sum of atomic charges:    0.0000000

LOEWDIN ATOMIC CHARGES
----------------------
   0 C :   -0.284248
   1 N :    0.161056
   2 C :   -0.283119
   3 C :   -0.256148
   4 H :    0.149795
   5 H :    0.146251
   6 C :   -0.686271
   7 C :   -0.431766
   8 N :    0.048514
   9 N :    0.026625
  10 H :    0.194895
  11 H :    0.187049
  12 H :    0.216934
  13 H :    0.180951
  14 H :    0.184362
  15 H :    0.148527
  16 H :    0.138686
  17 H :    0.151087
  18 H :    0.148795
  19 O :   -0.047478
  20 O :   -0.094496

  Mayer bond orders larger than 0.100000
B(  0-C ,  1-N ) :   0.8844 B(  0-C ,  2-C ) :   0.9370 B(  0-C , 15-H ) :   0.9766
B(  0-C , 16-H ) :   0.9704 B(  1-N ,  7-C ) :   1.3714 B(  1-N , 12-H ) :   0.8834
B(  2-C ,  3-C ) :   0.9341 B(  2-C , 17-H ) :   0.9709 B(  2-C , 18-H ) :   0.9747
B(  3-C ,  4-H ) :   0.9640 B(  3-C ,  5-H ) :   0.9807 B(  3-C ,  6-C ) :   0.9308
B(  6-C , 19-O ) :   1.8699 B(  6-C , 20-O ) :   1.7098 B(  7-C ,  8-N ) :   1.3904
B(  7-C ,  9-N ) :   1.2599 B(  7-C , 19-O ) :   0.1534 B(  8-N , 13-H ) :   0.7967
B(  8-N , 14-H ) :   0.9145 B(  9-N , 10-H ) :   0.8962 B(  9-N , 11-H ) :   0.9105
B( 13-H , 20-O ) :   0.1439

FINAL SINGLE POINT ENERGY      -510.549913189614

DIPOLE MOMENT
-------------
                                X             Y             Z
Electronic contribution:      4.11432       0.43464      -3.42973
Nuclear contribution   :     -4.94498       2.03334       3.78956
                        -----------------------------------------
Total Dipole Moment    :     -0.83066       2.46798       0.35983
                        -----------------------------------------
Magnitude (a.u.)       :      2.62876
Magnitude (Debye)      :      6.68178

Rotational constants in cm-1:     0.062533     0.042832     0.033687
Rotational constants in MHz :  1874.701390  1284.063603  1009.911042

                             ****ORCA TERMINATED NORMALLY****
TOTAL RUN TIME: 0 days 0 hours 0 minutes 32 seconds 414 msec
