                         Program Version 5.0.0 -  RELEASE  -
|  1> !LC-PBE RIJCOSX def2-TZVP def2/J TightSCF
|  2> *xyz 0 1
|  3> C          3.80351        1.37472       -3.26081
|  4> C          3.93993        0.32036       -4.36773
|  5> H          4.10504       -0.65508       -3.90773
|  6> H          3.02280        0.28052       -4.95712
|  7> C          5.10585        0.66802       -5.30546
|  8> F          4.80913        1.15019       -6.41436
|  9> O          6.26737        0.56500       -4.81948
| 10> H          3.64113        2.33595       -3.70189
| 11> H          4.69995        1.39701       -2.67703
| 12> H          2.97435        1.12625       -2.63180
| 13> *
| 14>
| 15> %MaxCore 64000
| 16>
| 17> %pal nprocs 4
| 18> end
| 19>
| 20> %scf
| 21>   MaxIter 150
| 22> end
| 23>
| 24>
| 25>                          ****END OF INPUT****

CARTESIAN COORDINATES (ANGSTROEM)
---------------------------------
  C      3.803510    1.374720   -3.260810
  C      3.939930    0.320360   -4.367730
  H      4.105040   -0.655080   -3.907730
  H      3.022800    0.280520   -4.957120
  C      5.105850    0.668020   -5.305460
  F      4.809130    1.150190   -6.414360
  O      6.267370    0.565000   -4.819480
  H      3.641130    2.335950   -3.701890
  H      4.699950    1.397010   -2.677030
  H      2.974350    1.126250   -2.631800

 Total Charge           Charge          ....    0
 Multiplicity           Mult            ....    1
 Number of Electrons    NEL             ....   40
 Basis Dimension        Dim             ....  185

ORBITAL ENERGIES
----------------

  NO   OCC          E(Eh)            E(eV)
   0   2.0000     -24.566285      -668.4826
   1   2.0000     -18.982244      -516.5331
   2   2.0000     -10.302615      -280.3484
   3   2.0000     -10.148569      -276.1566
   4   2.0000     -10.120356      -275.3889
   5   2.0000      -1.486726       -40.4559
   6   2.0000      -1.194841       -32.5133
   7   2.0000      -0.980559       -26.6824
   8   2.0000      -0.854836       -23.2613
   9   2.0000      -0.802544       -21.8383
  10   2.0000      -0.711776       -19.3684
  11   2.0000      -0.694971       -18.9111
  12   2.0000      -0.658775       -17.9262
  13   2.0000      -0.611055       -16.6277
  14   2.0000      -0.577976       -15.7275
  15   2.0000      -0.537802       -14.6343
  16   2.0000      -0.514982       -14.0134
  17   2.0000      -0.506086       -13.7713
  18   2.0000      -0.480645       -13.0790
  19   2.0000      -0.427162       -11.6237
  20   0.0000       0.068308         1.8588
  21   0.0000       0.118979         3.2376
  22   0.0000       0.158818         4.3217
  23   0.0000       0.173036         4.7086
  24   0.0000       0.188028         5.1165

MULLIKEN ATOMIC CHARGES
-----------------------
   0 C :   -0.455463
   1 C :   -0.283310
   2 H :    0.166969
   3 H :    0.146341
   4 C :    0.317270
   5 F :   -0.059249
   6 O :   -0.315223
   7 H :    0.151568
   8 H :    0.175031
   9 H :    0.156065
Sum of atomic charges:    0.0000000

LOEWDIN ATOMIC CHARGES
----------------------
   0 C :   -0.308562
   1 C :   -0.274497
   2 H :    0.159399
   3 H :    0.146150
   4 C :   -0.514756
   5 F :    0.351769
   6 O :    0.052617
   7 H :    0.127352
   8 H :    0.133305
   9 H :    0.127221

  Mayer bond orders larger than 0.100000
B(  0-C ,  1-C ) :   0.9562 B(  0-C ,  7-H ) :   0.9683 B(  0-C ,  8-H ) :   0.9632
B(  0-C ,  9-H ) :   0.9726 B(  1-C ,  2-H ) :   0.9525 B(  1-C ,  3-H ) :   0.9622
B(  1-C ,  4-C ) :   0.9744 B(  4-C ,  5-F ) :   1.2137 B(  4-C ,  6-O ) :   2.0614

FINAL SINGLE POINT ENERGY      -291.690421238029

DIPOLE MOMENT
-------------
                                X             Y             Z
Electronic contribution:      3.95552      -0.01859      -7.43857
Nuclear contribution   :     -5.17129      -0.01923       7.59895
                        -----------------------------------------
Total Dipole Moment    :     -1.21577      -0.03783       0.16037
                        -----------------------------------------
Magnitude (a.u.)       :      1.22689
Magnitude (Debye)      :      3.11850

Rotational constants in cm-1:     0.282073     0.131822     0.105134
Rotational constants in MHz :  8456.328792  3951.925810  3151.840112

                             ****ORCA TERMINATED NORMALLY****
TOTAL RUN TIME: 0 days 0 hours 0 minutes 22 seconds 573 msec
