                         Program Version 5.0.0 -  RELEASE  -
|  1> !LC-PBE RIJCOSX def2-TZVP def2/J TightSCF
|  2> *xyz 0 1
|  3> C          3.90595        2.81985       -3.75292
|  4> C          5.29562        3.13151       -4.10533
|  5> C          3.80351        1.37472       -3.26081
|  6> C          5.70862        3.46889       -5.32419
|  7> N          6.90470        3.03895       -5.71708
|  8> N          4.98188        4.29357       -6.09746
|  9> H          5.00055        4.10131       -7.08776
| 10> H          4.08469        4.59690       -5.73965
| 11> H          5.96336        2.52611       -3.64239
| 12> H          7.04716        2.06686       -5.47360
| 13> H          7.19815        3.30799       -6.64523
| 14> H          3.28202        2.94919       -4.64026
| 15> H          3.56525        3.51457       -2.98252
| 16> H          4.14157        0.71142       -4.02935
| 17> H          2.78528        1.15146       -3.01944
| 18> H          4.41205        1.25066       -2.38949
| 19> *
| 20>
| 21> %MaxCore 64000
| 22>
| 23> %pal nprocs 4
| 24> end
| 25>
| 26> %scf
| 27>   MaxIter 150
| 28> end
| 29>
| 30>
| 31>                          ****END OF INPUT****

CARTESIAN COORDINATES (ANGSTROEM)
---------------------------------
  C      3.905950    2.819850   -3.752920
  C      5.295620    3.131510   -4.105330
  C      3.803510    1.374720   -3.260810
  C      5.708620    3.468890   -5.324190
  N      6.904700    3.038950   -5.717080
  N      4.981880    4.293570   -6.097460
  H      5.000550    4.101310   -7.087760
  H      4.084690    4.596900   -5.739650
  H      5.963360    2.526110   -3.642390
  H      7.047160    2.066860   -5.473600
  H      7.198150    3.307990   -6.645230
  H      3.282020    2.949190   -4.640260
  H      3.565250    3.514570   -2.982520
  H      4.141570    0.711420   -4.029350
  H      2.785280    1.151460   -3.019440
  H      4.412050    1.250660   -2.389490

 Total Charge           Charge          ....    0
 Multiplicity           Mult            ....    1
 Number of Electrons    NEL             ....   48
 Basis Dimension        Dim             ....  246

ORBITAL ENERGIES
----------------

  NO   OCC          E(Eh)            E(eV)
   0   2.0000     -14.215849      -386.8329
   1   2.0000     -14.212163      -386.7326
   2   2.0000     -10.161990      -276.5218
   3   2.0000     -10.092119      -274.6205
   4   2.0000     -10.082687      -274.3638
   5   2.0000     -10.038601      -273.1642
   6   2.0000      -1.143050       -31.1040
   7   2.0000      -1.045361       -28.4457
   8   2.0000      -0.956125       -26.0175
   9   2.0000      -0.864175       -23.5154
  10   2.0000      -0.773661       -21.0524
  11   2.0000      -0.730215       -19.8702
  12   2.0000      -0.683130       -18.5889
  13   2.0000      -0.657946       -17.9036
  14   2.0000      -0.618956       -16.8426
  15   2.0000      -0.591220       -16.0879
  16   2.0000      -0.562104       -15.2956
  17   2.0000      -0.530099       -14.4247
  18   2.0000      -0.508028       -13.8241
  19   2.0000      -0.484001       -13.1703
  20   2.0000      -0.455613       -12.3979
  21   2.0000      -0.452168       -12.3041
  22   2.0000      -0.408548       -11.1171
  23   2.0000      -0.285567        -7.7707
  24   0.0000       0.102552         2.7906
  25   0.0000       0.135798         3.6953
  26   0.0000       0.140091         3.8121
  27   0.0000       0.153071         4.1653
  28   0.0000       0.167295         4.5523

MULLIKEN ATOMIC CHARGES
-----------------------
   0 C :   -0.217478
   1 C :   -0.392582
   2 C :   -0.458499
   3 C :    0.273012
   4 N :   -0.483253
   5 N :   -0.483703
   6 H :    0.233300
   7 H :    0.265149
   8 H :    0.116064
   9 H :    0.269074
  10 H :    0.232576
  11 H :    0.085223
  12 H :    0.135739
  13 H :    0.134525
  14 H :    0.140708
  15 H :    0.150147
Sum of atomic charges:    0.0000000

LOEWDIN ATOMIC CHARGES
----------------------
   0 C :   -0.323981
   1 C :   -0.285552
   2 C :   -0.323072
   3 C :   -0.478535
   4 N :   -0.025444
   5 N :   -0.028595
   6 H :    0.163578
   7 H :    0.180743
   8 H :    0.132952
   9 H :    0.186413
  10 H :    0.166586
  11 H :    0.133905
  12 H :    0.137769
  13 H :    0.120352
  14 H :    0.119013
  15 H :    0.123867

  Mayer bond orders larger than 0.100000
B(  0-C ,  1-C ) :   0.9153 B(  0-C ,  2-C ) :   0.9461 B(  0-C , 11-H ) :   0.9771
B(  0-C , 12-H ) :   0.9758 B(  1-C ,  3-C ) :   1.6622 B(  1-C ,  8-H ) :   1.0471
B(  2-C , 13-H ) :   0.9754 B(  2-C , 14-H ) :   0.9833 B(  2-C , 15-H ) :   0.9801
B(  3-C ,  4-N ) :   1.1119 B(  3-C ,  5-N ) :   1.1387 B(  4-N ,  9-H ) :   0.9135
B(  4-N , 10-H ) :   0.9293 B(  5-N ,  6-H ) :   0.9155 B(  5-N ,  7-H ) :   0.9210

FINAL SINGLE POINT ENERGY      -267.125861522137

DIPOLE MOMENT
-------------
                                X             Y             Z
Electronic contribution:      3.15029       3.22300      -2.90301
Nuclear contribution   :     -3.27358      -3.61654       1.70633
                        -----------------------------------------
Total Dipole Moment    :     -0.12329      -0.39355      -1.19668
                        -----------------------------------------
Magnitude (a.u.)       :      1.26575
Magnitude (Debye)      :      3.21728

Rotational constants in cm-1:     0.231961     0.071249     0.059473
Rotational constants in MHz :  6954.024434  2135.976855  1782.962814

                             ****ORCA TERMINATED NORMALLY****
TOTAL RUN TIME: 0 days 0 hours 0 minutes 41 seconds 771 msec
