                         Program Version 5.0.0 -  RELEASE  -
|  1> !LC-PBE RIJCOSX def2-TZVP def2/J TightSCF
|  2> *xyz 0 1
|  3> C          3.80351        1.37472       -3.26081
|  4> C          3.93993        0.32036       -4.36773
|  5> H          4.10504       -0.65508       -3.90773
|  6> H          3.02280        0.28052       -4.95712
|  7> C          5.10585        0.66802       -5.30546
|  8> O          4.80913        1.15019       -6.41436
|  9> F          6.26737        0.56500       -4.81948
| 10> H          3.64113        2.33595       -3.70189
| 11> H          4.69995        1.39701       -2.67703
| 12> H          2.97435        1.12625       -2.63180
| 13> *
| 14>
| 15> %MaxCore 64000
| 16>
| 17> %pal nprocs 4
| 18> end
| 19>
| 20> %scf
| 21>   MaxIter 150
| 22> end
| 23>
| 24>
| 25>                          ****END OF INPUT****

CARTESIAN COORDINATES (ANGSTROEM)
---------------------------------
  C      3.803510    1.374720   -3.260810
  C      3.939930    0.320360   -4.367730
  H      4.105040   -0.655080   -3.907730
  H      3.022800    0.280520   -4.957120
  C      5.105850    0.668020   -5.305460
  O      4.809130    1.150190   -6.414360
  F      6.267370    0.565000   -4.819480
  H      3.641130    2.335950   -3.701890
  H      4.699950    1.397010   -2.677030
  H      2.974350    1.126250   -2.631800

 Total Charge           Charge          ....    0
 Multiplicity           Mult            ....    1
 Number of Electrons    NEL             ....   40
 Basis Dimension        Dim             ....  185

ORBITAL ENERGIES
----------------

  NO   OCC          E(Eh)            E(eV)
   0   2.0000     -24.559196      -668.2897
   1   2.0000     -18.985366      -516.6181
   2   2.0000     -10.300442      -280.2893
   3   2.0000     -10.148037      -276.1421
   4   2.0000     -10.123190      -275.4660
   5   2.0000      -1.473115       -40.0855
   6   2.0000      -1.205659       -32.8076
   7   2.0000      -0.982666       -26.7397
   8   2.0000      -0.849624       -23.1194
   9   2.0000      -0.800278       -21.7767
  10   2.0000      -0.705902       -19.2086
  11   2.0000      -0.690774       -18.7969
  12   2.0000      -0.655032       -17.8243
  13   2.0000      -0.610990       -16.6259
  14   2.0000      -0.578768       -15.7491
  15   2.0000      -0.542445       -14.7607
  16   2.0000      -0.521326       -14.1860
  17   2.0000      -0.506286       -13.7767
  18   2.0000      -0.490138       -13.3373
  19   2.0000      -0.427272       -11.6267
  20   0.0000       0.073216         1.9923
  21   0.0000       0.116871         3.1802
  22   0.0000       0.157829         4.2947
  23   0.0000       0.174851         4.7579
  24   0.0000       0.193252         5.2587

MULLIKEN ATOMIC CHARGES
-----------------------
   0 C :   -0.459276
   1 C :   -0.281726
   2 H :    0.152078
   3 H :    0.168414
   4 C :    0.306253
   5 O :   -0.289993
   6 F :   -0.077610
   7 H :    0.165154
   8 H :    0.157889
   9 H :    0.158816
Sum of atomic charges:    0.0000000

LOEWDIN ATOMIC CHARGES
----------------------
   0 C :   -0.312290
   1 C :   -0.271854
   2 H :    0.150118
   3 H :    0.158704
   4 C :   -0.513142
   5 O :    0.078254
   6 F :    0.323160
   7 H :    0.130936
   8 H :    0.127574
   9 H :    0.128540

  Mayer bond orders larger than 0.100000
B(  0-C ,  1-C ) :   0.9483 B(  0-C ,  7-H ) :   0.9653 B(  0-C ,  8-H ) :   0.9675
B(  0-C ,  9-H ) :   0.9718 B(  1-C ,  2-H ) :   0.9514 B(  1-C ,  3-H ) :   0.9632
B(  1-C ,  4-C ) :   0.9871 B(  4-C ,  5-O ) :   2.0969 B(  4-C ,  6-F ) :   1.1857

FINAL SINGLE POINT ENERGY      -291.696090832557

DIPOLE MOMENT
-------------
                                X             Y             Z
Electronic contribution:      6.39900      -1.00653      -4.74118
Nuclear contribution   :     -6.76123       0.61881       5.86003
                        -----------------------------------------
Total Dipole Moment    :     -0.36223      -0.38772       1.11885
                        -----------------------------------------
Magnitude (a.u.)       :      1.23829
Magnitude (Debye)      :      3.14748

Rotational constants in cm-1:     0.275298     0.134631     0.105723
Rotational constants in MHz :  8253.224169  4036.137572  3169.487264

                             ****ORCA TERMINATED NORMALLY****
TOTAL RUN TIME: 0 days 0 hours 0 minutes 21 seconds 365 msec
