                         Program Version 5.0.0 -  RELEASE  -
|  1> !LC-PBE RIJCOSX def2-TZVP def2/J TightSCF
|  2> *xyz 0 1
|  3> C          3.90595        2.81985       -3.75292
|  4> N          5.29562        3.13151       -4.10533
|  5> C          3.80351        1.37472       -3.26081
|  6> C          5.70862        3.46889       -5.32419
|  7> C          6.90470        3.03895       -5.71708
|  8> N          4.98188        4.29357       -6.09746
|  9> H          5.00055        4.10131       -7.08776
| 10> H          4.08469        4.59690       -5.73965
| 11> H          5.96336        2.52611       -3.64239
| 12> H          7.04716        2.06686       -5.47360
| 13> H          7.19815        3.30799       -6.64523
| 14> H          3.28202        2.94919       -4.64026
| 15> H          3.56525        3.51457       -2.98252
| 16> H          4.14157        0.71142       -4.02935
| 17> H          2.78528        1.15146       -3.01944
| 18> H          4.41205        1.25066       -2.38949
| 19> *
| 20>
| 21> %MaxCore 64000
| 22>
| 23> %pal nprocs 4
| 24> end
| 25>
| 26> %scf
| 27>   MaxIter 150
| 28> end
| 29>
| 30>
| 31>                          ****END OF INPUT****

CARTESIAN COORDINATES (ANGSTROEM)
---------------------------------
  C      3.905950    2.819850   -3.752920
  N      5.295620    3.131510   -4.105330
  C      3.803510    1.374720   -3.260810
  C      5.708620    3.468890   -5.324190
  C      6.904700    3.038950   -5.717080
  N      4.981880    4.293570   -6.097460
  H      5.000550    4.101310   -7.087760
  H      4.084690    4.596900   -5.739650
  H      5.963360    2.526110   -3.642390
  H      7.047160    2.066860   -5.473600
  H      7.198150    3.307990   -6.645230
  H      3.282020    2.949190   -4.640260
  H      3.565250    3.514570   -2.982520
  H      4.141570    0.711420   -4.029350
  H      2.785280    1.151460   -3.019440
  H      4.412050    1.250660   -2.389490

 Total Charge           Charge          ....    0
 Multiplicity           Mult            ....    1
 Number of Electrons    NEL             ....   48
 Basis Dimension        Dim             ....  246

ORBITAL ENERGIES
----------------

  NO   OCC          E(Eh)            E(eV)
   0   2.0000     -14.217034      -386.8652
   1   2.0000     -14.216379      -386.8473
   2   2.0000     -10.168365      -276.6953
   3   2.0000     -10.156924      -276.3839
   4   2.0000     -10.112800      -275.1833
   5   2.0000     -10.022619      -272.7293
   6   2.0000      -1.149966       -31.2922
   7   2.0000      -1.060441       -28.8561
   8   2.0000      -0.950186       -25.8559
   9   2.0000      -0.877019       -23.8649
  10   2.0000      -0.793275       -21.5861
  11   2.0000      -0.751959       -20.4619
  12   2.0000      -0.683551       -18.6004
  13   2.0000      -0.640130       -17.4188
  14   2.0000      -0.634046       -17.2533
  15   2.0000      -0.593564       -16.1517
  16   2.0000      -0.564962       -15.3734
  17   2.0000      -0.542460       -14.7611
  18   2.0000      -0.516150       -14.0452
  19   2.0000      -0.507281       -13.8038
  20   2.0000      -0.503882       -13.7113
  21   2.0000      -0.473040       -12.8721
  22   2.0000      -0.392334       -10.6760
  23   2.0000      -0.292286        -7.9535
  24   0.0000       0.106905         2.9090
  25   0.0000       0.127518         3.4699
  26   0.0000       0.142241         3.8706
  27   0.0000       0.151269         4.1162
  28   0.0000       0.168105         4.5744

MULLIKEN ATOMIC CHARGES
-----------------------
   0 C :   -0.158238
   1 N :   -0.263711
   2 C :   -0.488568
   3 C :    0.279067
   4 C :   -0.587844
   5 N :   -0.486481
   6 H :    0.268902
   7 H :    0.242101
   8 H :    0.245546
   9 H :    0.118863
  10 H :    0.095295
  11 H :    0.119580
  12 H :    0.147282
  13 H :    0.160863
  14 H :    0.150446
  15 H :    0.156899
Sum of atomic charges:   -0.0000000

LOEWDIN ATOMIC CHARGES
----------------------
   0 C :   -0.324988
   1 N :    0.108709
   2 C :   -0.327714
   3 C :   -0.476134
   4 C :   -0.367000
   5 N :   -0.019437
   6 H :    0.180782
   7 H :    0.166865
   8 H :    0.203376
   9 H :    0.109253
  10 H :    0.102081
  11 H :    0.133485
  12 H :    0.132155
  13 H :    0.127084
  14 H :    0.126709
  15 H :    0.124774

  Mayer bond orders larger than 0.100000
B(  0-C ,  1-N ) :   0.9102 B(  0-C ,  2-C ) :   0.9618 B(  0-C , 11-H ) :   0.9804
B(  0-C , 12-H ) :   0.9664 B(  1-N ,  3-C ) :   1.2238 B(  1-N ,  8-H ) :   0.9231
B(  2-C , 13-H ) :   0.9686 B(  2-C , 14-H ) :   0.9750 B(  2-C , 15-H ) :   0.9741
B(  3-C ,  4-C ) :   1.6478 B(  3-C ,  5-N ) :   1.1144 B(  4-C ,  9-H ) :   0.9861
B(  4-C , 10-H ) :   1.0276 B(  5-N ,  6-H ) :   0.9144 B(  5-N ,  7-H ) :   0.9304

FINAL SINGLE POINT ENERGY      -267.113289181290

DIPOLE MOMENT
-------------
                                X             Y             Z
Electronic contribution:      1.45740       3.21694      -1.28347
Nuclear contribution   :     -2.93222      -3.63618       1.36440
                        -----------------------------------------
Total Dipole Moment    :     -1.47482      -0.41924       0.08093
                        -----------------------------------------
Magnitude (a.u.)       :      1.53538
Magnitude (Debye)      :      3.90263

Rotational constants in cm-1:     0.237993     0.072843     0.061284
Rotational constants in MHz :  7134.860770  2183.763760  1837.240960

                             ****ORCA TERMINATED NORMALLY****
TOTAL RUN TIME: 0 days 0 hours 0 minutes 42 seconds 613 msec
