                         Program Version 5.0.0 -  RELEASE  -
|  1> !LC-PBE RIJCOSX def2-TZVP def2/J TightSCF
|  2> *xyz 0 1
|  3> C          3.90595        2.81985       -3.75292
|  4> N          5.29562        3.13151       -4.10533
|  5> C          3.80351        1.37472       -3.26081
|  6> C          5.70862        3.46889       -5.32419
|  7> N          6.90470        3.03895       -5.71708
|  8> C          4.98188        4.29357       -6.09746
|  9> H          5.00055        4.10131       -7.08776
| 10> H          4.08469        4.59690       -5.73965
| 11> H          5.96336        2.52611       -3.64239
| 12> H          7.04716        2.06686       -5.47360
| 13> H          7.19815        3.30799       -6.64523
| 14> H          3.28202        2.94919       -4.64026
| 15> H          3.56525        3.51457       -2.98252
| 16> H          4.14157        0.71142       -4.02935
| 17> H          2.78528        1.15146       -3.01944
| 18> H          4.41205        1.25066       -2.38949
| 19> *
| 20>
| 21> %MaxCore 64000
| 22>
| 23> %pal nprocs 4
| 24> end
| 25>
| 26> %scf
| 27>   MaxIter 150
| 28> end
| 29>
| 30>
| 31>                          ****END OF INPUT****

CARTESIAN COORDINATES (ANGSTROEM)
---------------------------------
  C      3.905950    2.819850   -3.752920
  N      5.295620    3.131510   -4.105330
  C      3.803510    1.374720   -3.260810
  C      5.708620    3.468890   -5.324190
  N      6.904700    3.038950   -5.717080
  C      4.981880    4.293570   -6.097460
  H      5.000550    4.101310   -7.087760
  H      4.084690    4.596900   -5.739650
  H      5.963360    2.526110   -3.642390
  H      7.047160    2.066860   -5.473600
  H      7.198150    3.307990   -6.645230
  H      3.282020    2.949190   -4.640260
  H      3.565250    3.514570   -2.982520
  H      4.141570    0.711420   -4.029350
  H      2.785280    1.151460   -3.019440
  H      4.412050    1.250660   -2.389490

 Total Charge           Charge          ....    0
 Multiplicity           Mult            ....    1
 Number of Electrons    NEL             ....   48
 Basis Dimension        Dim             ....  246

ORBITAL ENERGIES
----------------

  NO   OCC          E(Eh)            E(eV)
   0   2.0000     -14.218936      -386.9169
   1   2.0000     -14.215653      -386.8276
   2   2.0000     -10.167177      -276.6630
   3   2.0000     -10.150266      -276.2028
   4   2.0000     -10.110451      -275.1194
   5   2.0000     -10.027764      -272.8693
   6   2.0000      -1.154530       -31.4164
   7   2.0000      -1.062883       -28.9225
   8   2.0000      -0.937642       -25.5145
   9   2.0000      -0.878427       -23.9032
  10   2.0000      -0.807621       -21.9765
  11   2.0000      -0.720764       -19.6130
  12   2.0000      -0.686618       -18.6838
  13   2.0000      -0.663982       -18.0679
  14   2.0000      -0.621481       -16.9114
  15   2.0000      -0.599339       -16.3088
  16   2.0000      -0.547955       -14.9106
  17   2.0000      -0.538909       -14.6645
  18   2.0000      -0.529501       -14.4084
  19   2.0000      -0.506326       -13.7778
  20   2.0000      -0.496082       -13.4991
  21   2.0000      -0.473485       -12.8842
  22   2.0000      -0.389498       -10.5988
  23   2.0000      -0.295015        -8.0278
  24   0.0000       0.103330         2.8118
  25   0.0000       0.133829         3.6417
  26   0.0000       0.145264         3.9528
  27   0.0000       0.151461         4.1215
  28   0.0000       0.168323         4.5803

MULLIKEN ATOMIC CHARGES
-----------------------
   0 C :   -0.141087
   1 N :   -0.277881
   2 C :   -0.487826
   3 C :    0.274633
   4 N :   -0.472824
   5 C :   -0.587765
   6 H :    0.129874
   7 H :    0.104858
   8 H :    0.207842
   9 H :    0.231869
  10 H :    0.264356
  11 H :    0.151057
  12 H :    0.146244
  13 H :    0.150905
  14 H :    0.152118
  15 H :    0.153627
Sum of atomic charges:    0.0000000

LOEWDIN ATOMIC CHARGES
----------------------
   0 C :   -0.310887
   1 N :    0.110442
   2 C :   -0.331196
   3 C :   -0.486389
   4 N :   -0.024373
   5 C :   -0.354240
   6 H :    0.104041
   7 H :    0.103134
   8 H :    0.185934
   9 H :    0.168174
  10 H :    0.183081
  11 H :    0.144651
  12 H :    0.134105
  13 H :    0.123399
  14 H :    0.127583
  15 H :    0.122538

  Mayer bond orders larger than 0.100000
B(  0-C ,  1-N ) :   0.9069 B(  0-C ,  2-C ) :   0.9568 B(  0-C , 11-H ) :   0.9735
B(  0-C , 12-H ) :   0.9693 B(  1-N ,  3-C ) :   1.1838 B(  1-N ,  8-H ) :   0.9356
B(  2-C , 13-H ) :   0.9712 B(  2-C , 14-H ) :   0.9755 B(  2-C , 15-H ) :   0.9750
B(  3-C ,  4-N ) :   1.1236 B(  3-C ,  5-C ) :   1.6140 B(  4-N ,  9-H ) :   0.9179
B(  4-N , 10-H ) :   0.9196 B(  5-C ,  6-H ) :   0.9777 B(  5-C ,  7-H ) :   1.0202

FINAL SINGLE POINT ENERGY      -267.117565992232

DIPOLE MOMENT
-------------
                                X             Y             Z
Electronic contribution:      3.39883       1.99654      -0.98902
Nuclear contribution   :     -3.34013      -3.37002       1.28371
                        -----------------------------------------
Total Dipole Moment    :      0.05870      -1.37348       0.29469
                        -----------------------------------------
Magnitude (a.u.)       :      1.40596
Magnitude (Debye)      :      3.57367

Rotational constants in cm-1:     0.239537     0.072280     0.060961
Rotational constants in MHz :  7181.153552  2166.902802  1827.551447

                             ****ORCA TERMINATED NORMALLY****
TOTAL RUN TIME: 0 days 0 hours 0 minutes 39 seconds 340 msec
