                         Program Version 5.0.0 -  RELEASE  -
|  1> !LC-PBE RIJCOSX def2-TZVP def2/J TightSCF xyzfile
|  2>
|  3> *xyzfile 0 1 D1.xyz
|  4>
|  5> %MaxCore 64000
|  6>
|  7> %pal nprocs 18
|  8> end
|  9>
| 10> %scf
| 11>   MaxIter 150
| 12> end
| 13>
| 14>
| 15>                          ****END OF INPUT****

CARTESIAN COORDINATES (ANGSTROEM)
---------------------------------
  C      3.905947    2.819855   -3.752920
  C      5.295615    3.131515   -4.105334
  C      3.803511    1.374716   -3.260807
  C      3.939934    0.320362   -4.367729
  H      4.105043   -0.655085   -3.907733
  H      3.022801    0.280517   -4.957117
  C      5.105846    0.668022   -5.305463
  C      5.708619    3.468885   -5.324190
  N      6.904696    3.038954   -5.717084
  N      4.981884    4.293570   -6.097457
  H      5.000546    4.101311   -7.087761
  H      4.084693    4.596899   -5.739652
  H      5.963358    2.526112   -3.642391
  H      7.047164    2.066861   -5.473604
  H      7.198145    3.307994   -6.645225
  H      3.282025    2.949187   -4.640259
  H      3.565254    3.514574   -2.982523
  H      4.574833    1.215157   -2.500443
  H      2.843514    1.260845   -2.751465
  F      4.809132    1.150187   -6.414361
  O      6.267366    0.564999   -4.819481

 Total Charge           Charge          ....    0
 Multiplicity           Mult            ....    1
 Number of Electrons    NEL             ....   78
 Basis Dimension        Dim             ....  376

ORBITAL ENERGIES
----------------

  NO   OCC          E(Eh)            E(eV)
   0   2.0000     -24.572455      -668.6505
   1   2.0000     -18.988075      -516.6918
   2   2.0000     -14.214724      -386.8023
   3   2.0000     -14.192787      -386.2054
   4   2.0000     -10.311400      -280.5875
   5   2.0000     -10.160259      -276.4747
   6   2.0000     -10.145693      -276.0783
   7   2.0000     -10.123405      -275.4719
   8   2.0000     -10.104342      -274.9531
   9   2.0000     -10.038456      -273.1603
  10   2.0000      -1.493384       -40.6370
  11   2.0000      -1.207605       -32.8606
  12   2.0000      -1.136991       -30.9391
  13   2.0000      -1.038049       -28.2467
  14   2.0000      -1.000432       -27.2231
  15   2.0000      -0.926131       -25.2013
  16   2.0000      -0.861518       -23.4431
  17   2.0000      -0.821670       -22.3588
  18   2.0000      -0.769644       -20.9431
  19   2.0000      -0.735147       -20.0044
  20   2.0000      -0.717713       -19.5300
  21   2.0000      -0.698488       -19.0068
  22   2.0000      -0.685659       -18.6577
  23   2.0000      -0.668948       -18.2030
  24   2.0000      -0.648332       -17.6420
  25   2.0000      -0.611392       -16.6368
  26   2.0000      -0.604178       -16.4405
  27   2.0000      -0.583623       -15.8812
  28   2.0000      -0.572554       -15.5800
  29   2.0000      -0.538390       -14.6503
  30   2.0000      -0.528806       -14.3895
  31   2.0000      -0.503641       -13.7048
  32   2.0000      -0.500125       -13.6091
  33   2.0000      -0.478750       -13.0275
  34   2.0000      -0.464850       -12.6492
  35   2.0000      -0.450833       -12.2678
  36   2.0000      -0.435618       -11.8538
  37   2.0000      -0.397447       -10.8151
  38   2.0000      -0.285389        -7.7658
  39   0.0000       0.060090         1.6351
  40   0.0000       0.109541         2.9808
  41   0.0000       0.129111         3.5133
  42   0.0000       0.142721         3.8836
  43   0.0000       0.150077         4.0838

MULLIKEN ATOMIC CHARGES
-----------------------
   0 C :   -0.266516
   1 C :   -0.453828
   2 C :   -0.312066
   3 C :   -0.308184
   4 H :    0.177525
   5 H :    0.162555
   6 C :    0.352551
   7 C :    0.126090
   8 N :   -0.417240
   9 N :   -0.466587
  10 H :    0.236373
  11 H :    0.261448
  12 H :    0.187302
  13 H :    0.280256
  14 H :    0.226805
  15 H :    0.120151
  16 H :    0.156010
  17 H :    0.178788
  18 H :    0.151121
  19 F :   -0.050819
  20 O :   -0.341735
Sum of atomic charges:    0.0000000

LOEWDIN ATOMIC CHARGES
----------------------
   0 C :   -0.302068
   1 C :   -0.279378
   2 C :   -0.265952
   3 C :   -0.240976
   4 H :    0.162866
   5 H :    0.150280
   6 C :   -0.509184
   7 C :   -0.497131
   8 N :   -0.014432
   9 N :   -0.025877
  10 H :    0.163541
  11 H :    0.178488
  12 H :    0.139395
  13 H :    0.170229
  14 H :    0.164284
  15 H :    0.140262
  16 H :    0.143931
  17 H :    0.155841
  18 H :    0.145868
  19 F :    0.367362
  20 O :    0.052651

  Mayer bond orders larger than 0.100000
B(  0-C ,  1-C ) :   0.8926 B(  0-C ,  2-C ) :   0.9239 B(  0-C , 15-H ) :   0.9792
B(  0-C , 16-H ) :   0.9766 B(  1-C ,  7-C ) :   1.5817 B(  1-C , 12-H ) :   1.0456
B(  2-C ,  3-C ) :   0.9345 B(  2-C , 17-H ) :   0.9716 B(  2-C , 18-H ) :   0.9800
B(  3-C ,  4-H ) :   0.9584 B(  3-C ,  5-H ) :   0.9644 B(  3-C ,  6-C ) :   0.9760
B(  6-C , 19-F ) :   1.2136 B(  6-C , 20-O ) :   1.9623 B(  7-C ,  8-N ) :   1.1786
B(  7-C ,  9-N ) :   1.1505 B(  8-N , 13-H ) :   0.8605 B(  8-N , 14-H ) :   0.9275
B(  9-N , 10-H ) :   0.9161 B(  9-N , 11-H ) :   0.9220

FINAL SINGLE POINT ENERGY      -518.444470353213

DIPOLE MOMENT
-------------
                                X             Y             Z
Electronic contribution:      3.32824      -3.69004      -6.52388
Nuclear contribution   :     -4.60158       3.22721       5.56005
                        -----------------------------------------
Total Dipole Moment    :     -1.27335      -0.46282      -0.96382
                        -----------------------------------------
Magnitude (a.u.)       :      1.66270
Magnitude (Debye)      :      4.22625

Rotational constants in cm-1:     0.061224     0.042534     0.033552
Rotational constants in MHz :  1835.464095  1275.135177  1005.856966

                             ****ORCA TERMINATED NORMALLY****
TOTAL RUN TIME: 0 days 0 hours 0 minutes 33 seconds 193 msec
