                         Program Version 5.0.0 -  RELEASE  -
|  1> !LC-PBE RIJCOSX def2-TZVP def2/J TightSCF xyzfile
|  2>
|  3> *xyzfile 0 1 D3.xyz
|  4>
|  5> %MaxCore 64000
|  6>
|  7> %pal nprocs 18
|  8> end
|  9>
| 10> %scf
| 11>   MaxIter 150
| 12> end
| 13>
| 14>
| 15>                          ****END OF INPUT****

CARTESIAN COORDINATES (ANGSTROEM)
---------------------------------
  C      3.905947    2.819855   -3.752920
  N      5.295615    3.131515   -4.105334
  C      3.803511    1.374716   -3.260807
  C      3.939934    0.320362   -4.367729
  H      4.105043   -0.655085   -3.907733
  H      3.022801    0.280517   -4.957117
  C      5.105846    0.668022   -5.305463
  C      5.708619    3.468885   -5.324190
  N      6.904696    3.038954   -5.717084
  C      4.981884    4.293570   -6.097457
  H      5.000546    4.101311   -7.087761
  H      4.084693    4.596899   -5.739652
  H      5.963358    2.526112   -3.642391
  H      7.047164    2.066861   -5.473604
  H      7.198145    3.307994   -6.645225
  H      3.282025    2.949187   -4.640259
  H      3.565254    3.514574   -2.982523
  H      4.574833    1.215157   -2.500443
  H      2.843514    1.260845   -2.751465
  F      4.809132    1.150187   -6.414361
  O      6.267366    0.564999   -4.819481

 Total Charge           Charge          ....    0
 Multiplicity           Mult            ....    1
 Number of Electrons    NEL             ....   78
 Basis Dimension        Dim             ....  376

ORBITAL ENERGIES
----------------

  NO   OCC          E(Eh)            E(eV)
   0   2.0000     -24.582483      -668.9234
   1   2.0000     -19.005590      -517.1684
   2   2.0000     -14.218901      -386.9160
   3   2.0000     -14.192926      -386.2092
   4   2.0000     -10.327844      -281.0349
   5   2.0000     -10.163509      -276.5631
   6   2.0000     -10.161464      -276.5075
   7   2.0000     -10.161337      -276.5040
   8   2.0000     -10.149346      -276.1777
   9   2.0000     -10.022617      -272.7293
  10   2.0000      -1.503287       -40.9065
  11   2.0000      -1.226168       -33.3657
  12   2.0000      -1.149618       -31.2827
  13   2.0000      -1.061667       -28.8894
  14   2.0000      -0.997414       -27.1410
  15   2.0000      -0.910458       -24.7748
  16   2.0000      -0.873556       -23.7707
  17   2.0000      -0.840237       -22.8640
  18   2.0000      -0.796141       -21.6641
  19   2.0000      -0.734344       -19.9825
  20   2.0000      -0.723274       -19.6813
  21   2.0000      -0.713898       -19.4262
  22   2.0000      -0.695704       -18.9311
  23   2.0000      -0.663107       -18.0441
  24   2.0000      -0.651921       -17.7397
  25   2.0000      -0.631290       -17.1783
  26   2.0000      -0.619176       -16.8486
  27   2.0000      -0.577800       -15.7227
  28   2.0000      -0.569499       -15.4968
  29   2.0000      -0.551287       -15.0013
  30   2.0000      -0.531781       -14.4705
  31   2.0000      -0.526836       -14.3359
  32   2.0000      -0.511450       -13.9173
  33   2.0000      -0.504694       -13.7334
  34   2.0000      -0.490167       -13.3381
  35   2.0000      -0.468603       -12.7513
  36   2.0000      -0.449820       -12.2402
  37   2.0000      -0.382501       -10.4084
  38   2.0000      -0.289406        -7.8751
  39   0.0000       0.043093         1.1726
  40   0.0000       0.107780         2.9328
  41   0.0000       0.133779         3.6403
  42   0.0000       0.146026         3.9736
  43   0.0000       0.149538         4.0691

MULLIKEN ATOMIC CHARGES
-----------------------
   0 C :   -0.214670
   1 N :   -0.263398
   2 C :   -0.363909
   3 C :   -0.284716
   4 H :    0.183319
   5 H :    0.174892
   6 C :    0.312735
   7 C :    0.096377
   8 N :   -0.422993
   9 C :   -0.523085
  10 H :    0.125593
  11 H :    0.096499
  12 H :    0.242304
  13 H :    0.261916
  14 H :    0.254996
  15 H :    0.186631
  16 H :    0.165484
  17 H :    0.185402
  18 H :    0.165361
  19 F :   -0.023291
  20 O :   -0.355446
Sum of atomic charges:   -0.0000000

LOEWDIN ATOMIC CHARGES
----------------------
   0 C :   -0.289079
   1 N :    0.123815
   2 C :   -0.277809
   3 C :   -0.240456
   4 H :    0.164933
   5 H :    0.154474
   6 C :   -0.508109
   7 C :   -0.511456
   8 N :   -0.016787
   9 C :   -0.359964
  10 H :    0.102538
  11 H :    0.100374
  12 H :    0.191595
  13 H :    0.159040
  14 H :    0.179523
  15 H :    0.150623
  16 H :    0.140104
  17 H :    0.153746
  18 H :    0.153244
  19 F :    0.385000
  20 O :    0.044651

  Mayer bond orders larger than 0.100000
B(  0-C ,  1-N ) :   0.9138 B(  0-C ,  2-C ) :   0.9298 B(  0-C , 15-H ) :   0.9762
B(  0-C , 16-H ) :   0.9782 B(  1-N ,  7-C ) :   1.1413 B(  1-N , 12-H ) :   0.9217
B(  2-C ,  3-C ) :   0.9225 B(  2-C , 17-H ) :   0.9715 B(  2-C , 18-H ) :   0.9740
B(  3-C ,  4-H ) :   0.9570 B(  3-C ,  5-H ) :   0.9608 B(  3-C ,  6-C ) :   0.9648
B(  6-C , 19-F ) :   1.2545 B(  6-C , 20-O ) :   1.9588 B(  7-C ,  8-N ) :   1.1851
B(  7-C ,  9-C ) :   1.6915 B(  8-N , 13-H ) :   0.8820 B(  8-N , 14-H ) :   0.9215
B(  9-C , 10-H ) :   0.9735 B(  9-C , 11-H ) :   1.0211

FINAL SINGLE POINT ENERGY      -518.433126390624

DIPOLE MOMENT
-------------
                                X             Y             Z
Electronic contribution:      3.51153      -4.92121      -4.87911
Nuclear contribution   :     -4.64021       3.37029       5.31478
                        -----------------------------------------
Total Dipole Moment    :     -1.12868      -1.55092       0.43568
                        -----------------------------------------
Magnitude (a.u.)       :      1.96700
Magnitude (Debye)      :      4.99972

Rotational constants in cm-1:     0.061077     0.043622     0.034103
Rotational constants in MHz :  1831.041375  1307.759852  1022.388536

                             ****ORCA TERMINATED NORMALLY****
TOTAL RUN TIME: 0 days 0 hours 0 minutes 35 seconds 684 msec
