                         Program Version 5.0.0 -  RELEASE  -
|  1> !LC-PBE RIJCOSX def2-TZVP def2/J TightSCF xyzfile
|  2>
|  3> *xyzfile 0 1 D6.xyz
|  4>
|  5> %MaxCore 64000
|  6>
|  7> %pal nprocs 18
|  8> end
|  9>
| 10> %scf
| 11>   MaxIter 150
| 12> end
| 13>
| 14>
| 15>                          ****END OF INPUT****

CARTESIAN COORDINATES (ANGSTROEM)
---------------------------------
  C      3.905947    2.819855   -3.752920
  N      5.295615    3.131515   -4.105334
  C      3.803511    1.374716   -3.260807
  C      3.939934    0.320362   -4.367729
  H      4.105043   -0.655085   -3.907733
  H      3.022801    0.280517   -4.957117
  C      5.105846    0.668022   -5.305463
  C      5.708619    3.468885   -5.324190
  N      6.904696    3.038954   -5.717084
  C      4.981884    4.293570   -6.097457
  H      5.000546    4.101311   -7.087761
  H      4.084693    4.596899   -5.739652
  H      5.963358    2.526112   -3.642391
  H      7.047164    2.066861   -5.473604
  H      7.198145    3.307994   -6.645225
  H      3.282025    2.949187   -4.640259
  H      3.565254    3.514574   -2.982523
  H      4.574833    1.215157   -2.500443
  H      2.843514    1.260845   -2.751465
  O      4.809132    1.150187   -6.414361
  F      6.267366    0.564999   -4.819481

 Total Charge           Charge          ....    0
 Multiplicity           Mult            ....    1
 Number of Electrons    NEL             ....   78
 Basis Dimension        Dim             ....  376

ORBITAL ENERGIES
----------------

  NO   OCC          E(Eh)            E(eV)
   0   2.0000     -24.584178      -668.9695
   1   2.0000     -18.998752      -516.9823
   2   2.0000     -14.223840      -387.0504
   3   2.0000     -14.200568      -386.4171
   4   2.0000     -10.314216      -280.6641
   5   2.0000     -10.160728      -276.4875
   6   2.0000     -10.159709      -276.4597
   7   2.0000     -10.159397      -276.4512
   8   2.0000     -10.149311      -276.1768
   9   2.0000     -10.020576      -272.6737
  10   2.0000      -1.501194       -40.8496
  11   2.0000      -1.220619       -33.2147
  12   2.0000      -1.153493       -31.3882
  13   2.0000      -1.064695       -28.9718
  14   2.0000      -0.996702       -27.1216
  15   2.0000      -0.909600       -24.7515
  16   2.0000      -0.872494       -23.7418
  17   2.0000      -0.841946       -22.9105
  18   2.0000      -0.797660       -21.7054
  19   2.0000      -0.739191       -20.1144
  20   2.0000      -0.731127       -19.8950
  21   2.0000      -0.718146       -19.5417
  22   2.0000      -0.673682       -18.3318
  23   2.0000      -0.660958       -17.9856
  24   2.0000      -0.649049       -17.6615
  25   2.0000      -0.632595       -17.2138
  26   2.0000      -0.626631       -17.0515
  27   2.0000      -0.572856       -15.5882
  28   2.0000      -0.567632       -15.4461
  29   2.0000      -0.546272       -14.8648
  30   2.0000      -0.533377       -14.5139
  31   2.0000      -0.525421       -14.2974
  32   2.0000      -0.516316       -14.0497
  33   2.0000      -0.500181       -13.6106
  34   2.0000      -0.491858       -13.3841
  35   2.0000      -0.467641       -12.7251
  36   2.0000      -0.436481       -11.8773
  37   2.0000      -0.387102       -10.5336
  38   2.0000      -0.288890        -7.8611
  39   0.0000       0.057949         1.5769
  40   0.0000       0.104361         2.8398
  41   0.0000       0.133129         3.6226
  42   0.0000       0.147508         4.0139
  43   0.0000       0.147986         4.0269

MULLIKEN ATOMIC CHARGES
-----------------------
   0 C :   -0.191482
   1 N :   -0.260583
   2 C :   -0.392807
   3 C :   -0.278579
   4 H :    0.173808
   5 H :    0.186824
   6 C :    0.256299
   7 C :    0.129156
   8 N :   -0.416051
   9 C :   -0.513912
  10 H :    0.138247
  11 H :    0.093660
  12 H :    0.219322
  13 H :    0.228981
  14 H :    0.262772
  15 H :    0.193147
  16 H :    0.164049
  17 H :    0.181501
  18 H :    0.166724
  19 O :   -0.237154
  20 F :   -0.103921
Sum of atomic charges:    0.0000000

LOEWDIN ATOMIC CHARGES
----------------------
   0 C :   -0.285732
   1 N :    0.122354
   2 C :   -0.284544
   3 C :   -0.241710
   4 H :    0.155245
   5 H :    0.165238
   6 C :   -0.531137
   7 C :   -0.507887
   8 N :   -0.015671
   9 C :   -0.341843
  10 H :    0.106548
  11 H :    0.100877
  12 H :    0.183268
  13 H :    0.156218
  14 H :    0.183283
  15 H :    0.155827
  16 H :    0.139495
  17 H :    0.148712
  18 H :    0.153689
  19 O :    0.118890
  20 F :    0.318882

  Mayer bond orders larger than 0.100000
B(  0-C ,  1-N ) :   0.9005 B(  0-C ,  2-C ) :   0.9222 B(  0-C , 15-H ) :   0.9721
B(  0-C , 16-H ) :   0.9769 B(  1-N ,  7-C ) :   1.1347 B(  1-N , 12-H ) :   0.9293
B(  2-C ,  3-C ) :   0.9166 B(  2-C , 17-H ) :   0.9770 B(  2-C , 18-H ) :   0.9734
B(  3-C ,  4-H ) :   0.9618 B(  3-C ,  5-H ) :   0.9665 B(  3-C ,  6-C ) :   0.9684
B(  6-C , 19-O ) :   2.1124 B(  6-C , 20-F ) :   1.1204 B(  7-C ,  8-N ) :   1.1652
B(  7-C ,  9-C ) :   1.6936 B(  8-N , 13-H ) :   0.9210 B(  8-N , 14-H ) :   0.9207
B(  9-C , 10-H ) :   0.9689 B(  9-C , 11-H ) :   1.0188

FINAL SINGLE POINT ENERGY      -518.429322302222

DIPOLE MOMENT
-------------
                                X             Y             Z
Electronic contribution:      5.93200      -5.77025      -2.30949
Nuclear contribution   :     -6.29470       4.03423       3.50525
                        -----------------------------------------
Total Dipole Moment    :     -0.36271      -1.73602       1.19576
                        -----------------------------------------
Magnitude (a.u.)       :      2.13897
Magnitude (Debye)      :      5.43682

Rotational constants in cm-1:     0.061094     0.043661     0.033867
Rotational constants in MHz :  1831.559881  1308.929520  1015.295167

                             ****ORCA TERMINATED NORMALLY****
TOTAL RUN TIME: 0 days 0 hours 0 minutes 33 seconds 519 msec
