                         Program Version 5.0.0 -  RELEASE  -
|  1> !TPSS D3BJ RIJCOSX def2-TZVP def2/J TightSCF
|  2> *xyz -1 1
|  3> C          4.90646       -3.10282       -5.95484
|  4> C          3.51177       -2.80621       -6.49228
|  5> H          2.73604       -3.37345       -5.97374
|  6> H          3.44490       -3.04083       -7.55528
|  7> S          3.00462       -1.09621       -6.38926
|  8> O          4.12886       -0.32965       -6.95372
|  9> O          1.78128       -1.00078       -7.13640
| 10> O          2.85155       -0.78368       -4.95679
| 11> H          5.62703       -2.52424       -6.49422
| 12> H          5.12164       -4.14387       -6.07654
| 13> H          4.95004       -2.84862       -4.91639
| 14> *
| 15>
| 16> %MaxCore 64000
| 17>
| 18> %pal nprocs 4
| 19> end
| 20>
| 21> %scf
| 22>   MaxIter 150
| 23> end
| 24>
| 25>
| 26>                          ****END OF INPUT****

CARTESIAN COORDINATES (ANGSTROEM)
---------------------------------
  C      4.906460   -3.102820   -5.954840
  C      3.511770   -2.806210   -6.492280
  H      2.736040   -3.373450   -5.973740
  H      3.444900   -3.040830   -7.555280
  S      3.004620   -1.096210   -6.389260
  O      4.128860   -0.329650   -6.953720
  O      1.781280   -1.000780   -7.136400
  O      2.851550   -0.783680   -4.956790
  H      5.627030   -2.524240   -6.494220
  H      5.121640   -4.143870   -6.076540
  H      4.950040   -2.848620   -4.916390

 Total Charge           Charge          ....   -1
 Multiplicity           Mult            ....    1
 Number of Electrons    NEL             ....   58
 Basis Dimension        Dim             ....  222

ORBITAL ENERGIES
----------------

  NO   OCC          E(Eh)            E(eV)
   0   2.0000     -88.317117     -2403.2309
   1   2.0000     -18.655146      -507.6323
   2   2.0000     -18.643529      -507.3162
   3   2.0000     -18.642853      -507.2978
   4   2.0000      -9.840286      -267.7678
   5   2.0000      -9.836319      -267.6599
   6   2.0000      -7.665745      -208.5955
   7   2.0000      -5.645155      -153.6125
   8   2.0000      -5.644495      -153.5945
   9   2.0000      -5.644271      -153.5884
  10   2.0000      -0.836724       -22.7684
  11   2.0000      -0.712415       -19.3858
  12   2.0000      -0.692994       -18.8573
  13   2.0000      -0.572008       -15.5651
  14   2.0000      -0.452881       -12.3235
  15   2.0000      -0.324701        -8.8356
  16   2.0000      -0.272665        -7.4196
  17   2.0000      -0.259523        -7.0620
  18   2.0000      -0.223225        -6.0743
  19   2.0000      -0.206615        -5.6223
  20   2.0000      -0.202576        -5.5124
  21   2.0000      -0.181913        -4.9501
  22   2.0000      -0.170243        -4.6326
  23   2.0000      -0.095513        -2.5990
  24   2.0000      -0.094493        -2.5713
  25   2.0000      -0.064559        -1.7567
  26   2.0000      -0.057413        -1.5623
  27   2.0000      -0.049592        -1.3495
  28   2.0000      -0.011049        -0.3007
  29   0.0000       0.165672         4.5082
  30   0.0000       0.207445         5.6449
  31   0.0000       0.221205         6.0193
  32   0.0000       0.227260         6.1841
  33   0.0000       0.252952         6.8832

MULLIKEN ATOMIC CHARGES
-----------------------
   0 C :   -0.311548
   1 C :   -0.198980
   2 H :    0.064317
   3 H :    0.066762
   4 S :    0.750708
   5 O :   -0.561039
   6 O :   -0.518998
   7 O :   -0.561871
   8 H :    0.110627
   9 H :    0.058756
  10 H :    0.101267
Sum of atomic charges:   -1.0000000

LOEWDIN ATOMIC CHARGES
----------------------
   0 C :   -0.336043
   1 C :   -0.433707
   2 H :    0.113716
   3 H :    0.115307
   4 S :    0.377084
   5 O :   -0.398027
   6 O :   -0.353644
   7 O :   -0.403327
   8 H :    0.112246
   9 H :    0.095461
  10 H :    0.110933

  Mayer bond orders larger than 0.100000
B(  0-C ,  1-C ) :   0.9963 B(  0-C ,  8-H ) :   0.9659 B(  0-C ,  9-H ) :   0.9544
B(  0-C , 10-H ) :   0.9684 B(  1-C ,  2-H ) :   0.9466 B(  1-C ,  3-H ) :   0.9450
B(  1-C ,  4-S ) :   0.8673 B(  4-S ,  5-O ) :   1.7454 B(  4-S ,  6-O ) :   1.8385
B(  4-S ,  7-O ) :   1.7685

Dispersion correction           -0.012123275
FINAL SINGLE POINT ENERGY      -703.372985055493

DIPOLE MOMENT
-------------
                                X             Y             Z
Electronic contribution:     -4.42427       6.54362      -0.66006
Nuclear contribution   :      5.05690      -8.21735       0.57889
                        -----------------------------------------
Total Dipole Moment    :      0.63264      -1.67374      -0.08116
                        -----------------------------------------
Magnitude (a.u.)       :      1.79115
Magnitude (Debye)      :      4.55274

Rotational constants in cm-1:     0.162547     0.083494     0.081672
Rotational constants in MHz :  4873.033504  2503.090885  2448.458543

                             ****ORCA TERMINATED NORMALLY****
TOTAL RUN TIME: 0 days 0 hours 0 minutes 9 seconds 555 msec
