                         Program Version 5.0.0 -  RELEASE  -
|  1> !TPSS D3BJ RIJCOSX def2-TZVP def2/J TightSCF
|  2> *xyz 1 1
|  3> C          4.49059        1.15590       -2.46929
|  4> N          4.30539        1.22276       -3.90832
|  5> C          4.63192        2.24637       -4.67096
|  6> N          4.54169        2.14399       -5.98714
|  7> N          5.08409        3.39358       -4.11855
|  8> H          4.92067        3.57050       -3.13587
|  9> H          5.25465        4.19739       -4.70696
| 10> H          3.82453        0.44911       -4.35093
| 11> H          4.34337        1.24932       -6.41665
| 12> H          4.67671        2.95662       -6.57411
| 13> C          5.94213        0.93950       -2.03689
| 14> H          3.86431        0.32853       -2.13661
| 15> H          4.07623        2.04999       -1.98901
| 16> H          6.32982        0.06401       -2.51451
| 17> H          5.98308        0.81426       -0.97504
| 18> H          6.52865        1.78889       -2.31873
| 19> *
| 20>
| 21> %MaxCore 64000
| 22>
| 23> %pal nprocs 4
| 24> end
| 25>
| 26> %scf
| 27>   MaxIter 150
| 28> end
| 29>
| 30>
| 31>                          ****END OF INPUT****

CARTESIAN COORDINATES (ANGSTROEM)
---------------------------------
  C      4.490590    1.155900   -2.469290
  N      4.305390    1.222760   -3.908320
  C      4.631920    2.246370   -4.670960
  N      4.541690    2.143990   -5.987140
  N      5.084090    3.393580   -4.118550
  H      4.920670    3.570500   -3.135870
  H      5.254650    4.197390   -4.706960
  H      3.824530    0.449110   -4.350930
  H      4.343370    1.249320   -6.416650
  H      4.676710    2.956620   -6.574110
  C      5.942130    0.939500   -2.036890
  H      3.864310    0.328530   -2.136610
  H      4.076230    2.049990   -1.989010
  H      6.329820    0.064010   -2.514510
  H      5.983080    0.814260   -0.975040
  H      6.528650    1.788890   -2.318730

 Total Charge           Charge          ....    1
 Multiplicity           Mult            ....    1
 Number of Electrons    NEL             ....   48
 Basis Dimension        Dim             ....  246

ORBITAL ENERGIES
----------------

  NO   OCC          E(Eh)            E(eV)
   0   2.0000     -14.323034      -389.7496
   1   2.0000     -14.322349      -389.7309
   2   2.0000     -14.320646      -389.6846
   3   2.0000     -10.306839      -280.4633
   4   2.0000     -10.192039      -277.3395
   5   2.0000     -10.119674      -275.3703
   6   2.0000      -1.146702       -31.2034
   7   2.0000      -1.043660       -28.3994
   8   2.0000      -1.029819       -28.0228
   9   2.0000      -0.874164       -23.7872
  10   2.0000      -0.793935       -21.6041
  11   2.0000      -0.751089       -20.4382
  12   2.0000      -0.736611       -20.0442
  13   2.0000      -0.696536       -18.9537
  14   2.0000      -0.647645       -17.6233
  15   2.0000      -0.644810       -17.5462
  16   2.0000      -0.614288       -16.7156
  17   2.0000      -0.580232       -15.7889
  18   2.0000      -0.562843       -15.3157
  19   2.0000      -0.517280       -14.0759
  20   2.0000      -0.493920       -13.4402
  21   2.0000      -0.476082       -12.9548
  22   2.0000      -0.436011       -11.8645
  23   2.0000      -0.413107       -11.2412
  24   0.0000      -0.189592        -5.1591
  25   0.0000      -0.166415        -4.5284
  26   0.0000      -0.132413        -3.6031
  27   0.0000      -0.125648        -3.4191
  28   0.0000      -0.106730        -2.9043

MULLIKEN ATOMIC CHARGES
-----------------------
   0 C :   -0.190166
   1 N :   -0.237689
   2 C :    0.412092
   3 N :   -0.394826
   4 N :   -0.415025
   5 H :    0.289211
   6 H :    0.276961
   7 H :    0.261123
   8 H :    0.288372
   9 H :    0.287832
  10 C :   -0.298187
  11 H :    0.156417
  12 H :    0.140388
  13 H :    0.133886
  14 H :    0.160945
  15 H :    0.128668
Sum of atomic charges:    1.0000000

LOEWDIN ATOMIC CHARGES
----------------------
   0 C :   -0.281829
   1 N :    0.177064
   2 C :   -0.416340
   3 N :    0.076494
   4 N :    0.062484
   5 H :    0.193544
   6 H :    0.193492
   7 H :    0.210787
   8 H :    0.198107
   9 H :    0.197562
  10 C :   -0.273967
  11 H :    0.149351
  12 H :    0.135466
  13 H :    0.125242
  14 H :    0.134282
  15 H :    0.118260

  Mayer bond orders larger than 0.100000
B(  0-C ,  1-N ) :   0.9163 B(  0-C , 10-C ) :   1.0194 B(  0-C , 11-H ) :   0.9364
B(  0-C , 12-H ) :   0.9625 B(  1-N ,  2-C ) :   1.3912 B(  1-N ,  7-H ) :   0.8949
B(  2-C ,  3-N ) :   1.3476 B(  2-C ,  4-N ) :   1.3207 B(  3-N ,  8-H ) :   0.8899
B(  3-N ,  9-H ) :   0.8876 B(  4-N ,  5-H ) :   0.8799 B(  4-N ,  6-H ) :   0.8950
B( 10-C , 13-H ) :   0.9570 B( 10-C , 14-H ) :   0.9557 B( 10-C , 15-H ) :   0.9624

Dispersion correction           -0.015291452
FINAL SINGLE POINT ENERGY      -284.559366318713

DIPOLE MOMENT
-------------
                                X             Y             Z
Electronic contribution:     -1.80491       1.57524      -4.47255
Nuclear contribution   :      1.34333      -1.11039       3.43667
                        -----------------------------------------
Total Dipole Moment    :     -0.46158       0.46485      -1.03589
                        -----------------------------------------
Magnitude (a.u.)       :      1.22564
Magnitude (Debye)      :      3.11534

Rotational constants in cm-1:     0.227161     0.075356     0.065003
Rotational constants in MHz :  6810.114531  2259.122204  1948.738523

                             ****ORCA TERMINATED NORMALLY****
TOTAL RUN TIME: 0 days 0 hours 0 minutes 12 seconds 74 msec
