                         Program Version 5.0.0 -  RELEASE  -
|  1> !TPSS D3BJ RIJCOSX def2-TZVP def2/J TightSCF
|  2> *xyz 0 1
|  3> C          4.90646       -3.10282       -5.95484
|  4> C          3.51177       -2.80621       -6.49228
|  5> H          2.73604       -3.37345       -5.97374
|  6> H          3.44490       -3.04083       -7.55528
|  7> S          3.00462       -1.09621       -6.38926
|  8> F          4.12886       -0.32965       -6.95372
|  9> O          1.78128       -1.00078       -7.13640
| 10> O          2.85155       -0.78368       -4.95679
| 11> H          5.62703       -2.52424       -6.49422
| 12> H          5.12164       -4.14387       -6.07654
| 13> H          4.95004       -2.84862       -4.91639
| 14> *
| 15>
| 16> %MaxCore 64000
| 17>
| 18> %pal nprocs 4
| 19> end
| 20>
| 21> %scf
| 22>   MaxIter 150
| 23> end
| 24>
| 25>
| 26>                          ****END OF INPUT****

CARTESIAN COORDINATES (ANGSTROEM)
---------------------------------
  C      4.906460   -3.102820   -5.954840
  C      3.511770   -2.806210   -6.492280
  H      2.736040   -3.373450   -5.973740
  H      3.444900   -3.040830   -7.555280
  S      3.004620   -1.096210   -6.389260
  F      4.128860   -0.329650   -6.953720
  O      1.781280   -1.000780   -7.136400
  O      2.851550   -0.783680   -4.956790
  H      5.627030   -2.524240   -6.494220
  H      5.121640   -4.143870   -6.076540
  H      4.950040   -2.848620   -4.916390

 Total Charge           Charge          ....    0
 Multiplicity           Mult            ....    1
 Number of Electrons    NEL             ....   58
 Basis Dimension        Dim             ....  222

ORBITAL ENERGIES
----------------

  NO   OCC          E(Eh)            E(eV)
   0   2.0000     -88.579739     -2410.3773
   1   2.0000     -24.508980      -666.9233
   2   2.0000     -18.894280      -514.1395
   3   2.0000     -18.882726      -513.8251
   4   2.0000     -10.045030      -273.3391
   5   2.0000     -10.007588      -272.3203
   6   2.0000      -7.929275      -215.7666
   7   2.0000      -5.912656      -160.8915
   8   2.0000      -5.905683      -160.7018
   9   2.0000      -5.905450      -160.6955
  10   2.0000      -1.273682       -34.6587
  11   2.0000      -1.032397       -28.0929
  12   2.0000      -0.939830       -25.5741
  13   2.0000      -0.768834       -20.9210
  14   2.0000      -0.666808       -18.1448
  15   2.0000      -0.620824       -16.8935
  16   2.0000      -0.527213       -14.3462
  17   2.0000      -0.506387       -13.7795
  18   2.0000      -0.492319       -13.3967
  19   2.0000      -0.452516       -12.3136
  20   2.0000      -0.427787       -11.6407
  21   2.0000      -0.406262       -11.0550
  22   2.0000      -0.391147       -10.6436
  23   2.0000      -0.372100       -10.1253
  24   2.0000      -0.360911        -9.8209
  25   2.0000      -0.336932        -9.1684
  26   2.0000      -0.294065        -8.0019
  27   2.0000      -0.282947        -7.6994
  28   2.0000      -0.265686        -7.2297
  29   0.0000      -0.007727        -0.2103
  30   0.0000       0.025192         0.6855
  31   0.0000       0.041031         1.1165
  32   0.0000       0.051432         1.3995
  33   0.0000       0.059295         1.6135

MULLIKEN ATOMIC CHARGES
-----------------------
   0 C :   -0.344328
   1 C :   -0.212938
   2 H :    0.151818
   3 H :    0.133781
   4 S :    0.766461
   5 F :   -0.100785
   6 O :   -0.372677
   7 O :   -0.416166
   8 H :    0.123002
   9 H :    0.128185
  10 H :    0.143646
Sum of atomic charges:    0.0000000

LOEWDIN ATOMIC CHARGES
----------------------
   0 C :   -0.307565
   1 C :   -0.392007
   2 H :    0.148194
   3 H :    0.136979
   4 S :    0.500549
   5 F :    0.071893
   6 O :   -0.237947
   7 O :   -0.284576
   8 H :    0.117514
   9 H :    0.122909
  10 H :    0.124057

  Mayer bond orders larger than 0.100000
B(  0-C ,  1-C ) :   1.0068 B(  0-C ,  8-H ) :   0.9655 B(  0-C ,  9-H ) :   0.9539
B(  0-C , 10-H ) :   0.9621 B(  1-C ,  2-H ) :   0.9315 B(  1-C ,  3-H ) :   0.9308
B(  1-C ,  4-S ) :   0.9055 B(  4-S ,  5-F ) :   1.1155 B(  4-S ,  6-O ) :   1.9726
B(  4-S ,  7-O ) :   1.9100

Dispersion correction           -0.011527403
FINAL SINGLE POINT ENERGY      -727.912129192556

DIPOLE MOMENT
-------------
                                X             Y             Z
Electronic contribution:     -3.04296       8.25845      -1.72753
Nuclear contribution   :      4.18919      -9.36357       1.23251
                        -----------------------------------------
Total Dipole Moment    :      1.14623      -1.10512      -0.49502
                        -----------------------------------------
Magnitude (a.u.)       :      1.66739
Magnitude (Debye)      :      4.23816

Rotational constants in cm-1:     0.153152     0.082513     0.079874
Rotational constants in MHz :  4591.373714  2473.673397  2394.575279

                             ****ORCA TERMINATED NORMALLY****
TOTAL RUN TIME: 0 days 0 hours 0 minutes 9 seconds 458 msec
