                         Program Version 5.0.0 -  RELEASE  -
|  1> !TPSS D3BJ RIJCOSX def2-TZVP def2/J TightSCF
|  2> *xyz 0 1
|  3> C          4.49059        1.15590       -2.46929
|  4> C          4.30539        1.22276       -3.90832
|  5> C          4.63192        2.24637       -4.67096
|  6> N          4.54169        2.14399       -5.98714
|  7> N          5.08409        3.39358       -4.11855
|  8> H          4.92067        3.57050       -3.13587
|  9> H          5.25465        4.19739       -4.70696
| 10> H          3.82453        0.44911       -4.35093
| 11> H          4.34337        1.24932       -6.41665
| 12> H          4.67671        2.95662       -6.57411
| 13> C          5.94213        0.93950       -2.03689
| 14> H          3.86431        0.32853       -2.13661
| 15> H          4.07623        2.04999       -1.98901
| 16> H          6.32982        0.06401       -2.51451
| 17> H          5.98308        0.81426       -0.97504
| 18> H          6.52865        1.78889       -2.31873
| 19> *
| 20>
| 21> %MaxCore 64000
| 22>
| 23> %pal nprocs 4
| 24> end
| 25>
| 26> %scf
| 27>   MaxIter 150
| 28> end
| 29>
| 30>
| 31>                          ****END OF INPUT****

CARTESIAN COORDINATES (ANGSTROEM)
---------------------------------
  C      4.490590    1.155900   -2.469290
  C      4.305390    1.222760   -3.908320
  C      4.631920    2.246370   -4.670960
  N      4.541690    2.143990   -5.987140
  N      5.084090    3.393580   -4.118550
  H      4.920670    3.570500   -3.135870
  H      5.254650    4.197390   -4.706960
  H      3.824530    0.449110   -4.350930
  H      4.343370    1.249320   -6.416650
  H      4.676710    2.956620   -6.574110
  C      5.942130    0.939500   -2.036890
  H      3.864310    0.328530   -2.136610
  H      4.076230    2.049990   -1.989010
  H      6.329820    0.064010   -2.514510
  H      5.983080    0.814260   -0.975040
  H      6.528650    1.788890   -2.318730

 Total Charge           Charge          ....    0
 Multiplicity           Mult            ....    1
 Number of Electrons    NEL             ....   48
 Basis Dimension        Dim             ....  246

ORBITAL ENERGIES
----------------

  NO   OCC          E(Eh)            E(eV)
   0   2.0000     -14.099963      -383.6795
   1   2.0000     -14.097885      -383.6230
   2   2.0000     -10.017744      -272.5967
   3   2.0000      -9.956132      -270.9201
   4   2.0000      -9.944863      -270.6135
   5   2.0000      -9.900187      -269.3978
   6   2.0000      -0.892561       -24.2878
   7   2.0000      -0.809269       -22.0213
   8   2.0000      -0.711243       -19.3539
   9   2.0000      -0.637435       -17.3455
  10   2.0000      -0.565971       -15.4008
  11   2.0000      -0.526908       -14.3379
  12   2.0000      -0.493305       -13.4235
  13   2.0000      -0.462280       -12.5793
  14   2.0000      -0.430363       -11.7108
  15   2.0000      -0.393114       -10.6972
  16   2.0000      -0.375512       -10.2182
  17   2.0000      -0.347517        -9.4564
  18   2.0000      -0.338346        -9.2069
  19   2.0000      -0.307911        -8.3787
  20   2.0000      -0.287947        -7.8354
  21   2.0000      -0.279353        -7.6016
  22   2.0000      -0.222178        -6.0458
  23   2.0000      -0.126977        -3.4552
  24   0.0000       0.008121         0.2210
  25   0.0000       0.038084         1.0363
  26   0.0000       0.049333         1.3424
  27   0.0000       0.062705         1.7063
  28   0.0000       0.073521         2.0006

MULLIKEN ATOMIC CHARGES
-----------------------
   0 C :   -0.180745
   1 C :   -0.343329
   2 C :    0.351486
   3 N :   -0.476889
   4 N :   -0.501620
   5 H :    0.246914
   6 H :    0.214102
   7 H :    0.085879
   8 H :    0.245978
   9 H :    0.216357
  10 C :   -0.280968
  11 H :    0.077180
  12 H :    0.057092
  13 H :    0.095116
  14 H :    0.092347
  15 H :    0.101097
Sum of atomic charges:   -0.0000000

LOEWDIN ATOMIC CHARGES
----------------------
   0 C :   -0.305703
   1 C :   -0.281674
   2 C :   -0.459988
   3 N :   -0.005401
   4 N :   -0.015470
   5 H :    0.172430
   6 H :    0.158096
   7 H :    0.117992
   8 H :    0.177075
   9 H :    0.158902
  10 C :   -0.296990
  11 H :    0.136937
  12 H :    0.119507
  13 H :    0.111203
  14 H :    0.104257
  15 H :    0.108827

  Mayer bond orders larger than 0.100000
B(  0-C ,  1-C ) :   1.0738 B(  0-C , 10-C ) :   0.9956 B(  0-C , 11-H ) :   0.9510
B(  0-C , 12-H ) :   0.9544 B(  1-C ,  2-C ) :   1.6763 B(  1-C ,  7-H ) :   0.9776
B(  2-C ,  3-N ) :   1.1485 B(  2-C ,  4-N ) :   1.1221 B(  3-N ,  8-H ) :   0.9128
B(  3-N ,  9-H ) :   0.9157 B(  4-N ,  5-H ) :   0.9057 B(  4-N ,  6-H ) :   0.9226
B( 10-C , 13-H ) :   0.9727 B( 10-C , 14-H ) :   0.9652 B( 10-C , 15-H ) :   0.9721

Dispersion correction           -0.015909588
FINAL SINGLE POINT ENERGY      -268.066535669922

DIPOLE MOMENT
-------------
                                X             Y             Z
Electronic contribution:     -1.25481       2.03340      -4.20888
Nuclear contribution   :      1.23062      -1.24683       3.43056
                        -----------------------------------------
Total Dipole Moment    :     -0.02420       0.78657      -0.77832
                        -----------------------------------------
Magnitude (a.u.)       :      1.10682
Magnitude (Debye)      :      2.81332

Rotational constants in cm-1:     0.231477     0.075416     0.065327
Rotational constants in MHz :  6939.497385  2260.912204  1958.442932

                             ****ORCA TERMINATED NORMALLY****
TOTAL RUN TIME: 0 days 0 hours 0 minutes 13 seconds 582 msec
