                         Program Version 5.0.0 -  RELEASE  -
|  1> !TPSS D3BJ RIJCOSX def2-TZVP def2/J TightSCF
|  2> *xyz 0 1
|  3> C          4.90646       -3.10282       -5.95484
|  4> C          3.51177       -2.80621       -6.49228
|  5> H          2.73604       -3.37345       -5.97374
|  6> H          3.44490       -3.04083       -7.55528
|  7> S          3.00462       -1.09621       -6.38926
|  8> O          4.12886       -0.32965       -6.95372
|  9> F          1.78128       -1.00078       -7.13640
| 10> O          2.85155       -0.78368       -4.95679
| 11> H          5.62703       -2.52424       -6.49422
| 12> H          5.12164       -4.14387       -6.07654
| 13> H          4.95004       -2.84862       -4.91639
| 14> *
| 15>
| 16> %MaxCore 64000
| 17>
| 18> %pal nprocs 4
| 19> end
| 20>
| 21> %scf
| 22>   MaxIter 150
| 23> end
| 24>
| 25>
| 26>                          ****END OF INPUT****

CARTESIAN COORDINATES (ANGSTROEM)
---------------------------------
  C      4.906460   -3.102820   -5.954840
  C      3.511770   -2.806210   -6.492280
  H      2.736040   -3.373450   -5.973740
  H      3.444900   -3.040830   -7.555280
  S      3.004620   -1.096210   -6.389260
  O      4.128860   -0.329650   -6.953720
  F      1.781280   -1.000780   -7.136400
  O      2.851550   -0.783680   -4.956790
  H      5.627030   -2.524240   -6.494220
  H      5.121640   -4.143870   -6.076540
  H      4.950040   -2.848620   -4.916390

 Total Charge           Charge          ....    0
 Multiplicity           Mult            ....    1
 Number of Electrons    NEL             ....   58
 Basis Dimension        Dim             ....  222

ORBITAL ENERGIES
----------------

  NO   OCC          E(Eh)            E(eV)
   0   2.0000     -88.581610     -2410.4281
   1   2.0000     -24.527116      -667.4168
   2   2.0000     -18.882609      -513.8219
   3   2.0000     -18.882486      -513.8186
   4   2.0000     -10.045619      -273.3552
   5   2.0000     -10.003732      -272.2154
   6   2.0000      -7.931037      -215.8145
   7   2.0000      -5.914290      -160.9360
   8   2.0000      -5.907506      -160.7514
   9   2.0000      -5.907169      -160.7422
  10   2.0000      -1.303367       -35.4664
  11   2.0000      -1.018829       -27.7237
  12   2.0000      -0.926808       -25.2197
  13   2.0000      -0.765825       -20.8392
  14   2.0000      -0.679585       -18.4925
  15   2.0000      -0.622409       -16.9366
  16   2.0000      -0.531020       -14.4498
  17   2.0000      -0.527675       -14.3588
  18   2.0000      -0.502824       -13.6825
  19   2.0000      -0.453357       -12.3365
  20   2.0000      -0.430138       -11.7046
  21   2.0000      -0.391396       -10.6504
  22   2.0000      -0.387796       -10.5525
  23   2.0000      -0.369973       -10.0675
  24   2.0000      -0.352991        -9.6054
  25   2.0000      -0.331593        -9.0231
  26   2.0000      -0.283041        -7.7019
  27   2.0000      -0.279885        -7.6161
  28   2.0000      -0.254457        -6.9241
  29   0.0000      -0.000262        -0.0071
  30   0.0000       0.014730         0.4008
  31   0.0000       0.039556         1.0764
  32   0.0000       0.047034         1.2799
  33   0.0000       0.057296         1.5591

MULLIKEN ATOMIC CHARGES
-----------------------
   0 C :   -0.339076
   1 C :   -0.202790
   2 H :    0.129796
   3 H :    0.123334
   4 S :    0.759099
   5 O :   -0.408515
   6 F :   -0.068355
   7 O :   -0.407938
   8 H :    0.146350
   9 H :    0.126748
  10 H :    0.141348
Sum of atomic charges:    0.0000000

LOEWDIN ATOMIC CHARGES
----------------------
   0 C :   -0.292569
   1 C :   -0.398650
   2 H :    0.135050
   3 H :    0.133898
   4 S :    0.492928
   5 O :   -0.278375
   6 F :    0.114872
   7 O :   -0.281907
   8 H :    0.125879
   9 H :    0.123266
  10 H :    0.125608

  Mayer bond orders larger than 0.100000
B(  0-C ,  1-C ) :   1.0221 B(  0-C ,  8-H ) :   0.9615 B(  0-C ,  9-H ) :   0.9503
B(  0-C , 10-H ) :   0.9638 B(  1-C ,  2-H ) :   0.9253 B(  1-C ,  3-H ) :   0.9242
B(  1-C ,  4-S ) :   0.9126 B(  4-S ,  5-O ) :   1.9013 B(  4-S ,  6-F ) :   1.1649
B(  4-S ,  7-O ) :   1.9155

Dispersion correction           -0.011596351
FINAL SINGLE POINT ENERGY      -727.897337475982

DIPOLE MOMENT
-------------
                                X             Y             Z
Electronic contribution:     -6.95611       7.15522      -2.03077
Nuclear contribution   :      6.63544      -8.66423       1.42287
                        -----------------------------------------
Total Dipole Moment    :     -0.32066      -1.50901      -0.60790
                        -----------------------------------------
Magnitude (a.u.)       :      1.65815
Magnitude (Debye)      :      4.21469

Rotational constants in cm-1:     0.158118     0.080978     0.078216
Rotational constants in MHz :  4740.271775  2427.649826  2344.849020

                             ****ORCA TERMINATED NORMALLY****
TOTAL RUN TIME: 0 days 0 hours 0 minutes 10 seconds 428 msec
