                         Program Version 5.0.0 -  RELEASE  -
|  1> !TPSS D3BJ RIJCOSX def2-TZVP def2/J TightSCF
|  2> *xyz 0 1
|  3> C          4.49059        1.15590       -2.46929
|  4> N          4.30539        1.22276       -3.90832
|  5> C          4.63192        2.24637       -4.67096
|  6> C          4.54169        2.14399       -5.98714
|  7> N          5.08409        3.39358       -4.11855
|  8> H          4.92067        3.57050       -3.13587
|  9> H          5.25465        4.19739       -4.70696
| 10> H          3.82453        0.44911       -4.35093
| 11> H          4.34337        1.24932       -6.41665
| 12> H          4.67671        2.95662       -6.57411
| 13> C          5.94213        0.93950       -2.03689
| 14> H          3.86431        0.32853       -2.13661
| 15> H          4.07623        2.04999       -1.98901
| 16> H          6.32982        0.06401       -2.51451
| 17> H          5.98308        0.81426       -0.97504
| 18> H          6.52865        1.78889       -2.31873
| 19> *
| 20>
| 21> %MaxCore 64000
| 22>
| 23> %pal nprocs 4
| 24> end
| 25>
| 26> %scf
| 27>   MaxIter 150
| 28> end
| 29>
| 30>
| 31>                          ****END OF INPUT****

CARTESIAN COORDINATES (ANGSTROEM)
---------------------------------
  C      4.490590    1.155900   -2.469290
  N      4.305390    1.222760   -3.908320
  C      4.631920    2.246370   -4.670960
  C      4.541690    2.143990   -5.987140
  N      5.084090    3.393580   -4.118550
  H      4.920670    3.570500   -3.135870
  H      5.254650    4.197390   -4.706960
  H      3.824530    0.449110   -4.350930
  H      4.343370    1.249320   -6.416650
  H      4.676710    2.956620   -6.574110
  C      5.942130    0.939500   -2.036890
  H      3.864310    0.328530   -2.136610
  H      4.076230    2.049990   -1.989010
  H      6.329820    0.064010   -2.514510
  H      5.983080    0.814260   -0.975040
  H      6.528650    1.788890   -2.318730

 Total Charge           Charge          ....    0
 Multiplicity           Mult            ....    1
 Number of Electrons    NEL             ....   48
 Basis Dimension        Dim             ....  246

ORBITAL ENERGIES
----------------

  NO   OCC          E(Eh)            E(eV)
   0   2.0000     -14.099124      -383.6567
   1   2.0000     -14.098114      -383.6292
   2   2.0000     -10.024574      -272.7825
   3   2.0000     -10.019411      -272.6420
   4   2.0000      -9.972254      -271.3588
   5   2.0000      -9.892808      -269.1970
   6   2.0000      -0.900333       -24.4993
   7   2.0000      -0.819750       -22.3065
   8   2.0000      -0.712995       -19.4016
   9   2.0000      -0.646063       -17.5803
  10   2.0000      -0.579714       -15.7748
  11   2.0000      -0.548085       -14.9142
  12   2.0000      -0.487513       -13.2659
  13   2.0000      -0.452471       -12.3124
  14   2.0000      -0.436419       -11.8756
  15   2.0000      -0.405596       -11.0368
  16   2.0000      -0.380491       -10.3537
  17   2.0000      -0.359743        -9.7891
  18   2.0000      -0.341504        -9.2928
  19   2.0000      -0.334135        -9.0923
  20   2.0000      -0.321153        -8.7390
  21   2.0000      -0.313606        -8.5337
  22   2.0000      -0.213529        -5.8104
  23   2.0000      -0.129786        -3.5317
  24   0.0000       0.009921         0.2700
  25   0.0000       0.033502         0.9116
  26   0.0000       0.046840         1.2746
  27   0.0000       0.060494         1.6461
  28   0.0000       0.073642         2.0039

MULLIKEN ATOMIC CHARGES
-----------------------
   0 C :   -0.160033
   1 N :   -0.301177
   2 C :    0.385464
   3 C :   -0.545496
   4 N :   -0.505173
   5 H :    0.226525
   6 H :    0.238530
   7 H :    0.223985
   8 H :    0.095813
   9 H :    0.090141
  10 C :   -0.260097
  11 H :    0.102838
  12 H :    0.092170
  13 H :    0.100467
  14 H :    0.102179
  15 H :    0.113865
Sum of atomic charges:   -0.0000000

LOEWDIN ATOMIC CHARGES
----------------------
   0 C :   -0.315210
   1 N :    0.126171
   2 C :   -0.465719
   3 C :   -0.336423
   4 N :   -0.014369
   5 H :    0.158150
   6 H :    0.173966
   7 H :    0.193888
   8 H :    0.094995
   9 H :    0.094216
  10 C :   -0.297140
  11 H :    0.129475
  12 H :    0.118307
  13 H :    0.114184
  14 H :    0.112216
  15 H :    0.113293

  Mayer bond orders larger than 0.100000
B(  0-C ,  1-N ) :   1.0047 B(  0-C , 10-C ) :   0.9956 B(  0-C , 11-H ) :   0.9563
B(  0-C , 12-H ) :   0.9674 B(  1-N ,  2-C ) :   1.1990 B(  1-N ,  7-H ) :   0.9182
B(  2-C ,  3-C ) :   1.6262 B(  2-C ,  4-N ) :   1.1220 B(  3-C ,  8-H ) :   1.0011
B(  3-C ,  9-H ) :   0.9838 B(  4-N ,  5-H ) :   0.9109 B(  4-N ,  6-H ) :   0.9174
B( 10-C , 13-H ) :   0.9640 B( 10-C , 14-H ) :   0.9569 B( 10-C , 15-H ) :   0.9662

Dispersion correction           -0.015764985
FINAL SINGLE POINT ENERGY      -268.061755104873

DIPOLE MOMENT
-------------
                                X             Y             Z
Electronic contribution:     -1.42295       1.09225      -1.95455
Nuclear contribution   :      1.28075      -1.05140       2.98955
                        -----------------------------------------
Total Dipole Moment    :     -0.14220       0.04085       1.03500
                        -----------------------------------------
Magnitude (a.u.)       :      1.04552
Magnitude (Debye)      :      2.65751

Rotational constants in cm-1:     0.229858     0.078444     0.067377
Rotational constants in MHz :  6890.979812  2351.691803  2019.910665

                             ****ORCA TERMINATED NORMALLY****
TOTAL RUN TIME: 0 days 0 hours 0 minutes 12 seconds 636 msec
