                         Program Version 5.0.0 -  RELEASE  -
|  1> !TPSS D3BJ RIJCOSX def2-TZVP def2/J TightSCF
|  2> *xyz 0 1
|  3> C          4.90646       -3.10282       -5.95484
|  4> C          3.51177       -2.80621       -6.49228
|  5> H          2.73604       -3.37345       -5.97374
|  6> H          3.44490       -3.04083       -7.55528
|  7> S          3.00462       -1.09621       -6.38926
|  8> O          4.12886       -0.32965       -6.95372
|  9> O          1.78128       -1.00078       -7.13640
| 10> F          2.85155       -0.78368       -4.95679
| 11> H          5.62703       -2.52424       -6.49422
| 12> H          5.12164       -4.14387       -6.07654
| 13> H          4.95004       -2.84862       -4.91639
| 14> *
| 15>
| 16> %MaxCore 64000
| 17>
| 18> %pal nprocs 4
| 19> end
| 20>
| 21> %scf
| 22>   MaxIter 150
| 23> end
| 24>
| 25>
| 26>                          ****END OF INPUT****

CARTESIAN COORDINATES (ANGSTROEM)
---------------------------------
  C      4.906460   -3.102820   -5.954840
  C      3.511770   -2.806210   -6.492280
  H      2.736040   -3.373450   -5.973740
  H      3.444900   -3.040830   -7.555280
  S      3.004620   -1.096210   -6.389260
  O      4.128860   -0.329650   -6.953720
  O      1.781280   -1.000780   -7.136400
  F      2.851550   -0.783680   -4.956790
  H      5.627030   -2.524240   -6.494220
  H      5.121640   -4.143870   -6.076540
  H      4.950040   -2.848620   -4.916390

 Total Charge           Charge          ....    0
 Multiplicity           Mult            ....    1
 Number of Electrons    NEL             ....   58
 Basis Dimension        Dim             ....  222

ORBITAL ENERGIES
----------------

  NO   OCC          E(Eh)            E(eV)
   0   2.0000     -88.579834     -2410.3798
   1   2.0000     -24.508646      -666.9142
   2   2.0000     -18.894505      -514.1456
   3   2.0000     -18.883241      -513.8391
   4   2.0000     -10.044883      -273.3352
   5   2.0000     -10.004655      -272.2405
   6   2.0000      -7.929366      -215.7690
   7   2.0000      -5.912714      -160.8931
   8   2.0000      -5.905790      -160.7047
   9   2.0000      -5.905558      -160.6984
  10   2.0000      -1.272784       -34.6342
  11   2.0000      -1.032634       -28.0994
  12   2.0000      -0.941474       -25.6188
  13   2.0000      -0.766645       -20.8615
  14   2.0000      -0.666165       -18.1273
  15   2.0000      -0.619666       -16.8620
  16   2.0000      -0.524700       -14.2778
  17   2.0000      -0.505198       -13.7471
  18   2.0000      -0.494084       -13.4447
  19   2.0000      -0.451156       -12.2766
  20   2.0000      -0.430318       -11.7096
  21   2.0000      -0.406319       -11.0565
  22   2.0000      -0.388083       -10.5603
  23   2.0000      -0.367964       -10.0128
  24   2.0000      -0.361195        -9.8286
  25   2.0000      -0.335437        -9.1277
  26   2.0000      -0.294092        -8.0027
  27   2.0000      -0.283637        -7.7182
  28   2.0000      -0.267379        -7.2757
  29   0.0000      -0.007226        -0.1966
  30   0.0000       0.022196         0.6040
  31   0.0000       0.039146         1.0652
  32   0.0000       0.053056         1.4437
  33   0.0000       0.063895         1.7387

MULLIKEN ATOMIC CHARGES
-----------------------
   0 C :   -0.337538
   1 C :   -0.218386
   2 H :    0.129213
   3 H :    0.152326
   4 S :    0.768151
   5 O :   -0.416554
   6 O :   -0.373938
   7 F :   -0.099574
   8 H :    0.151055
   9 H :    0.125906
  10 H :    0.119339
Sum of atomic charges:    0.0000000

LOEWDIN ATOMIC CHARGES
----------------------
   0 C :   -0.306024
   1 C :   -0.393940
   2 H :    0.134316
   3 H :    0.149298
   4 S :    0.501278
   5 O :   -0.280560
   6 O :   -0.238496
   7 F :    0.068737
   8 H :    0.125303
   9 H :    0.122031
  10 H :    0.118057

  Mayer bond orders larger than 0.100000
B(  0-C ,  1-C ) :   1.0070 B(  0-C ,  8-H ) :   0.9603 B(  0-C ,  9-H ) :   0.9525
B(  0-C , 10-H ) :   0.9659 B(  1-C ,  2-H ) :   0.9324 B(  1-C ,  3-H ) :   0.9305
B(  1-C ,  4-S ) :   0.9069 B(  4-S ,  5-O ) :   1.8966 B(  4-S ,  6-O ) :   1.9712
B(  4-S ,  7-F ) :   1.1206

Dispersion correction           -0.011546626
FINAL SINGLE POINT ENERGY      -727.912551477903

DIPOLE MOMENT
-------------
                                X             Y             Z
Electronic contribution:     -5.18143       7.51403       1.61287
Nuclear contribution   :      5.52019      -8.89046      -0.84835
                        -----------------------------------------
Total Dipole Moment    :      0.33876      -1.37643       0.76452
                        -----------------------------------------
Magnitude (a.u.)       :      1.61053
Magnitude (Debye)      :      4.09364

Rotational constants in cm-1:     0.153332     0.082132     0.079755
Rotational constants in MHz :  4596.775407  2462.251277  2391.008596

                             ****ORCA TERMINATED NORMALLY****
TOTAL RUN TIME: 0 days 0 hours 0 minutes 9 seconds 826 msec
