                         Program Version 5.0.0 -  RELEASE  -
|  1> !TPSS D3BJ RIJCOSX def2-TZVP def2/J TightSCF
|  2> *xyz 0 1
|  3> C          4.49059        1.15590       -2.46929
|  4> N          4.30539        1.22276       -3.90832
|  5> C          4.63192        2.24637       -4.67096
|  6> N          4.54169        2.14399       -5.98714
|  7> C          5.08409        3.39358       -4.11855
|  8> H          4.92067        3.57050       -3.13587
|  9> H          5.25465        4.19739       -4.70696
| 10> H          3.82453        0.44911       -4.35093
| 11> H          4.34337        1.24932       -6.41665
| 12> H          4.67671        2.95662       -6.57411
| 13> C          5.94213        0.93950       -2.03689
| 14> H          3.86431        0.32853       -2.13661
| 15> H          4.07623        2.04999       -1.98901
| 16> H          6.32982        0.06401       -2.51451
| 17> H          5.98308        0.81426       -0.97504
| 18> H          6.52865        1.78889       -2.31873
| 19> *
| 20>
| 21> %MaxCore 64000
| 22>
| 23> %pal nprocs 4
| 24> end
| 25>
| 26> %scf
| 27>   MaxIter 150
| 28> end
| 29>
| 30>
| 31>                          ****END OF INPUT****

CARTESIAN COORDINATES (ANGSTROEM)
---------------------------------
  C      4.490590    1.155900   -2.469290
  N      4.305390    1.222760   -3.908320
  C      4.631920    2.246370   -4.670960
  N      4.541690    2.143990   -5.987140
  C      5.084090    3.393580   -4.118550
  H      4.920670    3.570500   -3.135870
  H      5.254650    4.197390   -4.706960
  H      3.824530    0.449110   -4.350930
  H      4.343370    1.249320   -6.416650
  H      4.676710    2.956620   -6.574110
  C      5.942130    0.939500   -2.036890
  H      3.864310    0.328530   -2.136610
  H      4.076230    2.049990   -1.989010
  H      6.329820    0.064010   -2.514510
  H      5.983080    0.814260   -0.975040
  H      6.528650    1.788890   -2.318730

 Total Charge           Charge          ....    0
 Multiplicity           Mult            ....    1
 Number of Electrons    NEL             ....   48
 Basis Dimension        Dim             ....  246

ORBITAL ENERGIES
----------------

  NO   OCC          E(Eh)            E(eV)
   0   2.0000     -14.102169      -383.7395
   1   2.0000     -14.100172      -383.6852
   2   2.0000     -10.021594      -272.7014
   3   2.0000     -10.016447      -272.5614
   4   2.0000      -9.962042      -271.0809
   5   2.0000      -9.893029      -269.2030
   6   2.0000      -0.903846       -24.5949
   7   2.0000      -0.825841       -22.4723
   8   2.0000      -0.695426       -18.9235
   9   2.0000      -0.649317       -17.6688
  10   2.0000      -0.588091       -16.0028
  11   2.0000      -0.514355       -13.9963
  12   2.0000      -0.503112       -13.6904
  13   2.0000      -0.476289       -12.9605
  14   2.0000      -0.425037       -11.5658
  15   2.0000      -0.396515       -10.7897
  16   2.0000      -0.368017       -10.0142
  17   2.0000      -0.352521        -9.5926
  18   2.0000      -0.340709        -9.2712
  19   2.0000      -0.325474        -8.8566
  20   2.0000      -0.318405        -8.6642
  21   2.0000      -0.308696        -8.4001
  22   2.0000      -0.209818        -5.7094
  23   2.0000      -0.130531        -3.5519
  24   0.0000       0.009206         0.2505
  25   0.0000       0.037484         1.0200
  26   0.0000       0.046517         1.2658
  27   0.0000       0.061741         1.6801
  28   0.0000       0.078054         2.1240

MULLIKEN ATOMIC CHARGES
-----------------------
   0 C :   -0.109960
   1 N :   -0.313610
   2 C :    0.363952
   3 N :   -0.480407
   4 C :   -0.554011
   5 H :    0.108328
   6 H :    0.076615
   7 H :    0.194028
   8 H :    0.216778
   9 H :    0.248835
  10 C :   -0.283618
  11 H :    0.094149
  12 H :    0.104567
  13 H :    0.088129
  14 H :    0.103081
  15 H :    0.143144
Sum of atomic charges:    0.0000000

LOEWDIN ATOMIC CHARGES
----------------------
   0 C :   -0.297563
   1 N :    0.123168
   2 C :   -0.474393
   3 N :   -0.001929
   4 C :   -0.351486
   5 H :    0.095836
   6 H :    0.090689
   7 H :    0.175963
   8 H :    0.159021
   9 H :    0.177766
  10 C :   -0.294720
  11 H :    0.126112
  12 H :    0.127287
  13 H :    0.110352
  14 H :    0.112845
  15 H :    0.121053

  Mayer bond orders larger than 0.100000
B(  0-C ,  1-N ) :   0.9958 B(  0-C , 10-C ) :   1.0138 B(  0-C , 11-H ) :   0.9540
B(  0-C , 12-H ) :   0.9580 B(  1-N ,  2-C ) :   1.1845 B(  1-N ,  7-H ) :   0.9211
B(  2-C ,  3-N ) :   1.1493 B(  2-C ,  4-C ) :   1.6199 B(  3-N ,  8-H ) :   0.9173
B(  3-N ,  9-H ) :   0.9114 B(  4-C ,  5-H ) :   0.9804 B(  4-C ,  6-H ) :   0.9895
B( 10-C , 13-H ) :   0.9652 B( 10-C , 14-H ) :   0.9604 B( 10-C , 15-H ) :   0.9661

Dispersion correction           -0.015869460
FINAL SINGLE POINT ENERGY      -268.060868962387

DIPOLE MOMENT
-------------
                                X             Y             Z
Electronic contribution:     -1.91267      -0.16598      -3.89030
Nuclear contribution   :      1.39581      -0.78630       3.38596
                        -----------------------------------------
Total Dipole Moment    :     -0.51686      -0.95228      -0.50434
                        -----------------------------------------
Magnitude (a.u.)       :      1.19513
Magnitude (Debye)      :      3.03779

Rotational constants in cm-1:     0.239249     0.075811     0.066261
Rotational constants in MHz :  7172.504830  2272.756282  1986.457543

                             ****ORCA TERMINATED NORMALLY****
TOTAL RUN TIME: 0 days 0 hours 0 minutes 12 seconds 816 msec
