                         Program Version 5.0.0 -  RELEASE  -
|  1> !TPSS D3BJ RIJCOSX def2-TZVP def2/J TightSCF xyzfile
|  2>
|  3> *xyzfile 0 1 D1.xyz
|  4>
|  5> %MaxCore 64000
|  6>
|  7> %pal nprocs 18
|  8> end
|  9>
| 10> %scf
| 11>   MaxIter 150
| 12> end
| 13>
| 14>
| 15>                          ****END OF INPUT****

CARTESIAN COORDINATES (ANGSTROEM)
---------------------------------
  C      4.490588    1.155899   -2.469290
  C      4.305394    1.222762   -3.908317
  C      4.906458   -3.102816   -5.954844
  C      3.511771   -2.806215   -6.492283
  H      2.736044   -3.373445   -5.973736
  H      3.444904   -3.040831   -7.555281
  S      3.004618   -1.096206   -6.389259
  C      4.631918    2.246365   -4.670958
  N      4.541686    2.143990   -5.987139
  N      5.084086    3.393584   -4.118545
  H      4.920675    3.570501   -3.135870
  H      5.254652    4.197390   -4.706956
  H      3.824530    0.449113   -4.350926
  H      4.343373    1.249318   -6.416646
  H      4.676712    2.956624   -6.574113
  F      4.128856   -0.329647   -6.953717
  O      1.781285   -1.000779   -7.136399
  C      5.942129    0.939500   -2.036893
  H      3.864305    0.328532   -2.136611
  H      4.076233    2.049994   -1.989010
  C      6.462677   -3.117775   -3.944671
  C      5.024977   -3.025679   -4.437625
  H      4.423321   -3.818693   -3.977648
  H      4.579350   -2.087131   -4.108727
  H      5.201533   -4.100207   -6.296905
  H      5.605922   -2.397822   -6.413368
  C      6.559957   -0.356290   -2.559086
  H      5.967976    0.952567   -0.942444
  H      6.547184    1.788331   -2.368849
  C      6.006283   -1.615917   -1.899301
  H      7.642360   -0.318000   -2.402059
  H      6.414855   -0.403433   -3.642587
  C      6.608718   -2.917014   -2.435655
  H      6.190324   -1.561115   -0.820948
  H      4.919250   -1.651245   -2.016586
  H      7.066975   -2.374258   -4.475514
  H      6.887808   -4.089747   -4.215332
  H      6.135197   -3.755573   -1.915159
  H      7.671142   -2.955503   -2.172291
  O      2.851546   -0.783683   -4.956789

 Total Charge           Charge          ....    0
 Multiplicity           Mult            ....    1
 Number of Electrons    NEL             ....  144
 Basis Dimension        Dim             ....  671

ORBITAL ENERGIES
----------------

  NO   OCC          E(Eh)            E(eV)
   0   2.0000     -88.588597     -2410.6183
   1   2.0000     -24.528819      -667.4631
   2   2.0000     -18.902557      -514.3647
   3   2.0000     -18.890607      -514.0396
   4   2.0000     -14.088552      -383.3690
   5   2.0000     -14.084334      -383.2542
   6   2.0000     -10.046125      -273.3689
   7   2.0000     -10.012370      -272.4504
   8   2.0000     -10.003634      -272.2127
   9   2.0000      -9.982977      -271.6506
  10   2.0000      -9.978728      -271.5350
  11   2.0000      -9.972410      -271.3631
  12   2.0000      -9.963395      -271.1178
  13   2.0000      -9.956411      -270.9277
  14   2.0000      -9.950969      -270.7796
  15   2.0000      -9.944771      -270.6110
  16   2.0000      -9.875611      -268.7290
  17   2.0000      -7.938624      -216.0209
  18   2.0000      -5.922145      -161.1498
  19   2.0000      -5.914994      -160.9552
  20   2.0000      -5.914503      -160.9418
  21   2.0000      -1.295806       -35.2607
  22   2.0000      -1.042786       -28.3757
  23   2.0000      -0.951741       -25.8982
  24   2.0000      -0.881237       -23.9797
  25   2.0000      -0.799385       -21.7524
  26   2.0000      -0.782546       -21.2942
  27   2.0000      -0.745770       -20.2934
  28   2.0000      -0.718346       -19.5472
  29   2.0000      -0.693766       -18.8783
  30   2.0000      -0.668421       -18.1887
  31   2.0000      -0.645822       -17.5737
  32   2.0000      -0.617431       -16.8011
  33   2.0000      -0.588018       -16.0008
  34   2.0000      -0.565538       -15.3891
  35   2.0000      -0.551550       -15.0084
  36   2.0000      -0.533781       -14.5249
  37   2.0000      -0.531082       -14.4515
  38   2.0000      -0.510370       -13.8879
  39   2.0000      -0.509625       -13.8676
  40   2.0000      -0.494894       -13.4668
  41   2.0000      -0.480449       -13.0737
  42   2.0000      -0.452578       -12.3153
  43   2.0000      -0.446955       -12.1623
  44   2.0000      -0.441844       -12.0232
  45   2.0000      -0.426747       -11.6124
  46   2.0000      -0.416796       -11.3416
  47   2.0000      -0.408821       -11.1246
  48   2.0000      -0.406704       -11.0670
  49   2.0000      -0.403433       -10.9780
  50   2.0000      -0.384455       -10.4616
  51   2.0000      -0.377681       -10.2772
  52   2.0000      -0.374335       -10.1862
  53   2.0000      -0.360575        -9.8117
  54   2.0000      -0.348955        -9.4956
  55   2.0000      -0.340408        -9.2630
  56   2.0000      -0.337796        -9.1919
  57   2.0000      -0.330955        -9.0057
  58   2.0000      -0.322640        -8.7795
  59   2.0000      -0.313748        -8.5375
  60   2.0000      -0.308537        -8.3957
  61   2.0000      -0.301585        -8.2066
  62   2.0000      -0.298242        -8.1156
  63   2.0000      -0.286607        -7.7990
  64   2.0000      -0.283204        -7.7064
  65   2.0000      -0.272911        -7.4263
  66   2.0000      -0.270987        -7.3739
  67   2.0000      -0.263457        -7.1690
  68   2.0000      -0.256794        -6.9877
  69   2.0000      -0.239663        -6.5216
  70   2.0000      -0.211694        -5.7605
  71   2.0000      -0.114035        -3.1030
  72   0.0000      -0.018842        -0.5127
  73   0.0000       0.016016         0.4358
  74   0.0000       0.020276         0.5517
  75   0.0000       0.029405         0.8001
  76   0.0000       0.035709         0.9717

MULLIKEN ATOMIC CHARGES
-----------------------
   0 C :   -0.262992
   1 C :   -0.400896
   2 C :   -0.164698
   3 C :   -0.182306
   4 H :    0.147125
   5 H :    0.145651
   6 S :    0.761564
   7 C :    0.365733
   8 N :   -0.484686
   9 N :   -0.502391
  10 H :    0.245496
  11 H :    0.208459
  12 H :    0.157636
  13 H :    0.231509
  14 H :    0.210190
  15 F :   -0.117321
  16 O :   -0.370006
  17 C :   -0.046598
  18 H :    0.086713
  19 H :    0.064004
  20 C :   -0.180554
  21 C :   -0.296396
  22 H :    0.076276
  23 H :    0.168244
  24 H :    0.104127
  25 H :    0.100946
  26 C :   -0.170719
  27 H :    0.049646
  28 H :    0.078043
  29 C :   -0.248752
  30 H :    0.068952
  31 H :    0.099626
  32 C :   -0.066189
  33 H :    0.077405
  34 H :    0.108931
  35 H :    0.098438
  36 H :    0.079382
  37 H :    0.072833
  38 H :    0.078189
  39 O :   -0.390613
Sum of atomic charges:   -0.0000000

LOEWDIN ATOMIC CHARGES
----------------------
   0 C :   -0.282790
   1 C :   -0.282065
   2 C :   -0.280690
   3 C :   -0.359430
   4 H :    0.152210
   5 H :    0.139926
   6 S :    0.514481
   7 C :   -0.467722
   8 N :   -0.016356
   9 N :   -0.018952
  10 H :    0.171240
  11 H :    0.154768
  12 H :    0.106813
  13 H :    0.147266
  14 H :    0.156028
  15 F :    0.082764
  16 O :   -0.229365
  17 C :   -0.259369
  18 H :    0.139434
  19 H :    0.121900
  20 C :   -0.265794
  21 C :   -0.267224
  22 H :    0.134542
  23 H :    0.142572
  24 H :    0.142043
  25 H :    0.137023
  26 C :   -0.263052
  27 H :    0.124415
  28 H :    0.129601
  29 C :   -0.265267
  30 H :    0.129296
  31 H :    0.133230
  32 C :   -0.261805
  33 H :    0.132261
  34 H :    0.132264
  35 H :    0.133695
  36 H :    0.130450
  37 H :    0.131591
  38 H :    0.132746
  39 O :   -0.232680

  Mayer bond orders larger than 0.100000
B(  0-C ,  1-C ) :   1.0575 B(  0-C , 17-C ) :   0.9977 B(  0-C , 18-H ) :   0.9713
B(  0-C , 19-H ) :   0.9449 B(  1-C ,  7-C ) :   1.6312 B(  1-C , 12-H ) :   0.9510
B(  2-C ,  3-C ) :   0.9991 B(  2-C , 21-C ) :   1.0147 B(  2-C , 24-H ) :   0.9302
B(  2-C , 25-H ) :   0.9538 B(  3-C ,  4-H ) :   0.9298 B(  3-C ,  5-H ) :   0.9347
B(  3-C ,  6-S ) :   0.9156 B(  6-S , 15-F ) :   1.0563 B(  6-S , 16-O ) :   1.9890
B(  6-S , 39-O ) :   1.8541 B(  7-C ,  8-N ) :   1.1575 B(  7-C ,  9-N ) :   1.1265
B(  8-N , 13-H ) :   0.8976 B(  8-N , 14-H ) :   0.9184 B(  9-N , 10-H ) :   0.9069
B(  9-N , 11-H ) :   0.9246 B( 17-C , 26-C ) :   1.0347 B( 17-C , 27-H ) :   0.9380
B( 17-C , 28-H ) :   0.9370 B( 20-C , 21-C ) :   1.0297 B( 20-C , 32-C ) :   1.0259
B( 20-C , 35-H ) :   0.9563 B( 20-C , 36-H ) :   0.9399 B( 21-C , 22-H ) :   0.9425
B( 21-C , 23-H ) :   0.9485 B( 26-C , 29-C ) :   1.0294 B( 26-C , 30-H ) :   0.9422
B( 26-C , 31-H ) :   0.9453 B( 29-C , 32-C ) :   1.0118 B( 29-C , 33-H ) :   0.9357
B( 29-C , 34-H ) :   0.9669 B( 32-C , 37-H ) :   0.9460 B( 32-C , 38-H ) :   0.9428

Dispersion correction           -0.060934295
FINAL SINGLE POINT ENERGY     -1191.437037863412

DIPOLE MOMENT
-------------
                                X             Y             Z
Electronic contribution:    -16.38679       4.99713     -21.49537
Nuclear contribution   :     17.24138      -5.45913      20.34076
                        -----------------------------------------
Total Dipole Moment    :      0.85459      -0.46200      -1.15461
                        -----------------------------------------
Magnitude (a.u.)       :      1.50894
Magnitude (Debye)      :      3.83541

Rotational constants in cm-1:     0.014201     0.012275     0.007453
Rotational constants in MHz :   425.728191   368.008875   223.435232

                             ****ORCA TERMINATED NORMALLY****
TOTAL RUN TIME: 0 days 0 hours 0 minutes 45 seconds 205 msec
