                         Program Version 5.0.0 -  RELEASE  -
|  1> !TPSS D3BJ RIJCOSX def2-TZVP def2/J TightSCF xyzfile
|  2>
|  3> *xyzfile 0 1 D3.xyz
|  4>
|  5> %MaxCore 64000
|  6>
|  7> %pal nprocs 18
|  8> end
|  9>
| 10> %scf
| 11>   MaxIter 150
| 12> end
| 13>
| 14>
| 15>                          ****END OF INPUT****

CARTESIAN COORDINATES (ANGSTROEM)
---------------------------------
  C      4.490588    1.155899   -2.469290
  N      4.305394    1.222762   -3.908317
  C      4.906458   -3.102816   -5.954844
  C      3.511771   -2.806215   -6.492283
  H      2.736044   -3.373445   -5.973736
  H      3.444904   -3.040831   -7.555281
  S      3.004618   -1.096206   -6.389259
  C      4.631918    2.246365   -4.670958
  N      4.541686    2.143990   -5.987139
  C      5.084086    3.393584   -4.118545
  H      4.920675    3.570501   -3.135870
  H      5.254652    4.197390   -4.706956
  H      3.824530    0.449113   -4.350926
  H      4.343373    1.249318   -6.416646
  H      4.676712    2.956624   -6.574113
  F      4.128856   -0.329647   -6.953717
  O      1.781285   -1.000779   -7.136399
  C      5.942129    0.939500   -2.036893
  H      3.864305    0.328532   -2.136611
  H      4.076233    2.049994   -1.989010
  C      6.462677   -3.117775   -3.944671
  C      5.024977   -3.025679   -4.437625
  H      4.423321   -3.818693   -3.977648
  H      4.579350   -2.087131   -4.108727
  H      5.201533   -4.100207   -6.296905
  H      5.605922   -2.397822   -6.413368
  C      6.559957   -0.356290   -2.559086
  H      5.967976    0.952567   -0.942444
  H      6.547184    1.788331   -2.368849
  C      6.006283   -1.615917   -1.899301
  H      7.642360   -0.318000   -2.402059
  H      6.414855   -0.403433   -3.642587
  C      6.608718   -2.917014   -2.435655
  H      6.190324   -1.561115   -0.820948
  H      4.919250   -1.651245   -2.016586
  H      7.066975   -2.374258   -4.475514
  H      6.887808   -4.089747   -4.215332
  H      6.135197   -3.755573   -1.915159
  H      7.671142   -2.955503   -2.172291
  O      2.851546   -0.783683   -4.956789

 Total Charge           Charge          ....    0
 Multiplicity           Mult            ....    1
 Number of Electrons    NEL             ....  144
 Basis Dimension        Dim             ....  671

ORBITAL ENERGIES
----------------

  NO   OCC          E(Eh)            E(eV)
   0   2.0000     -88.608109     -2411.1492
   1   2.0000     -24.544135      -667.8799
   2   2.0000     -18.919525      -514.8264
   3   2.0000     -18.916548      -514.7454
   4   2.0000     -14.084575      -383.2608
   5   2.0000     -14.072729      -382.9384
   6   2.0000     -10.060461      -273.7591
   7   2.0000     -10.024724      -272.7866
   8   2.0000     -10.005559      -272.2651
   9   2.0000      -9.999883      -272.1106
  10   2.0000      -9.996140      -272.0088
  11   2.0000      -9.989489      -271.8278
  12   2.0000      -9.982765      -271.6449
  13   2.0000      -9.975603      -271.4500
  14   2.0000      -9.969576      -271.2860
  15   2.0000      -9.963631      -271.1242
  16   2.0000      -9.879285      -268.8290
  17   2.0000      -7.958105      -216.5510
  18   2.0000      -5.941654      -161.6806
  19   2.0000      -5.934648      -161.4900
  20   2.0000      -5.933821      -161.4675
  21   2.0000      -1.311412       -35.6853
  22   2.0000      -1.062331       -28.9075
  23   2.0000      -0.973951       -26.5026
  24   2.0000      -0.886366       -24.1192
  25   2.0000      -0.810592       -22.0573
  26   2.0000      -0.796574       -21.6759
  27   2.0000      -0.756757       -20.5924
  28   2.0000      -0.724523       -19.7153
  29   2.0000      -0.698510       -19.0074
  30   2.0000      -0.671730       -18.2787
  31   2.0000      -0.645630       -17.5685
  32   2.0000      -0.632336       -17.2067
  33   2.0000      -0.605863       -16.4864
  34   2.0000      -0.580484       -15.7958
  35   2.0000      -0.559980       -15.2378
  36   2.0000      -0.549023       -14.9397
  37   2.0000      -0.544361       -14.8128
  38   2.0000      -0.528443       -14.3797
  39   2.0000      -0.515424       -14.0254
  40   2.0000      -0.493821       -13.4375
  41   2.0000      -0.478627       -13.0241
  42   2.0000      -0.472560       -12.8590
  43   2.0000      -0.457545       -12.4504
  44   2.0000      -0.452610       -12.3161
  45   2.0000      -0.436128       -11.8677
  46   2.0000      -0.429896       -11.6981
  47   2.0000      -0.423028       -11.5112
  48   2.0000      -0.412744       -11.2313
  49   2.0000      -0.403556       -10.9813
  50   2.0000      -0.395518       -10.7626
  51   2.0000      -0.391555       -10.6548
  52   2.0000      -0.377644       -10.2762
  53   2.0000      -0.366544        -9.9742
  54   2.0000      -0.355612        -9.6767
  55   2.0000      -0.350162        -9.5284
  56   2.0000      -0.344824        -9.3831
  57   2.0000      -0.337203        -9.1757
  58   2.0000      -0.328571        -8.9409
  59   2.0000      -0.327158        -8.9024
  60   2.0000      -0.318748        -8.6736
  61   2.0000      -0.314202        -8.5499
  62   2.0000      -0.311059        -8.4644
  63   2.0000      -0.308250        -8.3879
  64   2.0000      -0.298392        -8.1197
  65   2.0000      -0.292486        -7.9589
  66   2.0000      -0.291670        -7.9367
  67   2.0000      -0.278215        -7.5706
  68   2.0000      -0.277797        -7.5593
  69   2.0000      -0.268546        -7.3075
  70   2.0000      -0.193437        -5.2637
  71   2.0000      -0.116735        -3.1765
  72   0.0000      -0.033473        -0.9109
  73   0.0000       0.003803         0.1035
  74   0.0000       0.012282         0.3342
  75   0.0000       0.025311         0.6887
  76   0.0000       0.027199         0.7401

MULLIKEN ATOMIC CHARGES
-----------------------
   0 C :   -0.163630
   1 N :   -0.301058
   2 C :   -0.173811
   3 C :   -0.179598
   4 H :    0.151531
   5 H :    0.153531
   6 S :    0.775711
   7 C :    0.364735
   8 N :   -0.495951
   9 C :   -0.564349
  10 H :    0.108506
  11 H :    0.070877
  12 H :    0.190663
  13 H :    0.207801
  14 H :    0.241582
  15 F :   -0.109464
  16 O :   -0.356824
  17 C :   -0.049348
  18 H :    0.109669
  19 H :    0.109046
  20 C :   -0.185202
  21 C :   -0.286615
  22 H :    0.082124
  23 H :    0.143274
  24 H :    0.109983
  25 H :    0.106833
  26 C :   -0.217689
  27 H :    0.064573
  28 H :    0.116163
  29 C :   -0.245550
  30 H :    0.082879
  31 H :    0.092943
  32 C :   -0.069655
  33 H :    0.083501
  34 H :    0.103815
  35 H :    0.103180
  36 H :    0.084708
  37 H :    0.076936
  38 H :    0.084102
  39 O :   -0.419923
Sum of atomic charges:   -0.0000000

LOEWDIN ATOMIC CHARGES
----------------------
   0 C :   -0.275183
   1 N :    0.124423
   2 C :   -0.279726
   3 C :   -0.356734
   4 H :    0.153556
   5 H :    0.142922
   6 S :    0.519850
   7 C :   -0.477628
   8 N :   -0.013232
   9 C :   -0.359588
  10 H :    0.094851
  11 H :    0.087872
  12 H :    0.150921
  13 H :    0.134010
  14 H :    0.174418
  15 F :    0.085634
  16 O :   -0.218395
  17 C :   -0.260674
  18 H :    0.129025
  19 H :    0.129211
  20 C :   -0.264975
  21 C :   -0.268248
  22 H :    0.135864
  23 H :    0.137570
  24 H :    0.144282
  25 H :    0.138051
  26 C :   -0.264926
  27 H :    0.132187
  28 H :    0.141769
  29 C :   -0.267000
  30 H :    0.133433
  31 H :    0.130768
  32 C :   -0.260584
  33 H :    0.133897
  34 H :    0.129962
  35 H :    0.134481
  36 H :    0.132242
  37 H :    0.132681
  38 H :    0.134584
  39 O :   -0.251570

  Mayer bond orders larger than 0.100000
B(  0-C ,  1-N ) :   0.9850 B(  0-C , 17-C ) :   1.0107 B(  0-C , 18-H ) :   0.9639
B(  0-C , 19-H ) :   0.9463 B(  1-N ,  7-C ) :   1.1906 B(  1-N , 12-H ) :   0.8714
B(  2-C ,  3-C ) :   0.9974 B(  2-C , 21-C ) :   1.0124 B(  2-C , 24-H ) :   0.9292
B(  2-C , 25-H ) :   0.9549 B(  3-C ,  4-H ) :   0.9274 B(  3-C ,  5-H ) :   0.9341
B(  3-C ,  6-S ) :   0.9161 B(  6-S , 15-F ) :   1.0714 B(  6-S , 16-O ) :   2.0000
B(  6-S , 39-O ) :   1.7889 B(  7-C ,  8-N ) :   1.1425 B(  7-C ,  9-C ) :   1.6246
B(  8-N , 13-H ) :   0.9011 B(  8-N , 14-H ) :   0.9144 B(  9-C , 10-H ) :   0.9832
B(  9-C , 11-H ) :   0.9874 B( 17-C , 26-C ) :   1.0219 B( 17-C , 27-H ) :   0.9415
B( 17-C , 28-H ) :   0.9302 B( 20-C , 21-C ) :   1.0283 B( 20-C , 32-C ) :   1.0216
B( 20-C , 35-H ) :   0.9581 B( 20-C , 36-H ) :   0.9395 B( 21-C , 22-H ) :   0.9425
B( 21-C , 23-H ) :   0.9520 B( 26-C , 29-C ) :   1.0283 B( 26-C , 30-H ) :   0.9421
B( 26-C , 31-H ) :   0.9493 B( 29-C , 32-C ) :   1.0127 B( 29-C , 33-H ) :   0.9360
B( 29-C , 34-H ) :   0.9662 B( 32-C , 37-H ) :   0.9467 B( 32-C , 38-H ) :   0.9440

Dispersion correction           -0.060538107
FINAL SINGLE POINT ENERGY     -1191.446295991698

DIPOLE MOMENT
-------------
                                X             Y             Z
Electronic contribution:    -16.95277       2.74155     -21.36202
Nuclear contribution   :     17.35766      -5.13497      20.30937
                        -----------------------------------------
Total Dipole Moment    :      0.40490      -2.39342      -1.05265
                        -----------------------------------------
Magnitude (a.u.)       :      2.64584
Magnitude (Debye)      :      6.72519

Rotational constants in cm-1:     0.014431     0.012329     0.007535
Rotational constants in MHz :   432.628327   369.619539   225.898827

                             ****ORCA TERMINATED NORMALLY****
TOTAL RUN TIME: 0 days 0 hours 0 minutes 35 seconds 982 msec
