                         Program Version 5.0.0 -  RELEASE  -
|  1> !TPSS D3BJ RIJCOSX def2-TZVP def2/J TightSCF xyzfile
|  2>
|  3> *xyzfile 0 1 D6.xyz
|  4>
|  5> %MaxCore 64000
|  6>
|  7> %pal nprocs 18
|  8> end
|  9>
| 10> %scf
| 11>   MaxIter 150
| 12> end
| 13>
| 14>
| 15>                          ****END OF INPUT****

CARTESIAN COORDINATES (ANGSTROEM)
---------------------------------
  C      4.490588    1.155899   -2.469290
  N      4.305394    1.222762   -3.908317
  C      4.906458   -3.102816   -5.954844
  C      3.511771   -2.806215   -6.492283
  H      2.736044   -3.373445   -5.973736
  H      3.444904   -3.040831   -7.555281
  S      3.004618   -1.096206   -6.389259
  C      4.631918    2.246365   -4.670958
  N      4.541686    2.143990   -5.987139
  C      5.084086    3.393584   -4.118545
  H      4.920675    3.570501   -3.135870
  H      5.254652    4.197390   -4.706956
  H      3.824530    0.449113   -4.350926
  H      4.343373    1.249318   -6.416646
  H      4.676712    2.956624   -6.574113
  O      4.128856   -0.329647   -6.953717
  F      1.781285   -1.000779   -7.136399
  C      5.942129    0.939500   -2.036893
  H      3.864305    0.328532   -2.136611
  H      4.076233    2.049994   -1.989010
  C      6.462677   -3.117775   -3.944671
  C      5.024977   -3.025679   -4.437625
  H      4.423321   -3.818693   -3.977648
  H      4.579350   -2.087131   -4.108727
  H      5.201533   -4.100207   -6.296905
  H      5.605922   -2.397822   -6.413368
  C      6.559957   -0.356290   -2.559086
  H      5.967976    0.952567   -0.942444
  H      6.547184    1.788331   -2.368849
  C      6.006283   -1.615917   -1.899301
  H      7.642360   -0.318000   -2.402059
  H      6.414855   -0.403433   -3.642587
  C      6.608718   -2.917014   -2.435655
  H      6.190324   -1.561115   -0.820948
  H      4.919250   -1.651245   -2.016586
  H      7.066975   -2.374258   -4.475514
  H      6.887808   -4.089747   -4.215332
  H      6.135197   -3.755573   -1.915159
  H      7.671142   -2.955503   -2.172291
  O      2.851546   -0.783683   -4.956789

 Total Charge           Charge          ....    0
 Multiplicity           Mult            ....    1
 Number of Electrons    NEL             ....  144
 Basis Dimension        Dim             ....  671

ORBITAL ENERGIES
----------------

  NO   OCC          E(Eh)            E(eV)
   0   2.0000     -88.616312     -2411.3724
   1   2.0000     -24.554780      -668.1695
   2   2.0000     -18.920334      -514.8485
   3   2.0000     -18.919923      -514.8373
   4   2.0000     -14.062019      -382.6470
   5   2.0000     -14.057499      -382.5240
   6   2.0000     -10.064565      -273.8707
   7   2.0000     -10.023726      -272.7595
   8   2.0000      -9.993383      -271.9338
   9   2.0000      -9.992176      -271.9009
  10   2.0000      -9.990871      -271.8654
  11   2.0000      -9.985686      -271.7243
  12   2.0000      -9.978961      -271.5413
  13   2.0000      -9.970902      -271.3220
  14   2.0000      -9.962807      -271.1018
  15   2.0000      -9.956409      -270.9277
  16   2.0000      -9.865934      -268.4657
  17   2.0000      -7.965972      -216.7651
  18   2.0000      -5.949129      -161.8840
  19   2.0000      -5.942871      -161.7138
  20   2.0000      -5.941762      -161.6836
  21   2.0000      -1.331010       -36.2186
  22   2.0000      -1.059842       -28.8398
  23   2.0000      -0.969130       -26.3714
  24   2.0000      -0.870148       -23.6779
  25   2.0000      -0.796190       -21.6654
  26   2.0000      -0.792445       -21.5635
  27   2.0000      -0.754227       -20.5236
  28   2.0000      -0.723831       -19.6965
  29   2.0000      -0.697764       -18.9871
  30   2.0000      -0.671011       -18.2591
  31   2.0000      -0.637723       -17.3533
  32   2.0000      -0.621499       -16.9118
  33   2.0000      -0.602059       -16.3828
  34   2.0000      -0.577711       -15.7203
  35   2.0000      -0.558557       -15.1991
  36   2.0000      -0.548846       -14.9349
  37   2.0000      -0.540047       -14.6954
  38   2.0000      -0.537625       -14.6295
  39   2.0000      -0.509276       -13.8581
  40   2.0000      -0.485145       -13.2015
  41   2.0000      -0.476786       -12.9740
  42   2.0000      -0.468279       -12.7425
  43   2.0000      -0.458109       -12.4658
  44   2.0000      -0.448465       -12.2034
  45   2.0000      -0.434345       -11.8191
  46   2.0000      -0.427514       -11.6332
  47   2.0000      -0.417705       -11.3663
  48   2.0000      -0.408683       -11.1208
  49   2.0000      -0.395069       -10.7504
  50   2.0000      -0.389746       -10.6055
  51   2.0000      -0.385505       -10.4901
  52   2.0000      -0.372745       -10.1429
  53   2.0000      -0.363623        -9.8947
  54   2.0000      -0.350890        -9.5482
  55   2.0000      -0.344885        -9.3848
  56   2.0000      -0.341978        -9.3057
  57   2.0000      -0.330184        -8.9848
  58   2.0000      -0.325101        -8.8464
  59   2.0000      -0.317971        -8.6524
  60   2.0000      -0.310781        -8.4568
  61   2.0000      -0.307850        -8.3770
  62   2.0000      -0.304281        -8.2799
  63   2.0000      -0.299187        -8.1413
  64   2.0000      -0.292186        -7.9508
  65   2.0000      -0.289686        -7.8828
  66   2.0000      -0.284312        -7.7365
  67   2.0000      -0.272561        -7.4168
  68   2.0000      -0.271300        -7.3825
  69   2.0000      -0.262393        -7.1401
  70   2.0000      -0.177174        -4.8212
  71   2.0000      -0.103165        -2.8073
  72   0.0000      -0.030669        -0.8346
  73   0.0000      -0.004985        -0.1356
  74   0.0000       0.008187         0.2228
  75   0.0000       0.016968         0.4617
  76   0.0000       0.027853         0.7579

MULLIKEN ATOMIC CHARGES
-----------------------
   0 C :   -0.161951
   1 N :   -0.302032
   2 C :   -0.160249
   3 C :   -0.172529
   4 H :    0.133928
   5 H :    0.143971
   6 S :    0.794126
   7 C :    0.354432
   8 N :   -0.495581
   9 C :   -0.575931
  10 H :    0.102665
  11 H :    0.066687
  12 H :    0.211818
  13 H :    0.235204
  14 H :    0.228507
  15 O :   -0.423305
  16 F :   -0.059399
  17 C :   -0.045533
  18 H :    0.102720
  19 H :    0.104310
  20 C :   -0.190472
  21 C :   -0.286842
  22 H :    0.077043
  23 H :    0.145876
  24 H :    0.109648
  25 H :    0.130626
  26 C :   -0.224574
  27 H :    0.059637
  28 H :    0.115909
  29 C :   -0.245019
  30 H :    0.080199
  31 H :    0.108523
  32 C :   -0.067755
  33 H :    0.081642
  34 H :    0.100625
  35 H :    0.108783
  36 H :    0.081930
  37 H :    0.074190
  38 H :    0.083323
  39 O :   -0.425154
Sum of atomic charges:   -0.0000000

LOEWDIN ATOMIC CHARGES
----------------------
   0 C :   -0.278039
   1 N :    0.125566
   2 C :   -0.266347
   3 C :   -0.362603
   4 H :    0.141862
   5 H :    0.140355
   6 S :    0.524253
   7 C :   -0.476888
   8 N :   -0.009914
   9 C :   -0.371601
  10 H :    0.092305
  11 H :    0.086582
  12 H :    0.154890
  13 H :    0.133781
  14 H :    0.169034
  15 O :   -0.251711
  16 F :    0.127669
  17 C :   -0.261126
  18 H :    0.126718
  19 H :    0.127812
  20 C :   -0.263868
  21 C :   -0.265589
  22 H :    0.134055
  23 H :    0.139417
  24 H :    0.146099
  25 H :    0.148306
  26 C :   -0.264827
  27 H :    0.130686
  28 H :    0.141966
  29 C :   -0.267554
  30 H :    0.132881
  31 H :    0.134138
  32 C :   -0.260955
  33 H :    0.133232
  34 H :    0.129085
  35 H :    0.136594
  36 H :    0.131572
  37 H :    0.131726
  38 H :    0.134495
  39 O :   -0.254057

  Mayer bond orders larger than 0.100000
B(  0-C ,  1-N ) :   0.9927 B(  0-C , 17-C ) :   1.0105 B(  0-C , 18-H ) :   0.9648
B(  0-C , 19-H ) :   0.9445 B(  1-N ,  7-C ) :   1.1910 B(  1-N , 12-H ) :   0.8724
B(  2-C ,  3-C ) :   1.0082 B(  2-C , 21-C ) :   1.0397 B(  2-C , 24-H ) :   0.9263
B(  2-C , 25-H ) :   0.9417 B(  3-C ,  4-H ) :   0.9217 B(  3-C ,  5-H ) :   0.9231
B(  3-C ,  6-S ) :   0.9234 B(  6-S , 15-O ) :   1.8061 B(  6-S , 16-F ) :   1.1825
B(  6-S , 39-O ) :   1.8039 B(  7-C ,  8-N ) :   1.1689 B(  7-C ,  9-C ) :   1.6090
B(  8-N , 13-H ) :   0.8623 B(  8-N , 14-H ) :   0.9208 B(  9-C , 10-H ) :   0.9827
B(  9-C , 11-H ) :   0.9881 B( 17-C , 26-C ) :   1.0217 B( 17-C , 27-H ) :   0.9404
B( 17-C , 28-H ) :   0.9292 B( 20-C , 21-C ) :   1.0370 B( 20-C , 32-C ) :   1.0216
B( 20-C , 35-H ) :   0.9581 B( 20-C , 36-H ) :   0.9388 B( 21-C , 22-H ) :   0.9426
B( 21-C , 23-H ) :   0.9469 B( 26-C , 29-C ) :   1.0282 B( 26-C , 30-H ) :   0.9416
B( 26-C , 31-H ) :   0.9491 B( 29-C , 32-C ) :   1.0130 B( 29-C , 33-H ) :   0.9363
B( 29-C , 34-H ) :   0.9662 B( 32-C , 37-H ) :   0.9465 B( 32-C , 38-H ) :   0.9435

Dispersion correction           -0.060918387
FINAL SINGLE POINT ENERGY     -1191.441910101993

DIPOLE MOMENT
-------------
                                X             Y             Z
Electronic contribution:    -21.14750       1.38565     -21.90765
Nuclear contribution   :     20.11362      -4.34709      20.52383
                        -----------------------------------------
Total Dipole Moment    :     -1.03388      -2.96143      -1.38382
                        -----------------------------------------
Magnitude (a.u.)       :      3.42841
Magnitude (Debye)      :      8.71432

Rotational constants in cm-1:     0.014449     0.012108     0.007447
Rotational constants in MHz :   433.168496   362.988632   223.260798

                             ****ORCA TERMINATED NORMALLY****
TOTAL RUN TIME: 0 days 0 hours 0 minutes 36 seconds 102 msec
