                         Program Version 5.0.0 -  RELEASE  -
|  1> !TPSS D3BJ RIJCOSX def2-TZVP def2/J TightSCF xyzfile
|  2>
|  3> *xyzfile 0 1 D8.xyz
|  4>
|  5> %MaxCore 64000
|  6>
|  7> %pal nprocs 18
|  8> end
|  9>
| 10> %scf
| 11>   MaxIter 150
| 12> end
| 13>
| 14>
| 15>                          ****END OF INPUT****

CARTESIAN COORDINATES (ANGSTROEM)
---------------------------------
  C      4.490588    1.155899   -2.469290
  N      4.305394    1.222762   -3.908317
  C      4.906458   -3.102816   -5.954844
  C      3.511771   -2.806215   -6.492283
  H      2.736044   -3.373445   -5.973736
  H      3.444904   -3.040831   -7.555281
  S      3.004618   -1.096206   -6.389259
  C      4.631918    2.246365   -4.670958
  C      4.541686    2.143990   -5.987139
  N      5.084086    3.393584   -4.118545
  H      4.920675    3.570501   -3.135870
  H      5.254652    4.197390   -4.706956
  H      3.824530    0.449113   -4.350926
  H      4.343373    1.249318   -6.416646
  H      4.676712    2.956624   -6.574113
  O      4.128856   -0.329647   -6.953717
  O      1.781285   -1.000779   -7.136399
  C      5.942129    0.939500   -2.036893
  H      3.864305    0.328532   -2.136611
  H      4.076233    2.049994   -1.989010
  C      6.462677   -3.117775   -3.944671
  C      5.024977   -3.025679   -4.437625
  H      4.423321   -3.818693   -3.977648
  H      4.579350   -2.087131   -4.108727
  H      5.201533   -4.100207   -6.296905
  H      5.605922   -2.397822   -6.413368
  C      6.559957   -0.356290   -2.559086
  H      5.967976    0.952567   -0.942444
  H      6.547184    1.788331   -2.368849
  C      6.006283   -1.615917   -1.899301
  H      7.642360   -0.318000   -2.402059
  H      6.414855   -0.403433   -3.642587
  C      6.608718   -2.917014   -2.435655
  H      6.190324   -1.561115   -0.820948
  H      4.919250   -1.651245   -2.016586
  H      7.066975   -2.374258   -4.475514
  H      6.887808   -4.089747   -4.215332
  H      6.135197   -3.755573   -1.915159
  H      7.671142   -2.955503   -2.172291
  F      2.851546   -0.783683   -4.956789

 Total Charge           Charge          ....    0
 Multiplicity           Mult            ....    1
 Number of Electrons    NEL             ....  144
 Basis Dimension        Dim             ....  671

ORBITAL ENERGIES
----------------

  NO   OCC          E(Eh)            E(eV)
   0   2.0000     -88.586656     -2410.5655
   1   2.0000     -24.526356      -667.3961
   2   2.0000     -18.900491      -514.3085
   3   2.0000     -18.889047      -513.9971
   4   2.0000     -14.084301      -383.2533
   5   2.0000     -14.084113      -383.2482
   6   2.0000     -10.046104      -273.3684
   7   2.0000     -10.016387      -272.5597
   8   2.0000     -10.011920      -272.4382
   9   2.0000     -10.001819      -272.1633
  10   2.0000      -9.999007      -272.0868
  11   2.0000      -9.990088      -271.8441
  12   2.0000      -9.986409      -271.7440
  13   2.0000      -9.983087      -271.6536
  14   2.0000      -9.977879      -271.5119
  15   2.0000      -9.977568      -271.5034
  16   2.0000      -9.865200      -268.4457
  17   2.0000      -7.936703      -215.9687
  18   2.0000      -5.920241      -161.0979
  19   2.0000      -5.912995      -160.9008
  20   2.0000      -5.912628      -160.8908
  21   2.0000      -1.293361       -35.1942
  22   2.0000      -1.040674       -28.3182
  23   2.0000      -0.950559       -25.8660
  24   2.0000      -0.887928       -24.1618
  25   2.0000      -0.808376       -21.9970
  26   2.0000      -0.786021       -21.3887
  27   2.0000      -0.757310       -20.6074
  28   2.0000      -0.729872       -19.8608
  29   2.0000      -0.696038       -18.9402
  30   2.0000      -0.672430       -18.2977
  31   2.0000      -0.652338       -17.7510
  32   2.0000      -0.622327       -16.9344
  33   2.0000      -0.600028       -16.3276
  34   2.0000      -0.579461       -15.7679
  35   2.0000      -0.554905       -15.0997
  36   2.0000      -0.544919       -14.8280
  37   2.0000      -0.532291       -14.4844
  38   2.0000      -0.521116       -14.1803
  39   2.0000      -0.510431       -13.8895
  40   2.0000      -0.506196       -13.7743
  41   2.0000      -0.470933       -12.8148
  42   2.0000      -0.456143       -12.4123
  43   2.0000      -0.445769       -12.1300
  44   2.0000      -0.438250       -11.9254
  45   2.0000      -0.435516       -11.8510
  46   2.0000      -0.428633       -11.6637
  47   2.0000      -0.420805       -11.4507
  48   2.0000      -0.416719       -11.3395
  49   2.0000      -0.401523       -10.9260
  50   2.0000      -0.398783       -10.8514
  51   2.0000      -0.391178       -10.6445
  52   2.0000      -0.376407       -10.2426
  53   2.0000      -0.360542        -9.8108
  54   2.0000      -0.353080        -9.6078
  55   2.0000      -0.349873        -9.5205
  56   2.0000      -0.343575        -9.3491
  57   2.0000      -0.336675        -9.1614
  58   2.0000      -0.330712        -8.9991
  59   2.0000      -0.325011        -8.8440
  60   2.0000      -0.323802        -8.8111
  61   2.0000      -0.311165        -8.4672
  62   2.0000      -0.306570        -8.3422
  63   2.0000      -0.303825        -8.2675
  64   2.0000      -0.296612        -8.0712
  65   2.0000      -0.285972        -7.7817
  66   2.0000      -0.285112        -7.7583
  67   2.0000      -0.278690        -7.5835
  68   2.0000      -0.276001        -7.5104
  69   2.0000      -0.255559        -6.9541
  70   2.0000      -0.201762        -5.4902
  71   2.0000      -0.113277        -3.0824
  72   0.0000      -0.015221        -0.4142
  73   0.0000       0.011161         0.3037
  74   0.0000       0.018165         0.4943
  75   0.0000       0.029133         0.7927
  76   0.0000       0.029318         0.7978

MULLIKEN ATOMIC CHARGES
-----------------------
   0 C :   -0.223345
   1 N :   -0.303206
   2 C :   -0.139109
   3 C :   -0.196723
   4 H :    0.126608
   5 H :    0.163345
   6 S :    0.763971
   7 C :    0.392140
   8 C :   -0.607505
   9 N :   -0.513799
  10 H :    0.221233
  11 H :    0.235278
  12 H :    0.202314
  13 H :    0.182876
  14 H :    0.078686
  15 O :   -0.392716
  16 O :   -0.370669
  17 C :   -0.022520
  18 H :    0.106428
  19 H :    0.105690
  20 C :   -0.193786
  21 C :   -0.276039
  22 H :    0.085824
  23 H :    0.089587
  24 H :    0.100236
  25 H :    0.132111
  26 C :   -0.241391
  27 H :    0.063142
  28 H :    0.097123
  29 C :   -0.241639
  30 H :    0.086065
  31 H :    0.128786
  32 C :   -0.070253
  33 H :    0.085832
  34 H :    0.094140
  35 H :    0.112867
  36 H :    0.087922
  37 H :    0.078222
  38 H :    0.085746
  39 F :   -0.113474
Sum of atomic charges:    0.0000000

LOEWDIN ATOMIC CHARGES
----------------------
   0 C :   -0.296825
   1 N :    0.118857
   2 C :   -0.277019
   3 C :   -0.362222
   4 H :    0.137254
   5 H :    0.153273
   6 S :    0.515557
   7 C :   -0.475048
   8 C :   -0.333412
   9 N :   -0.020142
  10 H :    0.154346
  11 H :    0.171873
  12 H :    0.165212
  13 H :    0.083916
  14 H :    0.090774
  15 O :   -0.232026
  16 O :   -0.227256
  17 C :   -0.265370
  18 H :    0.128302
  19 H :    0.121642
  20 C :   -0.262176
  21 C :   -0.269704
  22 H :    0.134689
  23 H :    0.127553
  24 H :    0.142194
  25 H :    0.147771
  26 C :   -0.263631
  27 H :    0.131537
  28 H :    0.135108
  29 C :   -0.267635
  30 H :    0.135105
  31 H :    0.138631
  32 C :   -0.260411
  33 H :    0.133878
  34 H :    0.126714
  35 H :    0.137687
  36 H :    0.134177
  37 H :    0.132874
  38 H :    0.135154
  39 F :    0.078800

  Mayer bond orders larger than 0.100000
B(  0-C ,  1-N ) :   0.9920 B(  0-C , 17-C ) :   0.9796 B(  0-C , 18-H ) :   0.9655
B(  0-C , 19-H ) :   0.9634 B(  1-N ,  7-C ) :   1.1808 B(  1-N , 12-H ) :   0.9065
B(  2-C ,  3-C ) :   0.9927 B(  2-C , 21-C ) :   1.0399 B(  2-C , 24-H ) :   0.9250
B(  2-C , 25-H ) :   0.9379 B(  3-C ,  4-H ) :   0.9343 B(  3-C ,  5-H ) :   0.9293
B(  3-C ,  6-S ) :   0.9154 B(  6-S , 15-O ) :   1.8410 B(  6-S , 16-O ) :   1.9915
B(  6-S , 39-F ) :   1.0530 B(  7-C ,  8-C ) :   1.6084 B(  7-C ,  9-N ) :   1.1049
B(  8-C , 13-H ) :   0.9823 B(  8-C , 14-H ) :   0.9860 B(  9-N , 10-H ) :   0.9128
B(  9-N , 11-H ) :   0.9180 B( 17-C , 26-C ) :   1.0119 B( 17-C , 27-H ) :   0.9326
B( 17-C , 28-H ) :   0.9342 B( 20-C , 21-C ) :   1.0395 B( 20-C , 32-C ) :   1.0158
B( 20-C , 35-H ) :   0.9600 B( 20-C , 36-H ) :   0.9397 B( 21-C , 22-H ) :   0.9420
B( 21-C , 23-H ) :   0.9492 B( 26-C , 29-C ) :   1.0259 B( 26-C , 30-H ) :   0.9415
B( 26-C , 31-H ) :   0.9531 B( 29-C , 32-C ) :   1.0146 B( 29-C , 33-H ) :   0.9356
B( 29-C , 34-H ) :   0.9673 B( 32-C , 37-H ) :   0.9475 B( 32-C , 38-H ) :   0.9442

Dispersion correction           -0.060503308
FINAL SINGLE POINT ENERGY     -1191.431349346970

DIPOLE MOMENT
-------------
                                X             Y             Z
Electronic contribution:    -18.48341       3.28049     -16.25520
Nuclear contribution   :     18.77618      -4.78855      17.68602
                        -----------------------------------------
Total Dipole Moment    :      0.29277      -1.50805       1.43082
                        -----------------------------------------
Magnitude (a.u.)       :      2.09933
Magnitude (Debye)      :      5.33607

Rotational constants in cm-1:     0.014368     0.012319     0.007509
Rotational constants in MHz :   430.738566   369.302170   225.105103

                             ****ORCA TERMINATED NORMALLY****
TOTAL RUN TIME: 0 days 0 hours 0 minutes 35 seconds 282 msec
