                         Program Version 5.0.0 -  RELEASE  -
|  1> !PBE D3BJ RIJCOSX def2-SVPD def2/J TightSCF
|  2> *xyz -1 1
|  3> C          2.49670       -1.84416       -5.73570
|  4> O          2.45973       -0.50920       -5.50576
|  5> H          2.07863       -2.36209       -4.89793
|  6> H          3.51118       -2.15388       -5.87645
|  7> H          1.92949       -2.07059       -6.61428
|  8> *
|  9>
| 10> %MaxCore 64000
| 11>
| 12> %pal nprocs 4
| 13> end
| 14>
| 15> %scf
| 16>   MaxIter 150
| 17> end
| 18>
| 19>
| 20>                          ****END OF INPUT****

CARTESIAN COORDINATES (ANGSTROEM)
---------------------------------
  C      2.496700   -1.844160   -5.735700
  O      2.459730   -0.509200   -5.505760
  H      2.078630   -2.362090   -4.897930
  H      3.511180   -2.153880   -5.876450
  H      1.929490   -2.070590   -6.614280

 Total Charge           Charge          ....   -1
 Multiplicity           Mult            ....    1
 Number of Electrons    NEL             ....   18
 Basis Dimension        Dim             ....   67

ORBITAL ENERGIES
----------------

  NO   OCC          E(Eh)            E(eV)
   0   2.0000     -18.416314      -501.1334
   1   2.0000      -9.679343      -263.3883
   2   2.0000      -0.575523       -15.6608
   3   2.0000      -0.325151        -8.8478
   4   2.0000      -0.148925        -4.0525
   5   2.0000      -0.148923        -4.0524
   6   2.0000      -0.057312        -1.5595
   7   2.0000       0.092301         2.5116
   8   2.0000       0.092302         2.5117
   9   0.0000       0.183027         4.9804
  10   0.0000       0.251456         6.8425
  11   0.0000       0.251458         6.8425
  12   0.0000       0.259011         7.0480
  13   0.0000       0.295392         8.0380

MULLIKEN ATOMIC CHARGES
-----------------------
   0 C :    0.825315
   1 O :   -0.995984
   2 H :   -0.276452
   3 H :   -0.276431
   4 H :   -0.276449
Sum of atomic charges:   -1.0000000

LOEWDIN ATOMIC CHARGES
----------------------
   0 C :   -0.135723
   1 O :   -0.613231
   2 H :   -0.083684
   3 H :   -0.083681
   4 H :   -0.083682

  Mayer bond orders larger than 0.100000
B(  0-C ,  1-O ) :   1.1583 B(  0-C ,  2-H ) :   0.9104 B(  0-C ,  3-H ) :   0.9104
B(  0-C ,  4-H ) :   0.9104

Dispersion correction           -0.001471696
FINAL SINGLE POINT ENERGY      -114.882450254998

DIPOLE MOMENT
-------------
                                X             Y             Z
Electronic contribution:     -0.05310       1.91701       0.33020
Nuclear contribution   :      0.07809      -2.81948      -0.48564
                        -----------------------------------------
Total Dipole Moment    :      0.02498      -0.90247      -0.15544
                        -----------------------------------------
Magnitude (a.u.)       :      0.91610
Magnitude (Debye)      :      2.32854

Rotational constants in cm-1:     5.477724     0.956378     0.956377
Rotational constants in MHz : 164218.041992 28671.483536 28671.460928

                             ****ORCA TERMINATED NORMALLY****
TOTAL RUN TIME: 0 days 0 hours 0 minutes 2 seconds 360 msec
