                         Program Version 5.0.0 -  RELEASE  -
|  1> !PBE D3BJ RIJCOSX def2-SVPD def2/J TightSCF
|  2> *xyz 1 1
|  3> C          4.99986       -1.59613       -5.92488
|  4> N          5.28156       -1.97413       -4.53576
|  5> C          4.79250       -1.36132       -3.45730
|  6> N          3.93990       -0.37492       -3.55736
|  7> N          5.25986       -1.75422       -2.23913
|  8> H          5.92282       -2.52145       -2.18672
|  9> H          4.65468       -1.64040       -1.44202
| 10> H          5.70914       -2.87560       -4.38702
| 11> H          3.33010       -0.31764       -4.36125
| 12> H          3.69849        0.11447       -2.70833
| 13> H          5.52133       -2.25562       -6.58673
| 14> H          5.32493       -0.59081       -6.09388
| 15> H          3.94785       -1.66624       -6.10727
| 16> *
| 17>
| 18> %MaxCore 64000
| 19>
| 20> %pal nprocs 4
| 21> end
| 22>
| 23> %scf
| 24>   MaxIter 150
| 25> end
| 26>
| 27>
| 28>                          ****END OF INPUT****

CARTESIAN COORDINATES (ANGSTROEM)
---------------------------------
  C      4.999860   -1.596130   -5.924880
  N      5.281560   -1.974130   -4.535760
  C      4.792500   -1.361320   -3.457300
  N      3.939900   -0.374920   -3.557360
  N      5.259860   -1.754220   -2.239130
  H      5.922820   -2.521450   -2.186720
  H      4.654680   -1.640400   -1.442020
  H      5.709140   -2.875600   -4.387020
  H      3.330100   -0.317640   -4.361250
  H      3.698490    0.114470   -2.708330
  H      5.521330   -2.255620   -6.586730
  H      5.324930   -0.590810   -6.093880
  H      3.947850   -1.666240   -6.107270

 Total Charge           Charge          ....    1
 Multiplicity           Mult            ....    1
 Number of Electrons    NEL             ....   40
 Basis Dimension        Dim             ....  164

ORBITAL ENERGIES
----------------

  NO   OCC          E(Eh)            E(eV)
   0   2.0000     -14.232239      -387.2789
   1   2.0000     -14.231819      -387.2675
   2   2.0000     -14.222184      -387.0053
   3   2.0000     -10.223616      -278.1987
   4   2.0000     -10.101840      -274.8850
   5   2.0000      -1.128039       -30.6955
   6   2.0000      -1.025781       -27.9129
   7   2.0000      -1.010195       -27.4888
   8   2.0000      -0.837633       -22.7932
   9   2.0000      -0.771839       -21.0028
  10   2.0000      -0.739160       -20.1136
  11   2.0000      -0.698705       -19.0127
  12   2.0000      -0.655152       -17.8276
  13   2.0000      -0.648404       -17.6440
  14   2.0000      -0.607948       -16.5431
  15   2.0000      -0.589128       -16.0310
  16   2.0000      -0.547097       -14.8873
  17   2.0000      -0.536284       -14.5930
  18   2.0000      -0.445331       -12.1181
  19   2.0000      -0.422236       -11.4896
  20   0.0000      -0.214390        -5.8338
  21   0.0000      -0.179136        -4.8745
  22   0.0000      -0.144789        -3.9399
  23   0.0000      -0.135621        -3.6904
  24   0.0000      -0.119140        -3.2420

MULLIKEN ATOMIC CHARGES
-----------------------
   0 C :    1.144633
   1 N :   -0.524001
   2 C :    1.190883
   3 N :    0.036921
   4 N :   -0.025495
   5 H :   -0.041702
   6 H :   -0.047740
   7 H :   -0.234042
   8 H :   -0.026568
   9 H :   -0.088110
  10 H :   -0.332719
  11 H :   -0.019039
  12 H :   -0.033020
Sum of atomic charges:    1.0000000

LOEWDIN ATOMIC CHARGES
----------------------
   0 C :    0.255071
   1 N :    0.032069
   2 C :   -0.062719
   3 N :    0.296012
   4 N :    0.274315
   5 H :    0.031795
   6 H :    0.025942
   7 H :    0.049733
   8 H :    0.033893
   9 H :    0.043379
  10 H :    0.012565
  11 H :    0.009900
  12 H :   -0.001955

  Mayer bond orders larger than 0.100000
B(  0-C ,  1-N ) :   0.9530 B(  0-C ,  7-H ) :  -0.1182 B(  0-C , 10-H ) :   0.8167
B(  0-C , 11-H ) :   0.8008 B(  0-C , 12-H ) :   0.8139 B(  1-N ,  2-C ) :   1.0239
B(  1-N ,  3-N ) :   0.2759 B(  1-N ,  4-N ) :   0.2317 B(  1-N ,  7-H ) :   1.2584
B(  1-N , 10-H ) :   0.1846 B(  1-N , 11-H ) :   0.1641 B(  1-N , 12-H ) :   0.1406
B(  2-C ,  3-N ) :   1.0472 B(  2-C ,  4-N ) :   0.8551 B(  2-C ,  5-H ) :  -0.1082
B(  2-C ,  7-H ) :  -0.1894 B(  2-C ,  8-H ) :  -0.1213 B(  2-C ,  9-H ) :  -0.1066
B(  3-N ,  4-N ) :   0.1752 B(  3-N ,  8-H ) :   1.1203 B(  3-N ,  9-H ) :   1.1663
B(  4-N ,  5-H ) :   1.0811 B(  4-N ,  6-H ) :   1.1554 B(  5-H ,  6-H ) :  -0.1295
B(  8-H ,  9-H ) :  -0.1785

Dispersion correction           -0.009087034
FINAL SINGLE POINT ENERGY      -244.626699901747

DIPOLE MOMENT
-------------
                                X             Y             Z
Electronic contribution:      0.18829       0.12288       2.66614
Nuclear contribution   :     -0.59263      -0.40751      -2.24260
                        -----------------------------------------
Total Dipole Moment    :     -0.40434      -0.28463       0.42355
                        -----------------------------------------
Magnitude (a.u.)       :      0.65108
Magnitude (Debye)      :      1.65491

Rotational constants in cm-1:     0.316984     0.131419     0.095004
Rotational constants in MHz :  9502.926758  3939.829875  2848.138998

                             ****ORCA TERMINATED NORMALLY****
TOTAL RUN TIME: 0 days 0 hours 0 minutes 6 seconds 217 msec
