                         Program Version 5.0.0 -  RELEASE  -
|  1> !PBE D3BJ RIJCOSX def2-SVPD def2/J TightSCF
|  2> *xyz 0 1
|  3> C          2.49670       -1.84416       -5.73570
|  4> F          2.45973       -0.50920       -5.50576
|  5> H          2.07863       -2.36209       -4.89793
|  6> H          3.51118       -2.15388       -5.87645
|  7> H          1.92949       -2.07059       -6.61428
|  8> *
|  9>
| 10> %MaxCore 64000
| 11>
| 12> %pal nprocs 4
| 13> end
| 14>
| 15> %scf
| 16>   MaxIter 150
| 17> end
| 18>
| 19>
| 20>                          ****END OF INPUT****

CARTESIAN COORDINATES (ANGSTROEM)
---------------------------------
  C      2.496700   -1.844160   -5.735700
  F      2.459730   -0.509200   -5.505760
  H      2.078630   -2.362090   -4.897930
  H      3.511180   -2.153880   -5.876450
  H      1.929490   -2.070590   -6.614280

 Total Charge           Charge          ....    0
 Multiplicity           Mult            ....    1
 Number of Electrons    NEL             ....   18
 Basis Dimension        Dim             ....   67

ORBITAL ENERGIES
----------------

  NO   OCC          E(Eh)            E(eV)
   0   2.0000     -24.261520      -660.1895
   1   2.0000      -9.962368      -271.0898
   2   2.0000      -1.090346       -29.6698
   3   2.0000      -0.633194       -17.2301
   4   2.0000      -0.450996       -12.2722
   5   2.0000      -0.437252       -11.8982
   6   2.0000      -0.437250       -11.8982
   7   2.0000      -0.297102        -8.0846
   8   2.0000      -0.297100        -8.0845
   9   0.0000       0.009560         0.2601
  10   0.0000       0.038024         1.0347
  11   0.0000       0.082358         2.2411
  12   0.0000       0.082359         2.2411
  13   0.0000       0.128523         3.4973

MULLIKEN ATOMIC CHARGES
-----------------------
   0 C :    0.902518
   1 F :   -0.449639
   2 H :   -0.150966
   3 H :   -0.150950
   4 H :   -0.150963
Sum of atomic charges:   -0.0000000

LOEWDIN ATOMIC CHARGES
----------------------
   0 C :    0.247235
   1 F :   -0.227112
   2 H :   -0.006709
   3 H :   -0.006706
   4 H :   -0.006707

  Mayer bond orders larger than 0.100000
B(  0-C ,  1-F ) :   0.8950 B(  0-C ,  2-H ) :   0.9322 B(  0-C ,  3-H ) :   0.9322
B(  0-C ,  4-H ) :   0.9322

Dispersion correction           -0.001295072
FINAL SINGLE POINT ENERGY      -139.489006980537

DIPOLE MOMENT
-------------
                                X             Y             Z
Electronic contribution:     -0.08099       2.92424       0.50369
Nuclear contribution   :      0.09898      -3.57380      -0.61557
                        -----------------------------------------
Total Dipole Moment    :      0.01799      -0.64956      -0.11188
                        -----------------------------------------
Magnitude (a.u.)       :      0.65937
Magnitude (Debye)      :      1.67598

Rotational constants in cm-1:     5.477724     0.890368     0.890367
Rotational constants in MHz : 164218.041992 26692.553985 26692.534390

                             ****ORCA TERMINATED NORMALLY****
TOTAL RUN TIME: 0 days 0 hours 0 minutes 2 seconds 160 msec
