                         Program Version 5.0.0 -  RELEASE  -
|  1> !PBE D3BJ RIJCOSX def2-SVPD def2/J TightSCF
|  2> *xyz 0 1
|  3> C          4.99986       -1.59613       -5.92488
|  4> C          5.28156       -1.97413       -4.53576
|  5> C          4.79250       -1.36132       -3.45730
|  6> N          3.93990       -0.37492       -3.55736
|  7> N          5.25986       -1.75422       -2.23913
|  8> H          5.92282       -2.52145       -2.18672
|  9> H          4.65468       -1.64040       -1.44202
| 10> H          5.70914       -2.87560       -4.38702
| 11> H          3.33010       -0.31764       -4.36125
| 12> H          3.69849        0.11447       -2.70833
| 13> H          5.52133       -2.25562       -6.58673
| 14> H          5.32493       -0.59081       -6.09388
| 15> H          3.94785       -1.66624       -6.10727
| 16> *
| 17>
| 18> %MaxCore 64000
| 19>
| 20> %pal nprocs 4
| 21> end
| 22>
| 23> %scf
| 24>   MaxIter 150
| 25> end
| 26>
| 27>
| 28>                          ****END OF INPUT****

CARTESIAN COORDINATES (ANGSTROEM)
---------------------------------
  C      4.999860   -1.596130   -5.924880
  C      5.281560   -1.974130   -4.535760
  C      4.792500   -1.361320   -3.457300
  N      3.939900   -0.374920   -3.557360
  N      5.259860   -1.754220   -2.239130
  H      5.922820   -2.521450   -2.186720
  H      4.654680   -1.640400   -1.442020
  H      5.709140   -2.875600   -4.387020
  H      3.330100   -0.317640   -4.361250
  H      3.698490    0.114470   -2.708330
  H      5.521330   -2.255620   -6.586730
  H      5.324930   -0.590810   -6.093880
  H      3.947850   -1.666240   -6.107270

 Total Charge           Charge          ....    0
 Multiplicity           Mult            ....    1
 Number of Electrons    NEL             ....   40
 Basis Dimension        Dim             ....  164

ORBITAL ENERGIES
----------------

  NO   OCC          E(Eh)            E(eV)
   0   2.0000     -14.005399      -381.1063
   1   2.0000     -13.995419      -380.8347
   2   2.0000      -9.929412      -270.1930
   3   2.0000      -9.861462      -268.3440
   4   2.0000      -9.822820      -267.2925
   5   2.0000      -0.872059       -23.7299
   6   2.0000      -0.786005       -21.3883
   7   2.0000      -0.672850       -18.3092
   8   2.0000      -0.586471       -15.9587
   9   2.0000      -0.527277       -14.3479
  10   2.0000      -0.492655       -13.4058
  11   2.0000      -0.450472       -12.2580
  12   2.0000      -0.430221       -11.7069
  13   2.0000      -0.381437       -10.3794
  14   2.0000      -0.359234        -9.7752
  15   2.0000      -0.328115        -8.9285
  16   2.0000      -0.314479        -8.5574
  17   2.0000      -0.294459        -8.0126
  18   2.0000      -0.223318        -6.0768
  19   2.0000      -0.131195        -3.5700
  20   0.0000      -0.004808        -0.1308
  21   0.0000       0.023291         0.6338
  22   0.0000       0.036995         1.0067
  23   0.0000       0.041231         1.1219
  24   0.0000       0.062469         1.6999

MULLIKEN ATOMIC CHARGES
-----------------------
   0 C :    0.803892
   1 C :   -0.747329
   2 C :    0.864440
   3 N :    0.114763
   4 N :    0.009685
   5 H :   -0.053392
   6 H :   -0.132061
   7 H :   -0.415911
   8 H :   -0.072008
   9 H :   -0.234951
  10 H :   -0.103532
  11 H :    0.015056
  12 H :   -0.048653
Sum of atomic charges:    0.0000000

LOEWDIN ATOMIC CHARGES
----------------------
   0 C :    0.086772
   1 C :   -0.059480
   2 C :   -0.248664
   3 N :    0.211427
   4 N :    0.190158
   5 H :   -0.004444
   6 H :   -0.029775
   7 H :   -0.061534
   8 H :   -0.001009
   9 H :   -0.008129
  10 H :   -0.020538
  11 H :   -0.021517
  12 H :   -0.033269

  Mayer bond orders larger than 0.100000
B(  0-C ,  1-C ) :   1.2797 B(  0-C ,  7-H ) :   0.1783 B(  0-C , 10-H ) :   0.7389
B(  0-C , 11-H ) :   0.6689 B(  0-C , 12-H ) :   0.7473 B(  1-C ,  2-C ) :   1.3495
B(  1-C ,  3-N ) :   0.3451 B(  1-C ,  4-N ) :   0.3613 B(  1-C ,  7-H ) :   0.9991
B(  1-C , 10-H ) :   0.3082 B(  1-C , 11-H ) :   0.3176 B(  1-C , 12-H ) :   0.1971
B(  2-C ,  3-N ) :   1.0545 B(  2-C ,  4-N ) :   0.8239 B(  2-C ,  9-H ) :  -0.1075
B(  3-N ,  4-N ) :   0.1070 B(  3-N ,  8-H ) :   1.1070 B(  3-N ,  9-H ) :   1.2435
B(  4-N ,  5-H ) :   1.0740 B(  4-N ,  6-H ) :   1.1409 B(  5-H ,  6-H ) :  -0.1134
B(  7-H , 10-H ) :  -0.1167 B(  8-H ,  9-H ) :  -0.1644 B( 10-H , 11-H ) :   0.1058

Dispersion correction           -0.009476427
FINAL SINGLE POINT ENERGY      -228.167487267516

DIPOLE MOMENT
-------------
                                X             Y             Z
Electronic contribution:     -0.11912       0.60563       3.07240
Nuclear contribution   :     -0.50372      -0.52081      -2.36443
                        -----------------------------------------
Total Dipole Moment    :     -0.62284       0.08482       0.70797
                        -----------------------------------------
Magnitude (a.u.)       :      0.94676
Magnitude (Debye)      :      2.40646

Rotational constants in cm-1:     0.322219     0.132365     0.095965
Rotational constants in MHz :  9659.878542  3968.206057  2876.950547

                             ****ORCA TERMINATED NORMALLY****
TOTAL RUN TIME: 0 days 0 hours 0 minutes 6 seconds 578 msec
