                         Program Version 5.0.0 -  RELEASE  -
|  1> !PBE D3BJ RIJCOSX def2-SVPD def2/J TightSCF
|  2> *xyz 0 1
|  3> C          4.99986       -1.59613       -5.92488
|  4> N          5.28156       -1.97413       -4.53576
|  5> C          4.79250       -1.36132       -3.45730
|  6> C          3.93990       -0.37492       -3.55736
|  7> N          5.25986       -1.75422       -2.23913
|  8> H          5.92282       -2.52145       -2.18672
|  9> H          4.65468       -1.64040       -1.44202
| 10> H          5.70914       -2.87560       -4.38702
| 11> H          3.33010       -0.31764       -4.36125
| 12> H          3.69849        0.11447       -2.70833
| 13> H          5.52133       -2.25562       -6.58673
| 14> H          5.32493       -0.59081       -6.09388
| 15> H          3.94785       -1.66624       -6.10727
| 16> *
| 17>
| 18> %MaxCore 64000
| 19>
| 20> %pal nprocs 4
| 21> end
| 22>
| 23> %scf
| 24>   MaxIter 150
| 25> end
| 26>
| 27>
| 28>                          ****END OF INPUT****

CARTESIAN COORDINATES (ANGSTROEM)
---------------------------------
  C      4.999860   -1.596130   -5.924880
  N      5.281560   -1.974130   -4.535760
  C      4.792500   -1.361320   -3.457300
  C      3.939900   -0.374920   -3.557360
  N      5.259860   -1.754220   -2.239130
  H      5.922820   -2.521450   -2.186720
  H      4.654680   -1.640400   -1.442020
  H      5.709140   -2.875600   -4.387020
  H      3.330100   -0.317640   -4.361250
  H      3.698490    0.114470   -2.708330
  H      5.521330   -2.255620   -6.586730
  H      5.324930   -0.590810   -6.093880
  H      3.947850   -1.666240   -6.107270

 Total Charge           Charge          ....    0
 Multiplicity           Mult            ....    1
 Number of Electrons    NEL             ....   40
 Basis Dimension        Dim             ....  164

ORBITAL ENERGIES
----------------

  NO   OCC          E(Eh)            E(eV)
   0   2.0000     -14.006132      -381.1262
   1   2.0000     -13.998033      -380.9058
   2   2.0000      -9.933230      -270.2969
   3   2.0000      -9.920003      -269.9370
   4   2.0000      -9.811954      -266.9968
   5   2.0000      -0.872657       -23.7462
   6   2.0000      -0.793414       -21.5899
   7   2.0000      -0.651394       -17.7253
   8   2.0000      -0.626243       -17.0410
   9   2.0000      -0.510231       -13.8841
  10   2.0000      -0.492059       -13.3896
  11   2.0000      -0.461409       -12.5556
  12   2.0000      -0.409918       -11.1544
  13   2.0000      -0.390446       -10.6246
  14   2.0000      -0.370337       -10.0774
  15   2.0000      -0.339829        -9.2472
  16   2.0000      -0.337396        -9.1810
  17   2.0000      -0.309566        -8.4237
  18   2.0000      -0.209876        -5.7110
  19   2.0000      -0.144076        -3.9205
  20   0.0000      -0.004910        -0.1336
  21   0.0000       0.019625         0.5340
  22   0.0000       0.033881         0.9219
  23   0.0000       0.042085         1.1452
  24   0.0000       0.064337         1.7507

MULLIKEN ATOMIC CHARGES
-----------------------
   0 C :    1.110411
   1 N :   -0.498782
   2 C :    0.608218
   3 C :    0.303674
   4 N :    0.045822
   5 H :   -0.173079
   6 H :   -0.061066
   7 H :   -0.358109
   8 H :   -0.191755
   9 H :   -0.368979
  10 H :   -0.409282
  11 H :   -0.028467
  12 H :    0.021395
Sum of atomic charges:    0.0000000

LOEWDIN ATOMIC CHARGES
----------------------
   0 C :    0.205267
   1 N :   -0.038161
   2 C :   -0.255666
   3 C :    0.156937
   4 N :    0.196389
   5 H :   -0.020429
   6 H :   -0.009272
   7 H :    0.005782
   8 H :   -0.099959
   9 H :   -0.094326
  10 H :   -0.016401
  11 H :   -0.010082
  12 H :   -0.020079

  Mayer bond orders larger than 0.100000
B(  0-C ,  1-N ) :   0.9393 B(  0-C ,  7-H ) :  -0.1240 B(  0-C , 10-H ) :   0.8379
B(  0-C , 11-H ) :   0.8056 B(  0-C , 12-H ) :   0.8152 B(  1-N ,  2-C ) :   0.9960
B(  1-N ,  3-C ) :   0.3927 B(  1-N ,  4-N ) :   0.1700 B(  1-N ,  7-H ) :   1.3318
B(  1-N , 10-H ) :   0.1760 B(  1-N , 11-H ) :   0.1644 B(  1-N , 12-H ) :   0.1240
B(  2-C ,  3-C ) :   1.6148 B(  2-C ,  4-N ) :   0.8943 B(  2-C ,  7-H ) :  -0.1982
B(  2-C ,  8-H ) :   0.2196 B(  2-C ,  9-H ) :   0.2713 B(  3-C ,  4-N ) :   0.2791
B(  3-C ,  8-H ) :   0.7405 B(  3-C ,  9-H ) :   0.7503 B(  4-N ,  5-H ) :   1.1042
B(  4-N ,  6-H ) :   1.1175 B(  5-H ,  6-H ) :  -0.1182 B(  8-H ,  9-H ) :   0.1333

Dispersion correction           -0.009456486
FINAL SINGLE POINT ENERGY      -228.156741888443

DIPOLE MOMENT
-------------
                                X             Y             Z
Electronic contribution:      1.11895      -0.85326       2.12422
Nuclear contribution   :     -0.77547      -0.19690      -2.16626
                        -----------------------------------------
Total Dipole Moment    :      0.34349      -1.05016      -0.04203
                        -----------------------------------------
Magnitude (a.u.)       :      1.10571
Magnitude (Debye)      :      2.81048

Rotational constants in cm-1:     0.340409     0.131955     0.097296
Rotational constants in MHz : 10205.195281  3955.909122  2916.861706

                             ****ORCA TERMINATED NORMALLY****
TOTAL RUN TIME: 0 days 0 hours 0 minutes 6 seconds 500 msec
