                         Program Version 5.0.0 -  RELEASE  -
|  1> !PBE D3BJ RIJCOSX def2-SVPD def2/J TightSCF
|  2> *xyz 0 1
|  3> C          4.99986       -1.59613       -5.92488
|  4> N          5.28156       -1.97413       -4.53576
|  5> C          4.79250       -1.36132       -3.45730
|  6> N          3.93990       -0.37492       -3.55736
|  7> C          5.25986       -1.75422       -2.23913
|  8> H          5.92282       -2.52145       -2.18672
|  9> H          4.65468       -1.64040       -1.44202
| 10> H          5.70914       -2.87560       -4.38702
| 11> H          3.33010       -0.31764       -4.36125
| 12> H          3.69849        0.11447       -2.70833
| 13> H          5.52133       -2.25562       -6.58673
| 14> H          5.32493       -0.59081       -6.09388
| 15> H          3.94785       -1.66624       -6.10727
| 16> *
| 17>
| 18> %MaxCore 64000
| 19>
| 20> %pal nprocs 4
| 21> end
| 22>
| 23> %scf
| 24>   MaxIter 150
| 25> end
| 26>
| 27>
| 28>                          ****END OF INPUT****

CARTESIAN COORDINATES (ANGSTROEM)
---------------------------------
  C      4.999860   -1.596130   -5.924880
  N      5.281560   -1.974130   -4.535760
  C      4.792500   -1.361320   -3.457300
  N      3.939900   -0.374920   -3.557360
  C      5.259860   -1.754220   -2.239130
  H      5.922820   -2.521450   -2.186720
  H      4.654680   -1.640400   -1.442020
  H      5.709140   -2.875600   -4.387020
  H      3.330100   -0.317640   -4.361250
  H      3.698490    0.114470   -2.708330
  H      5.521330   -2.255620   -6.586730
  H      5.324930   -0.590810   -6.093880
  H      3.947850   -1.666240   -6.107270

 Total Charge           Charge          ....    0
 Multiplicity           Mult            ....    1
 Number of Electrons    NEL             ....   40
 Basis Dimension        Dim             ....  164

ORBITAL ENERGIES
----------------

  NO   OCC          E(Eh)            E(eV)
   0   2.0000     -14.005303      -381.1037
   1   2.0000     -14.004839      -381.0910
   2   2.0000      -9.936448      -270.3845
   3   2.0000      -9.928076      -270.1567
   4   2.0000      -9.806887      -266.8590
   5   2.0000      -0.881859       -23.9966
   6   2.0000      -0.803874       -21.8745
   7   2.0000      -0.665745       -18.1158
   8   2.0000      -0.593203       -16.1419
   9   2.0000      -0.546503       -14.8711
  10   2.0000      -0.491860       -13.3842
  11   2.0000      -0.447145       -12.1674
  12   2.0000      -0.433034       -11.7835
  13   2.0000      -0.403730       -10.9861
  14   2.0000      -0.362129        -9.8540
  15   2.0000      -0.343458        -9.3460
  16   2.0000      -0.335861        -9.1392
  17   2.0000      -0.306694        -8.3456
  18   2.0000      -0.217343        -5.9142
  19   2.0000      -0.129497        -3.5238
  20   0.0000      -0.008091        -0.2202
  21   0.0000       0.023546         0.6407
  22   0.0000       0.029383         0.7996
  23   0.0000       0.035929         0.9777
  24   0.0000       0.063469         1.7271

MULLIKEN ATOMIC CHARGES
-----------------------
   0 C :    1.159933
   1 N :   -0.459420
   2 C :    0.469968
   3 N :    0.088308
   4 C :    0.462407
   5 H :   -0.251001
   6 H :   -0.447766
   7 H :   -0.278413
   8 H :   -0.100066
   9 H :   -0.092954
  10 H :   -0.386534
  11 H :   -0.069633
  12 H :   -0.094830
Sum of atomic charges:   -0.0000000

LOEWDIN ATOMIC CHARGES
----------------------
   0 C :    0.199261
   1 N :   -0.025553
   2 C :   -0.255595
   3 N :    0.209074
   4 C :    0.142559
   5 H :   -0.110971
   6 H :   -0.117877
   7 H :    0.022141
   8 H :   -0.012691
   9 H :    0.009779
  10 H :   -0.014590
  11 H :   -0.016729
  12 H :   -0.028807

  Mayer bond orders larger than 0.100000
B(  0-C ,  1-N ) :   0.9457 B(  0-C ,  7-H ) :  -0.1362 B(  0-C , 10-H ) :   0.8071
B(  0-C , 11-H ) :   0.8155 B(  0-C , 12-H ) :   0.8167 B(  1-N ,  2-C ) :   1.0646
B(  1-N ,  3-N ) :   0.2221 B(  1-N ,  4-C ) :   0.2609 B(  1-N ,  7-H ) :   1.2321
B(  1-N , 10-H ) :   0.1847 B(  1-N , 11-H ) :   0.1545 B(  1-N , 12-H ) :   0.1753
B(  2-C ,  3-N ) :   1.0773 B(  2-C ,  4-C ) :   1.5721 B(  2-C ,  5-H ) :   0.2030
B(  2-C ,  6-H ) :   0.2056 B(  2-C ,  7-H ) :  -0.1449 B(  3-N ,  4-C ) :   0.2388
B(  3-N ,  8-H ) :   1.1132 B(  3-N ,  9-H ) :   1.1547 B(  4-C ,  5-H ) :   0.7586
B(  4-C ,  6-H ) :   0.7577 B(  5-H ,  6-H ) :   0.1637 B(  8-H ,  9-H ) :  -0.1708

Dispersion correction           -0.009415657
FINAL SINGLE POINT ENERGY      -228.151178181565

DIPOLE MOMENT
-------------
                                X             Y             Z
Electronic contribution:     -0.13301       0.48424       0.80259
Nuclear contribution   :     -0.50812      -0.47627      -1.89926
                        -----------------------------------------
Total Dipole Moment    :     -0.64113       0.00797      -1.09667
                        -----------------------------------------
Magnitude (a.u.)       :      1.27035
Magnitude (Debye)      :      3.22897

Rotational constants in cm-1:     0.323645     0.137193     0.098606
Rotational constants in MHz :  9702.637007  4112.943433  2956.125886

                             ****ORCA TERMINATED NORMALLY****
TOTAL RUN TIME: 0 days 0 hours 0 minutes 6 seconds 812 msec
