                         Program Version 5.0.0 -  RELEASE  -
|  1> !PBE D3BJ RIJCOSX def2-SVPD def2/J TightSCF xyzfile
|  2>
|  3> *xyzfile 0 1 D1.xyz
|  4>
|  5> %MaxCore 64000
|  6>
|  7> %pal nprocs 4
|  8> end
|  9>
| 10> %scf
| 11>   MaxIter 150
| 12> end
| 13>
| 14>
| 15>                          ****END OF INPUT****

CARTESIAN COORDINATES (ANGSTROEM)
---------------------------------
  C      4.999862   -1.596133   -5.924876
  C      5.281560   -1.974132   -4.535764
  C      3.766779   -2.266110   -6.511752
  C      2.496702   -1.844161   -5.735704
  H      1.626416   -2.217434   -6.308950
  H      2.481824   -2.456069   -4.793414
  F      2.459729   -0.509204   -5.505757
  C      4.792500   -1.361316   -3.457295
  N      3.939898   -0.374925   -3.557359
  N      5.259860   -1.754224   -2.239133
  H      5.922824   -2.521451   -2.186720
  H      4.654678   -1.640404   -1.442016
  H      5.709139   -2.875599   -4.387021
  H      3.330101   -0.317639   -4.361247
  H      3.698494    0.114468   -2.708333
  H      4.843333   -0.517930   -5.943019
  H      5.901695   -1.822503   -6.496467
  H      3.886191   -3.357076   -6.533604
  H      3.685602   -1.922168   -7.547128

 Total Charge           Charge          ....    0
 Multiplicity           Mult            ....    1
 Number of Electrons    NEL             ....   64
 Basis Dimension        Dim             ....  251

ORBITAL ENERGIES
----------------

  NO   OCC          E(Eh)            E(eV)
   0   2.0000     -24.300138      -661.2404
   1   2.0000     -13.992608      -380.7582
   2   2.0000     -13.978217      -380.3666
   3   2.0000      -9.977483      -271.5011
   4   2.0000      -9.926634      -270.1174
   5   2.0000      -9.892502      -269.1887
   6   2.0000      -9.872847      -268.6538
   7   2.0000      -9.819108      -267.1915
   8   2.0000      -1.132627       -30.8203
   9   2.0000      -0.862535       -23.4708
  10   2.0000      -0.777833       -21.1659
  11   2.0000      -0.716524       -19.4976
  12   2.0000      -0.649737       -17.6802
  13   2.0000      -0.603143       -16.4124
  14   2.0000      -0.538826       -14.6622
  15   2.0000      -0.530335       -14.4312
  16   2.0000      -0.489584       -13.3223
  17   2.0000      -0.476640       -12.9700
  18   2.0000      -0.463355       -12.6085
  19   2.0000      -0.444818       -12.1041
  20   2.0000      -0.435780       -11.8582
  21   2.0000      -0.407454       -11.0874
  22   2.0000      -0.376022       -10.2321
  23   2.0000      -0.357877        -9.7383
  24   2.0000      -0.349142        -9.5006
  25   2.0000      -0.326435        -8.8828
  26   2.0000      -0.307280        -8.3615
  27   2.0000      -0.294369        -8.0102
  28   2.0000      -0.283639        -7.7182
  29   2.0000      -0.274766        -7.4768
  30   2.0000      -0.213727        -5.8158
  31   2.0000      -0.130503        -3.5512
  32   0.0000      -0.000705        -0.0192
  33   0.0000       0.016471         0.4482
  34   0.0000       0.026919         0.7325
  35   0.0000       0.033835         0.9207
  36   0.0000       0.042280         1.1505

MULLIKEN ATOMIC CHARGES
-----------------------
   0 C :    0.143756
   1 C :   -0.250653
   2 C :   -0.003300
   3 C :    0.771020
   4 H :   -0.340769
   5 H :    0.189260
   6 F :   -0.383452
   7 C :    0.856420
   8 N :    0.428808
   9 N :   -0.095300
  10 H :   -0.069808
  11 H :   -0.103341
  12 H :   -0.276937
  13 H :   -0.344660
  14 H :   -0.267199
  15 H :    0.164573
  16 H :   -0.263231
  17 H :   -0.141037
  18 H :   -0.014150
Sum of atomic charges:    0.0000000

LOEWDIN ATOMIC CHARGES
----------------------
   0 C :   -0.059311
   1 C :   -0.020516
   2 C :   -0.015275
   3 C :    0.121697
   4 H :    0.029166
   5 H :    0.043529
   6 F :   -0.159093
   7 C :   -0.229988
   8 N :    0.241682
   9 N :    0.193513
  10 H :   -0.005767
  11 H :   -0.028042
  12 H :   -0.056266
  13 H :   -0.129552
  14 H :   -0.003809
  15 H :    0.014302
  16 H :    0.015063
  17 H :    0.032024
  18 H :    0.016643

  Mayer bond orders larger than 0.100000
B(  0-C ,  1-C ) :   1.1772 B(  0-C ,  2-C ) :   1.1644 B(  0-C , 12-H ) :   0.2553
B(  0-C , 15-H ) :   0.7201 B(  0-C , 16-H ) :   0.8972 B(  0-C , 17-H ) :   0.1805
B(  0-C , 18-H ) :   0.1215 B(  1-C ,  7-C ) :   1.4398 B(  1-C ,  8-N ) :   0.2770
B(  1-C ,  9-N ) :   0.3591 B(  1-C , 12-H ) :   0.8754 B(  1-C , 13-H ) :  -0.1078
B(  1-C , 15-H ) :   0.2692 B(  1-C , 16-H ) :   0.1541 B(  2-C ,  3-C ) :   1.2229
B(  2-C ,  4-H ) :   0.1683 B(  2-C ,  5-H ) :   0.1269 B(  2-C ,  6-F ) :   0.1032
B(  2-C , 16-H ) :   0.1103 B(  2-C , 17-H ) :   0.9118 B(  2-C , 18-H ) :   0.8567
B(  3-C ,  4-H ) :   0.9481 B(  3-C ,  5-H ) :   0.7967 B(  3-C ,  6-F ) :   0.6524
B(  6-F , 13-H ) :   0.1256 B(  7-C ,  8-N ) :   1.0346 B(  7-C ,  9-N ) :   0.6820
B(  7-C , 10-H ) :  -0.1100 B(  7-C , 12-H ) :   0.1186 B(  7-C , 14-H ) :  -0.1450
B(  7-C , 15-H ) :  -0.1268 B(  8-N ,  9-N ) :   0.1372 B(  8-N , 13-H ) :   1.1436
B(  8-N , 14-H ) :   1.2265 B(  9-N , 10-H ) :   1.1360 B(  9-N , 11-H ) :   1.1229
B(  9-N , 12-H ) :   0.1153 B( 10-H , 11-H ) :  -0.1316 B( 13-H , 14-H ) :  -0.2017

Dispersion correction           -0.017554553
FINAL SINGLE POINT ENERGY      -405.705034634213

DIPOLE MOMENT
-------------
                                X             Y             Z
Electronic contribution:     -3.31060       4.02779       0.79643
Nuclear contribution   :      2.63975      -4.51113      -0.34926
                        -----------------------------------------
Total Dipole Moment    :     -0.67086      -0.48334       0.44717
                        -----------------------------------------
Magnitude (a.u.)       :      0.94001
Magnitude (Debye)      :      2.38932

Rotational constants in cm-1:     0.109429     0.049838     0.039337
Rotational constants in MHz :  3280.611039  1494.113088  1179.280063

                             ****ORCA TERMINATED NORMALLY****
TOTAL RUN TIME: 0 days 0 hours 0 minutes 14 seconds 438 msec
