                         Program Version 5.0.0 -  RELEASE  -
|  1> !PBE D3BJ RIJCOSX def2-SVPD def2/J TightSCF xyzfile
|  2>
|  3> *xyzfile 0 1 D2.xyz
|  4>
|  5> %MaxCore 64000
|  6>
|  7> %pal nprocs 4
|  8> end
|  9>
| 10> %scf
| 11>   MaxIter 150
| 12> end
| 13>
| 14>
| 15>                          ****END OF INPUT****

CARTESIAN COORDINATES (ANGSTROEM)
---------------------------------
  C      4.999862   -1.596133   -5.924876
  N      5.281560   -1.974132   -4.535764
  C      3.766779   -2.266110   -6.511752
  C      2.496702   -1.844161   -5.735704
  H      1.626416   -2.217434   -6.308950
  H      2.481824   -2.456069   -4.793414
  F      2.459729   -0.509204   -5.505757
  C      4.792500   -1.361316   -3.457295
  C      3.939898   -0.374925   -3.557359
  N      5.259860   -1.754224   -2.239133
  H      5.922824   -2.521451   -2.186720
  H      4.654678   -1.640404   -1.442016
  H      5.709139   -2.875599   -4.387021
  H      3.330101   -0.317639   -4.361247
  H      3.698494    0.114468   -2.708333
  H      4.843333   -0.517930   -5.943019
  H      5.901695   -1.822503   -6.496467
  H      3.886191   -3.357076   -6.533604
  H      3.685602   -1.922168   -7.547128

 Total Charge           Charge          ....    0
 Multiplicity           Mult            ....    1
 Number of Electrons    NEL             ....   64
 Basis Dimension        Dim             ....  251

ORBITAL ENERGIES
----------------

  NO   OCC          E(Eh)            E(eV)
   0   2.0000     -24.278057      -660.6395
   1   2.0000     -14.001811      -381.0087
   2   2.0000     -13.991247      -380.7212
   3   2.0000      -9.976616      -271.4775
   4   2.0000      -9.928704      -270.1738
   5   2.0000      -9.923544      -270.0334
   6   2.0000      -9.907459      -269.5957
   7   2.0000      -9.786809      -266.3126
   8   2.0000      -1.113030       -30.2871
   9   2.0000      -0.869036       -23.6477
  10   2.0000      -0.791981       -21.5509
  11   2.0000      -0.707747       -19.2588
  12   2.0000      -0.637626       -17.3507
  13   2.0000      -0.623072       -16.9547
  14   2.0000      -0.551397       -15.0043
  15   2.0000      -0.511226       -13.9112
  16   2.0000      -0.495753       -13.4901
  17   2.0000      -0.466244       -12.6871
  18   2.0000      -0.463173       -12.6036
  19   2.0000      -0.445150       -12.1132
  20   2.0000      -0.431387       -11.7386
  21   2.0000      -0.410955       -11.1827
  22   2.0000      -0.378848       -10.3090
  23   2.0000      -0.360573        -9.8117
  24   2.0000      -0.341391        -9.2897
  25   2.0000      -0.332762        -9.0549
  26   2.0000      -0.317692        -8.6448
  27   2.0000      -0.301353        -8.2002
  28   2.0000      -0.292058        -7.9473
  29   2.0000      -0.259033        -7.0486
  30   2.0000      -0.207057        -5.6343
  31   2.0000      -0.133676        -3.6375
  32   0.0000      -0.008679        -0.2362
  33   0.0000       0.014193         0.3862
  34   0.0000       0.022636         0.6159
  35   0.0000       0.032666         0.8889
  36   0.0000       0.043442         1.1821

MULLIKEN ATOMIC CHARGES
-----------------------
   0 C :    0.746149
   1 N :   -0.415238
   2 C :   -0.056966
   3 C :    0.764411
   4 H :   -0.389508
   5 H :    0.241526
   6 F :   -0.456861
   7 C :    0.732483
   8 C :    0.907188
   9 N :   -0.007713
  10 H :   -0.144945
  11 H :   -0.028931
  12 H :   -0.366086
  13 H :   -0.833528
  14 H :   -0.335485
  15 H :    0.207506
  16 H :   -0.448672
  17 H :   -0.118711
  18 H :    0.003382
Sum of atomic charges:   -0.0000000

LOEWDIN ATOMIC CHARGES
----------------------
   0 C :    0.055321
   1 N :   -0.001966
   2 C :   -0.005876
   3 C :    0.123341
   4 H :    0.028145
   5 H :    0.043081
   6 F :   -0.178843
   7 C :   -0.240359
   8 C :    0.188418
   9 N :    0.194271
  10 H :   -0.024149
  11 H :   -0.010391
  12 H :    0.010215
  13 H :   -0.192197
  14 H :   -0.084283
  15 H :    0.026363
  16 H :    0.018940
  17 H :    0.027703
  18 H :    0.022267

  Mayer bond orders larger than 0.100000
B(  0-C ,  1-N ) :   0.9566 B(  0-C ,  2-C ) :   1.1408 B(  0-C , 12-H ) :  -0.1958
B(  0-C , 13-H ) :   0.1188 B(  0-C , 15-H ) :   0.6614 B(  0-C , 16-H ) :   0.9184
B(  0-C , 17-H ) :   0.1241 B(  0-C , 18-H ) :   0.1270 B(  1-N ,  7-C ) :   0.9414
B(  1-N ,  8-C ) :   0.3553 B(  1-N ,  9-N ) :   0.1688 B(  1-N , 12-H ) :   1.3705
B(  1-N , 15-H ) :   0.1510 B(  1-N , 16-H ) :   0.1497 B(  2-C ,  3-C ) :   1.2396
B(  2-C ,  4-H ) :   0.1639 B(  2-C ,  5-H ) :   0.1137 B(  2-C ,  6-F ) :   0.1051
B(  2-C , 15-H ) :   0.1134 B(  2-C , 17-H ) :   0.9234 B(  2-C , 18-H ) :   0.8592
B(  3-C ,  4-H ) :   0.9749 B(  3-C ,  5-H ) :   0.7769 B(  3-C ,  6-F ) :   0.6972
B(  3-C , 13-H ) :   0.1702 B(  6-F , 13-H ) :   0.3054 B(  7-C ,  8-C ) :   1.7097
B(  7-C ,  9-N ) :   0.7555 B(  7-C , 12-H ) :  -0.2524 B(  7-C , 14-H ) :   0.4162
B(  8-C ,  9-N ) :   0.3835 B(  8-C , 13-H ) :   0.1243 B(  8-C , 14-H ) :   0.6040
B(  9-N , 10-H ) :   1.0759 B(  9-N , 11-H ) :   1.0873 B(  9-N , 14-H ) :   0.1851
B( 10-H , 11-H ) :  -0.1381 B( 13-H , 15-H ) :   0.1355 B( 15-H , 16-H ) :  -0.1839

Dispersion correction           -0.017515688
FINAL SINGLE POINT ENERGY      -405.672117547656

DIPOLE MOMENT
-------------
                                X             Y             Z
Electronic contribution:     -2.26078       2.74582      -0.12311
Nuclear contribution   :      2.43398      -4.26587      -0.19921
                        -----------------------------------------
Total Dipole Moment    :      0.17321      -1.52005      -0.32232
                        -----------------------------------------
Magnitude (a.u.)       :      1.56347
Magnitude (Debye)      :      3.97403

Rotational constants in cm-1:     0.110089     0.049944     0.039407
Rotational constants in MHz :  3300.378855  1497.273856  1181.385913

                             ****ORCA TERMINATED NORMALLY****
TOTAL RUN TIME: 0 days 0 hours 0 minutes 15 seconds 34 msec
