                         Program Version 5.0.0 -  RELEASE  -
|  1> !PBE D3BJ RIJCOSX def2-SVPD def2/J TightSCF xyzfile
|  2>
|  3> *xyzfile 0 1 D3.xyz
|  4>
|  5> %MaxCore 64000
|  6>
|  7> %pal nprocs 4
|  8> end
|  9>
| 10> %scf
| 11>   MaxIter 150
| 12> end
| 13>
| 14>
| 15>                          ****END OF INPUT****

CARTESIAN COORDINATES (ANGSTROEM)
---------------------------------
  C      4.999862   -1.596133   -5.924876
  N      5.281560   -1.974132   -4.535764
  C      3.766779   -2.266110   -6.511752
  C      2.496702   -1.844161   -5.735704
  H      1.626416   -2.217434   -6.308950
  H      2.481824   -2.456069   -4.793414
  F      2.459729   -0.509204   -5.505757
  C      4.792500   -1.361316   -3.457295
  N      3.939898   -0.374925   -3.557359
  C      5.259860   -1.754224   -2.239133
  H      5.922824   -2.521451   -2.186720
  H      4.654678   -1.640404   -1.442016
  H      5.709139   -2.875599   -4.387021
  H      3.330101   -0.317639   -4.361247
  H      3.698494    0.114468   -2.708333
  H      4.843333   -0.517930   -5.943019
  H      5.901695   -1.822503   -6.496467
  H      3.886191   -3.357076   -6.533604
  H      3.685602   -1.922168   -7.547128

 Total Charge           Charge          ....    0
 Multiplicity           Mult            ....    1
 Number of Electrons    NEL             ....   64
 Basis Dimension        Dim             ....  251

ORBITAL ENERGIES
----------------

  NO   OCC          E(Eh)            E(eV)
   0   2.0000     -24.314123      -661.6209
   1   2.0000     -14.001935      -381.0120
   2   2.0000     -13.975570      -380.2946
   3   2.0000      -9.996196      -272.0103
   4   2.0000      -9.936920      -270.3973
   5   2.0000      -9.927540      -270.1421
   6   2.0000      -9.918941      -269.9081
   7   2.0000      -9.798434      -266.6289
   8   2.0000      -1.147001       -31.2115
   9   2.0000      -0.874389       -23.7933
  10   2.0000      -0.796959       -21.6864
  11   2.0000      -0.722612       -19.6633
  12   2.0000      -0.656825       -17.8731
  13   2.0000      -0.600468       -16.3396
  14   2.0000      -0.559552       -15.2262
  15   2.0000      -0.540246       -14.7008
  16   2.0000      -0.515172       -14.0185
  17   2.0000      -0.492951       -13.4139
  18   2.0000      -0.462733       -12.5916
  19   2.0000      -0.453514       -12.3408
  20   2.0000      -0.424513       -11.5516
  21   2.0000      -0.422030       -11.4840
  22   2.0000      -0.388897       -10.5824
  23   2.0000      -0.376914       -10.2563
  24   2.0000      -0.342163        -9.3107
  25   2.0000      -0.334516        -9.1026
  26   2.0000      -0.328131        -8.9289
  27   2.0000      -0.313637        -8.5345
  28   2.0000      -0.302307        -8.2262
  29   2.0000      -0.295904        -8.0519
  30   2.0000      -0.208538        -5.6746
  31   2.0000      -0.122105        -3.3226
  32   0.0000      -0.010575        -0.2878
  33   0.0000       0.013086         0.3561
  34   0.0000       0.020655         0.5621
  35   0.0000       0.022802         0.6205
  36   0.0000       0.041206         1.1213

MULLIKEN ATOMIC CHARGES
-----------------------
   0 C :    0.765318
   1 N :   -0.231660
   2 C :   -0.013497
   3 C :    0.769629
   4 H :   -0.393837
   5 H :    0.234882
   6 F :   -0.353135
   7 C :    0.282047
   8 N :    0.529493
   9 C :    0.397514
  10 H :   -0.278624
  11 H :   -0.308290
  12 H :   -0.330107
  13 H :   -0.471163
  14 H :   -0.144668
  15 H :    0.130612
  16 H :   -0.478609
  17 H :   -0.126241
  18 H :    0.020336
Sum of atomic charges:    0.0000000

LOEWDIN ATOMIC CHARGES
----------------------
   0 C :    0.049444
   1 N :    0.011263
   2 C :   -0.006343
   3 C :    0.126053
   4 H :    0.032799
   5 H :    0.049706
   6 F :   -0.158544
   7 C :   -0.252270
   8 N :    0.241728
   9 C :    0.140845
  10 H :   -0.115308
  11 H :   -0.118314
  12 H :    0.026716
  13 H :   -0.136686
  14 H :    0.013519
  15 H :    0.020455
  16 H :    0.019572
  17 H :    0.032039
  18 H :    0.023326

  Mayer bond orders larger than 0.100000
B(  0-C ,  1-N ) :   0.9838 B(  0-C ,  2-C ) :   1.1391 B(  0-C , 12-H ) :  -0.2289
B(  0-C , 15-H ) :   0.7016 B(  0-C , 16-H ) :   0.8952 B(  0-C , 17-H ) :   0.1446
B(  0-C , 18-H ) :   0.1161 B(  1-N ,  7-C ) :   1.0890 B(  1-N ,  8-N ) :   0.1539
B(  1-N ,  9-C ) :   0.2302 B(  1-N , 12-H ) :   1.2119 B(  1-N , 15-H ) :   0.1809
B(  1-N , 16-H ) :   0.1589 B(  2-C ,  3-C ) :   1.2285 B(  2-C ,  4-H ) :   0.1654
B(  2-C ,  5-H ) :   0.1083 B(  2-C , 15-H ) :   0.1002 B(  2-C , 17-H ) :   0.9082
B(  2-C , 18-H ) :   0.8584 B(  3-C ,  4-H ) :   0.9794 B(  3-C ,  5-H ) :   0.7714
B(  3-C ,  6-F ) :   0.6511 B(  6-F , 13-H ) :   0.1225 B(  7-C ,  8-N ) :   1.1169
B(  7-C ,  9-C ) :   1.6154 B(  7-C , 10-H ) :   0.1987 B(  7-C , 11-H ) :   0.1958
B(  7-C , 12-H ) :  -0.1550 B(  8-N ,  9-C ) :   0.1504 B(  8-N , 13-H ) :   1.0717
B(  8-N , 14-H ) :   1.1485 B(  8-N , 15-H ) :   0.1060 B(  9-C , 10-H ) :   0.7353
B(  9-C , 11-H ) :   0.8125 B( 10-H , 11-H ) :   0.2240 B( 13-H , 14-H ) :  -0.2098
B( 15-H , 16-H ) :  -0.1794

Dispersion correction           -0.017401008
FINAL SINGLE POINT ENERGY      -405.687256057960

DIPOLE MOMENT
-------------
                                X             Y             Z
Electronic contribution:     -3.46640       3.90061      -1.47063
Nuclear contribution   :      2.63642      -4.47741       0.00296
                        -----------------------------------------
Total Dipole Moment    :     -0.82999      -0.57680      -1.46767
                        -----------------------------------------
Magnitude (a.u.)       :      1.78203
Magnitude (Debye)      :      4.52956

Rotational constants in cm-1:     0.108041     0.051979     0.040387
Rotational constants in MHz :  3238.993235  1558.297571  1210.782552

                             ****ORCA TERMINATED NORMALLY****
TOTAL RUN TIME: 0 days 0 hours 0 minutes 14 seconds 611 msec
