                         Program Version 5.0.0 -  RELEASE  -
|  1> !wB97X-D3 RIJCOSX def2-SVPD def2/J TightSCF
|  2> *xyz 0 1
|  3> C          4.08422        1.74208       -2.11472
|  4> C          4.26524        2.50052       -0.79589
|  5> H          4.86853        3.39267       -0.98113
|  6> H          3.30764        2.82457       -0.38781
|  7> C          4.98224        1.65026        0.24742
|  8> F          4.36806        1.38927        1.31371
|  9> O          6.12892        1.23351       -0.04562
| 10> C          3.41275        0.37689       -1.96550
| 11> H          5.06847        1.59850       -2.56573
| 12> H          3.50336        2.36394       -2.80457
| 13> H          3.32456       -0.08422       -2.92701
| 14> H          2.43923        0.50287       -1.53972
| 15> H          4.00446       -0.24355       -1.32531
| 16> *
| 17> %MaxCore 64000
| 18> %pal nprocs 8
| 19> end
| 20> %scf
| 21>   MaxIter 150
| 22> end
| 23>
| 24>
| 25>                          ****END OF INPUT****

CARTESIAN COORDINATES (ANGSTROEM)
---------------------------------
  C      4.084220    1.742080   -2.114720
  C      4.265240    2.500520   -0.795890
  H      4.868530    3.392670   -0.981130
  H      3.307640    2.824570   -0.387810
  C      4.982240    1.650260    0.247420
  F      4.368060    1.389270    1.313710
  O      6.128920    1.233510   -0.045620
  C      3.412750    0.376890   -1.965500
  H      5.068470    1.598500   -2.565730
  H      3.503360    2.363940   -2.804570
  H      3.324560   -0.084220   -2.927010
  H      2.439230    0.502870   -1.539720
  H      4.004460   -0.243550   -1.325310

 Total Charge           Charge          ....    0
 Multiplicity           Mult            ....    1
 Number of Electrons    NEL             ....   48
 Basis Dimension        Dim             ....  182

ORBITAL ENERGIES
----------------

  NO   OCC          E(Eh)            E(eV)
   0   2.0000     -24.874443      -676.8680
   1   2.0000     -19.255172      -523.9599
   2   2.0000     -10.475211      -285.0450
   3   2.0000     -10.321397      -280.8595
   4   2.0000     -10.306397      -280.4513
   5   2.0000     -10.284212      -279.8476
   6   2.0000      -1.423238       -38.7283
   7   2.0000      -1.143160       -31.1070
   8   2.0000      -0.927913       -25.2498
   9   2.0000      -0.840527       -22.8719
  10   2.0000      -0.772214       -21.0130
  11   2.0000      -0.719371       -19.5751
  12   2.0000      -0.658166       -17.9096
  13   2.0000      -0.639495       -17.4015
  14   2.0000      -0.616119       -16.7655
  15   2.0000      -0.568235       -15.4624
  16   2.0000      -0.559546       -15.2260
  17   2.0000      -0.519946       -14.1485
  18   2.0000      -0.505341       -13.7510
  19   2.0000      -0.472702       -12.8629
  20   2.0000      -0.454126       -12.3574
  21   2.0000      -0.444883       -12.1059
  22   2.0000      -0.440717       -11.9925
  23   2.0000      -0.393565       -10.7095
  24   0.0000       0.049215         1.3392
  25   0.0000       0.086319         2.3489
  26   0.0000       0.112380         3.0580
  27   0.0000       0.116543         3.1713
  28   0.0000       0.130473         3.5503

MULLIKEN ATOMIC CHARGES
-----------------------
   0 C :   -0.395762
   1 C :    0.015556
   2 H :    0.060822
   3 H :    0.026725
   4 C :    0.787521
   5 F :   -0.384642
   6 O :   -0.529773
   7 C :    0.567035
   8 H :    0.028816
   9 H :   -0.111772
  10 H :   -0.027072
  11 H :   -0.003537
  12 H :   -0.033920
Sum of atomic charges:    0.0000000

LOEWDIN ATOMIC CHARGES
----------------------
   0 C :   -0.062686
   1 C :    0.036858
   2 H :    0.041577
   3 H :    0.026201
   4 C :   -0.006913
   5 F :   -0.037419
   6 O :   -0.138410
   7 C :    0.127740
   8 H :    0.028236
   9 H :    0.025788
  10 H :   -0.012249
  11 H :   -0.011946
  12 H :   -0.016775

  Mayer bond orders larger than 0.100000
B(  0-C ,  1-C ) :   1.1963 B(  0-C ,  2-H ) :   0.1196 B(  0-C ,  3-H ) :   0.1310
B(  0-C ,  7-C ) :   1.3217 B(  0-C ,  8-H ) :   0.9216 B(  0-C ,  9-H ) :   0.9958
B(  0-C , 10-H ) :   0.1832 B(  0-C , 11-H ) :   0.1790 B(  0-C , 12-H ) :   0.1876
B(  1-C ,  2-H ) :   0.8482 B(  1-C ,  3-H ) :   0.9087 B(  1-C ,  4-C ) :   1.0831
B(  1-C ,  8-H ) :   0.1016 B(  4-C ,  5-F ) :   0.7145 B(  4-C ,  6-O ) :   1.8251
B(  7-C , 10-H ) :   0.7994 B(  7-C , 11-H ) :   0.8126 B(  7-C , 12-H ) :   0.8554

Dispersion correction           -0.003354679
FINAL SINGLE POINT ENERGY      -331.395460960343

DIPOLE MOMENT
-------------
                                X             Y             Z
Electronic contribution:      3.76631       0.37424       9.79718
Nuclear contribution   :     -4.74589       0.16790     -10.21257
                        -----------------------------------------
Total Dipole Moment    :     -0.97958       0.54215      -0.41539
                        -----------------------------------------
Magnitude (a.u.)       :      1.19417
Magnitude (Debye)      :      3.03534

Rotational constants in cm-1:     0.185977     0.079908     0.076069
Rotational constants in MHz :  5575.451195  2395.576856  2280.481791

                             ****ORCA TERMINATED NORMALLY****
TOTAL RUN TIME: 0 days 0 hours 0 minutes 20 seconds 321 msec
