                         Program Version 5.0.0 -  RELEASE  -
|  1> !LC-BLYP RIJCOSX def2-SVPD def2/J TightSCF xyzfile
|  2>
|  3> *xyzfile 0 1 D3.xyz
|  4>
|  5> %MaxCore 64000
|  6>
|  7> %pal nprocs 4
|  8> end
|  9>
| 10> %scf
| 11>   MaxIter 150
| 12> end
| 13>
| 14>
| 15>                          ****END OF INPUT****

CARTESIAN COORDINATES (ANGSTROEM)
---------------------------------
  C      3.913853   -1.658291    3.015134
  N      5.039266   -0.901154    2.492821
  C      4.084215    1.742081   -2.114724
  C      4.265245    2.500518   -0.795890
  H      4.868534    3.392674   -0.981134
  H      3.307640    2.824571   -0.387809
  C      4.982240    1.650257    0.247422
  C      6.210384   -1.417261    2.178244
  N      6.535913   -2.677122    2.556078
  C      7.076754   -0.700820    1.478906
  H      7.954643   -1.121554    1.207554
  H      6.756161    0.106637    0.960278
  H      4.842168    0.017609    2.115191
  H      5.993876   -3.126918    3.282784
  H      7.498441   -2.975482    2.468776
  F      4.368065    1.389270    1.313706
  O      6.128919    1.233512   -0.045620
  C      3.139159   -2.376572    1.910609
  H      3.267235   -0.939401    3.520693
  H      4.247195   -2.355095    3.790065
  C      1.997274    0.430918   -1.399218
  C      3.412746    0.376886   -1.965497
  H      4.047407   -0.246590   -1.326706
  H      3.390774   -0.118719   -2.942839
  H      5.068475    1.598504   -2.565728
  H      3.503356    2.363939   -2.804565
  C      2.399946   -1.389579    1.009490
  H      2.440750   -3.087118    2.362976
  H      3.844475   -2.970462    1.318677
  C      2.070177   -1.936705   -0.372401
  H      1.481611   -1.061542    1.509912
  H      3.008628   -0.490001    0.897451
  C      1.322238   -0.935775   -1.256413
  H      1.472747   -2.850902   -0.283997
  H      3.003539   -2.234041   -0.862535
  H      1.376444    1.058920   -2.047420
  H      2.015341    0.929780   -0.426535
  H      0.316648   -0.787213   -0.848278
  H      1.185611   -1.379252   -2.248613

 Total Charge           Charge          ....    0
 Multiplicity           Mult            ....    1
 Number of Electrons    NEL             ....  126
 Basis Dimension        Dim             ....  510

ORBITAL ENERGIES
----------------

  NO   OCC          E(Eh)            E(eV)
   0   2.0000     -24.572503      -668.6518
   1   2.0000     -18.976443      -516.3753
   2   2.0000     -14.170076      -385.5874
   3   2.0000     -14.164514      -385.4360
   4   2.0000     -10.283265      -279.8219
   5   2.0000     -10.122090      -275.4361
   6   2.0000     -10.112240      -275.1680
   7   2.0000     -10.108991      -275.0796
   8   2.0000     -10.102506      -274.9032
   9   2.0000     -10.089515      -274.5497
  10   2.0000     -10.087369      -274.4913
  11   2.0000     -10.083517      -274.3865
  12   2.0000     -10.079868      -274.2872
  13   2.0000     -10.079482      -274.2767
  14   2.0000     -10.075599      -274.1710
  15   2.0000      -9.959517      -271.0122
  16   2.0000      -1.413830       -38.4723
  17   2.0000      -1.136580       -30.9279
  18   2.0000      -1.045236       -28.4423
  19   2.0000      -0.960818       -26.1452
  20   2.0000      -0.940282       -25.5864
  21   2.0000      -0.913366       -24.8540
  22   2.0000      -0.883448       -24.0399
  23   2.0000      -0.845538       -23.0082
  24   2.0000      -0.820382       -22.3237
  25   2.0000      -0.794937       -21.6313
  26   2.0000      -0.771204       -20.9855
  27   2.0000      -0.748771       -20.3751
  28   2.0000      -0.716092       -19.4859
  29   2.0000      -0.707637       -19.2558
  30   2.0000      -0.688573       -18.7370
  31   2.0000      -0.681263       -18.5381
  32   2.0000      -0.669104       -18.2072
  33   2.0000      -0.651375       -17.7248
  34   2.0000      -0.636012       -17.3068
  35   2.0000      -0.615510       -16.7489
  36   2.0000      -0.599579       -16.3154
  37   2.0000      -0.591119       -16.0852
  38   2.0000      -0.579152       -15.7595
  39   2.0000      -0.568514       -15.4701
  40   2.0000      -0.561989       -15.2925
  41   2.0000      -0.548251       -14.9187
  42   2.0000      -0.537477       -14.6255
  43   2.0000      -0.534162       -14.5353
  44   2.0000      -0.522605       -14.2208
  45   2.0000      -0.505363       -13.7516
  46   2.0000      -0.501573       -13.6485
  47   2.0000      -0.490510       -13.3475
  48   2.0000      -0.478585       -13.0230
  49   2.0000      -0.472764       -12.8646
  50   2.0000      -0.469359       -12.7719
  51   2.0000      -0.465334       -12.6624
  52   2.0000      -0.457574       -12.4512
  53   2.0000      -0.449333       -12.2270
  54   2.0000      -0.443984       -12.0814
  55   2.0000      -0.434482       -11.8228
  56   2.0000      -0.427500       -11.6329
  57   2.0000      -0.416355       -11.3296
  58   2.0000      -0.413427       -11.2499
  59   2.0000      -0.410458       -11.1691
  60   2.0000      -0.369427       -10.0526
  61   2.0000      -0.337952        -9.1961
  62   2.0000      -0.234332        -6.3765
  63   0.0000       0.032833         0.8934
  64   0.0000       0.064442         1.7536
  65   0.0000       0.077907         2.1199
  66   0.0000       0.079379         2.1600
  67   0.0000       0.083385         2.2690

MULLIKEN ATOMIC CHARGES
-----------------------
   0 C :    1.347600
   1 N :    0.624229
   2 C :    0.592464
   3 C :    0.507739
   4 H :   -0.196869
   5 H :    0.081896
   6 C :    0.195794
   7 C :    0.628293
   8 N :    0.347128
   9 C :    1.117142
  10 H :   -0.474987
  11 H :   -1.126798
  12 H :   -1.248962
  13 H :   -0.148907
  14 H :   -0.210284
  15 F :   -0.377903
  16 O :   -0.264369
  17 C :    0.534701
  18 H :   -0.433246
  19 H :   -0.357586
  20 C :    0.086500
  21 C :    0.089059
  22 H :   -0.164141
  23 H :   -0.239461
  24 H :   -0.068024
  25 H :   -0.188779
  26 C :    0.908575
  27 H :   -0.258766
  28 H :   -0.071529
  29 C :    0.205823
  30 H :   -0.065651
  31 H :   -1.224224
  32 C :    0.879723
  33 H :   -0.502081
  34 H :    0.055838
  35 H :   -0.507250
  36 H :    0.077868
  37 H :   -0.062927
  38 H :   -0.087628
Sum of atomic charges:    0.0000000

LOEWDIN ATOMIC CHARGES
----------------------
   0 C :    0.039178
   1 N :    0.022059
   2 C :   -0.021005
   3 C :    0.046435
   4 H :    0.049512
   5 H :    0.026707
   6 C :    0.014187
   7 C :   -0.233168
   8 N :    0.207768
   9 C :    0.166995
  10 H :   -0.091532
  11 H :   -0.202235
  12 H :   -0.056154
  13 H :   -0.036714
  14 H :   -0.000030
  15 F :   -0.005336
  16 O :   -0.078604
  17 C :   -0.028499
  18 H :    0.029133
  19 H :    0.010123
  20 C :   -0.047021
  21 C :   -0.036286
  22 H :    0.020424
  23 H :    0.039846
  24 H :    0.036430
  25 H :    0.035204
  26 C :   -0.047131
  27 H :    0.027952
  28 H :    0.026638
  29 C :   -0.047171
  30 H :    0.041523
  31 H :   -0.022576
  32 C :   -0.040178
  33 H :    0.031833
  34 H :    0.026044
  35 H :    0.031774
  36 H :    0.006911
  37 H :    0.028573
  38 H :    0.028390

  Mayer bond orders larger than 0.100000
B(  0-C ,  1-N ) :   1.0053 B(  0-C , 12-H ) :  -0.5427 B(  0-C , 17-C ) :   1.0279
B(  0-C , 18-H ) :   0.4906 B(  0-C , 19-H ) :   0.6749 B(  0-C , 26-C ) :   0.2185
B(  1-N ,  7-C ) :   1.1934 B(  1-N ,  8-N ) :   0.1855 B(  1-N ,  9-C ) :   0.1396
B(  1-N , 12-H ) :   0.6967 B(  1-N , 18-H ) :   0.2270 B(  2-C ,  3-C ) :   1.1268
B(  2-C ,  4-H ) :   0.1813 B(  2-C ,  5-H ) :   0.1064 B(  2-C ,  6-C ) :   0.1411
B(  2-C , 21-C ) :   1.2270 B(  2-C , 22-H ) :   0.1181 B(  2-C , 24-H ) :   0.6138
B(  2-C , 25-H ) :   0.7421 B(  3-C ,  4-H ) :   0.5653 B(  3-C ,  5-H ) :   0.7084
B(  3-C ,  6-C ) :   1.2345 B(  3-C , 21-C ) :   0.1752 B(  3-C , 24-H ) :   0.1083
B(  3-C , 25-H ) :   0.1788 B(  4-H ,  6-C ) :   0.3165 B(  5-H ,  6-C ) :   0.2535
B(  6-C , 15-F ) :   0.8250 B(  6-C , 16-O ) :   1.9575 B(  7-C ,  8-N ) :   0.8960
B(  7-C ,  9-C ) :   1.4431 B(  7-C , 10-H ) :   0.2970 B(  7-C , 12-H ) :  -0.7645
B(  7-C , 17-C ) :   0.1088 B(  7-C , 19-H ) :  -0.1117 B(  8-N ,  9-C ) :   0.2800
B(  8-N , 13-H ) :   0.9878 B(  8-N , 14-H ) :   1.1923 B(  8-N , 19-H ) :   0.1151
B(  9-C , 10-H ) :   0.3444 B(  9-C , 11-H ) :   0.2098 B( 10-H , 11-H ) :   0.3080
B( 12-H , 15-F ) :   0.2331 B( 12-H , 18-H ) :   0.2006 B( 13-H , 14-H ) :  -0.2027
B( 15-F , 31-H ) :   0.1167 B( 17-C , 19-H ) :   0.2190 B( 17-C , 26-C ) :   1.0996
B( 17-C , 27-H ) :   0.8525 B( 17-C , 28-H ) :   0.8261 B( 17-C , 29-C ) :   0.1259
B( 17-C , 30-H ) :   0.1715 B( 18-H , 19-H ) :  -0.2791 B( 20-C , 21-C ) :   1.2079
B( 20-C , 22-H ) :   0.1264 B( 20-C , 23-H ) :   0.1665 B( 20-C , 29-C ) :   0.1825
B( 20-C , 32-C ) :   1.1343 B( 20-C , 35-H ) :   0.9341 B( 20-C , 36-H ) :   0.8153
B( 20-C , 37-H ) :   0.3430 B( 20-C , 38-H ) :   0.1437 B( 21-C , 22-H ) :   0.9055
B( 21-C , 23-H ) :   0.8115 B( 21-C , 24-H ) :   0.2908 B( 21-C , 25-H ) :   0.1871
B( 21-C , 35-H ) :   0.1224 B( 21-C , 36-H ) :   0.1303 B( 22-H , 34-H ) :   0.1130
B( 24-H , 25-H ) :  -0.1669 B( 26-C , 27-H ) :   0.1918 B( 26-C , 29-C ) :   1.2321
B( 26-C , 30-H ) :   0.5670 B( 26-C , 31-H ) :  -0.4098 B( 26-C , 32-C ) :   0.1101
B( 26-C , 33-H ) :   0.1019 B( 26-C , 34-H ) :   0.1780 B( 27-H , 31-H ) :   0.1208
B( 28-H , 33-H ) :  -0.1143 B( 29-C , 31-H ) :   0.1930 B( 29-C , 32-C ) :   1.0757
B( 29-C , 33-H ) :   0.9492 B( 29-C , 34-H ) :   0.7999 B( 29-C , 37-H ) :   0.1080
B( 29-C , 38-H ) :   0.2824 B( 30-H , 31-H ) :   0.2572 B( 31-H , 36-H ) :   0.1221
B( 32-C , 37-H ) :   0.5766 B( 32-C , 38-H ) :   0.6164 B( 37-H , 38-H ) :  -0.1518

FINAL SINGLE POINT ENERGY      -753.238427122453

DIPOLE MOMENT
-------------
                                X             Y             Z
Electronic contribution:      9.43682       8.69251       6.68549
Nuclear contribution   :    -11.12616      -8.32792      -6.96231
                        -----------------------------------------
Total Dipole Moment    :     -1.68933       0.36459      -0.27683
                        -----------------------------------------
Magnitude (a.u.)       :      1.75026
Magnitude (Debye)      :      4.44881

Rotational constants in cm-1:     0.020226     0.013574     0.009520
Rotational constants in MHz :   606.360011   406.923773   285.390769

                             ****ORCA TERMINATED NORMALLY****
TOTAL RUN TIME: 0 days 0 hours 5 minutes 56 seconds 300 msec
