                         Program Version 5.0.0 -  RELEASE  -
|  1> !LC-BLYP RIJCOSX def2-SVPD def2/J TightSCF xyzfile
|  2>
|  3> *xyzfile 0 1 D6.xyz
|  4>
|  5> %MaxCore 64000
|  6>
|  7> %pal nprocs 4
|  8> end
|  9>
| 10> %scf
| 11>   MaxIter 150
| 12> end
| 13>
| 14>
| 15>                          ****END OF INPUT****

CARTESIAN COORDINATES (ANGSTROEM)
---------------------------------
  C      3.913853   -1.658291    3.015134
  N      5.039266   -0.901154    2.492821
  C      4.084215    1.742081   -2.114724
  C      4.265245    2.500518   -0.795890
  H      4.868534    3.392674   -0.981134
  H      3.307640    2.824571   -0.387809
  C      4.982240    1.650257    0.247422
  C      6.210384   -1.417261    2.178244
  N      6.535913   -2.677122    2.556078
  C      7.076754   -0.700820    1.478906
  H      7.954643   -1.121554    1.207554
  H      6.756161    0.106637    0.960278
  H      4.842168    0.017609    2.115191
  H      5.993876   -3.126918    3.282784
  H      7.498441   -2.975482    2.468776
  O      4.368065    1.389270    1.313706
  F      6.128919    1.233512   -0.045620
  C      3.139159   -2.376572    1.910609
  H      3.267235   -0.939401    3.520693
  H      4.247195   -2.355095    3.790065
  C      1.997274    0.430918   -1.399218
  C      3.412746    0.376886   -1.965497
  H      4.047407   -0.246590   -1.326706
  H      3.390774   -0.118719   -2.942839
  H      5.068475    1.598504   -2.565728
  H      3.503356    2.363939   -2.804565
  C      2.399946   -1.389579    1.009490
  H      2.440750   -3.087118    2.362976
  H      3.844475   -2.970462    1.318677
  C      2.070177   -1.936705   -0.372401
  H      1.481611   -1.061542    1.509912
  H      3.008628   -0.490001    0.897451
  C      1.322238   -0.935775   -1.256413
  H      1.472747   -2.850902   -0.283997
  H      3.003539   -2.234041   -0.862535
  H      1.376444    1.058920   -2.047420
  H      2.015341    0.929780   -0.426535
  H      0.316648   -0.787213   -0.848278
  H      1.185611   -1.379252   -2.248613

 Total Charge           Charge          ....    0
 Multiplicity           Mult            ....    1
 Number of Electrons    NEL             ....  126
 Basis Dimension        Dim             ....  510

ORBITAL ENERGIES
----------------

  NO   OCC          E(Eh)            E(eV)
   0   2.0000     -24.561548      -668.3537
   1   2.0000     -18.990110      -516.7472
   2   2.0000     -14.171589      -385.6285
   3   2.0000     -14.150848      -385.0642
   4   2.0000     -10.291271      -280.0397
   5   2.0000     -10.124536      -275.5026
   6   2.0000     -10.112754      -275.1820
   7   2.0000     -10.108224      -275.0588
   8   2.0000     -10.103680      -274.9351
   9   2.0000     -10.092329      -274.6262
  10   2.0000     -10.084228      -274.4058
  11   2.0000     -10.080042      -274.2919
  12   2.0000     -10.074467      -274.1402
  13   2.0000     -10.069431      -274.0031
  14   2.0000     -10.068934      -273.9896
  15   2.0000      -9.970739      -271.3176
  16   2.0000      -1.406364       -38.2691
  17   2.0000      -1.146122       -31.1876
  18   2.0000      -1.040452       -28.3121
  19   2.0000      -0.957021       -26.0419
  20   2.0000      -0.942973       -25.6596
  21   2.0000      -0.910992       -24.7894
  22   2.0000      -0.879620       -23.9357
  23   2.0000      -0.843084       -22.9415
  24   2.0000      -0.818100       -22.2616
  25   2.0000      -0.781312       -21.2606
  26   2.0000      -0.777280       -21.1509
  27   2.0000      -0.743633       -20.2353
  28   2.0000      -0.716789       -19.5048
  29   2.0000      -0.701974       -19.1017
  30   2.0000      -0.682281       -18.5658
  31   2.0000      -0.676303       -18.4031
  32   2.0000      -0.673317       -18.3219
  33   2.0000      -0.655639       -17.8408
  34   2.0000      -0.628236       -17.0952
  35   2.0000      -0.614401       -16.7187
  36   2.0000      -0.596591       -16.2341
  37   2.0000      -0.592666       -16.1273
  38   2.0000      -0.580233       -15.7889
  39   2.0000      -0.568819       -15.4784
  40   2.0000      -0.560299       -15.2465
  41   2.0000      -0.539101       -14.6697
  42   2.0000      -0.537572       -14.6281
  43   2.0000      -0.529459       -14.4073
  44   2.0000      -0.521548       -14.1920
  45   2.0000      -0.515189       -14.0190
  46   2.0000      -0.498396       -13.5620
  47   2.0000      -0.487843       -13.2749
  48   2.0000      -0.485528       -13.2119
  49   2.0000      -0.477426       -12.9914
  50   2.0000      -0.470859       -12.8127
  51   2.0000      -0.456089       -12.4108
  52   2.0000      -0.453133       -12.3304
  53   2.0000      -0.442413       -12.0387
  54   2.0000      -0.440453       -11.9853
  55   2.0000      -0.434582       -11.8256
  56   2.0000      -0.422959       -11.5093
  57   2.0000      -0.411716       -11.2034
  58   2.0000      -0.409425       -11.1410
  59   2.0000      -0.405370       -11.0307
  60   2.0000      -0.398709       -10.8494
  61   2.0000      -0.333197        -9.0667
  62   2.0000      -0.237866        -6.4727
  63   0.0000       0.029977         0.8157
  64   0.0000       0.065035         1.7697
  65   0.0000       0.079803         2.1715
  66   0.0000       0.082040         2.2324
  67   0.0000       0.082663         2.2494

MULLIKEN ATOMIC CHARGES
-----------------------
   0 C :    1.350961
   1 N :    0.577384
   2 C :    0.593528
   3 C :    0.495977
   4 H :   -0.184875
   5 H :    0.067125
   6 C :    0.315842
   7 C :    0.591212
   8 N :    0.357068
   9 C :    1.305347
  10 H :   -0.401678
  11 H :   -1.280948
  12 H :   -1.259945
  13 H :   -0.148847
  14 H :   -0.212815
  15 O :   -0.383826
  16 F :   -0.369518
  17 C :    0.533910
  18 H :   -0.414018
  19 H :   -0.370724
  20 C :    0.078121
  21 C :    0.093460
  22 H :   -0.157636
  23 H :   -0.249603
  24 H :   -0.105561
  25 H :   -0.190904
  26 C :    0.969670
  27 H :   -0.264320
  28 H :   -0.078612
  29 C :    0.212821
  30 H :   -0.086403
  31 H :   -1.251510
  32 C :    0.897003
  33 H :   -0.518140
  34 H :    0.058553
  35 H :   -0.509066
  36 H :    0.092481
  37 H :   -0.056990
  38 H :   -0.094526
Sum of atomic charges:    0.0000000

LOEWDIN ATOMIC CHARGES
----------------------
   0 C :    0.041780
   1 N :    0.028065
   2 C :   -0.027024
   3 C :    0.051459
   4 H :    0.046499
   5 H :    0.038015
   6 C :    0.019670
   7 C :   -0.229433
   8 N :    0.211180
   9 C :    0.159742
  10 H :   -0.096571
  11 H :   -0.172561
  12 H :   -0.094194
  13 H :   -0.034155
  14 H :   -0.000454
  15 O :   -0.088081
  16 F :   -0.003074
  17 C :   -0.029141
  18 H :    0.031804
  19 H :    0.007930
  20 C :   -0.042489
  21 C :   -0.037433
  22 H :    0.020015
  23 H :    0.039080
  24 H :    0.031973
  25 H :    0.035708
  26 C :   -0.043093
  27 H :    0.026416
  28 H :    0.024526
  29 C :   -0.048874
  30 H :    0.042468
  31 H :   -0.023627
  32 C :   -0.040289
  33 H :    0.030535
  34 H :    0.024000
  35 H :    0.031546
  36 H :    0.012102
  37 H :    0.028962
  38 H :    0.027015

  Mayer bond orders larger than 0.100000
B(  0-C ,  1-N ) :   0.9944 B(  0-C , 12-H ) :  -0.5622 B(  0-C , 17-C ) :   1.0267
B(  0-C , 18-H ) :   0.4992 B(  0-C , 19-H ) :   0.6706 B(  0-C , 26-C ) :   0.2209
B(  1-N ,  7-C ) :   1.1813 B(  1-N ,  8-N ) :   0.1781 B(  1-N ,  9-C ) :   0.1255
B(  1-N , 12-H ) :   0.8038 B(  1-N , 18-H ) :   0.2310 B(  2-C ,  3-C ) :   1.1384
B(  2-C ,  4-H ) :   0.1851 B(  2-C ,  6-C ) :   0.1510 B(  2-C , 21-C ) :   1.2079
B(  2-C , 22-H ) :   0.1117 B(  2-C , 24-H ) :   0.6080 B(  2-C , 25-H ) :   0.7542
B(  3-C ,  4-H ) :   0.5744 B(  3-C ,  5-H ) :   0.7090 B(  3-C ,  6-C ) :   1.2245
B(  3-C , 21-C ) :   0.1598 B(  3-C , 24-H ) :   0.1071 B(  3-C , 25-H ) :   0.1778
B(  4-H ,  6-C ) :   0.3141 B(  5-H ,  6-C ) :   0.2523 B(  6-C , 15-O ) :   1.8532
B(  6-C , 16-F ) :   0.7459 B(  7-C ,  8-N ) :   0.9226 B(  7-C ,  9-C ) :   1.4839
B(  7-C , 10-H ) :   0.3301 B(  7-C , 12-H ) :  -0.7615 B(  7-C , 17-C ) :   0.1073
B(  7-C , 19-H ) :  -0.1149 B(  8-N ,  9-C ) :   0.2632 B(  8-N , 13-H ) :   0.9861
B(  8-N , 14-H ) :   1.1915 B(  8-N , 19-H ) :   0.1158 B(  9-C , 10-H ) :   0.3029
B(  9-C , 11-H ) :  -0.1162 B( 10-H , 11-H ) :   0.3271 B( 11-H , 16-F ) :   0.2743
B( 12-H , 15-O ) :   0.1966 B( 12-H , 18-H ) :   0.1984 B( 13-H , 14-H ) :  -0.2005
B( 15-O , 16-F ) :   0.1460 B( 15-O , 31-H ) :   0.1055 B( 17-C , 19-H ) :   0.2206
B( 17-C , 26-C ) :   1.1100 B( 17-C , 27-H ) :   0.8500 B( 17-C , 28-H ) :   0.8262
B( 17-C , 29-C ) :   0.1232 B( 17-C , 30-H ) :   0.1722 B( 18-H , 19-H ) :  -0.2792
B( 20-C , 21-C ) :   1.2219 B( 20-C , 22-H ) :   0.1383 B( 20-C , 23-H ) :   0.1608
B( 20-C , 29-C ) :   0.1791 B( 20-C , 32-C ) :   1.1259 B( 20-C , 35-H ) :   0.9348
B( 20-C , 36-H ) :   0.8171 B( 20-C , 37-H ) :   0.3404 B( 20-C , 38-H ) :   0.1428
B( 21-C , 22-H ) :   0.8885 B( 21-C , 23-H ) :   0.8225 B( 21-C , 24-H ) :   0.2984
B( 21-C , 25-H ) :   0.1774 B( 21-C , 35-H ) :   0.1247 B( 21-C , 36-H ) :   0.1343
B( 22-H , 33-H ) :  -0.1022 B( 22-H , 34-H ) :   0.1127 B( 24-H , 25-H ) :  -0.1642
B( 26-C , 27-H ) :   0.1959 B( 26-C , 29-C ) :   1.2319 B( 26-C , 30-H ) :   0.5370
B( 26-C , 31-H ) :  -0.5360 B( 26-C , 32-C ) :   0.1234 B( 26-C , 34-H ) :   0.1782
B( 27-H , 31-H ) :   0.1172 B( 28-H , 33-H ) :  -0.1198 B( 29-C , 31-H ) :   0.1927
B( 29-C , 32-C ) :   1.0786 B( 29-C , 33-H ) :   0.9503 B( 29-C , 34-H ) :   0.7954
B( 29-C , 37-H ) :   0.1106 B( 29-C , 38-H ) :   0.2800 B( 30-H , 31-H ) :   0.3011
B( 31-H , 36-H ) :   0.1242 B( 32-C , 37-H ) :   0.5805 B( 32-C , 38-H ) :   0.6088
B( 33-H , 34-H ) :  -0.1107 B( 37-H , 38-H ) :  -0.1555

FINAL SINGLE POINT ENERGY      -753.251881202484

DIPOLE MOMENT
-------------
                                X             Y             Z
Electronic contribution:     12.38212       8.53728       4.38318
Nuclear contribution   :    -13.25777      -8.13937      -5.31678
                        -----------------------------------------
Total Dipole Moment    :     -0.87564       0.39791      -0.93360
                        -----------------------------------------
Magnitude (a.u.)       :      1.34041
Magnitude (Debye)      :      3.40704

Rotational constants in cm-1:     0.020021     0.013636     0.009443
Rotational constants in MHz :   600.208195   408.782966   283.102361

                             ****ORCA TERMINATED NORMALLY****
TOTAL RUN TIME: 0 days 0 hours 5 minutes 13 seconds 896 msec
