                         Program Version 5.0.0 -  RELEASE  -
|  1> !wB97X-D3 RIJCOSX def2-SVP def2/J TightSCF
|  2> *xyz -1 1
|  3> C         -0.47749        0.60819       -4.10105
|  4> C          0.18467       -0.50664       -4.91676
|  5> O         -0.15869       -1.70109       -4.65798
|  6> O          1.05594       -0.17441       -5.74037
|  7> H         -0.09903        1.55672       -4.42038
|  8> H         -0.25931        0.46828       -3.06292
|  9> H         -1.53664        0.57826       -4.25010
| 10> *
| 11>
| 12> %MaxCore 64000
| 13>
| 14> %pal nprocs 18
| 15> end
| 16>
| 17> %scf
| 18>   MaxIter 150
| 19> end
| 20>
| 21>
| 22>                          ****END OF INPUT****

CARTESIAN COORDINATES (ANGSTROEM)
---------------------------------
  C     -0.477490    0.608190   -4.101050
  C      0.184670   -0.506640   -4.916760
  O     -0.158690   -1.701090   -4.657980
  O      1.055940   -0.174410   -5.740370
  H     -0.099030    1.556720   -4.420380
  H     -0.259310    0.468280   -3.062920
  H     -1.536640    0.578260   -4.250100

 Total Charge           Charge          ....   -1
 Multiplicity           Mult            ....    1
 Number of Electrons    NEL             ....   32
 Basis Dimension        Dim             ....   71

ORBITAL ENERGIES
----------------

  NO   OCC          E(Eh)            E(eV)
   0   2.0000     -18.933887      -515.2173
   1   2.0000     -18.926618      -515.0195
   2   2.0000     -10.139282      -275.9039
   3   2.0000     -10.084386      -274.4101
   4   2.0000      -0.885139       -24.0859
   5   2.0000      -0.786471       -21.4010
   6   2.0000      -0.634170       -17.2566
   7   2.0000      -0.378965       -10.3122
   8   2.0000      -0.342596        -9.3225
   9   2.0000      -0.327099        -8.9008
  10   2.0000      -0.290422        -7.9028
  11   2.0000      -0.246797        -6.7157
  12   2.0000      -0.233384        -6.3507
  13   2.0000      -0.099182        -2.6989
  14   2.0000      -0.098219        -2.6727
  15   2.0000      -0.081354        -2.2137
  16   0.0000       0.330287         8.9876
  17   0.0000       0.358252         9.7485
  18   0.0000       0.393243        10.7007
  19   0.0000       0.425269        11.5722
  20   0.0000       0.515927        14.0391

MULLIKEN ATOMIC CHARGES
-----------------------
   0 C :   -0.015389
   1 C :    0.029532
   2 O :   -0.488095
   3 O :   -0.442770
   4 H :   -0.038992
   5 H :   -0.020009
   6 H :   -0.024276
Sum of atomic charges:   -1.0000000

LOEWDIN ATOMIC CHARGES
----------------------
   0 C :   -0.125314
   1 C :   -0.044829
   2 O :   -0.438027
   3 O :   -0.398027
   4 H :   -0.004161
   5 H :    0.006162
   6 H :    0.004196

  Mayer bond orders larger than 0.100000
B(  0-C ,  1-C ) :   0.9388 B(  0-C ,  4-H ) :   0.9647 B(  0-C ,  5-H ) :   0.9678
B(  0-C ,  6-H ) :   0.9659 B(  1-C ,  2-O ) :   1.8168 B(  1-C ,  3-O ) :   1.8720
B(  2-O ,  3-O ) :   0.1091

Dispersion correction           -0.000907159
FINAL SINGLE POINT ENERGY      -228.264045379400

DIPOLE MOMENT
-------------
                                X             Y             Z
Electronic contribution:      1.64778      -2.70857      -1.99663
Nuclear contribution   :     -2.19461       3.67480       2.63888
                        -----------------------------------------
Total Dipole Moment    :     -0.54683       0.96623       0.64225
                        -----------------------------------------
Magnitude (a.u.)       :      1.28262
Magnitude (Debye)      :      3.26016

Rotational constants in cm-1:     0.393152     0.332423     0.186264
Rotational constants in MHz : 11786.395082  9965.786704  5584.045355

                             ****ORCA TERMINATED NORMALLY****
TOTAL RUN TIME: 0 days 0 hours 0 minutes 4 seconds 690 msec
