                         Program Version 5.0.0 -  RELEASE  -
|  1> !wB97X-D3 RIJCOSX def2-SVP def2/J TightSCF
|  2> *xyz 1 1
|  3> C          2.48645       -2.67712       -2.56345
|  4> C          3.03764       -2.36672       -3.92351
|  5> N          2.28036       -2.45441       -4.96769
|  6> N          4.32174       -2.01793       -4.01664
|  7> H          4.87994       -1.91167       -3.17382
|  8> H          4.71015       -1.67088       -4.88356
|  9> H          1.27042       -2.41265       -4.86614
| 10> H          2.58183       -2.05528       -5.84688
| 11> H          1.45238       -2.93848       -2.64882
| 12> H          2.58636       -1.81799       -1.93352
| 13> H          3.02742       -3.49632       -2.13781
| 14> *
| 15>
| 16> %MaxCore 64000
| 17>
| 18> %pal nprocs 18
| 19> end
| 20>
| 21> %scf
| 22>   MaxIter 150
| 23> end
| 24>
| 25>
| 26>                          ****END OF INPUT****

CARTESIAN COORDINATES (ANGSTROEM)
---------------------------------
  C      2.486450   -2.677120   -2.563450
  C      3.037640   -2.366720   -3.923510
  N      2.280360   -2.454410   -4.967690
  N      4.321740   -2.017930   -4.016640
  H      4.879940   -1.911670   -3.173820
  H      4.710150   -1.670880   -4.883560
  H      1.270420   -2.412650   -4.866140
  H      2.581830   -2.055280   -5.846880
  H      1.452380   -2.938480   -2.648820
  H      2.586360   -1.817990   -1.933520
  H      3.027420   -3.496320   -2.137810

 Total Charge           Charge          ....    1
 Multiplicity           Mult            ....    1
 Number of Electrons    NEL             ....   32
 Basis Dimension        Dim             ....   91

ORBITAL ENERGIES
----------------

  NO   OCC          E(Eh)            E(eV)
   0   2.0000     -14.691723      -399.7821
   1   2.0000     -14.686300      -399.6345
   2   2.0000     -10.625774      -289.1420
   3   2.0000     -10.488500      -285.4066
   4   2.0000      -1.324669       -36.0461
   5   2.0000      -1.223888       -33.3037
   6   2.0000      -1.065972       -29.0066
   7   2.0000      -0.952642       -25.9227
   8   2.0000      -0.885740       -24.1022
   9   2.0000      -0.871265       -23.7083
  10   2.0000      -0.806534       -21.9469
  11   2.0000      -0.766198       -20.8493
  12   2.0000      -0.714310       -19.4374
  13   2.0000      -0.700461       -19.0605
  14   2.0000      -0.676750       -18.4153
  15   2.0000      -0.595539       -16.2054
  16   0.0000      -0.130935        -3.5629
  17   0.0000      -0.056682        -1.5424
  18   0.0000      -0.016539        -0.4500
  19   0.0000      -0.006076        -0.1653
  20   0.0000       0.015679         0.4267

MULLIKEN ATOMIC CHARGES
-----------------------
   0 C :    0.034473
   1 C :   -0.069242
   2 N :   -0.000657
   3 N :   -0.050281
   4 H :    0.199283
   5 H :    0.186805
   6 H :    0.201094
   7 H :    0.182330
   8 H :    0.078001
   9 H :    0.116041
  10 H :    0.122155
Sum of atomic charges:    1.0000000

LOEWDIN ATOMIC CHARGES
----------------------
   0 C :   -0.027469
   1 C :    0.160588
   2 N :    0.102141
   3 N :    0.078298
   4 H :    0.125382
   5 H :    0.113638
   6 H :    0.127963
   7 H :    0.116004
   8 H :    0.057593
   9 H :    0.071171
  10 H :    0.074694

  Mayer bond orders larger than 0.100000
B(  0-C ,  1-C ) :   1.0412 B(  0-C ,  8-H ) :   0.9496 B(  0-C ,  9-H ) :   0.9423
B(  0-C , 10-H ) :   0.9431 B(  1-C ,  2-N ) :   1.5202 B(  1-C ,  3-N ) :   1.4834
B(  2-N ,  6-H ) :   0.9175 B(  2-N ,  7-H ) :   0.9321 B(  3-N ,  4-H ) :   0.9260
B(  3-N ,  5-H ) :   0.9307

Dispersion correction           -0.001683817
FINAL SINGLE POINT ENERGY      -189.525599720280

DIPOLE MOMENT
-------------
                                X             Y             Z
Electronic contribution:      0.79658       0.27986      -1.97492
Nuclear contribution   :     -0.70516       0.22720       1.57908
                        -----------------------------------------
Total Dipole Moment    :      0.09142       0.50706      -0.39584
                        -----------------------------------------
Magnitude (a.u.)       :      0.64974
Magnitude (Debye)      :      1.65150

Rotational constants in cm-1:     0.330529     0.301293     0.162717
Rotational constants in MHz :  9909.000224  9032.538169  4878.126278

                             ****ORCA TERMINATED NORMALLY****
TOTAL RUN TIME: 0 days 0 hours 0 minutes 5 seconds 402 msec
