                         Program Version 5.0.0 -  RELEASE  -
|  1> !wB97X-D3 RIJCOSX def2-SVP def2/J TightSCF
|  2> *xyz 0 1
|  3> C          2.48645       -2.67712       -2.56345
|  4> C          3.03764       -2.36672       -3.92351
|  5> C          2.28036       -2.45441       -4.96769
|  6> N          4.32174       -2.01793       -4.01664
|  7> H          4.87994       -1.91167       -3.17382
|  8> H          4.71015       -1.67088       -4.88356
|  9> H          1.27042       -2.41265       -4.86614
| 10> H          2.58183       -2.05528       -5.84688
| 11> H          1.45238       -2.93848       -2.64882
| 12> H          2.58636       -1.81799       -1.93352
| 13> H          3.02742       -3.49632       -2.13781
| 14> *
| 15>
| 16> %MaxCore 64000
| 17>
| 18> %pal nprocs 18
| 19> end
| 20>
| 21> %scf
| 22>   MaxIter 150
| 23> end
| 24>
| 25>
| 26>                          ****END OF INPUT****

CARTESIAN COORDINATES (ANGSTROEM)
---------------------------------
  C      2.486450   -2.677120   -2.563450
  C      3.037640   -2.366720   -3.923510
  C      2.280360   -2.454410   -4.967690
  N      4.321740   -2.017930   -4.016640
  H      4.879940   -1.911670   -3.173820
  H      4.710150   -1.670880   -4.883560
  H      1.270420   -2.412650   -4.866140
  H      2.581830   -2.055280   -5.846880
  H      1.452380   -2.938480   -2.648820
  H      2.586360   -1.817990   -1.933520
  H      3.027420   -3.496320   -2.137810

 Total Charge           Charge          ....    0
 Multiplicity           Mult            ....    1
 Number of Electrons    NEL             ....   32
 Basis Dimension        Dim             ....   91

ORBITAL ENERGIES
----------------

  NO   OCC          E(Eh)            E(eV)
   0   2.0000     -14.429842      -392.6560
   1   2.0000     -10.307413      -280.4790
   2   2.0000     -10.277807      -279.6733
   3   2.0000     -10.213435      -277.9217
   4   2.0000      -1.026645       -27.9364
   5   2.0000      -0.864666       -23.5288
   6   2.0000      -0.796251       -21.6671
   7   2.0000      -0.668975       -18.2037
   8   2.0000      -0.619345       -16.8532
   9   2.0000      -0.572083       -15.5672
  10   2.0000      -0.530975       -14.4486
  11   2.0000      -0.489908       -13.3311
  12   2.0000      -0.486500       -13.2383
  13   2.0000      -0.437551       -11.9064
  14   2.0000      -0.425048       -11.5662
  15   2.0000      -0.278109        -7.5677
  16   0.0000       0.139332         3.7914
  17   0.0000       0.149309         4.0629
  18   0.0000       0.187573         5.1041
  19   0.0000       0.201533         5.4840
  20   0.0000       0.214760         5.8439

MULLIKEN ATOMIC CHARGES
-----------------------
   0 C :    0.071160
   1 C :   -0.138432
   2 C :   -0.082069
   3 N :   -0.133893
   4 H :    0.118683
   5 H :    0.126213
   6 H :   -0.018303
   7 H :   -0.036164
   8 H :    0.028232
   9 H :    0.028911
  10 H :    0.035664
Sum of atomic charges:   -0.0000000

LOEWDIN ATOMIC CHARGES
----------------------
   0 C :   -0.043151
   1 C :    0.013520
   2 C :   -0.184764
   3 N :   -0.026966
   4 H :    0.072233
   5 H :    0.077232
   6 H :    0.003436
   7 H :   -0.005259
   8 H :    0.036279
   9 H :    0.027245
  10 H :    0.030195

  Mayer bond orders larger than 0.100000
B(  0-C ,  1-C ) :   1.0294 B(  0-C ,  8-H ) :   0.9620 B(  0-C ,  9-H ) :   0.9573
B(  0-C , 10-H ) :   0.9601 B(  1-C ,  2-C ) :   1.8871 B(  1-C ,  3-N ) :   1.2343
B(  2-C ,  6-H ) :   0.9459 B(  2-C ,  7-H ) :   0.9658 B(  3-N ,  4-H ) :   0.9585
B(  3-N ,  5-H ) :   0.9534

Dispersion correction           -0.001693990
FINAL SINGLE POINT ENERGY      -173.067542067537

DIPOLE MOMENT
-------------
                                X             Y             Z
Electronic contribution:      1.50127       0.19458      -0.86269
Nuclear contribution   :     -0.87498       0.20680       1.33581
                        -----------------------------------------
Total Dipole Moment    :      0.62629       0.40138       0.47312
                        -----------------------------------------
Magnitude (a.u.)       :      0.88158
Magnitude (Debye)      :      2.24080

Rotational constants in cm-1:     0.351941     0.304186     0.168624
Rotational constants in MHz : 10550.928440  9119.266441  5055.221775

                             ****ORCA TERMINATED NORMALLY****
TOTAL RUN TIME: 0 days 0 hours 0 minutes 5 seconds 631 msec
