                         Program Version 5.0.0 -  RELEASE  -
|  1> !wB97X-D3 RIJCOSX def2-SVP def2/J TightSCF
|  2> *xyz 0 1
|  3> C         -0.47749        0.60819       -4.10105
|  4> C          0.18467       -0.50664       -4.91676
|  5> O         -0.15869       -1.70109       -4.65798
|  6> F          1.05594       -0.17441       -5.74037
|  7> H         -0.09903        1.55672       -4.42038
|  8> H         -0.25931        0.46828       -3.06292
|  9> H         -1.53664        0.57826       -4.25010
| 10> *
| 11>
| 12> %MaxCore 64000
| 13>
| 14> %pal nprocs 18
| 15> end
| 16>
| 17> %scf
| 18>   MaxIter 150
| 19> end
| 20>
| 21>
| 22>                          ****END OF INPUT****

CARTESIAN COORDINATES (ANGSTROEM)
---------------------------------
  C     -0.477490    0.608190   -4.101050
  C      0.184670   -0.506640   -4.916760
  O     -0.158690   -1.701090   -4.657980
  F      1.055940   -0.174410   -5.740370
  H     -0.099030    1.556720   -4.420380
  H     -0.259310    0.468280   -3.062920
  H     -1.536640    0.578260   -4.250100

 Total Charge           Charge          ....    0
 Multiplicity           Mult            ....    1
 Number of Electrons    NEL             ....   32
 Basis Dimension        Dim             ....   71

ORBITAL ENERGIES
----------------

  NO   OCC          E(Eh)            E(eV)
   0   2.0000     -24.863736      -676.5767
   1   2.0000     -19.238088      -523.4950
   2   2.0000     -10.467952      -284.8475
   3   2.0000     -10.313284      -280.6387
   4   2.0000      -1.424186       -38.7541
   5   2.0000      -1.123548       -30.5733
   6   2.0000      -0.879090       -23.9212
   7   2.0000      -0.762717       -20.7546
   8   2.0000      -0.653940       -17.7946
   9   2.0000      -0.649795       -17.6818
  10   2.0000      -0.598625       -16.2894
  11   2.0000      -0.542303       -14.7568
  12   2.0000      -0.528880       -14.3916
  13   2.0000      -0.492050       -13.3894
  14   2.0000      -0.437646       -11.9090
  15   2.0000      -0.381972       -10.3940
  16   0.0000       0.063368         1.7243
  17   0.0000       0.152058         4.1377
  18   0.0000       0.204298         5.5592
  19   0.0000       0.223876         6.0920
  20   0.0000       0.267591         7.2815

MULLIKEN ATOMIC CHARGES
-----------------------
   0 C :   -0.075180
   1 C :    0.225253
   2 O :   -0.291087
   3 F :   -0.069260
   4 H :    0.044504
   5 H :    0.083907
   6 H :    0.081863
Sum of atomic charges:    0.0000000

LOEWDIN ATOMIC CHARGES
----------------------
   0 C :   -0.081975
   1 C :    0.111346
   2 O :   -0.221642
   3 F :    0.052537
   4 H :    0.031386
   5 H :    0.054624
   6 H :    0.053723

  Mayer bond orders larger than 0.100000
B(  0-C ,  1-C ) :   1.0209 B(  0-C ,  4-H ) :   0.9618 B(  0-C ,  5-H ) :   0.9609
B(  0-C ,  6-H ) :   0.9611 B(  1-C ,  2-O ) :   2.0508 B(  1-C ,  3-F ) :   1.2026

Dispersion correction           -0.000911729
FINAL SINGLE POINT ENERGY      -252.815814772255

DIPOLE MOMENT
-------------
                                X             Y             Z
Electronic contribution:      3.06919      -2.24349      -3.39235
Nuclear contribution   :     -3.12947       3.39716       3.55645
                        -----------------------------------------
Total Dipole Moment    :     -0.06027       1.15367       0.16410
                        -----------------------------------------
Magnitude (a.u.)       :      1.16684
Magnitude (Debye)      :      2.96587

Rotational constants in cm-1:     0.366922     0.321471     0.176896
Rotational constants in MHz : 11000.056350  9637.461211  5303.212706

                             ****ORCA TERMINATED NORMALLY****
TOTAL RUN TIME: 0 days 0 hours 0 minutes 4 seconds 195 msec
