                         Program Version 5.0.0 -  RELEASE  -
|  1> !wB97X-D3 RIJCOSX def2-SVP def2/J TightSCF
|  2> *xyz 0 1
|  3> C          2.48645       -2.67712       -2.56345
|  4> C          3.03764       -2.36672       -3.92351
|  5> N          2.28036       -2.45441       -4.96769
|  6> C          4.32174       -2.01793       -4.01664
|  7> H          4.87994       -1.91167       -3.17382
|  8> H          4.71015       -1.67088       -4.88356
|  9> H          1.27042       -2.41265       -4.86614
| 10> H          2.58183       -2.05528       -5.84688
| 11> H          1.45238       -2.93848       -2.64882
| 12> H          2.58636       -1.81799       -1.93352
| 13> H          3.02742       -3.49632       -2.13781
| 14> *
| 15>
| 16> %MaxCore 64000
| 17>
| 18> %pal nprocs 18
| 19> end
| 20>
| 21> %scf
| 22>   MaxIter 150
| 23> end
| 24>
| 25>
| 26>                          ****END OF INPUT****

CARTESIAN COORDINATES (ANGSTROEM)
---------------------------------
  C      2.486450   -2.677120   -2.563450
  C      3.037640   -2.366720   -3.923510
  N      2.280360   -2.454410   -4.967690
  C      4.321740   -2.017930   -4.016640
  H      4.879940   -1.911670   -3.173820
  H      4.710150   -1.670880   -4.883560
  H      1.270420   -2.412650   -4.866140
  H      2.581830   -2.055280   -5.846880
  H      1.452380   -2.938480   -2.648820
  H      2.586360   -1.817990   -1.933520
  H      3.027420   -3.496320   -2.137810

 Total Charge           Charge          ....    0
 Multiplicity           Mult            ....    1
 Number of Electrons    NEL             ....   32
 Basis Dimension        Dim             ....   91

ORBITAL ENERGIES
----------------

  NO   OCC          E(Eh)            E(eV)
   0   2.0000     -14.433625      -392.7589
   1   2.0000     -10.307571      -280.4833
   2   2.0000     -10.278103      -279.6814
   3   2.0000     -10.213168      -277.9144
   4   2.0000      -1.042561       -28.3695
   5   2.0000      -0.861846       -23.4520
   6   2.0000      -0.788613       -21.4593
   7   2.0000      -0.678185       -18.4543
   8   2.0000      -0.619923       -16.8690
   9   2.0000      -0.569533       -15.4978
  10   2.0000      -0.529714       -14.4143
  11   2.0000      -0.491038       -13.3618
  12   2.0000      -0.481664       -13.1067
  13   2.0000      -0.442960       -12.0536
  14   2.0000      -0.434125       -11.8131
  15   2.0000      -0.267797        -7.2871
  16   0.0000       0.134585         3.6622
  17   0.0000       0.148236         4.0337
  18   0.0000       0.186846         5.0843
  19   0.0000       0.192824         5.2470
  20   0.0000       0.226808         6.1718

MULLIKEN ATOMIC CHARGES
-----------------------
   0 C :    0.068747
   1 C :   -0.200041
   2 N :   -0.080284
   3 C :   -0.076027
   4 H :   -0.023627
   5 H :   -0.034294
   6 H :    0.117234
   7 H :    0.121520
   8 H :    0.002248
   9 H :    0.049684
  10 H :    0.054841
Sum of atomic charges:   -0.0000000

LOEWDIN ATOMIC CHARGES
----------------------
   0 C :   -0.042707
   1 C :   -0.002683
   2 N :   -0.002138
   3 C :   -0.192431
   4 H :   -0.000505
   5 H :   -0.008122
   6 H :    0.071432
   7 H :    0.078587
   8 H :    0.018339
   9 H :    0.038551
  10 H :    0.041676

  Mayer bond orders larger than 0.100000
B(  0-C ,  1-C ) :   1.0118 B(  0-C ,  8-H ) :   0.9633 B(  0-C ,  9-H ) :   0.9640
B(  0-C , 10-H ) :   0.9652 B(  1-C ,  2-N ) :   1.2639 B(  1-C ,  3-C ) :   1.8570
B(  2-N ,  6-H ) :   0.9518 B(  2-N ,  7-H ) :   0.9548 B(  3-C ,  4-H ) :   0.9605
B(  3-C ,  5-H ) :   0.9642

Dispersion correction           -0.001681278
FINAL SINGLE POINT ENERGY      -173.068015807632

DIPOLE MOMENT
-------------
                                X             Y             Z
Electronic contribution:     -0.44923      -0.13935      -1.73828
Nuclear contribution   :     -0.41717       0.30469       1.54910
                        -----------------------------------------
Total Dipole Moment    :     -0.86640       0.16534      -0.18918
                        -----------------------------------------
Magnitude (a.u.)       :      0.90209
Magnitude (Debye)      :      2.29293

Rotational constants in cm-1:     0.351587     0.304754     0.168726
Rotational constants in MHz : 10540.302868  9136.286689  5058.281984

                             ****ORCA TERMINATED NORMALLY****
TOTAL RUN TIME: 0 days 0 hours 0 minutes 5 seconds 79 msec
