                         Program Version 5.0.0 -  RELEASE  -
|  1> !M062X D3Zero RIJCOSX def2-SVPD def2/J TightSCF
|  2> *xyz -1 1
|  3> C          4.99986       -1.59613       -5.92488
|  4> C          3.76678       -2.26611       -6.51175
|  5> C          2.49670       -1.84416       -5.73570
|  6> H          1.62642       -2.21743       -6.30895
|  7> H          2.48182       -2.45607       -4.79341
|  8> O          2.45973       -0.50920       -5.50576
|  9> H          3.88619       -3.35708       -6.53360
| 10> H          3.68560       -1.92217       -7.54713
| 11> H          5.86637       -1.89999       -6.47418
| 12> H          5.10830       -1.88372       -4.89997
| 13> H          4.89230       -0.53341       -5.98765
| 14> *
| 15>
| 16> %MaxCore 64000
| 17>
| 18> %pal nprocs 4
| 19> end
| 20>
| 21> %scf
| 22>   MaxIter 150
| 23> end
| 24>
| 25>
| 26>                          ****END OF INPUT****

CARTESIAN COORDINATES (ANGSTROEM)
---------------------------------
  C      4.999860   -1.596130   -5.924880
  C      3.766780   -2.266110   -6.511750
  C      2.496700   -1.844160   -5.735700
  H      1.626420   -2.217430   -6.308950
  H      2.481820   -2.456070   -4.793410
  O      2.459730   -0.509200   -5.505760
  H      3.886190   -3.357080   -6.533600
  H      3.685600   -1.922170   -7.547130
  H      5.866370   -1.899990   -6.474180
  H      5.108300   -1.883720   -4.899970
  H      4.892300   -0.533410   -5.987650

 Total Charge           Charge          ....   -1
 Multiplicity           Mult            ....    1
 Number of Electrons    NEL             ....   34
 Basis Dimension        Dim             ....  139

ORBITAL ENERGIES
----------------

  NO   OCC          E(Eh)            E(eV)
   0   2.0000     -19.303759      -525.2820
   1   2.0000     -10.366601      -282.0896
   2   2.0000     -10.359397      -281.8935
   3   2.0000     -10.355031      -281.7747
   4   2.0000      -0.790727       -21.5168
   5   2.0000      -0.667642       -18.1675
   6   2.0000      -0.543268       -14.7831
   7   2.0000      -0.437012       -11.8917
   8   2.0000      -0.342547        -9.3212
   9   2.0000      -0.331689        -9.0257
  10   2.0000      -0.275960        -7.5093
  11   2.0000      -0.250480        -6.8159
  12   2.0000      -0.219228        -5.9655
  13   2.0000      -0.208938        -5.6855
  14   2.0000      -0.181013        -4.9256
  15   2.0000      -0.038687        -1.0527
  16   2.0000      -0.035442        -0.9644
  17   0.0000       0.187069         5.0904
  18   0.0000       0.211558         5.7568
  19   0.0000       0.229437         6.2433
  20   0.0000       0.259756         7.0683
  21   0.0000       0.278952         7.5907

MULLIKEN ATOMIC CHARGES
-----------------------
   0 C :    0.613730
   1 C :   -0.453568
   2 C :    0.459171
   3 H :   -0.188003
   4 H :   -0.081233
   5 O :   -0.880640
   6 H :   -0.156874
   7 H :   -0.079438
   8 H :   -0.134329
   9 H :   -0.080272
  10 H :   -0.018544
Sum of atomic charges:   -1.0000000

LOEWDIN ATOMIC CHARGES
----------------------
   0 C :    0.077253
   1 C :   -0.117347
   2 C :   -0.214407
   3 H :   -0.033390
   4 H :   -0.023247
   5 O :   -0.560867
   6 H :   -0.010819
   7 H :   -0.001792
   8 H :   -0.050289
   9 H :   -0.029695
  10 H :   -0.035401

  Mayer bond orders larger than 0.100000
B(  0-C ,  1-C ) :   1.2887 B(  0-C ,  8-H ) :   0.8093 B(  0-C ,  9-H ) :   0.8226
B(  0-C , 10-H ) :   0.8168 B(  1-C ,  2-C ) :   1.0225 B(  1-C ,  3-H ) :   0.1364
B(  1-C ,  4-H ) :   0.1311 B(  1-C ,  6-H ) :   1.0251 B(  1-C ,  7-H ) :   0.9408
B(  1-C ,  8-H ) :   0.1982 B(  1-C ,  9-H ) :   0.1882 B(  1-C , 10-H ) :   0.2105
B(  2-C ,  3-H ) :   0.9706 B(  2-C ,  4-H ) :   0.9346 B(  2-C ,  5-O ) :   1.1605

Dispersion correction           -0.000074465
FINAL SINGLE POINT ENERGY      -193.502342296367

DIPOLE MOMENT
-------------
                                X             Y             Z
Electronic contribution:     -1.99848       1.97928       0.53933
Nuclear contribution   :      3.33375      -3.25054      -1.09297
                        -----------------------------------------
Total Dipole Moment    :      1.33528      -1.27126      -0.55364
                        -----------------------------------------
Magnitude (a.u.)       :      1.92499
Magnitude (Debye)      :      4.89293

Rotational constants in cm-1:     0.478390     0.193336     0.154822
Rotational constants in MHz : 14341.777399  5796.063993  4641.443060

                             ****ORCA TERMINATED NORMALLY****
TOTAL RUN TIME: 0 days 0 hours 0 minutes 11 seconds 575 msec
