                         Program Version 5.0.0 -  RELEASE  -
|  1> !M062X D3Zero RIJCOSX def2-SVPD def2/J TightSCF
|  2> *xyz 1 1
|  3> C          4.99986       -1.59613       -5.92488
|  4> N          5.28156       -1.97413       -4.53576
|  5> C          3.76678       -2.26611       -6.51175
|  6> C          2.49670       -1.84416       -5.73570
|  7> C          4.79250       -1.36132       -3.45730
|  8> N          3.93990       -0.37492       -3.55736
|  9> N          5.25986       -1.75422       -2.23913
| 10> H          5.92282       -2.52145       -2.18672
| 11> H          4.65468       -1.64040       -1.44202
| 12> H          5.70914       -2.87560       -4.38702
| 13> H          3.33010       -0.31764       -4.36125
| 14> H          3.69849        0.11447       -2.70833
| 15> H          4.84333       -0.51793       -5.94302
| 16> H          5.90170       -1.82250       -6.49647
| 17> H          3.88619       -3.35708       -6.53360
| 18> H          3.68560       -1.92217       -7.54713
| 19> H          1.64155       -2.32499       -6.16281
| 20> H          2.37707       -0.78268       -5.79763
| 21> H          2.59306       -2.13299       -4.70994
| 22> *
| 23>
| 24> %MaxCore 64000
| 25>
| 26> %pal nprocs 4
| 27> end
| 28>
| 29> %scf
| 30>   MaxIter 150
| 31> end
| 32>
| 33>
| 34>                          ****END OF INPUT****

CARTESIAN COORDINATES (ANGSTROEM)
---------------------------------
  C      4.999860   -1.596130   -5.924880
  N      5.281560   -1.974130   -4.535760
  C      3.766780   -2.266110   -6.511750
  C      2.496700   -1.844160   -5.735700
  C      4.792500   -1.361320   -3.457300
  N      3.939900   -0.374920   -3.557360
  N      5.259860   -1.754220   -2.239130
  H      5.922820   -2.521450   -2.186720
  H      4.654680   -1.640400   -1.442020
  H      5.709140   -2.875600   -4.387020
  H      3.330100   -0.317640   -4.361250
  H      3.698490    0.114470   -2.708330
  H      4.843330   -0.517930   -5.943020
  H      5.901700   -1.822500   -6.496470
  H      3.886190   -3.357080   -6.533600
  H      3.685600   -1.922170   -7.547130
  H      1.641550   -2.324990   -6.162810
  H      2.377070   -0.782680   -5.797630
  H      2.593060   -2.132990   -4.709940

 Total Charge           Charge          ....    1
 Multiplicity           Mult            ....    1
 Number of Electrons    NEL             ....   56
 Basis Dimension        Dim             ....  236

ORBITAL ENERGIES
----------------

  NO   OCC          E(Eh)            E(eV)
   0   2.0000     -14.984074      -407.7374
   1   2.0000     -14.982716      -407.7004
   2   2.0000     -14.977982      -407.5716
   3   2.0000     -10.888479      -296.2906
   4   2.0000     -10.753553      -292.6191
   5   2.0000     -10.700943      -291.1875
   6   2.0000     -10.688469      -290.8480
   7   2.0000      -1.314854       -35.7790
   8   2.0000      -1.196917       -32.5698
   9   2.0000      -1.181282       -32.1443
  10   2.0000      -1.036063       -28.1927
  11   2.0000      -0.952346       -25.9146
  12   2.0000      -0.907558       -24.6959
  13   2.0000      -0.866410       -23.5762
  14   2.0000      -0.840486       -22.8708
  15   2.0000      -0.807094       -21.9622
  16   2.0000      -0.767370       -20.8812
  17   2.0000      -0.758530       -20.6406
  18   2.0000      -0.713136       -19.4054
  19   2.0000      -0.703279       -19.1372
  20   2.0000      -0.675567       -18.3831
  21   2.0000      -0.647475       -17.6187
  22   2.0000      -0.626098       -17.0370
  23   2.0000      -0.585472       -15.9315
  24   2.0000      -0.562292       -15.3008
  25   2.0000      -0.558080       -15.1861
  26   2.0000      -0.536634       -14.6025
  27   2.0000      -0.506181       -13.7739
  28   0.0000      -0.135956        -3.6995
  29   0.0000      -0.123304        -3.3553
  30   0.0000      -0.093100        -2.5334
  31   0.0000      -0.082209        -2.2370
  32   0.0000      -0.067710        -1.8425

MULLIKEN ATOMIC CHARGES
-----------------------
   0 C :    0.693387
   1 N :   -0.495955
   2 C :   -0.059423
   3 C :    0.462782
   4 C :    1.370150
   5 N :    0.139231
   6 N :   -0.157707
   7 H :   -0.024045
   8 H :   -0.005784
   9 H :   -0.231121
  10 H :   -0.366853
  11 H :   -0.083701
  12 H :    0.079849
  13 H :   -0.340692
  14 H :   -0.111486
  15 H :    0.046970
  16 H :   -0.336056
  17 H :    0.258483
  18 H :    0.161971
Sum of atomic charges:    1.0000000

LOEWDIN ATOMIC CHARGES
----------------------
   0 C :    0.076597
   1 N :    0.045638
   2 C :   -0.025121
   3 C :    0.139405
   4 C :   -0.027756
   5 N :    0.289522
   6 N :    0.254525
   7 H :    0.034178
   8 H :    0.028922
   9 H :    0.057254
  10 H :   -0.033761
  11 H :    0.050765
  12 H :    0.033529
  13 H :    0.041239
  14 H :    0.034367
  15 H :    0.039697
  16 H :    0.002150
  17 H :   -0.012195
  18 H :   -0.028952

  Mayer bond orders larger than 0.100000
B(  0-C ,  1-N ) :   0.9395 B(  0-C ,  2-C ) :   1.0825 B(  0-C ,  9-H ) :  -0.2080
B(  0-C , 12-H ) :   0.7149 B(  0-C , 13-H ) :   1.0011 B(  0-C , 14-H ) :   0.1343
B(  0-C , 15-H ) :   0.1015 B(  1-N ,  4-C ) :   0.9938 B(  1-N ,  5-N ) :   0.1754
B(  1-N ,  6-N ) :   0.1948 B(  1-N ,  9-H ) :   1.3274 B(  1-N , 12-H ) :   0.1609
B(  1-N , 13-H ) :   0.1220 B(  2-C ,  3-C ) :   1.2759 B(  2-C , 12-H ) :   0.1119
B(  2-C , 14-H ) :   0.9757 B(  2-C , 15-H ) :   0.8894 B(  2-C , 16-H ) :   0.1700
B(  2-C , 17-H ) :   0.1291 B(  2-C , 18-H ) :   0.1357 B(  3-C , 10-H ) :   0.1671
B(  3-C , 16-H ) :   1.0468 B(  3-C , 17-H ) :   0.6636 B(  3-C , 18-H ) :   0.8084
B(  4-C ,  5-N ) :   1.0548 B(  4-C ,  6-N ) :   0.7857 B(  4-C ,  7-H ) :  -0.1110
B(  4-C ,  9-H ) :  -0.2232 B(  4-C , 10-H ) :  -0.1393 B(  4-C , 11-H ) :  -0.1226
B(  5-N ,  6-N ) :   0.1531 B(  5-N , 10-H ) :   1.1775 B(  5-N , 11-H ) :   1.2197
B(  5-N , 12-H ) :   0.1017 B(  6-N ,  7-H ) :   1.0901 B(  6-N ,  8-H ) :   1.1425
B(  7-H ,  8-H ) :  -0.1428 B( 10-H , 11-H ) :  -0.2178 B( 10-H , 17-H ) :   0.1805
B( 12-H , 13-H ) :  -0.1687 B( 16-H , 17-H ) :  -0.1517 B( 16-H , 18-H ) :  -0.1006

Dispersion correction           -0.000464649
FINAL SINGLE POINT ENERGY      -323.330367599466

DIPOLE MOMENT
-------------
                                X             Y             Z
Electronic contribution:      3.86273       0.80442       4.82147
Nuclear contribution   :     -3.69451      -0.93313      -3.60402
                        -----------------------------------------
Total Dipole Moment    :      0.16822      -0.12871       1.21745
                        -----------------------------------------
Magnitude (a.u.)       :      1.23574
Magnitude (Debye)      :      3.14099

Rotational constants in cm-1:     0.152547     0.057272     0.048491
Rotational constants in MHz :  4573.230603  1716.968614  1453.721796

                             ****ORCA TERMINATED NORMALLY****
TOTAL RUN TIME: 0 days 0 hours 0 minutes 34 seconds 705 msec
