                         Program Version 5.0.0 -  RELEASE  -
|  1> !M062X D3Zero RIJCOSX def2-SVPD def2/J TightSCF xyzfile
|  2>
|  3> *xyzfile 0 1 B.xyz
|  4>
|  5> %MaxCore 64000
|  6>
|  7> %pal nprocs 4
|  8> end
|  9>
| 10> %scf
| 11>   MaxIter 150
| 12> end
| 13>
| 14>
| 15>                          ****END OF INPUT****

CARTESIAN COORDINATES (ANGSTROEM)
---------------------------------
  C      4.999862   -1.596133   -5.924876
  N      5.281560   -1.974132   -4.535764
  C      3.766779   -2.266110   -6.511752
  C      2.496702   -1.844161   -5.735704
  H      1.626416   -2.217434   -6.308950
  H      2.481824   -2.456069   -4.793414
  O      2.459729   -0.509204   -5.505757
  C      4.792500   -1.361316   -3.457295
  N      3.939898   -0.374925   -3.557359
  N      5.259860   -1.754224   -2.239133
  H      5.922824   -2.521451   -2.186720
  H      4.654678   -1.640404   -1.442016
  H      5.709139   -2.875599   -4.387021
  H      3.330101   -0.317639   -4.361247
  H      3.698494    0.114468   -2.708333
  H      4.843333   -0.517930   -5.943019
  H      5.901695   -1.822503   -6.496467
  H      3.886191   -3.357076   -6.533604
  H      3.685602   -1.922168   -7.547128

 Total Charge           Charge          ....    0
 Multiplicity           Mult            ....    1
 Number of Electrons    NEL             ....   64
 Basis Dimension        Dim             ....  251

ORBITAL ENERGIES
----------------

  NO   OCC          E(Eh)            E(eV)
   0   2.0000     -19.489869      -530.3463
   1   2.0000     -14.827718      -403.4827
   2   2.0000     -14.820159      -403.2770
   3   2.0000     -14.776616      -402.0922
   4   2.0000     -10.716874      -291.6210
   5   2.0000     -10.585424      -288.0440
   6   2.0000     -10.535044      -286.6731
   7   2.0000     -10.519566      -286.2519
   8   2.0000      -1.145561       -31.1723
   9   2.0000      -1.031216       -28.0608
  10   2.0000      -1.014939       -27.6179
  11   2.0000      -0.981698       -26.7134
  12   2.0000      -0.845791       -23.0152
  13   2.0000      -0.760140       -20.6845
  14   2.0000      -0.713503       -19.4154
  15   2.0000      -0.691455       -18.8155
  16   2.0000      -0.662948       -18.0397
  17   2.0000      -0.618976       -16.8432
  18   2.0000      -0.592741       -16.1293
  19   2.0000      -0.578327       -15.7371
  20   2.0000      -0.540531       -14.7086
  21   2.0000      -0.534143       -14.5348
  22   2.0000      -0.504902       -13.7391
  23   2.0000      -0.474338       -12.9074
  24   2.0000      -0.428086       -11.6488
  25   2.0000      -0.408930       -11.1276
  26   2.0000      -0.396238       -10.7822
  27   2.0000      -0.374456       -10.1895
  28   2.0000      -0.363445        -9.8899
  29   2.0000      -0.337955        -9.1962
  30   2.0000      -0.232655        -6.3309
  31   2.0000      -0.227770        -6.1979
  32   0.0000       0.001171         0.0319
  33   0.0000       0.032164         0.8752
  34   0.0000       0.037221         1.0128
  35   0.0000       0.053775         1.4633
  36   0.0000       0.074483         2.0268

MULLIKEN ATOMIC CHARGES
-----------------------
   0 C :    0.716435
   1 N :   -0.542150
   2 C :    0.090649
   3 C :    0.564838
   4 H :   -0.413055
   5 H :    0.147325
   6 O :   -0.703385
   7 C :    1.268869
   8 N :    0.261154
   9 N :   -0.165280
  10 H :   -0.060273
  11 H :   -0.025530
  12 H :   -0.246095
  13 H :   -0.399427
  14 H :   -0.139372
  15 H :    0.209359
  16 H :   -0.412695
  17 H :   -0.163338
  18 H :    0.011970
Sum of atomic charges:   -0.0000000

LOEWDIN ATOMIC CHARGES
----------------------
   0 C :    0.067505
   1 N :    0.030269
   2 C :   -0.023841
   3 C :   -0.094256
   4 H :    0.005467
   5 H :   -0.000167
   6 O :   -0.437028
   7 C :   -0.043518
   8 N :    0.295466
   9 N :    0.217492
  10 H :    0.009436
  11 H :    0.009792
  12 H :    0.037347
  13 H :   -0.185397
  14 H :    0.029670
  15 H :    0.026936
  16 H :    0.019119
  17 H :    0.010992
  18 H :    0.024716

  Mayer bond orders larger than 0.100000
B(  0-C ,  1-N ) :   0.9433 B(  0-C ,  2-C ) :   1.1309 B(  0-C , 12-H ) :  -0.2004
B(  0-C , 15-H ) :   0.6778 B(  0-C , 16-H ) :   0.9355 B(  0-C , 17-H ) :   0.1603
B(  0-C , 18-H ) :   0.1057 B(  1-N ,  7-C ) :   1.0004 B(  1-N ,  8-N ) :   0.1727
B(  1-N ,  9-N ) :   0.1807 B(  1-N , 12-H ) :   1.3290 B(  1-N , 15-H ) :   0.1648
B(  1-N , 16-H ) :   0.1338 B(  2-C ,  3-C ) :   1.0789 B(  2-C ,  4-H ) :   0.1364
B(  2-C ,  5-H ) :   0.1162 B(  2-C , 15-H ) :   0.1187 B(  2-C , 17-H ) :   0.9055
B(  2-C , 18-H ) :   0.8701 B(  3-C ,  4-H ) :   1.0401 B(  3-C ,  5-H ) :   0.8078
B(  3-C ,  6-O ) :   1.0902 B(  3-C , 18-H ) :   0.1083 B(  6-O , 13-H ) :   0.3899
B(  7-C ,  8-N ) :   1.1394 B(  7-C ,  9-N ) :   0.7440 B(  7-C , 10-H ) :  -0.1182
B(  7-C , 12-H ) :  -0.2144 B(  7-C , 13-H ) :  -0.1729 B(  7-C , 14-H ) :  -0.1131
B(  8-N ,  9-N ) :   0.1472 B(  8-N , 13-H ) :   1.1738 B(  8-N , 14-H ) :   1.1671
B(  9-N , 10-H ) :   1.1200 B(  9-N , 11-H ) :   1.1364 B( 10-H , 11-H ) :  -0.1426
B( 13-H , 14-H ) :  -0.2211 B( 15-H , 16-H ) :  -0.1800

Dispersion correction           -0.000509596
FINAL SINGLE POINT ENERGY      -398.045497075297

DIPOLE MOMENT
-------------
                                X             Y             Z
Electronic contribution:      1.91790       1.92822       3.68878
Nuclear contribution   :      0.51577      -3.31768      -1.36804
                        -----------------------------------------
Total Dipole Moment    :      2.43367      -1.38946       2.32074
                        -----------------------------------------
Magnitude (a.u.)       :      3.63857
Magnitude (Debye)      :      9.24851

Rotational constants in cm-1:     0.111492     0.050787     0.040163
Rotational constants in MHz :  3342.457536  1522.560798  1204.057148

                             ****ORCA TERMINATED NORMALLY****
TOTAL RUN TIME: 0 days 0 hours 0 minutes 50 seconds 624 msec
