                         Program Version 5.0.0 -  RELEASE  -
|  1> !M062X D3Zero RIJCOSX def2-SVPD def2/J TightSCF
|  2> *xyz 0 1
|  3> C          4.99986       -1.59613       -5.92488
|  4> C          3.76678       -2.26611       -6.51175
|  5> C          2.49670       -1.84416       -5.73570
|  6> H          1.62642       -2.21743       -6.30895
|  7> H          2.48182       -2.45607       -4.79341
|  8> F          2.45973       -0.50920       -5.50576
|  9> H          3.88619       -3.35708       -6.53360
| 10> H          3.68560       -1.92217       -7.54713
| 11> H          5.86637       -1.89999       -6.47418
| 12> H          5.10830       -1.88372       -4.89997
| 13> H          4.89230       -0.53341       -5.98765
| 14> *
| 15>
| 16> %MaxCore 64000
| 17>
| 18> %pal nprocs 4
| 19> end
| 20>
| 21> %scf
| 22>   MaxIter 150
| 23> end
| 24>
| 25>
| 26>                          ****END OF INPUT****

CARTESIAN COORDINATES (ANGSTROEM)
---------------------------------
  C      4.999860   -1.596130   -5.924880
  C      3.766780   -2.266110   -6.511750
  C      2.496700   -1.844160   -5.735700
  H      1.626420   -2.217430   -6.308950
  H      2.481820   -2.456070   -4.793410
  F      2.459730   -0.509200   -5.505760
  H      3.886190   -3.357080   -6.533600
  H      3.685600   -1.922170   -7.547130
  H      5.866370   -1.899990   -6.474180
  H      5.108300   -1.883720   -4.899970
  H      4.892300   -0.533410   -5.987650

 Total Charge           Charge          ....    0
 Multiplicity           Mult            ....    1
 Number of Electrons    NEL             ....   34
 Basis Dimension        Dim             ....  139

ORBITAL ENERGIES
----------------

  NO   OCC          E(Eh)            E(eV)
   0   2.0000     -25.249394      -687.0709
   1   2.0000     -10.630751      -289.2774
   2   2.0000     -10.554976      -287.2155
   3   2.0000     -10.534335      -286.6538
   4   2.0000      -1.329302       -36.1721
   5   2.0000      -0.879285       -23.9266
   6   2.0000      -0.775321       -21.0975
   7   2.0000      -0.676340       -18.4041
   8   2.0000      -0.595669       -16.2090
   9   2.0000      -0.583552       -15.8793
  10   2.0000      -0.559629       -15.2283
  11   2.0000      -0.510987       -13.9047
  12   2.0000      -0.472733       -12.8637
  13   2.0000      -0.441385       -12.0107
  14   2.0000      -0.419243       -11.4082
  15   2.0000      -0.389752       -10.6057
  16   2.0000      -0.386515       -10.5176
  17   0.0000       0.039614         1.0779
  18   0.0000       0.064145         1.7455
  19   0.0000       0.072878         1.9831
  20   0.0000       0.094092         2.5604
  21   0.0000       0.116875         3.1803

MULLIKEN ATOMIC CHARGES
-----------------------
   0 C :    0.555597
   1 C :   -0.500397
   2 C :    0.700145
   3 H :   -0.074987
   4 H :    0.023549
   5 F :   -0.455651
   6 H :   -0.091634
   7 H :   -0.034735
   8 H :   -0.084340
   9 H :   -0.048322
  10 H :    0.010774
Sum of atomic charges:    0.0000000

LOEWDIN ATOMIC CHARGES
----------------------
   0 C :    0.113867
   1 C :   -0.067383
   2 C :    0.104964
   3 H :    0.028185
   4 H :    0.040799
   5 F :   -0.219137
   6 H :    0.027210
   7 H :    0.020496
   8 H :   -0.018312
   9 H :   -0.013975
  10 H :   -0.016715

  Mayer bond orders larger than 0.100000
B(  0-C ,  1-C ) :   1.3169 B(  0-C ,  8-H ) :   0.8489 B(  0-C ,  9-H ) :   0.8358
B(  0-C , 10-H ) :   0.8261 B(  1-C ,  2-C ) :   1.1582 B(  1-C ,  3-H ) :   0.1005
B(  1-C ,  4-H ) :   0.1033 B(  1-C ,  6-H ) :   1.0075 B(  1-C ,  7-H ) :   0.9501
B(  1-C ,  8-H ) :   0.1815 B(  1-C ,  9-H ) :   0.1682 B(  1-C , 10-H ) :   0.1716
B(  2-C ,  3-H ) :   0.9518 B(  2-C ,  4-H ) :   0.9066 B(  2-C ,  5-F ) :   0.6796

Dispersion correction           -0.000081428
FINAL SINGLE POINT ENERGY      -218.111074621931

DIPOLE MOMENT
-------------
                                X             Y             Z
Electronic contribution:     -4.39530       3.84783       1.41799
Nuclear contribution   :      4.50596      -4.50325      -1.58424
                        -----------------------------------------
Total Dipole Moment    :      0.11066      -0.65542      -0.16625
                        -----------------------------------------
Magnitude (a.u.)       :      0.68517
Magnitude (Debye)      :      1.74156

Rotational constants in cm-1:     0.464063     0.182606     0.146573
Rotational constants in MHz : 13912.251583  5474.398056  4394.141907

                             ****ORCA TERMINATED NORMALLY****
TOTAL RUN TIME: 0 days 0 hours 0 minutes 10 seconds 37 msec
