                         Program Version 5.0.0 -  RELEASE  -
|  1> !M062X D3Zero RIJCOSX def2-SVPD def2/J TightSCF
|  2> *xyz 0 1
|  3> C          4.99986       -1.59613       -5.92488
|  4> C          5.28156       -1.97413       -4.53576
|  5> C          3.76678       -2.26611       -6.51175
|  6> C          2.49670       -1.84416       -5.73570
|  7> C          4.79250       -1.36132       -3.45730
|  8> N          3.93990       -0.37492       -3.55736
|  9> N          5.25986       -1.75422       -2.23913
| 10> H          5.92282       -2.52145       -2.18672
| 11> H          4.65468       -1.64040       -1.44202
| 12> H          5.70914       -2.87560       -4.38702
| 13> H          3.33010       -0.31764       -4.36125
| 14> H          3.69849        0.11447       -2.70833
| 15> H          4.84333       -0.51793       -5.94302
| 16> H          5.90170       -1.82250       -6.49647
| 17> H          3.88619       -3.35708       -6.53360
| 18> H          3.68560       -1.92217       -7.54713
| 19> H          1.64155       -2.32499       -6.16281
| 20> H          2.37707       -0.78268       -5.79763
| 21> H          2.59306       -2.13299       -4.70994
| 22> *
| 23>
| 24> %MaxCore 64000
| 25>
| 26> %pal nprocs 4
| 27> end
| 28>
| 29> %scf
| 30>   MaxIter 150
| 31> end
| 32>
| 33>
| 34>                          ****END OF INPUT****

CARTESIAN COORDINATES (ANGSTROEM)
---------------------------------
  C      4.999860   -1.596130   -5.924880
  C      5.281560   -1.974130   -4.535760
  C      3.766780   -2.266110   -6.511750
  C      2.496700   -1.844160   -5.735700
  C      4.792500   -1.361320   -3.457300
  N      3.939900   -0.374920   -3.557360
  N      5.259860   -1.754220   -2.239130
  H      5.922820   -2.521450   -2.186720
  H      4.654680   -1.640400   -1.442020
  H      5.709140   -2.875600   -4.387020
  H      3.330100   -0.317640   -4.361250
  H      3.698490    0.114470   -2.708330
  H      4.843330   -0.517930   -5.943020
  H      5.901700   -1.822500   -6.496470
  H      3.886190   -3.357080   -6.533600
  H      3.685600   -1.922170   -7.547130
  H      1.641550   -2.324990   -6.162810
  H      2.377070   -0.782680   -5.797630
  H      2.593060   -2.132990   -4.709940

 Total Charge           Charge          ....    0
 Multiplicity           Mult            ....    1
 Number of Electrons    NEL             ....   56
 Basis Dimension        Dim             ....  236

ORBITAL ENERGIES
----------------

  NO   OCC          E(Eh)            E(eV)
   0   2.0000     -14.761558      -401.6824
   1   2.0000     -14.757534      -401.5729
   2   2.0000     -10.594768      -288.2983
   3   2.0000     -10.533752      -286.6380
   4   2.0000     -10.531715      -286.5825
   5   2.0000     -10.522441      -286.3302
   6   2.0000     -10.475984      -285.0660
   7   2.0000      -1.061521       -28.8855
   8   2.0000      -0.962431       -26.1891
   9   2.0000      -0.880067       -23.9478
  10   2.0000      -0.810291       -22.0491
  11   2.0000      -0.742344       -20.2002
  12   2.0000      -0.683081       -18.5876
  13   2.0000      -0.637927       -17.3589
  14   2.0000      -0.618723       -16.8363
  15   2.0000      -0.579433       -15.7672
  16   2.0000      -0.549581       -14.9549
  17   2.0000      -0.517335       -14.0774
  18   2.0000      -0.505318       -13.7504
  19   2.0000      -0.486802       -13.2465
  20   2.0000      -0.457386       -12.4461
  21   2.0000      -0.438032       -11.9195
  22   2.0000      -0.420509       -11.4426
  23   2.0000      -0.396160       -10.7801
  24   2.0000      -0.379347       -10.3225
  25   2.0000      -0.376533       -10.2460
  26   2.0000      -0.327743        -8.9184
  27   2.0000      -0.214924        -5.8484
  28   0.0000       0.037149         1.0109
  29   0.0000       0.058625         1.5953
  30   0.0000       0.065346         1.7781
  31   0.0000       0.078316         2.1311
  32   0.0000       0.085962         2.3392

MULLIKEN ATOMIC CHARGES
-----------------------
   0 C :    0.153205
   1 C :   -0.255033
   2 C :   -0.057939
   3 C :    0.486591
   4 C :    0.959544
   5 N :    0.200603
   6 N :   -0.184877
   7 H :   -0.026017
   8 H :   -0.071566
   9 H :   -0.303093
  10 H :   -0.401713
  11 H :   -0.206485
  12 H :    0.063182
  13 H :   -0.189996
  14 H :   -0.150599
  15 H :   -0.045191
  16 H :   -0.341280
  17 H :    0.245743
  18 H :    0.124921
Sum of atomic charges:    0.0000000

LOEWDIN ATOMIC CHARGES
----------------------
   0 C :   -0.068334
   1 C :   -0.015130
   2 C :   -0.057251
   3 C :    0.121506
   4 C :   -0.221638
   5 N :    0.205449
   6 N :    0.172541
   7 H :    0.001956
   8 H :   -0.019696
   9 H :   -0.053460
  10 H :   -0.059108
  11 H :    0.004411
  12 H :    0.012244
  13 H :    0.014123
  14 H :    0.022316
  15 H :    0.013542
  16 H :   -0.020282
  17 H :   -0.022804
  18 H :   -0.030386

  Mayer bond orders larger than 0.100000
B(  0-C ,  1-C ) :   1.1774 B(  0-C ,  2-C ) :   1.0941 B(  0-C ,  9-H ) :   0.2185
B(  0-C , 12-H ) :   0.7493 B(  0-C , 13-H ) :   0.9207 B(  0-C , 14-H ) :   0.1632
B(  0-C , 15-H ) :   0.1277 B(  1-C ,  4-C ) :   1.5375 B(  1-C ,  5-N ) :   0.2583
B(  1-C ,  6-N ) :   0.2970 B(  1-C ,  9-H ) :   0.8914 B(  1-C , 12-H ) :   0.2580
B(  1-C , 13-H ) :   0.1656 B(  2-C ,  3-C ) :   1.2890 B(  2-C , 14-H ) :   0.9733
B(  2-C , 15-H ) :   0.8791 B(  2-C , 16-H ) :   0.1930 B(  2-C , 17-H ) :   0.1423
B(  2-C , 18-H ) :   0.1654 B(  3-C , 10-H ) :   0.1558 B(  3-C , 15-H ) :   0.1099
B(  3-C , 16-H ) :   0.9793 B(  3-C , 17-H ) :   0.6725 B(  3-C , 18-H ) :   0.8051
B(  4-C ,  5-N ) :   0.9734 B(  4-C ,  6-N ) :   0.6827 B(  4-C ,  9-H ) :   0.1097
B(  4-C , 11-H ) :  -0.1438 B(  4-C , 12-H ) :  -0.1257 B(  5-N ,  6-N ) :   0.1025
B(  5-N , 10-H ) :   1.1308 B(  5-N , 11-H ) :   1.2581 B(  6-N ,  7-H ) :   1.1074
B(  6-N ,  8-H ) :   1.1245 B(  7-H ,  8-H ) :  -0.1345 B( 10-H , 11-H ) :  -0.1990
B( 10-H , 17-H ) :   0.1768 B( 16-H , 17-H ) :  -0.1268 B( 16-H , 18-H ) :  -0.1011

Dispersion correction           -0.000460889
FINAL SINGLE POINT ENERGY      -306.864566464354

DIPOLE MOMENT
-------------
                                X             Y             Z
Electronic contribution:      2.89095       1.03483       4.30497
Nuclear contribution   :     -3.49027      -1.01686      -3.60427
                        -----------------------------------------
Total Dipole Moment    :     -0.59932       0.01797       0.70070
                        -----------------------------------------
Magnitude (a.u.)       :      0.92221
Magnitude (Debye)      :      2.34408

Rotational constants in cm-1:     0.155200     0.057307     0.048781
Rotational constants in MHz :  4652.781345  1718.017305  1462.410307

                             ****ORCA TERMINATED NORMALLY****
TOTAL RUN TIME: 0 days 0 hours 0 minutes 35 seconds 223 msec
