                         Program Version 5.0.0 -  RELEASE  -
|  1> !M062X D3Zero RIJCOSX def2-SVPD def2/J TightSCF
|  2> *xyz 0 1
|  3> C          4.99986       -1.59613       -5.92488
|  4> N          5.28156       -1.97413       -4.53576
|  5> C          3.76678       -2.26611       -6.51175
|  6> C          2.49670       -1.84416       -5.73570
|  7> C          4.79250       -1.36132       -3.45730
|  8> C          3.93990       -0.37492       -3.55736
|  9> N          5.25986       -1.75422       -2.23913
| 10> H          5.92282       -2.52145       -2.18672
| 11> H          4.65468       -1.64040       -1.44202
| 12> H          5.70914       -2.87560       -4.38702
| 13> H          3.33010       -0.31764       -4.36125
| 14> H          3.69849        0.11447       -2.70833
| 15> H          4.84333       -0.51793       -5.94302
| 16> H          5.90170       -1.82250       -6.49647
| 17> H          3.88619       -3.35708       -6.53360
| 18> H          3.68560       -1.92217       -7.54713
| 19> H          1.64155       -2.32499       -6.16281
| 20> H          2.37707       -0.78268       -5.79763
| 21> H          2.59306       -2.13299       -4.70994
| 22> *
| 23>
| 24> %MaxCore 64000
| 25>
| 26> %pal nprocs 4
| 27> end
| 28>
| 29> %scf
| 30>   MaxIter 150
| 31> end
| 32>
| 33>
| 34>                          ****END OF INPUT****

CARTESIAN COORDINATES (ANGSTROEM)
---------------------------------
  C      4.999860   -1.596130   -5.924880
  N      5.281560   -1.974130   -4.535760
  C      3.766780   -2.266110   -6.511750
  C      2.496700   -1.844160   -5.735700
  C      4.792500   -1.361320   -3.457300
  C      3.939900   -0.374920   -3.557360
  N      5.259860   -1.754220   -2.239130
  H      5.922820   -2.521450   -2.186720
  H      4.654680   -1.640400   -1.442020
  H      5.709140   -2.875600   -4.387020
  H      3.330100   -0.317640   -4.361250
  H      3.698490    0.114470   -2.708330
  H      4.843330   -0.517930   -5.943020
  H      5.901700   -1.822500   -6.496470
  H      3.886190   -3.357080   -6.533600
  H      3.685600   -1.922170   -7.547130
  H      1.641550   -2.324990   -6.162810
  H      2.377070   -0.782680   -5.797630
  H      2.593060   -2.132990   -4.709940

 Total Charge           Charge          ....    0
 Multiplicity           Mult            ....    1
 Number of Electrons    NEL             ....   56
 Basis Dimension        Dim             ....  236

ORBITAL ENERGIES
----------------

  NO   OCC          E(Eh)            E(eV)
   0   2.0000     -14.763483      -401.7348
   1   2.0000     -14.758192      -401.5908
   2   2.0000     -10.596115      -288.3350
   3   2.0000     -10.580103      -287.8992
   4   2.0000     -10.547369      -287.0085
   5   2.0000     -10.527273      -286.4617
   6   2.0000     -10.462329      -284.6944
   7   2.0000      -1.062555       -28.9136
   8   2.0000      -0.972776       -26.4706
   9   2.0000      -0.865605       -23.5543
  10   2.0000      -0.811434       -22.0802
  11   2.0000      -0.763887       -20.7864
  12   2.0000      -0.684595       -18.6288
  13   2.0000      -0.638131       -17.3644
  14   2.0000      -0.611895       -16.6505
  15   2.0000      -0.585329       -15.9276
  16   2.0000      -0.536164       -14.5898
  17   2.0000      -0.528231       -14.3739
  18   2.0000      -0.500287       -13.6135
  19   2.0000      -0.471772       -12.8376
  20   2.0000      -0.458163       -12.4673
  21   2.0000      -0.443187       -12.0597
  22   2.0000      -0.441240       -12.0068
  23   2.0000      -0.406236       -11.0542
  24   2.0000      -0.400878       -10.9084
  25   2.0000      -0.390755       -10.6330
  26   2.0000      -0.312455        -8.5023
  27   2.0000      -0.225171        -6.1272
  28   0.0000       0.035239         0.9589
  29   0.0000       0.056576         1.5395
  30   0.0000       0.059866         1.6291
  31   0.0000       0.072135         1.9629
  32   0.0000       0.087754         2.3879

MULLIKEN ATOMIC CHARGES
-----------------------
   0 C :    0.677198
   1 N :   -0.521232
   2 C :   -0.080597
   3 C :    0.343321
   4 C :    0.792344
   5 C :    0.694788
   6 N :   -0.074538
   7 H :   -0.095843
   8 H :    0.004052
   9 H :   -0.327955
  10 H :   -0.897479
  11 H :   -0.407295
  12 H :    0.130182
  13 H :   -0.379810
  14 H :   -0.144657
  15 H :   -0.016126
  16 H :   -0.414983
  17 H :    0.458332
  18 H :    0.260298
Sum of atomic charges:   -0.0000000

LOEWDIN ATOMIC CHARGES
----------------------
   0 C :    0.050300
   1 N :   -0.021610
   2 C :   -0.049436
   3 C :    0.124478
   4 C :   -0.227109
   5 C :    0.169177
   6 N :    0.177177
   7 H :   -0.012840
   8 H :   -0.003273
   9 H :    0.018494
  10 H :   -0.147595
  11 H :   -0.085802
  12 H :    0.024407
  13 H :    0.017302
  14 H :    0.017698
  15 H :    0.017770
  16 H :   -0.021909
  17 H :   -0.018348
  18 H :   -0.028882

  Mayer bond orders larger than 0.100000
B(  0-C ,  1-N ) :   0.9548 B(  0-C ,  2-C ) :   1.0586 B(  0-C ,  9-H ) :  -0.2001
B(  0-C , 12-H ) :   0.6973 B(  0-C , 13-H ) :   1.0068 B(  0-C , 14-H ) :   0.1276
B(  0-C , 15-H ) :   0.1043 B(  1-N ,  4-C ) :   0.8768 B(  1-N ,  5-C ) :   0.2795
B(  1-N ,  6-N ) :   0.1476 B(  1-N ,  9-H ) :   1.4034 B(  1-N , 12-H ) :   0.1447
B(  1-N , 13-H ) :   0.1195 B(  2-C ,  3-C ) :   1.2957 B(  2-C , 12-H ) :   0.1317
B(  2-C , 14-H ) :   0.9741 B(  2-C , 15-H ) :   0.8973 B(  2-C , 16-H ) :   0.1741
B(  2-C , 17-H ) :   0.1146 B(  2-C , 18-H ) :   0.1306 B(  3-C , 10-H ) :   0.3436
B(  3-C , 15-H ) :   0.1038 B(  3-C , 16-H ) :   1.0589 B(  3-C , 17-H ) :   0.5587
B(  3-C , 18-H ) :   0.7932 B(  4-C ,  5-C ) :   1.7896 B(  4-C ,  6-N ) :   0.7621
B(  4-C ,  9-H ) :  -0.2595 B(  4-C , 10-H ) :   0.1037 B(  4-C , 11-H ) :   0.3821
B(  5-C ,  6-N ) :   0.3067 B(  5-C , 10-H ) :   0.4507 B(  5-C , 11-H ) :   0.5803
B(  6-N ,  7-H ) :   1.0397 B(  6-N ,  8-H ) :   1.0733 B(  6-N , 11-H ) :   0.1633
B(  7-H ,  8-H ) :  -0.1400 B( 10-H , 11-H ) :  -0.1300 B( 10-H , 12-H ) :   0.1204
B( 10-H , 17-H ) :   0.1424 B( 12-H , 13-H ) :  -0.1836 B( 16-H , 17-H ) :  -0.2140
B( 16-H , 18-H ) :  -0.1203

Dispersion correction           -0.000459094
FINAL SINGLE POINT ENERGY      -306.852758743780

DIPOLE MOMENT
-------------
                                X             Y             Z
Electronic contribution:      4.03531      -0.34539       3.35698
Nuclear contribution   :     -3.78417      -0.66655      -3.38995
                        -----------------------------------------
Total Dipole Moment    :      0.25115      -1.01194      -0.03297
                        -----------------------------------------
Magnitude (a.u.)       :      1.04316
Magnitude (Debye)      :      2.65151

Rotational constants in cm-1:     0.157710     0.057795     0.049101
Rotational constants in MHz :  4728.033540  1732.635996  1472.015132

                             ****ORCA TERMINATED NORMALLY****
TOTAL RUN TIME: 0 days 0 hours 0 minutes 35 seconds 187 msec
