                         Program Version 5.0.0 -  RELEASE  -
|  1> !M062X D3Zero RIJCOSX def2-SVPD def2/J TightSCF
|  2> *xyz 0 1
|  3> C          4.99986       -1.59613       -5.92488
|  4> N          5.28156       -1.97413       -4.53576
|  5> C          3.76678       -2.26611       -6.51175
|  6> C          2.49670       -1.84416       -5.73570
|  7> C          4.79250       -1.36132       -3.45730
|  8> N          3.93990       -0.37492       -3.55736
|  9> C          5.25986       -1.75422       -2.23913
| 10> H          5.92282       -2.52145       -2.18672
| 11> H          4.65468       -1.64040       -1.44202
| 12> H          5.70914       -2.87560       -4.38702
| 13> H          3.33010       -0.31764       -4.36125
| 14> H          3.69849        0.11447       -2.70833
| 15> H          4.84333       -0.51793       -5.94302
| 16> H          5.90170       -1.82250       -6.49647
| 17> H          3.88619       -3.35708       -6.53360
| 18> H          3.68560       -1.92217       -7.54713
| 19> H          1.64155       -2.32499       -6.16281
| 20> H          2.37707       -0.78268       -5.79763
| 21> H          2.59306       -2.13299       -4.70994
| 22> *
| 23>
| 24> %MaxCore 64000
| 25>
| 26> %pal nprocs 4
| 27> end
| 28>
| 29> %scf
| 30>   MaxIter 150
| 31> end
| 32>
| 33>
| 34>                          ****END OF INPUT****

CARTESIAN COORDINATES (ANGSTROEM)
---------------------------------
  C      4.999860   -1.596130   -5.924880
  N      5.281560   -1.974130   -4.535760
  C      3.766780   -2.266110   -6.511750
  C      2.496700   -1.844160   -5.735700
  C      4.792500   -1.361320   -3.457300
  N      3.939900   -0.374920   -3.557360
  C      5.259860   -1.754220   -2.239130
  H      5.922820   -2.521450   -2.186720
  H      4.654680   -1.640400   -1.442020
  H      5.709140   -2.875600   -4.387020
  H      3.330100   -0.317640   -4.361250
  H      3.698490    0.114470   -2.708330
  H      4.843330   -0.517930   -5.943020
  H      5.901700   -1.822500   -6.496470
  H      3.886190   -3.357080   -6.533600
  H      3.685600   -1.922170   -7.547130
  H      1.641550   -2.324990   -6.162810
  H      2.377070   -0.782680   -5.797630
  H      2.593060   -2.132990   -4.709940

 Total Charge           Charge          ....    0
 Multiplicity           Mult            ....    1
 Number of Electrons    NEL             ....   56
 Basis Dimension        Dim             ....  236

ORBITAL ENERGIES
----------------

  NO   OCC          E(Eh)            E(eV)
   0   2.0000     -14.762477      -401.7074
   1   2.0000     -14.760630      -401.6572
   2   2.0000     -10.599966      -288.4397
   3   2.0000     -10.588783      -288.1354
   4   2.0000     -10.558970      -287.3242
   5   2.0000     -10.549597      -287.0691
   6   2.0000     -10.458839      -284.5995
   7   2.0000      -1.072239       -29.1771
   8   2.0000      -0.981891       -26.7186
   9   2.0000      -0.886126       -24.1127
  10   2.0000      -0.804036       -21.8789
  11   2.0000      -0.758550       -20.6412
  12   2.0000      -0.682891       -18.5824
  13   2.0000      -0.677331       -18.4311
  14   2.0000      -0.620608       -16.8876
  15   2.0000      -0.574246       -15.6260
  16   2.0000      -0.549549       -14.9540
  17   2.0000      -0.532139       -14.4802
  18   2.0000      -0.522229       -14.2106
  19   2.0000      -0.472105       -12.8466
  20   2.0000      -0.463962       -12.6250
  21   2.0000      -0.451010       -12.2726
  22   2.0000      -0.439124       -11.9492
  23   2.0000      -0.416683       -11.3385
  24   2.0000      -0.410812       -11.1788
  25   2.0000      -0.408022       -11.1028
  26   2.0000      -0.316845        -8.6218
  27   2.0000      -0.209683        -5.7058
  28   0.0000       0.032587         0.8867
  29   0.0000       0.051702         1.4069
  30   0.0000       0.062047         1.6884
  31   0.0000       0.066213         1.8017
  32   0.0000       0.088831         2.4172

MULLIKEN ATOMIC CHARGES
-----------------------
   0 C :    0.697440
   1 N :   -0.303414
   2 C :   -0.053257
   3 C :    0.455861
   4 C :    0.404274
   5 N :    0.285870
   6 C :    0.380170
   7 H :   -0.287977
   8 H :   -0.282246
   9 H :   -0.311584
  10 H :   -0.462328
  11 H :   -0.087489
  12 H :    0.040563
  13 H :   -0.413279
  14 H :   -0.136440
  15 H :    0.003538
  16 H :   -0.375744
  17 H :    0.247554
  18 H :    0.198487
Sum of atomic charges:    0.0000000

LOEWDIN ATOMIC CHARGES
----------------------
   0 C :    0.045367
   1 N :   -0.011168
   2 C :   -0.050481
   3 C :    0.126547
   4 C :   -0.238321
   5 N :    0.204299
   6 C :    0.146820
   7 H :   -0.110634
   8 H :   -0.115847
   9 H :    0.032828
  10 H :   -0.066740
  11 H :    0.019864
  12 H :    0.018814
  13 H :    0.018162
  14 H :    0.022318
  15 H :    0.019368
  16 H :   -0.016678
  17 H :   -0.020536
  18 H :   -0.023981

  Mayer bond orders larger than 0.100000
B(  0-C ,  1-N ) :   0.9811 B(  0-C ,  2-C ) :   1.0595 B(  0-C ,  9-H ) :  -0.2309
B(  0-C , 12-H ) :   0.7313 B(  0-C , 13-H ) :   0.9958 B(  0-C , 14-H ) :   0.1474
B(  0-C , 15-H ) :   0.1112 B(  1-N ,  4-C ) :   1.0641 B(  1-N ,  5-N ) :   0.1255
B(  1-N ,  6-C ) :   0.1967 B(  1-N ,  9-H ) :   1.2326 B(  1-N , 12-H ) :   0.1671
B(  1-N , 13-H ) :   0.1229 B(  2-C ,  3-C ) :   1.2733 B(  2-C , 12-H ) :   0.1120
B(  2-C , 14-H ) :   0.9635 B(  2-C , 15-H ) :   0.8852 B(  2-C , 16-H ) :   0.1737
B(  2-C , 17-H ) :   0.1356 B(  2-C , 18-H ) :   0.1439 B(  3-C , 10-H ) :   0.1517
B(  3-C , 16-H ) :   1.0185 B(  3-C , 17-H ) :   0.6722 B(  3-C , 18-H ) :   0.8008
B(  4-C ,  5-N ) :   1.0681 B(  4-C ,  6-C ) :   1.8061 B(  4-C ,  7-H ) :   0.1978
B(  4-C ,  8-H ) :   0.2085 B(  4-C ,  9-H ) :  -0.1785 B(  5-N ,  6-C ) :   0.1399
B(  5-N , 10-H ) :   1.0893 B(  5-N , 11-H ) :   1.1894 B(  5-N , 12-H ) :   0.1103
B(  6-C ,  7-H ) :   0.7361 B(  6-C ,  8-H ) :   0.8087 B(  7-H ,  8-H ) :   0.1363
B( 10-H , 11-H ) :  -0.2028 B( 10-H , 17-H ) :   0.1641 B( 12-H , 13-H ) :  -0.1828
B( 16-H , 17-H ) :  -0.1584

Dispersion correction           -0.000457596
FINAL SINGLE POINT ENERGY      -306.850778574889

DIPOLE MOMENT
-------------
                                X             Y             Z
Electronic contribution:      2.75136       0.91821       1.93633
Nuclear contribution   :     -3.49502      -0.96869      -3.10119
                        -----------------------------------------
Total Dipole Moment    :     -0.74367      -0.05048      -1.16486
                        -----------------------------------------
Magnitude (a.u.)       :      1.38292
Magnitude (Debye)      :      3.51511

Rotational constants in cm-1:     0.153385     0.059790     0.050215
Rotational constants in MHz :  4598.376479  1792.462869  1505.410199

                             ****ORCA TERMINATED NORMALLY****
TOTAL RUN TIME: 0 days 0 hours 0 minutes 35 seconds 55 msec
