                         Program Version 5.0.0 -  RELEASE  -
|  1> !M062X D3Zero RIJCOSX def2-SVPD def2/J TightSCF xyzfile
|  2>
|  3> *xyzfile 0 1 D1.xyz
|  4>
|  5> %MaxCore 64000
|  6>
|  7> %pal nprocs 4
|  8> end
|  9>
| 10> %scf
| 11>   MaxIter 150
| 12> end
| 13>
| 14>
| 15>                          ****END OF INPUT****

CARTESIAN COORDINATES (ANGSTROEM)
---------------------------------
  C      4.999862   -1.596133   -5.924876
  C      5.281560   -1.974132   -4.535764
  C      3.766779   -2.266110   -6.511752
  C      2.496702   -1.844161   -5.735704
  H      1.626416   -2.217434   -6.308950
  H      2.481824   -2.456069   -4.793414
  F      2.459729   -0.509204   -5.505757
  C      4.792500   -1.361316   -3.457295
  N      3.939898   -0.374925   -3.557359
  N      5.259860   -1.754224   -2.239133
  H      5.922824   -2.521451   -2.186720
  H      4.654678   -1.640404   -1.442016
  H      5.709139   -2.875599   -4.387021
  H      3.330101   -0.317639   -4.361247
  H      3.698494    0.114468   -2.708333
  H      4.843333   -0.517930   -5.943019
  H      5.901695   -1.822503   -6.496467
  H      3.886191   -3.357076   -6.533604
  H      3.685602   -1.922168   -7.547128

 Total Charge           Charge          ....    0
 Multiplicity           Mult            ....    1
 Number of Electrons    NEL             ....   64
 Basis Dimension        Dim             ....  251

ORBITAL ENERGIES
----------------

  NO   OCC          E(Eh)            E(eV)
   0   2.0000     -25.280682      -687.9223
   1   2.0000     -14.753003      -401.4496
   2   2.0000     -14.738431      -401.0531
   3   2.0000     -10.636134      -289.4239
   4   2.0000     -10.589899      -288.1658
   5   2.0000     -10.546678      -286.9897
   6   2.0000     -10.526122      -286.4303
   7   2.0000     -10.471779      -284.9516
   8   2.0000      -1.368598       -37.2414
   9   2.0000      -1.051776       -28.6203
  10   2.0000      -0.953740       -25.9526
  11   2.0000      -0.887562       -24.1518
  12   2.0000      -0.812929       -22.1209
  13   2.0000      -0.758088       -20.6286
  14   2.0000      -0.683241       -18.5919
  15   2.0000      -0.671767       -18.2797
  16   2.0000      -0.626252       -17.0412
  17   2.0000      -0.610821       -16.6213
  18   2.0000      -0.597244       -16.2518
  19   2.0000      -0.573947       -15.6179
  20   2.0000      -0.569988       -15.5102
  21   2.0000      -0.524951       -14.2846
  22   2.0000      -0.496730       -13.5167
  23   2.0000      -0.482413       -13.1271
  24   2.0000      -0.463371       -12.6090
  25   2.0000      -0.440834       -11.9957
  26   2.0000      -0.420473       -11.4416
  27   2.0000      -0.401400       -10.9226
  28   2.0000      -0.386880       -10.5276
  29   2.0000      -0.377566       -10.2741
  30   2.0000      -0.319387        -8.6910
  31   2.0000      -0.210783        -5.7357
  32   0.0000       0.037452         1.0191
  33   0.0000       0.055357         1.5063
  34   0.0000       0.066513         1.8099
  35   0.0000       0.068556         1.8655
  36   0.0000       0.085619         2.3298

MULLIKEN ATOMIC CHARGES
-----------------------
   0 C :    0.139560
   1 C :   -0.250820
   2 C :    0.022880
   3 C :    0.752561
   4 H :   -0.291241
   5 H :    0.218437
   6 F :   -0.442427
   7 C :    0.945689
   8 N :    0.313960
   9 N :   -0.193640
  10 H :   -0.035502
  11 H :   -0.063890
  12 H :   -0.307109
  13 H :   -0.339549
  14 H :   -0.233046
  15 H :    0.176828
  16 H :   -0.242396
  17 H :   -0.155054
  18 H :   -0.015242
Sum of atomic charges:    0.0000000

LOEWDIN ATOMIC CHARGES
----------------------
   0 C :   -0.057221
   1 C :   -0.019556
   2 C :   -0.012094
   3 C :    0.146290
   4 H :    0.031433
   5 H :    0.045820
   6 F :   -0.199138
   7 C :   -0.215482
   8 N :    0.223646
   9 N :    0.171599
  10 H :   -0.000127
  11 H :   -0.020002
  12 H :   -0.057998
  13 H :   -0.121630
  14 H :    0.003167
  15 H :    0.015318
  16 H :    0.016097
  17 H :    0.031837
  18 H :    0.018039

  Mayer bond orders larger than 0.100000
B(  0-C ,  1-C ) :   1.1800 B(  0-C ,  2-C ) :   1.1242 B(  0-C , 12-H ) :   0.2125
B(  0-C , 15-H ) :   0.7274 B(  0-C , 16-H ) :   0.9227 B(  0-C , 17-H ) :   0.1604
B(  0-C , 18-H ) :   0.1145 B(  1-C ,  7-C ) :   1.5141 B(  1-C ,  8-N ) :   0.2355
B(  1-C ,  9-N ) :   0.3040 B(  1-C , 12-H ) :   0.8763 B(  1-C , 15-H ) :   0.2546
B(  1-C , 16-H ) :   0.1465 B(  2-C ,  3-C ) :   1.2036 B(  2-C ,  4-H ) :   0.1474
B(  2-C ,  5-H ) :   0.1193 B(  2-C , 17-H ) :   0.9484 B(  2-C , 18-H ) :   0.8809
B(  3-C ,  4-H ) :   0.9965 B(  3-C ,  5-H ) :   0.8131 B(  3-C ,  6-F ) :   0.5767
B(  7-C ,  8-N ) :   0.9814 B(  7-C ,  9-N ) :   0.6627 B(  7-C , 10-H ) :  -0.1207
B(  7-C , 12-H ) :   0.1113 B(  7-C , 14-H ) :  -0.1442 B(  7-C , 15-H ) :  -0.1108
B(  8-N , 13-H ) :   1.2177 B(  8-N , 14-H ) :   1.2098 B(  9-N , 10-H ) :   1.1297
B(  9-N , 11-H ) :   1.1048 B(  9-N , 12-H ) :   0.1010 B( 10-H , 11-H ) :  -0.1352
B( 13-H , 14-H ) :  -0.1943

Dispersion correction           -0.000506597
FINAL SINGLE POINT ENERGY      -405.993243624525

DIPOLE MOMENT
-------------
                                X             Y             Z
Electronic contribution:     -3.32893       3.96652       0.77875
Nuclear contribution   :      2.63975      -4.51113      -0.34926
                        -----------------------------------------
Total Dipole Moment    :     -0.68919      -0.54461       0.42949
                        -----------------------------------------
Magnitude (a.u.)       :      0.97777
Magnitude (Debye)      :      2.48529

Rotational constants in cm-1:     0.109429     0.049838     0.039337
Rotational constants in MHz :  3280.611039  1494.113088  1179.280063

                             ****ORCA TERMINATED NORMALLY****
TOTAL RUN TIME: 0 days 0 hours 0 minutes 54 seconds 352 msec
