                         Program Version 5.0.0 -  RELEASE  -
|  1> !M062X D3Zero RIJCOSX def2-SVPD def2/J TightSCF xyzfile
|  2>
|  3> *xyzfile 0 1 D2.xyz
|  4>
|  5> %MaxCore 64000
|  6>
|  7> %pal nprocs 4
|  8> end
|  9>
| 10> %scf
| 11>   MaxIter 150
| 12> end
| 13>
| 14>
| 15>                          ****END OF INPUT****

CARTESIAN COORDINATES (ANGSTROEM)
---------------------------------
  C      4.999862   -1.596133   -5.924876
  N      5.281560   -1.974132   -4.535764
  C      3.766779   -2.266110   -6.511752
  C      2.496702   -1.844161   -5.735704
  H      1.626416   -2.217434   -6.308950
  H      2.481824   -2.456069   -4.793414
  F      2.459729   -0.509204   -5.505757
  C      4.792500   -1.361316   -3.457295
  C      3.939898   -0.374925   -3.557359
  N      5.259860   -1.754224   -2.239133
  H      5.922824   -2.521451   -2.186720
  H      4.654678   -1.640404   -1.442016
  H      5.709139   -2.875599   -4.387021
  H      3.330101   -0.317639   -4.361247
  H      3.698494    0.114468   -2.708333
  H      4.843333   -0.517930   -5.943019
  H      5.901695   -1.822503   -6.496467
  H      3.886191   -3.357076   -6.533604
  H      3.685602   -1.922168   -7.547128

 Total Charge           Charge          ....    0
 Multiplicity           Mult            ....    1
 Number of Electrons    NEL             ....   64
 Basis Dimension        Dim             ....  251

ORBITAL ENERGIES
----------------

  NO   OCC          E(Eh)            E(eV)
   0   2.0000     -25.258043      -687.3063
   1   2.0000     -14.760488      -401.6533
   2   2.0000     -14.750908      -401.3926
   3   2.0000     -10.635544      -289.4079
   4   2.0000     -10.585693      -288.0514
   5   2.0000     -10.585224      -288.0386
   6   2.0000     -10.561661      -287.3974
   7   2.0000     -10.439637      -284.0770
   8   2.0000      -1.348583       -36.6968
   9   2.0000      -1.057608       -28.7790
  10   2.0000      -0.968789       -26.3621
  11   2.0000      -0.875192       -23.8152
  12   2.0000      -0.798660       -21.7326
  13   2.0000      -0.780075       -21.2269
  14   2.0000      -0.695588       -18.9279
  15   2.0000      -0.649257       -17.6672
  16   2.0000      -0.629271       -17.1233
  17   2.0000      -0.601577       -16.3697
  18   2.0000      -0.595608       -16.2073
  19   2.0000      -0.571399       -15.5486
  20   2.0000      -0.565907       -15.3991
  21   2.0000      -0.527747       -14.3607
  22   2.0000      -0.500816       -13.6279
  23   2.0000      -0.481972       -13.1151
  24   2.0000      -0.454853       -12.3772
  25   2.0000      -0.445763       -12.1298
  26   2.0000      -0.423358       -11.5202
  27   2.0000      -0.409339       -11.1387
  28   2.0000      -0.401198       -10.9171
  29   2.0000      -0.377276       -10.2662
  30   2.0000      -0.309986        -8.4352
  31   2.0000      -0.215517        -5.8645
  32   0.0000       0.031382         0.8540
  33   0.0000       0.053755         1.4627
  34   0.0000       0.057758         1.5717
  35   0.0000       0.068611         1.8670
  36   0.0000       0.085503         2.3267

MULLIKEN ATOMIC CHARGES
-----------------------
   0 C :    0.689884
   1 N :   -0.489879
   2 C :   -0.026529
   3 C :    0.757731
   4 H :   -0.333027
   5 H :    0.270693
   6 F :   -0.511734
   7 C :    0.787836
   8 C :    0.986731
   9 N :   -0.117794
  10 H :   -0.107570
  11 H :    0.005445
  12 H :   -0.331740
  13 H :   -0.920538
  14 H :   -0.346207
  15 H :    0.227650
  16 H :   -0.423157
  17 H :   -0.127302
  18 H :    0.009507
Sum of atomic charges:   -0.0000000

LOEWDIN ATOMIC CHARGES
----------------------
   0 C :    0.064165
   1 N :   -0.025684
   2 C :   -0.002803
   3 C :    0.148441
   4 H :    0.030752
   5 H :    0.045831
   6 F :   -0.220393
   7 C :   -0.226525
   8 C :    0.195240
   9 N :    0.171961
  10 H :   -0.016808
  11 H :   -0.005207
  12 H :    0.015290
  13 H :   -0.188998
  14 H :   -0.083638
  15 H :    0.027117
  16 H :    0.020192
  17 H :    0.027816
  18 H :    0.023252

  Mayer bond orders larger than 0.100000
B(  0-C ,  1-N ) :   0.9712 B(  0-C ,  2-C ) :   1.1011 B(  0-C , 12-H ) :  -0.1975
B(  0-C , 13-H ) :   0.1156 B(  0-C , 15-H ) :   0.6710 B(  0-C , 16-H ) :   0.9848
B(  0-C , 17-H ) :   0.1226 B(  0-C , 18-H ) :   0.1097 B(  1-N ,  7-C ) :   0.9136
B(  1-N ,  8-C ) :   0.2890 B(  1-N ,  9-N ) :   0.1388 B(  1-N , 12-H ) :   1.3792
B(  1-N , 15-H ) :   0.1344 B(  1-N , 16-H ) :   0.1262 B(  2-C ,  3-C ) :   1.2126
B(  2-C ,  4-H ) :   0.1381 B(  2-C ,  5-H ) :   0.1075 B(  2-C , 15-H ) :   0.1084
B(  2-C , 17-H ) :   0.9515 B(  2-C , 18-H ) :   0.8906 B(  3-C ,  4-H ) :   1.0262
B(  3-C ,  5-H ) :   0.7872 B(  3-C ,  6-F ) :   0.6223 B(  3-C , 13-H ) :   0.1524
B(  6-F , 13-H ) :   0.2274 B(  7-C ,  8-C ) :   1.8436 B(  7-C ,  9-N ) :   0.6998
B(  7-C , 12-H ) :  -0.2508 B(  7-C , 14-H ) :   0.4086 B(  8-C ,  9-N ) :   0.3286
B(  8-C , 13-H ) :   0.1032 B(  8-C , 14-H ) :   0.5861 B(  9-N , 10-H ) :   1.0699
B(  9-N , 11-H ) :   1.0785 B(  9-N , 14-H ) :   0.1545 B( 10-H , 11-H ) :  -0.1424
B( 13-H , 14-H ) :  -0.1303 B( 13-H , 15-H ) :   0.1483 B( 15-H , 16-H ) :  -0.2026

Dispersion correction           -0.000505021
FINAL SINGLE POINT ENERGY      -405.961758378195

DIPOLE MOMENT
-------------
                                X             Y             Z
Electronic contribution:     -2.27961       2.69116      -0.15934
Nuclear contribution   :      2.43398      -4.26587      -0.19921
                        -----------------------------------------
Total Dipole Moment    :      0.15437      -1.57471      -0.35855
                        -----------------------------------------
Magnitude (a.u.)       :      1.62237
Magnitude (Debye)      :      4.12374

Rotational constants in cm-1:     0.110089     0.049944     0.039407
Rotational constants in MHz :  3300.378855  1497.273856  1181.385913

                             ****ORCA TERMINATED NORMALLY****
TOTAL RUN TIME: 0 days 0 hours 0 minutes 48 seconds 103 msec
