                         Program Version 5.0.0 -  RELEASE  -
|  1> !BLYP D3BJ RIJCOSX def2-SVPD def2/J TightSCF
|  2> *xyz -1 1
|  3> C          0.13297        2.38587       -4.02462
|  4> C         -1.36646        2.47911       -4.31393
|  5> C         -2.35773        2.30686       -3.13675
|  6> H         -1.63680        1.72709       -5.06399
|  7> H         -1.58235        3.44561       -4.76869
|  8> O         -3.44376        2.84652       -3.25274
|  9> O         -1.97092        1.58304       -2.15123
| 10> H          0.68084        2.52514       -4.93310
| 11> H          0.35823        1.42282       -3.61633
| 12> H          0.40851        3.14443       -3.32208
| 13> *
| 14> %MaxCore 64000
| 15>
| 16> %pal nprocs 4
| 17> end
| 18>
| 19> %scf
| 20>   MaxIter 150
| 21> end
| 22>
| 23>
| 24>                          ****END OF INPUT****

CARTESIAN COORDINATES (ANGSTROEM)
---------------------------------
  C      0.132970    2.385870   -4.024620
  C     -1.366460    2.479110   -4.313930
  C     -2.357730    2.306860   -3.136750
  H     -1.636800    1.727090   -5.063990
  H     -1.582350    3.445610   -4.768690
  O     -3.443760    2.846520   -3.252740
  O     -1.970920    1.583040   -2.151230
  H      0.680840    2.525140   -4.933100
  H      0.358230    1.422820   -3.616330
  H      0.408510    3.144430   -3.322080

 Total Charge           Charge          ....   -1
 Multiplicity           Mult            ....    1
 Number of Electrons    NEL             ....   40
 Basis Dimension        Dim             ....  146

ORBITAL ENERGIES
----------------

  NO   OCC          E(Eh)            E(eV)
   0   2.0000     -18.537711      -504.4368
   1   2.0000     -18.528712      -504.1919
   2   2.0000      -9.803954      -266.7792
   3   2.0000      -9.758087      -265.5310
   4   2.0000      -9.748101      -265.2593
   5   2.0000      -0.725617       -19.7450
   6   2.0000      -0.630912       -17.1680
   7   2.0000      -0.518621       -14.1124
   8   2.0000      -0.398707       -10.8494
   9   2.0000      -0.255723        -6.9586
  10   2.0000      -0.241053        -6.5594
  11   2.0000      -0.204000        -5.5511
  12   2.0000      -0.176880        -4.8131
  13   2.0000      -0.166988        -4.5440
  14   2.0000      -0.156962        -4.2712
  15   2.0000      -0.130653        -3.5552
  16   2.0000      -0.117242        -3.1903
  17   2.0000      -0.011512        -0.3133
  18   2.0000       0.001719         0.0468
  19   2.0000       0.017776         0.4837
  20   0.0000       0.137385         3.7384
  21   0.0000       0.173366         4.7175
  22   0.0000       0.189159         5.1473
  23   0.0000       0.192275         5.2321
  24   0.0000       0.218845         5.9551

MULLIKEN ATOMIC CHARGES
-----------------------
   0 C :    1.046240
   1 C :   -0.160617
   2 C :    0.224513
   3 H :   -0.150617
   4 H :   -0.167524
   5 O :   -0.530315
   6 O :   -0.662076
   7 H :   -0.226097
   8 H :   -0.175135
   9 H :   -0.198371
Sum of atomic charges:   -1.0000000

LOEWDIN ATOMIC CHARGES
----------------------
   0 C :    0.102356
   1 C :   -0.030398
   2 C :   -0.330640
   3 H :    0.001477
   4 H :   -0.012775
   5 O :   -0.285327
   6 O :   -0.320575
   7 H :   -0.053485
   8 H :   -0.037603
   9 H :   -0.033029

  Mayer bond orders larger than 0.100000
B(  0-C ,  1-C ) :   1.2747 B(  0-C ,  3-H ) :   0.1229 B(  0-C ,  4-H ) :   0.1253
B(  0-C ,  7-H ) :   0.6565 B(  0-C ,  8-H ) :   0.7282 B(  0-C ,  9-H ) :   0.7260
B(  1-C ,  2-C ) :   1.0523 B(  1-C ,  3-H ) :   0.8491 B(  1-C ,  4-H ) :   0.8708
B(  1-C ,  7-H ) :   0.3138 B(  1-C ,  8-H ) :   0.2733 B(  1-C ,  9-H ) :   0.2542
B(  2-C ,  4-H ) :   0.2033 B(  2-C ,  5-O ) :   1.6106 B(  2-C ,  6-O ) :   1.5064

Dispersion correction           -0.013388866
FINAL SINGLE POINT ENERGY      -267.589985016811

DIPOLE MOMENT
-------------
                                X             Y             Z
Electronic contribution:     -5.30629      -0.37841       3.24360
Nuclear contribution   :      6.75610       0.63068      -4.53972
                        -----------------------------------------
Total Dipole Moment    :      1.44980       0.25226      -1.29612
                        -----------------------------------------
Magnitude (a.u.)       :      1.96100
Magnitude (Debye)      :      4.98446

Rotational constants in cm-1:     0.335096     0.130241     0.099025
Rotational constants in MHz : 10045.924902  3904.536250  2968.708333

                             ****ORCA TERMINATED NORMALLY****
TOTAL RUN TIME: 0 days 0 hours 0 minutes 9 seconds 131 msec
