                         Program Version 5.0.0 -  RELEASE  -
|  1> !BLYP D3BJ RIJCOSX def2-SVPD def2/J TightSCF
|  2> *xyz 1 1
|  3> C          0.64866        1.00359       -3.64560
|  4> N          0.28128        0.67645       -2.24018
|  5> C          0.13297        2.38587       -4.02462
|  6> H          0.39079       -0.31925       -2.02649
|  7> H         -0.69269        0.99010       -2.13812
|  8> H          0.85421        1.21221       -1.57528
|  9> H          0.19099        0.23965       -4.27575
| 10> H          1.73157        0.93173       -3.75075
| 11> H          0.40589        2.60338       -5.03610
| 12> H          0.56342        3.11797       -3.37374
| 13> H         -0.93265        2.40724       -3.93025
| 14> *
| 15> %MaxCore 64000
| 16>
| 17> %pal nprocs 4
| 18> end
| 19>
| 20> %scf
| 21>   MaxIter 150
| 22> end
| 23>
| 24>
| 25>                          ****END OF INPUT****

CARTESIAN COORDINATES (ANGSTROEM)
---------------------------------
  C      0.648660    1.003590   -3.645600
  N      0.281280    0.676450   -2.240180
  C      0.132970    2.385870   -4.024620
  H      0.390790   -0.319250   -2.026490
  H     -0.692690    0.990100   -2.138120
  H      0.854210    1.212210   -1.575280
  H      0.190990    0.239650   -4.275750
  H      1.731570    0.931730   -3.750750
  H      0.405890    2.603380   -5.036100
  H      0.563420    3.117970   -3.373740
  H     -0.932650    2.407240   -3.930250

 Total Charge           Charge          ....    1
 Multiplicity           Mult            ....    1
 Number of Electrons    NEL             ....   26
 Basis Dimension        Dim             ....  124

ORBITAL ENERGIES
----------------

  NO   OCC          E(Eh)            E(eV)
   0   2.0000     -14.358157      -390.7053
   1   2.0000     -10.176946      -276.9288
   2   2.0000     -10.103087      -274.9190
   3   2.0000      -1.123171       -30.5630
   4   2.0000      -0.885992       -24.1091
   5   2.0000      -0.777800       -21.1650
   6   2.0000      -0.746004       -20.2998
   7   2.0000      -0.738041       -20.0831
   8   2.0000      -0.644672       -17.5424
   9   2.0000      -0.592996       -16.1362
  10   2.0000      -0.539564       -14.6823
  11   2.0000      -0.526819       -14.3355
  12   2.0000      -0.509593       -13.8667
  13   0.0000      -0.219939        -5.9848
  14   0.0000      -0.162772        -4.4293
  15   0.0000      -0.160112        -4.3569
  16   0.0000      -0.146896        -3.9972
  17   0.0000      -0.113918        -3.0999

MULLIKEN ATOMIC CHARGES
-----------------------
   0 C :    0.494276
   1 N :   -0.629021
   2 C :    1.009131
   3 H :    0.280947
   4 H :    0.396041
   5 H :    0.336534
   6 H :   -0.209502
   7 H :   -0.249394
   8 H :   -0.184143
   9 H :   -0.100659
  10 H :   -0.144209
Sum of atomic charges:    1.0000000

LOEWDIN ATOMIC CHARGES
----------------------
   0 C :    0.055116
   1 N :    0.344079
   2 C :    0.188969
   3 H :    0.103786
   4 H :    0.096022
   5 H :    0.105872
   6 H :    0.050028
   7 H :    0.049477
   8 H :    0.012631
   9 H :   -0.001840
  10 H :   -0.004140

  Mayer bond orders larger than 0.100000
B(  0-C ,  1-N ) :   0.8347 B(  0-C ,  2-C ) :   1.3117 B(  0-C ,  6-H ) :   0.8232
B(  0-C ,  7-H ) :   0.8454 B(  0-C ,  8-H ) :   0.2422 B(  0-C ,  9-H ) :   0.1832
B(  0-C , 10-H ) :   0.2039 B(  1-N ,  3-H ) :   0.8144 B(  1-N ,  4-H ) :   0.6834
B(  1-N ,  5-H ) :   0.7900 B(  1-N ,  6-H ) :   0.1114 B(  1-N ,  7-H ) :   0.1259
B(  2-C ,  8-H ) :   0.7394 B(  2-C ,  9-H ) :   0.7488 B(  2-C , 10-H ) :   0.7656

Dispersion correction           -0.012521348
FINAL SINGLE POINT ENERGY      -135.370737820681

DIPOLE MOMENT
-------------
                                X             Y             Z
Electronic contribution:      0.17176      -1.29307       1.30524
Nuclear contribution   :     -0.22655       0.48066      -0.09136
                        -----------------------------------------
Total Dipole Moment    :     -0.05479      -0.81241       1.21388
                        -----------------------------------------
Magnitude (a.u.)       :      1.46168
Magnitude (Debye)      :      3.71531

Rotational constants in cm-1:     0.998155     0.284845     0.251232
Rotational constants in MHz : 29923.943568  8539.431565  7531.732866

                             ****ORCA TERMINATED NORMALLY****
TOTAL RUN TIME: 0 days 0 hours 0 minutes 7 seconds 479 msec
