                         Program Version 5.0.0 -  RELEASE  -
|  1> !BLYP D3BJ RIJCOSX def2-SVPD def2/J TightSCF
|  2> *xyz 0 1
|  3> C          0.13297        2.38587       -4.02462
|  4> C         -1.36646        2.47911       -4.31393
|  5> C         -2.35773        2.30686       -3.13675
|  6> H         -1.63680        1.72709       -5.06399
|  7> H         -1.58235        3.44561       -4.76869
|  8> F         -3.44376        2.84652       -3.25274
|  9> O         -1.97092        1.58304       -2.15123
| 10> H          0.68084        2.52514       -4.93310
| 11> H          0.35823        1.42282       -3.61633
| 12> H          0.40851        3.14443       -3.32208
| 13> *
| 14> %MaxCore 64000
| 15>
| 16> %pal nprocs 4
| 17> end
| 18>
| 19> %scf
| 20>   MaxIter 150
| 21> end
| 22>
| 23>
| 24>                          ****END OF INPUT****

CARTESIAN COORDINATES (ANGSTROEM)
---------------------------------
  C      0.132970    2.385870   -4.024620
  C     -1.366460    2.479110   -4.313930
  C     -2.357730    2.306860   -3.136750
  H     -1.636800    1.727090   -5.063990
  H     -1.582350    3.445610   -4.768690
  F     -3.443760    2.846520   -3.252740
  O     -1.970920    1.583040   -2.151230
  H      0.680840    2.525140   -4.933100
  H      0.358230    1.422820   -3.616330
  H      0.408510    3.144430   -3.322080

 Total Charge           Charge          ....    0
 Multiplicity           Mult            ....    1
 Number of Electrons    NEL             ....   40
 Basis Dimension        Dim             ....  146

ORBITAL ENERGIES
----------------

  NO   OCC          E(Eh)            E(eV)
   0   2.0000     -24.389730      -663.6783
   1   2.0000     -18.795453      -511.4503
   2   2.0000     -10.100568      -274.8504
   3   2.0000      -9.956138      -270.9203
   4   2.0000      -9.925250      -270.0798
   5   2.0000      -1.226265       -33.3684
   6   2.0000      -0.916231       -24.9319
   7   2.0000      -0.712682       -19.3931
   8   2.0000      -0.623894       -16.9770
   9   2.0000      -0.577313       -15.7095
  10   2.0000      -0.504361       -13.7244
  11   2.0000      -0.483373       -13.1533
  12   2.0000      -0.444889       -12.1060
  13   2.0000      -0.415410       -11.3039
  14   2.0000      -0.378411       -10.2971
  15   2.0000      -0.346968        -9.4415
  16   2.0000      -0.329030        -8.9534
  17   2.0000      -0.325200        -8.8492
  18   2.0000      -0.302246        -8.2245
  19   2.0000      -0.238006        -6.4765
  20   0.0000      -0.067725        -1.8429
  21   0.0000      -0.005973        -0.1625
  22   0.0000       0.023823         0.6483
  23   0.0000       0.040769         1.1094
  24   0.0000       0.051472         1.4006

MULLIKEN ATOMIC CHARGES
-----------------------
   0 C :    1.068476
   1 C :   -0.191321
   2 C :    0.557249
   3 H :   -0.081170
   4 H :   -0.130204
   5 F :   -0.259386
   6 O :   -0.426436
   7 H :   -0.200989
   8 H :   -0.163159
   9 H :   -0.173060
Sum of atomic charges:    0.0000000

LOEWDIN ATOMIC CHARGES
----------------------
   0 C :    0.150982
   1 C :    0.009065
   2 C :   -0.044377
   3 H :    0.033813
   4 H :    0.014378
   5 F :    0.011585
   6 O :   -0.126897
   7 H :   -0.018936
   8 H :   -0.016011
   9 H :   -0.013602

  Mayer bond orders larger than 0.100000
B(  0-C ,  1-C ) :   1.3564 B(  0-C ,  3-H ) :   0.1153 B(  0-C ,  4-H ) :   0.1200
B(  0-C ,  7-H ) :   0.6552 B(  0-C ,  8-H ) :   0.7177 B(  0-C ,  9-H ) :   0.7273
B(  1-C ,  2-C ) :   1.0871 B(  1-C ,  3-H ) :   0.8254 B(  1-C ,  4-H ) :   0.8555
B(  1-C ,  7-H ) :   0.2962 B(  1-C ,  8-H ) :   0.2592 B(  1-C ,  9-H ) :   0.2471
B(  2-C ,  4-H ) :   0.1354 B(  2-C ,  5-F ) :   0.8779 B(  2-C ,  6-O ) :   1.8634
B(  5-F ,  6-O ) :   0.1268

Dispersion correction           -0.012715676
FINAL SINGLE POINT ENERGY      -292.116167568374

DIPOLE MOMENT
-------------
                                X             Y             Z
Electronic contribution:     -8.38418       0.46300       3.59986
Nuclear contribution   :      8.54799       0.05434      -4.66633
                        -----------------------------------------
Total Dipole Moment    :      0.16381       0.51734      -1.06647
                        -----------------------------------------
Magnitude (a.u.)       :      1.19659
Magnitude (Debye)      :      3.04149

Rotational constants in cm-1:     0.325803     0.123345     0.094275
Rotational constants in MHz :  9767.324172  3697.779805  2826.305733

                             ****ORCA TERMINATED NORMALLY****
TOTAL RUN TIME: 0 days 0 hours 0 minutes 8 seconds 337 msec
