                         Program Version 5.0.0 -  RELEASE  -
|  1> !BLYP D3BJ RIJCOSX def2-SVPD def2/J TightSCF
|  2> *xyz 0 1
|  3> C          0.64866        1.00359       -3.64560
|  4> C          0.28128        0.67645       -2.24018
|  5> C          0.13297        2.38587       -4.02462
|  6> H          0.39079       -0.31925       -2.02649
|  7> H         -0.69269        0.99010       -2.13812
|  8> H          0.85421        1.21221       -1.57528
|  9> H          0.19099        0.23965       -4.27575
| 10> H          1.73157        0.93173       -3.75075
| 11> H          0.40589        2.60338       -5.03610
| 12> H          0.56342        3.11797       -3.37374
| 13> H         -0.93265        2.40724       -3.93025
| 14> *
| 15> %MaxCore 64000
| 16>
| 17> %pal nprocs 4
| 18> end
| 19>
| 20> %scf
| 21>   MaxIter 150
| 22> end
| 23>
| 24>
| 25>                          ****END OF INPUT****

CARTESIAN COORDINATES (ANGSTROEM)
---------------------------------
  C      0.648660    1.003590   -3.645600
  C      0.281280    0.676450   -2.240180
  C      0.132970    2.385870   -4.024620
  H      0.390790   -0.319250   -2.026490
  H     -0.692690    0.990100   -2.138120
  H      0.854210    1.212210   -1.575280
  H      0.190990    0.239650   -4.275750
  H      1.731570    0.931730   -3.750750
  H      0.405890    2.603380   -5.036100
  H      0.563420    3.117970   -3.373740
  H     -0.932650    2.407240   -3.930250

 Total Charge           Charge          ....    0
 Multiplicity           Mult            ....    1
 Number of Electrons    NEL             ....   26
 Basis Dimension        Dim             ....  124

ORBITAL ENERGIES
----------------

  NO   OCC          E(Eh)            E(eV)
   0   2.0000      -9.909606      -269.6541
   1   2.0000      -9.902992      -269.4741
   2   2.0000      -9.886030      -269.0126
   3   2.0000      -0.707283       -19.2462
   4   2.0000      -0.610427       -16.6106
   5   2.0000      -0.516072       -14.0430
   6   2.0000      -0.414842       -11.2884
   7   2.0000      -0.397501       -10.8166
   8   2.0000      -0.353885        -9.6297
   9   2.0000      -0.338900        -9.2219
  10   2.0000      -0.294747        -8.0205
  11   2.0000      -0.291045        -7.9197
  12   2.0000      -0.283764        -7.7216
  13   0.0000       0.008624         0.2347
  14   0.0000       0.038084         1.0363
  15   0.0000       0.044024         1.1979
  16   0.0000       0.062056         1.6886
  17   0.0000       0.081888         2.2283

MULLIKEN ATOMIC CHARGES
-----------------------
   0 C :   -0.295157
   1 C :    1.365003
   2 C :    0.989697
   3 H :   -0.404758
   4 H :   -0.303287
   5 H :   -0.294225
   6 H :   -0.213669
   7 H :   -0.268470
   8 H :   -0.263791
   9 H :   -0.158853
  10 H :   -0.152488
Sum of atomic charges:   -0.0000000

LOEWDIN ATOMIC CHARGES
----------------------
   0 C :   -0.110035
   1 C :    0.128903
   2 C :    0.129859
   3 H :   -0.038015
   4 H :   -0.039051
   5 H :   -0.033454
   6 H :    0.016483
   7 H :    0.015161
   8 H :   -0.027449
   9 H :   -0.019700
  10 H :   -0.022702

  Mayer bond orders larger than 0.100000
B(  0-C ,  1-C ) :   1.2621 B(  0-C ,  2-C ) :   1.2766 B(  0-C ,  3-H ) :   0.2587
B(  0-C ,  4-H ) :   0.3093 B(  0-C ,  5-H ) :   0.2895 B(  0-C ,  6-H ) :   0.8255
B(  0-C ,  7-H ) :   0.8664 B(  0-C ,  8-H ) :   0.2350 B(  0-C ,  9-H ) :   0.2199
B(  0-C , 10-H ) :   0.2101 B(  1-C ,  3-H ) :   0.5649 B(  1-C ,  4-H ) :   0.5779
B(  1-C ,  5-H ) :   0.5534 B(  1-C ,  6-H ) :   0.1180 B(  1-C ,  7-H ) :   0.1263
B(  2-C ,  8-H ) :   0.7318 B(  2-C ,  9-H ) :   0.7402 B(  2-C , 10-H ) :   0.7603
B(  4-H ,  5-H ) :   0.1293

Dispersion correction           -0.012604265
FINAL SINGLE POINT ENERGY      -118.962330617547

DIPOLE MOMENT
-------------
                                X             Y             Z
Electronic contribution:      0.26135      -0.28326      -0.24579
Nuclear contribution   :     -0.24754       0.26111       0.24628
                        -----------------------------------------
Total Dipole Moment    :      0.01381      -0.02215       0.00048
                        -----------------------------------------
Magnitude (a.u.)       :      0.02611
Magnitude (Debye)      :      0.06636

Rotational constants in cm-1:     1.006509     0.299509     0.263145
Rotational constants in MHz : 30174.379724  8979.049324  7888.875355

                             ****ORCA TERMINATED NORMALLY****
TOTAL RUN TIME: 0 days 0 hours 0 minutes 7 seconds 260 msec
