                         Program Version 5.0.0 -  RELEASE  -
|  1> !BLYP D3BJ RIJCOSX def2-SVPD def2/J TightSCF
|  2> *xyz 0 1
|  3> C          0.13297        2.38587       -4.02462
|  4> C         -1.36646        2.47911       -4.31393
|  5> C         -2.35773        2.30686       -3.13675
|  6> H         -1.63680        1.72709       -5.06399
|  7> H         -1.58235        3.44561       -4.76869
|  8> O         -3.44376        2.84652       -3.25274
|  9> F         -1.97092        1.58304       -2.15123
| 10> H          0.68084        2.52514       -4.93310
| 11> H          0.35823        1.42282       -3.61633
| 12> H          0.40851        3.14443       -3.32208
| 13> *
| 14> %MaxCore 64000
| 15>
| 16> %pal nprocs 4
| 17> end
| 18>
| 19> %scf
| 20>   MaxIter 150
| 21> end
| 22>
| 23>
| 24>                          ****END OF INPUT****

CARTESIAN COORDINATES (ANGSTROEM)
---------------------------------
  C      0.132970    2.385870   -4.024620
  C     -1.366460    2.479110   -4.313930
  C     -2.357730    2.306860   -3.136750
  H     -1.636800    1.727090   -5.063990
  H     -1.582350    3.445610   -4.768690
  O     -3.443760    2.846520   -3.252740
  F     -1.970920    1.583040   -2.151230
  H      0.680840    2.525140   -4.933100
  H      0.358230    1.422820   -3.616330
  H      0.408510    3.144430   -3.322080

 Total Charge           Charge          ....    0
 Multiplicity           Mult            ....    1
 Number of Electrons    NEL             ....   40
 Basis Dimension        Dim             ....  146

ORBITAL ENERGIES
----------------

  NO   OCC          E(Eh)            E(eV)
   0   2.0000     -24.367097      -663.0624
   1   2.0000     -18.804356      -511.6925
   2   2.0000     -10.095557      -274.7141
   3   2.0000      -9.954681      -270.8806
   4   2.0000      -9.930051      -270.2104
   5   2.0000      -1.179102       -32.0850
   6   2.0000      -0.954645       -25.9772
   7   2.0000      -0.714910       -19.4537
   8   2.0000      -0.606255       -16.4970
   9   2.0000      -0.569734       -15.5032
  10   2.0000      -0.480220       -13.0675
  11   2.0000      -0.473907       -12.8957
  12   2.0000      -0.433965       -11.8088
  13   2.0000      -0.414417       -11.2769
  14   2.0000      -0.381565       -10.3829
  15   2.0000      -0.356839        -9.7101
  16   2.0000      -0.343779        -9.3547
  17   2.0000      -0.329799        -8.9743
  18   2.0000      -0.313451        -8.5294
  19   2.0000      -0.250065        -6.8046
  20   0.0000      -0.062849        -1.7102
  21   0.0000      -0.009403        -0.2559
  22   0.0000       0.029104         0.7919
  23   0.0000       0.037319         1.0155
  24   0.0000       0.052443         1.4271

MULLIKEN ATOMIC CHARGES
-----------------------
   0 C :    1.086775
   1 C :   -0.189903
   2 C :    0.540315
   3 H :   -0.080947
   4 H :   -0.133418
   5 O :   -0.327481
   6 F :   -0.348145
   7 H :   -0.199528
   8 H :   -0.172928
   9 H :   -0.174740
Sum of atomic charges:    0.0000000

LOEWDIN ATOMIC CHARGES
----------------------
   0 C :    0.140269
   1 C :    0.019847
   2 C :   -0.040450
   3 H :    0.035071
   4 H :    0.025432
   5 O :   -0.093653
   6 F :   -0.028855
   7 H :   -0.019269
   8 H :   -0.021362
   9 H :   -0.017031

  Mayer bond orders larger than 0.100000
B(  0-C ,  1-C ) :   1.3279 B(  0-C ,  3-H ) :   0.1147 B(  0-C ,  4-H ) :   0.1111
B(  0-C ,  7-H ) :   0.6510 B(  0-C ,  8-H ) :   0.7201 B(  0-C ,  9-H ) :   0.7273
B(  1-C ,  2-C ) :   1.0440 B(  1-C ,  3-H ) :   0.8270 B(  1-C ,  4-H ) :   0.8773
B(  1-C ,  7-H ) :   0.3090 B(  1-C ,  8-H ) :   0.2455 B(  1-C ,  9-H ) :   0.2409
B(  2-C ,  4-H ) :   0.1589 B(  2-C ,  5-O ) :   1.9272 B(  2-C ,  6-F ) :   0.7903
B(  5-O ,  6-F ) :   0.1354

Dispersion correction           -0.012608481
FINAL SINGLE POINT ENERGY      -292.132505461870

DIPOLE MOMENT
-------------
                                X             Y             Z
Electronic contribution:     -5.92404      -1.62454       5.40380
Nuclear contribution   :      6.94213       1.43193      -5.86732
                        -----------------------------------------
Total Dipole Moment    :      1.01809      -0.19261      -0.46352
                        -----------------------------------------
Magnitude (a.u.)       :      1.13510
Magnitude (Debye)      :      2.88519

Rotational constants in cm-1:     0.306336     0.129048     0.095707
Rotational constants in MHz :  9183.725605  3868.769583  2869.236577

                             ****ORCA TERMINATED NORMALLY****
TOTAL RUN TIME: 0 days 0 hours 0 minutes 8 seconds 552 msec
