                         Program Version 5.0.0 -  RELEASE  -
|  1> !BLYP D3BJ RIJCOSX def2-SVPD def2/J TightSCF xyzfile
|  2>
|  3> *xyzfile 0 1 D1.xyz
|  4>
|  5> %MaxCore 64000
|  6>
|  7> %pal nprocs 4
|  8> end
|  9>
| 10> %scf
| 11>   MaxIter 150
| 12> end
| 13>
| 14>
| 15>                          ****END OF INPUT****

CARTESIAN COORDINATES (ANGSTROEM)
---------------------------------
  C      0.648656    1.003595   -3.645601
  C      0.281280    0.676454   -2.240179
  C      0.132968    2.385869   -4.024618
  C     -1.366462    2.479106   -4.313932
  C     -2.357732    2.306858   -3.136753
  H     -1.636802    1.727095   -5.063993
  H     -1.582347    3.445605   -4.768687
  H      0.390790   -0.319253   -2.026495
  H     -0.692686    0.990104   -2.138123
  H      0.854206    1.212214   -1.575279
  F     -3.443763    2.846518   -3.252744
  O     -1.970922    1.583042   -2.151229
  H      0.190993    0.239655   -4.275752
  H      1.731572    0.931729   -3.750751
  H      0.414839    3.102847   -3.245165
  H      0.683167    2.687560   -4.919721

 Total Charge           Charge          ....    0
 Multiplicity           Mult            ....    1
 Number of Electrons    NEL             ....   56
 Basis Dimension        Dim             ....  218

ORBITAL ENERGIES
----------------

  NO   OCC          E(Eh)            E(eV)
   0   2.0000     -24.400377      -663.9680
   1   2.0000     -18.802395      -511.6392
   2   2.0000     -10.114569      -275.2314
   3   2.0000      -9.960354      -271.0350
   4   2.0000      -9.930007      -270.2092
   5   2.0000      -9.902956      -269.4731
   6   2.0000      -9.835193      -267.6292
   7   2.0000      -1.236220       -33.6393
   8   2.0000      -0.938866       -25.5478
   9   2.0000      -0.730053       -19.8657
  10   2.0000      -0.675097       -18.3703
  11   2.0000      -0.616779       -16.7834
  12   2.0000      -0.585978       -15.9453
  13   2.0000      -0.518604       -14.1119
  14   2.0000      -0.508887       -13.8475
  15   2.0000      -0.492863       -13.4115
  16   2.0000      -0.464764       -12.6469
  17   2.0000      -0.426625       -11.6090
  18   2.0000      -0.397828       -10.8254
  19   2.0000      -0.385379       -10.4867
  20   2.0000      -0.359486        -9.7821
  21   2.0000      -0.336904        -9.1676
  22   2.0000      -0.330780        -9.0010
  23   2.0000      -0.314257        -8.5514
  24   2.0000      -0.295954        -8.0533
  25   2.0000      -0.277527        -7.5519
  26   2.0000      -0.268544        -7.3075
  27   2.0000      -0.202111        -5.4997
  28   0.0000      -0.081738        -2.2242
  29   0.0000      -0.006743        -0.1835
  30   0.0000       0.017836         0.4853
  31   0.0000       0.029992         0.8161
  32   0.0000       0.035640         0.9698

MULLIKEN ATOMIC CHARGES
-----------------------
   0 C :    0.029749
   1 C :    2.726420
   2 C :    0.398378
   3 C :    0.263211
   4 C :    0.531563
   5 H :    0.073882
   6 H :   -0.127233
   7 H :   -0.263618
   8 H :   -1.928394
   9 H :   -0.148737
  10 F :   -0.270827
  11 O :   -0.349404
  12 H :   -0.122084
  13 H :   -0.385620
  14 H :   -0.150053
  15 H :   -0.277234
Sum of atomic charges:   -0.0000000

LOEWDIN ATOMIC CHARGES
----------------------
   0 C :   -0.046580
   1 C :    0.142057
   2 C :   -0.013518
   3 C :    0.071497
   4 C :    0.031842
   5 H :    0.039896
   6 H :    0.018077
   7 H :   -0.034247
   8 H :   -0.205445
   9 H :   -0.027858
  10 F :    0.026371
  11 O :   -0.080021
  12 H :    0.018727
  13 H :    0.012258
  14 H :    0.030984
  15 H :    0.015960

  Mayer bond orders larger than 0.100000
B(  0-C ,  1-C ) :   0.8047 B(  0-C ,  2-C ) :   1.1739 B(  0-C ,  3-C ) :   0.1115
B(  0-C ,  7-H ) :   0.2942 B(  0-C ,  8-H ) :   0.7706 B(  0-C ,  9-H ) :   0.3542
B(  0-C , 12-H ) :   0.7420 B(  0-C , 13-H ) :   0.7942 B(  0-C , 14-H ) :   0.1325
B(  0-C , 15-H ) :   0.1335 B(  1-C ,  2-C ) :   0.1391 B(  1-C ,  7-H ) :   0.2495
B(  1-C ,  8-H ) :  -2.8263 B(  1-C , 11-O ) :  -0.1200 B(  1-C , 12-H ) :   0.1497
B(  2-C ,  3-C ) :   1.2258 B(  2-C ,  5-H ) :   0.1772 B(  2-C ,  6-H ) :   0.1829
B(  2-C , 12-H ) :   0.1265 B(  2-C , 13-H ) :   0.1656 B(  2-C , 14-H ) :   0.7598
B(  2-C , 15-H ) :   0.7510 B(  3-C ,  4-C ) :   1.0984 B(  3-C ,  5-H ) :   0.7146
B(  3-C ,  6-H ) :   0.7970 B(  3-C , 10-F ) :   0.1069 B(  3-C , 14-H ) :   0.1492
B(  3-C , 15-H ) :   0.1375 B(  4-C ,  6-H ) :   0.1357 B(  4-C , 10-F ) :   0.8690
B(  4-C , 11-O ) :   1.7495 B(  5-H , 13-H ) :  -0.1196 B(  7-H ,  8-H ) :   0.2912
B(  7-H ,  9-H ) :  -0.1750 B(  8-H ,  9-H ) :   0.6068 B(  8-H , 11-O ) :   0.2967
B(  8-H , 13-H ) :   0.1394 B( 10-F , 11-O ) :   0.1068 B( 12-H , 13-H ) :  -0.1603

Dispersion correction           -0.027272721
FINAL SINGLE POINT ENERGY      -370.587351668509

DIPOLE MOMENT
-------------
                                X             Y             Z
Electronic contribution:    -13.00912       4.56878       1.45009
Nuclear contribution   :     12.79331      -3.91961      -2.45895
                        -----------------------------------------
Total Dipole Moment    :     -0.21581       0.64917      -1.00885
                        -----------------------------------------
Magnitude (a.u.)       :      1.21893
Magnitude (Debye)      :      3.09827

Rotational constants in cm-1:     0.162888     0.059977     0.046450
Rotational constants in MHz :  4883.250030  1798.063289  1392.548669

                             ****ORCA TERMINATED NORMALLY****
TOTAL RUN TIME: 0 days 0 hours 0 minutes 15 seconds 776 msec
