                         Program Version 5.0.0 -  RELEASE  -
|  1> !wB97X-D3 RIJCOSX def2-SVPD def2/J TightSCF CPCM(Water)
|  2> *xyz -1 1
|  3> C         -0.71189        0.84252       -4.21834
|  4> C         -0.39762       -0.20587       -5.28802
|  5> O          0.61717       -0.00535       -5.99827
|  6> O         -1.13317       -1.22138       -5.34147
|  7> H         -0.00939        1.64646       -4.28960
|  8> H         -0.64409        0.39449       -3.24902
|  9> H         -1.70192        1.21961       -4.36851
| 10> *
| 11>
| 12> %MaxCore 64000
| 13>
| 14> %pal nprocs 18
| 15> end
| 16>
| 17> %scf
| 18>   MaxIter 150
| 19> end
| 20>
| 21>
| 22>                          ****END OF INPUT****

CARTESIAN COORDINATES (ANGSTROEM)
---------------------------------
  C     -0.711890    0.842520   -4.218340
  C     -0.397620   -0.205870   -5.288020
  O      0.617170   -0.005350   -5.998270
  O     -1.133170   -1.221380   -5.341470
  H     -0.009390    1.646460   -4.289600
  H     -0.644090    0.394490   -3.249020
  H     -1.701920    1.219610   -4.368510

 Total Charge           Charge          ....   -1
 Multiplicity           Mult            ....    1
 Number of Electrons    NEL             ....   32
 Basis Dimension        Dim             ....  110

ORBITAL ENERGIES
----------------

  NO   OCC          E(Eh)            E(eV)
   0   2.0000     -19.178047      -521.8612
   1   2.0000     -19.177889      -521.8569
   2   2.0000     -10.369296      -282.1629
   3   2.0000     -10.260330      -279.1978
   4   2.0000      -1.124808       -30.6076
   5   2.0000      -1.029464       -28.0132
   6   2.0000      -0.816765       -22.2253
   7   2.0000      -0.588566       -16.0157
   8   2.0000      -0.531608       -14.4658
   9   2.0000      -0.523269       -14.2389
  10   2.0000      -0.520390       -14.1605
  11   2.0000      -0.470135       -12.7930
  12   2.0000      -0.449506       -12.2317
  13   2.0000      -0.344571        -9.3762
  14   2.0000      -0.332661        -9.0522
  15   2.0000      -0.323961        -8.8154
  16   0.0000       0.096770         2.6333
  17   0.0000       0.132199         3.5973
  18   0.0000       0.133709         3.6384
  19   0.0000       0.149790         4.0760
  20   0.0000       0.172414         4.6916

MULLIKEN ATOMIC CHARGES
-----------------------
   0 C :    0.405813
   1 C :    0.014311
   2 O :   -0.675081
   3 O :   -0.691882
   4 H :   -0.051381
   5 H :   -0.000776
   6 H :   -0.001005
Sum of atomic charges:   -1.0000000

LOEWDIN ATOMIC CHARGES
----------------------
   0 C :    0.157245
   1 C :   -0.353528
   2 O :   -0.372525
   3 O :   -0.374826
   4 H :   -0.026870
   5 H :   -0.013864
   6 H :   -0.015632

  Mayer bond orders larger than 0.100000
B(  0-C ,  1-C ) :   1.2243 B(  0-C ,  4-H ) :   0.8851 B(  0-C ,  5-H ) :   0.8292
B(  0-C ,  6-H ) :   0.8210 B(  1-C ,  2-O ) :   1.5117 B(  1-C ,  3-O ) :   1.5030
B(  1-C ,  4-H ) :   0.2148 B(  1-C ,  5-H ) :   0.1408 B(  1-C ,  6-H ) :   0.1488
B(  2-O ,  3-O ) :   0.1009

Dispersion correction           -0.000904839
FINAL SINGLE POINT ENERGY      -228.415784050308

DIPOLE MOMENT
-------------
                                X             Y             Z
Electronic contribution:      0.61574      -2.04524      -2.08914
Nuclear contribution   :     -1.06347       3.45957       3.47855
                        -----------------------------------------
Total Dipole Moment    :     -0.44773       1.41433       1.38942
                        -----------------------------------------
Magnitude (a.u.)       :      2.03255
Magnitude (Debye)      :      5.16634

Rotational constants in cm-1:     0.393276     0.333956     0.186777
Rotational constants in MHz : 11790.103634 10011.747201  5599.422324

                             ****ORCA TERMINATED NORMALLY****
TOTAL RUN TIME: 0 days 0 hours 0 minutes 5 seconds 257 msec
