                         Program Version 5.0.0 -  RELEASE  -
|  1> !wB97X-D3 RIJCOSX def2-SVPD def2/J TightSCF CPCM(Water)
|  2> *xyz 1 1
|  3> C          2.23447       -2.98975       -2.39762
|  4> N          2.75680       -2.94555       -3.76503
|  5> C          1.98721       -2.59045       -4.81898
|  6> N          0.74322       -3.01749       -4.91352
|  7> N          2.49964       -1.84860       -5.80324
|  8> H          3.30978       -1.29282       -5.55895
|  9> H          1.80103       -1.30430       -6.28913
| 10> H          3.71612       -2.62880       -3.82953
| 11> H          0.39583       -3.62775       -4.18502
| 12> H          0.03920       -2.45438       -5.37137
| 13> H          1.22098       -3.33251       -2.41386
| 14> H          2.27280       -2.00995       -1.96933
| 15> H          2.82798       -3.65908       -1.81056
| 16> *
| 17>
| 18> %MaxCore 64000
| 19>
| 20> %pal nprocs 18
| 21> end
| 22>
| 23> %scf
| 24>   MaxIter 150
| 25> end
| 26>
| 27>
| 28>                          ****END OF INPUT****

CARTESIAN COORDINATES (ANGSTROEM)
---------------------------------
  C      2.234470   -2.989750   -2.397620
  N      2.756800   -2.945550   -3.765030
  C      1.987210   -2.590450   -4.818980
  N      0.743220   -3.017490   -4.913520
  N      2.499640   -1.848600   -5.803240
  H      3.309780   -1.292820   -5.558950
  H      1.801030   -1.304300   -6.289130
  H      3.716120   -2.628800   -3.829530
  H      0.395830   -3.627750   -4.185020
  H      0.039200   -2.454380   -5.371370
  H      1.220980   -3.332510   -2.413860
  H      2.272800   -2.009950   -1.969330
  H      2.827980   -3.659080   -1.810560

 Total Charge           Charge          ....    1
 Multiplicity           Mult            ....    1
 Number of Electrons    NEL             ....   40
 Basis Dimension        Dim             ....  164

ORBITAL ENERGIES
----------------

  NO   OCC          E(Eh)            E(eV)
   0   2.0000     -14.491661      -394.3381
   1   2.0000     -14.490310      -394.3014
   2   2.0000     -14.485855      -394.1802
   3   2.0000     -10.461026      -284.6590
   4   2.0000     -10.330443      -281.1056
   5   2.0000      -1.157844       -31.5065
   6   2.0000      -1.042417       -28.3656
   7   2.0000      -1.033238       -28.1158
   8   2.0000      -0.842078       -22.9141
   9   2.0000      -0.759536       -20.6680
  10   2.0000      -0.715065       -19.4579
  11   2.0000      -0.679409       -18.4877
  12   2.0000      -0.627617       -17.0783
  13   2.0000      -0.607218       -16.5232
  14   2.0000      -0.574967       -15.6457
  15   2.0000      -0.570067       -15.5123
  16   2.0000      -0.525096       -14.2886
  17   2.0000      -0.511567       -13.9205
  18   2.0000      -0.410991       -11.1836
  19   2.0000      -0.381018       -10.3680
  20   0.0000       0.057816         1.5732
  21   0.0000       0.085750         2.3334
  22   0.0000       0.122049         3.3211
  23   0.0000       0.131880         3.5886
  24   0.0000       0.159541         4.3413

MULLIKEN ATOMIC CHARGES
-----------------------
   0 C :    1.025969
   1 N :   -0.653879
   2 C :    0.888639
   3 N :   -0.019427
   4 N :   -0.132677
   5 H :    0.074244
   6 H :    0.120503
   7 H :   -0.084275
   8 H :    0.046820
   9 H :    0.044060
  10 H :   -0.137881
  11 H :   -0.045832
  12 H :   -0.126263
Sum of atomic charges:    1.0000000

LOEWDIN ATOMIC CHARGES
----------------------
   0 C :    0.249646
   1 N :    0.017496
   2 C :   -0.039494
   3 N :    0.278301
   4 N :    0.261777
   5 H :    0.043674
   6 H :    0.043409
   7 H :    0.057904
   8 H :    0.031113
   9 H :    0.058365
  10 H :   -0.012159
  11 H :    0.006242
  12 H :    0.003727

  Mayer bond orders larger than 0.100000
B(  0-C ,  1-N ) :   0.8328 B(  0-C , 10-H ) :   0.8570 B(  0-C , 11-H ) :   0.8531
B(  0-C , 12-H ) :   0.8354 B(  1-N ,  2-C ) :   1.0577 B(  1-N ,  4-N ) :   0.1273
B(  1-N ,  7-H ) :   1.2093 B(  1-N , 10-H ) :   0.1404 B(  1-N , 11-H ) :   0.1216
B(  1-N , 12-H ) :   0.1823 B(  2-C ,  3-N ) :   1.0730 B(  2-C ,  4-N ) :   1.0620
B(  2-C ,  7-H ) :  -0.1263 B(  3-N ,  4-N ) :   0.1392 B(  3-N ,  8-H ) :   0.9712
B(  3-N ,  9-H ) :   1.1757 B(  4-N ,  5-H ) :   0.9743 B(  4-N ,  6-H ) :   0.9655
B(  8-H ,  9-H ) :  -0.1436

Dispersion correction           -0.002421492
FINAL SINGLE POINT ENERGY      -244.943927309713

DIPOLE MOMENT
-------------
                                X             Y             Z
Electronic contribution:      0.17086       0.17857      -3.07314
Nuclear contribution   :     -0.61773       0.88991       3.03801
                        -----------------------------------------
Total Dipole Moment    :     -0.44686       1.06849      -0.03513
                        -----------------------------------------
Magnitude (a.u.)       :      1.15870
Magnitude (Debye)      :      2.94518

Rotational constants in cm-1:     0.302561     0.133407     0.098295
Rotational constants in MHz :  9070.558660  3999.431512  2946.819102

                             ****ORCA TERMINATED NORMALLY****
TOTAL RUN TIME: 0 days 0 hours 0 minutes 9 seconds 469 msec
