                         Program Version 5.0.0 -  RELEASE  -
|  1> !wB97X-D3 RIJCOSX def2-SVPD def2/J TightSCF CPCM(Water)
|  2> *xyz 0 1
|  3> C         -0.71189        0.84252       -4.21834
|  4> C         -0.39762       -0.20587       -5.28802
|  5> F          0.61717       -0.00535       -5.99827
|  6> O         -1.13317       -1.22138       -5.34147
|  7> H         -0.00939        1.64646       -4.28960
|  8> H         -0.64409        0.39449       -3.24902
|  9> H         -1.70192        1.21961       -4.36851
| 10> *
| 11>
| 12> %MaxCore 64000
| 13>
| 14> %pal nprocs 18
| 15> end
| 16>
| 17> %scf
| 18>   MaxIter 150
| 19> end
| 20>
| 21>
| 22>                          ****END OF INPUT****

CARTESIAN COORDINATES (ANGSTROEM)
---------------------------------
  C     -0.711890    0.842520   -4.218340
  C     -0.397620   -0.205870   -5.288020
  F      0.617170   -0.005350   -5.998270
  O     -1.133170   -1.221380   -5.341470
  H     -0.009390    1.646460   -4.289600
  H     -0.644090    0.394490   -3.249020
  H     -1.701920    1.219610   -4.368510

 Total Charge           Charge          ....    0
 Multiplicity           Mult            ....    1
 Number of Electrons    NEL             ....   32
 Basis Dimension        Dim             ....  110

ORBITAL ENERGIES
----------------

  NO   OCC          E(Eh)            E(eV)
   0   2.0000     -24.877462      -676.9502
   1   2.0000     -19.263743      -524.1931
   2   2.0000     -10.484835      -285.3069
   3   2.0000     -10.301826      -280.3269
   4   2.0000      -1.427811       -38.8527
   5   2.0000      -1.151779       -31.3415
   6   2.0000      -0.872826       -23.7508
   7   2.0000      -0.768363       -20.9082
   8   2.0000      -0.658875       -17.9289
   9   2.0000      -0.651734       -17.7346
  10   2.0000      -0.613431       -16.6923
  11   2.0000      -0.533355       -14.5133
  12   2.0000      -0.522496       -14.2179
  13   2.0000      -0.503650       -13.7050
  14   2.0000      -0.459258       -12.4970
  15   2.0000      -0.404324       -11.0022
  16   0.0000       0.050876         1.3844
  17   0.0000       0.091185         2.4813
  18   0.0000       0.131064         3.5664
  19   0.0000       0.152522         4.1503
  20   0.0000       0.161176         4.3858

MULLIKEN ATOMIC CHARGES
-----------------------
   0 C :    0.228442
   1 C :    0.434227
   2 F :   -0.349607
   3 O :   -0.530643
   4 H :    0.037421
   5 H :    0.092840
   6 H :    0.087321
Sum of atomic charges:    0.0000000

LOEWDIN ATOMIC CHARGES
----------------------
   0 C :    0.220443
   1 C :   -0.018183
   2 F :   -0.035860
   3 O :   -0.190032
   4 H :   -0.002310
   5 H :    0.013710
   6 H :    0.012231

  Mayer bond orders larger than 0.100000
B(  0-C ,  1-C ) :   1.2745 B(  0-C ,  4-H ) :   0.9004 B(  0-C ,  5-H ) :   0.8273
B(  0-C ,  6-H ) :   0.8205 B(  1-C ,  2-F ) :   0.8097 B(  1-C ,  3-O ) :   1.7848
B(  1-C ,  4-H ) :   0.1377 B(  1-C ,  5-H ) :   0.1179 B(  1-C ,  6-H ) :   0.1275

Dispersion correction           -0.000909835
FINAL SINGLE POINT ENERGY      -252.847052997906

DIPOLE MOMENT
-------------
                                X             Y             Z
Electronic contribution:      2.53056      -1.96341      -3.70034
Nuclear contribution   :     -2.12043       3.31297       4.29327
                        -----------------------------------------
Total Dipole Moment    :      0.41013       1.34956       0.59293
                        -----------------------------------------
Magnitude (a.u.)       :      1.53006
Magnitude (Debye)      :      3.88910

Rotational constants in cm-1:     0.368089     0.321934     0.177312
Rotational constants in MHz : 11035.034199  9651.332398  5315.666874

                             ****ORCA TERMINATED NORMALLY****
TOTAL RUN TIME: 0 days 0 hours 0 minutes 5 seconds 759 msec
