                         Program Version 5.0.0 -  RELEASE  -
|  1> !wB97X-D3 RIJCOSX def2-SVPD def2/J TightSCF CPCM(Water)
|  2> *xyz 0 1
|  3> C          2.23447       -2.98975       -2.39762
|  4> C          2.75680       -2.94555       -3.76503
|  5> C          1.98721       -2.59045       -4.81898
|  6> N          0.74322       -3.01749       -4.91352
|  7> N          2.49964       -1.84860       -5.80324
|  8> H          3.30978       -1.29282       -5.55895
|  9> H          1.80103       -1.30430       -6.28913
| 10> H          3.71612       -2.62880       -3.82953
| 11> H          0.39583       -3.62775       -4.18502
| 12> H          0.03920       -2.45438       -5.37137
| 13> H          1.22098       -3.33251       -2.41386
| 14> H          2.27280       -2.00995       -1.96933
| 15> H          2.82798       -3.65908       -1.81056
| 16> *
| 17>
| 18> %MaxCore 64000
| 19>
| 20> %pal nprocs 18
| 21> end
| 22>
| 23> %scf
| 24>   MaxIter 150
| 25> end
| 26>
| 27>
| 28>                          ****END OF INPUT****

CARTESIAN COORDINATES (ANGSTROEM)
---------------------------------
  C      2.234470   -2.989750   -2.397620
  C      2.756800   -2.945550   -3.765030
  C      1.987210   -2.590450   -4.818980
  N      0.743220   -3.017490   -4.913520
  N      2.499640   -1.848600   -5.803240
  H      3.309780   -1.292820   -5.558950
  H      1.801030   -1.304300   -6.289130
  H      3.716120   -2.628800   -3.829530
  H      0.395830   -3.627750   -4.185020
  H      0.039200   -2.454380   -5.371370
  H      1.220980   -3.332510   -2.413860
  H      2.272800   -2.009950   -1.969330
  H      2.827980   -3.659080   -1.810560

 Total Charge           Charge          ....    0
 Multiplicity           Mult            ....    1
 Number of Electrons    NEL             ....   40
 Basis Dimension        Dim             ....  164

ORBITAL ENERGIES
----------------

  NO   OCC          E(Eh)            E(eV)
   0   2.0000     -14.435897      -392.8207
   1   2.0000     -14.433175      -392.7467
   2   2.0000     -10.342662      -281.4382
   3   2.0000     -10.259823      -279.1840
   4   2.0000     -10.218297      -278.0540
   5   2.0000      -1.077667       -29.3248
   6   2.0000      -0.980560       -26.6824
   7   2.0000      -0.865318       -23.5465
   8   2.0000      -0.761725       -20.7276
   9   2.0000      -0.688825       -18.7439
  10   2.0000      -0.640353       -17.4249
  11   2.0000      -0.605327       -16.4718
  12   2.0000      -0.561952       -15.2915
  13   2.0000      -0.540256       -14.7011
  14   2.0000      -0.505494       -13.7552
  15   2.0000      -0.477526       -12.9941
  16   2.0000      -0.459310       -12.4985
  17   2.0000      -0.436299       -11.8723
  18   2.0000      -0.369089       -10.0434
  19   2.0000      -0.251926        -6.8553
  20   0.0000       0.095329         2.5940
  21   0.0000       0.116294         3.1645
  22   0.0000       0.130542         3.5522
  23   0.0000       0.140897         3.8340
  24   0.0000       0.162232         4.4146

MULLIKEN ATOMIC CHARGES
-----------------------
   0 C :    0.783645
   1 C :   -0.430775
   2 C :    0.187098
   3 N :   -0.050612
   4 N :   -0.114806
   5 H :    0.095461
   6 H :    0.064467
   7 H :   -0.260929
   8 H :    0.034713
   9 H :   -0.034077
  10 H :   -0.214379
  11 H :   -0.079069
  12 H :    0.019263
Sum of atomic charges:    0.0000000

LOEWDIN ATOMIC CHARGES
----------------------
   0 C :    0.076689
   1 C :   -0.088586
   2 C :   -0.253126
   3 N :    0.194535
   4 N :    0.180620
   5 H :    0.012927
   6 H :    0.007039
   7 H :   -0.069480
   8 H :    0.004959
   9 H :    0.019103
  10 H :   -0.038416
  11 H :   -0.019409
  12 H :   -0.026855

  Mayer bond orders larger than 0.100000
B(  0-C ,  1-C ) :   1.1179 B(  0-C ,  7-H ) :   0.1841 B(  0-C , 10-H ) :   0.7590
B(  0-C , 11-H ) :   0.8307 B(  0-C , 12-H ) :   0.7243 B(  1-C ,  2-C ) :   1.8347
B(  1-C ,  3-N ) :   0.1735 B(  1-C ,  4-N ) :   0.1953 B(  1-C ,  7-H ) :   0.8745
B(  1-C , 10-H ) :   0.2932 B(  1-C , 12-H ) :   0.2081 B(  2-C ,  3-N ) :   1.1016
B(  2-C ,  4-N ) :   1.0927 B(  2-C ,  7-H ) :   0.2548 B(  3-N ,  4-N ) :   0.1159
B(  3-N ,  8-H ) :   0.9668 B(  3-N ,  9-H ) :   1.1692 B(  4-N ,  5-H ) :   0.9183
B(  4-N ,  6-H ) :   0.9005 B(  8-H ,  9-H ) :  -0.1262 B( 10-H , 12-H ) :   0.1184

Dispersion correction           -0.002422996
FINAL SINGLE POINT ENERGY      -228.394427168524

DIPOLE MOMENT
-------------
                                X             Y             Z
Electronic contribution:     -0.64666       0.43273      -3.52170
Nuclear contribution   :     -0.47056       0.83150       3.15332
                        -----------------------------------------
Total Dipole Moment    :     -1.11722       1.26423      -0.36838
                        -----------------------------------------
Magnitude (a.u.)       :      1.72689
Magnitude (Debye)      :      4.38940

Rotational constants in cm-1:     0.307275     0.134774     0.099280
Rotational constants in MHz :  9211.860934  4040.421317  2976.324646

                             ****ORCA TERMINATED NORMALLY****
TOTAL RUN TIME: 0 days 0 hours 0 minutes 10 seconds 91 msec
