                         Program Version 5.0.0 -  RELEASE  -
|  1> !wB97X-D3 RIJCOSX def2-SVPD def2/J TightSCF CPCM(Water)
|  2> *xyz 0 1
|  3> C         -0.71189        0.84252       -4.21834
|  4> C         -0.39762       -0.20587       -5.28802
|  5> O          0.61717       -0.00535       -5.99827
|  6> F         -1.13317       -1.22138       -5.34147
|  7> H         -0.00939        1.64646       -4.28960
|  8> H         -0.64409        0.39449       -3.24902
|  9> H         -1.70192        1.21961       -4.36851
| 10> *
| 11>
| 12> %MaxCore 64000
| 13>
| 14> %pal nprocs 18
| 15> end
| 16>
| 17> %scf
| 18>   MaxIter 150
| 19> end
| 20>
| 21>
| 22>                          ****END OF INPUT****

CARTESIAN COORDINATES (ANGSTROEM)
---------------------------------
  C     -0.711890    0.842520   -4.218340
  C     -0.397620   -0.205870   -5.288020
  O      0.617170   -0.005350   -5.998270
  F     -1.133170   -1.221380   -5.341470
  H     -0.009390    1.646460   -4.289600
  H     -0.644090    0.394490   -3.249020
  H     -1.701920    1.219610   -4.368510

 Total Charge           Charge          ....    0
 Multiplicity           Mult            ....    1
 Number of Electrons    NEL             ....   32
 Basis Dimension        Dim             ....  110

ORBITAL ENERGIES
----------------

  NO   OCC          E(Eh)            E(eV)
   0   2.0000     -24.877815      -676.9598
   1   2.0000     -19.263400      -524.1838
   2   2.0000     -10.484402      -285.2951
   3   2.0000     -10.301567      -280.3199
   4   2.0000      -1.427622       -38.8476
   5   2.0000      -1.151973       -31.3468
   6   2.0000      -0.872301       -23.7365
   7   2.0000      -0.768321       -20.9071
   8   2.0000      -0.659206       -17.9379
   9   2.0000      -0.651184       -17.7196
  10   2.0000      -0.613306       -16.6889
  11   2.0000      -0.531225       -14.4554
  12   2.0000      -0.523395       -14.2423
  13   2.0000      -0.504176       -13.7193
  14   2.0000      -0.461924       -12.5696
  15   2.0000      -0.401887       -10.9359
  16   0.0000       0.053736         1.4622
  17   0.0000       0.089929         2.4471
  18   0.0000       0.131000         3.5647
  19   0.0000       0.153811         4.1854
  20   0.0000       0.161354         4.3907

MULLIKEN ATOMIC CHARGES
-----------------------
   0 C :    0.246911
   1 C :    0.442788
   2 O :   -0.511401
   3 F :   -0.373059
   4 H :    0.003177
   5 H :    0.097937
   6 H :    0.093646
Sum of atomic charges:   -0.0000000

LOEWDIN ATOMIC CHARGES
----------------------
   0 C :    0.219891
   1 C :   -0.019361
   2 O :   -0.190014
   3 F :   -0.034069
   4 H :    0.002435
   5 H :    0.011768
   6 H :    0.009350

  Mayer bond orders larger than 0.100000
B(  0-C ,  1-C ) :   1.2595 B(  0-C ,  4-H ) :   0.9142 B(  0-C ,  5-H ) :   0.8215
B(  0-C ,  6-H ) :   0.8177 B(  1-C ,  2-O ) :   1.8135 B(  1-C ,  3-F ) :   0.7693
B(  1-C ,  4-H ) :   0.1804 B(  1-C ,  5-H ) :   0.1089 B(  1-C ,  6-H ) :   0.1133

Dispersion correction           -0.000897078
FINAL SINGLE POINT ENERGY      -252.847046870206

DIPOLE MOMENT
-------------
                                X             Y             Z
Electronic contribution:     -0.67679      -4.19052      -2.49395
Nuclear contribution   :     -0.31181       4.56949       3.61460
                        -----------------------------------------
Total Dipole Moment    :     -0.98860       0.37897       1.12065
                        -----------------------------------------
Magnitude (a.u.)       :      1.54169
Magnitude (Debye)      :      3.91866

Rotational constants in cm-1:     0.370228     0.320104     0.177247
Rotational constants in MHz : 11099.151631  9596.483000  5313.726171

                             ****ORCA TERMINATED NORMALLY****
TOTAL RUN TIME: 0 days 0 hours 0 minutes 5 seconds 933 msec
