                         Program Version 5.0.0 -  RELEASE  -
|  1> !wB97X-D3 RIJCOSX def2-SVPD def2/J TightSCF CPCM(Water)
|  2> *xyz 0 1
|  3> C          2.23447       -2.98975       -2.39762
|  4> N          2.75680       -2.94555       -3.76503
|  5> C          1.98721       -2.59045       -4.81898
|  6> C          0.74322       -3.01749       -4.91352
|  7> N          2.49964       -1.84860       -5.80324
|  8> H          3.30978       -1.29282       -5.55895
|  9> H          1.80103       -1.30430       -6.28913
| 10> H          3.71612       -2.62880       -3.82953
| 11> H          0.39583       -3.62775       -4.18502
| 12> H          0.03920       -2.45438       -5.37137
| 13> H          1.22098       -3.33251       -2.41386
| 14> H          2.27280       -2.00995       -1.96933
| 15> H          2.82798       -3.65908       -1.81056
| 16> *
| 17>
| 18> %MaxCore 64000
| 19>
| 20> %pal nprocs 18
| 21> end
| 22>
| 23> %scf
| 24>   MaxIter 150
| 25> end
| 26>
| 27>
| 28>                          ****END OF INPUT****

CARTESIAN COORDINATES (ANGSTROEM)
---------------------------------
  C      2.234470   -2.989750   -2.397620
  N      2.756800   -2.945550   -3.765030
  C      1.987210   -2.590450   -4.818980
  C      0.743220   -3.017490   -4.913520
  N      2.499640   -1.848600   -5.803240
  H      3.309780   -1.292820   -5.558950
  H      1.801030   -1.304300   -6.289130
  H      3.716120   -2.628800   -3.829530
  H      0.395830   -3.627750   -4.185020
  H      0.039200   -2.454380   -5.371370
  H      1.220980   -3.332510   -2.413860
  H      2.272800   -2.009950   -1.969330
  H      2.827980   -3.659080   -1.810560

 Total Charge           Charge          ....    0
 Multiplicity           Mult            ....    1
 Number of Electrons    NEL             ....   40
 Basis Dimension        Dim             ....  164

ORBITAL ENERGIES
----------------

  NO   OCC          E(Eh)            E(eV)
   0   2.0000     -14.438263      -392.8851
   1   2.0000     -14.433891      -392.7661
   2   2.0000     -10.344976      -281.5011
   3   2.0000     -10.306149      -280.4446
   4   2.0000     -10.212711      -277.9020
   5   2.0000      -1.077444       -29.3187
   6   2.0000      -0.991517       -26.9806
   7   2.0000      -0.836044       -22.7499
   8   2.0000      -0.799901       -21.7664
   9   2.0000      -0.668218       -18.1831
  10   2.0000      -0.645403       -17.5623
  11   2.0000      -0.612708       -16.6726
  12   2.0000      -0.549105       -14.9419
  13   2.0000      -0.534416       -14.5422
  14   2.0000      -0.517814       -14.0904
  15   2.0000      -0.490275       -13.3411
  16   2.0000      -0.471925       -12.8417
  17   2.0000      -0.460073       -12.5192
  18   2.0000      -0.347733        -9.4623
  19   2.0000      -0.273795        -7.4503
  20   0.0000       0.096585         2.6282
  21   0.0000       0.119076         3.2402
  22   0.0000       0.128700         3.5021
  23   0.0000       0.130532         3.5520
  24   0.0000       0.166993         4.5441

MULLIKEN ATOMIC CHARGES
-----------------------
   0 C :    1.078445
   1 N :   -0.555371
   2 C :    0.271833
   3 C :    0.340864
   4 N :   -0.069448
   5 H :   -0.000233
   6 H :    0.103551
   7 H :   -0.201507
   8 H :   -0.193353
   9 H :   -0.355826
  10 H :   -0.178289
  11 H :   -0.087868
  12 H :   -0.152797
Sum of atomic charges:   -0.0000000

LOEWDIN ATOMIC CHARGES
----------------------
   0 C :    0.215754
   1 N :   -0.044518
   2 C :   -0.258361
   3 C :    0.119359
   4 N :    0.180597
   5 H :    0.007067
   6 H :    0.012548
   7 H :    0.027295
   8 H :   -0.113327
   9 H :   -0.098391
  10 H :   -0.028430
  11 H :   -0.009142
  12 H :   -0.010451

  Mayer bond orders larger than 0.100000
B(  0-C ,  1-N ) :   0.8391 B(  0-C , 10-H ) :   0.8553 B(  0-C , 11-H ) :   0.8223
B(  0-C , 12-H ) :   0.8142 B(  1-N ,  2-C ) :   1.0604 B(  1-N ,  3-C ) :   0.2053
B(  1-N ,  7-H ) :   1.1649 B(  1-N , 10-H ) :   0.1294 B(  1-N , 11-H ) :   0.1488
B(  1-N , 12-H ) :   0.1771 B(  2-C ,  3-C ) :   1.8187 B(  2-C ,  4-N ) :   1.0304
B(  2-C ,  8-H ) :   0.2403 B(  2-C ,  9-H ) :   0.1334 B(  3-C ,  4-N ) :   0.2119
B(  3-C ,  8-H ) :   0.6022 B(  3-C ,  9-H ) :   0.8825 B(  4-N ,  5-H ) :   0.9300
B(  4-N ,  6-H ) :   0.9455 B(  8-H ,  9-H ) :   0.1622

Dispersion correction           -0.002419930
FINAL SINGLE POINT ENERGY      -228.385218483788

DIPOLE MOMENT
-------------
                                X             Y             Z
Electronic contribution:      1.85180       0.52056      -2.13575
Nuclear contribution   :     -0.87840       0.81693       2.92070
                        -----------------------------------------
Total Dipole Moment    :      0.97340       1.33749       0.78495
                        -----------------------------------------
Magnitude (a.u.)       :      1.83100
Magnitude (Debye)      :      4.65402

Rotational constants in cm-1:     0.323282     0.134248     0.100848
Rotational constants in MHz :  9691.753357  4024.663509  3023.338831

                             ****ORCA TERMINATED NORMALLY****
TOTAL RUN TIME: 0 days 0 hours 0 minutes 10 seconds 87 msec
