                         Program Version 5.0.0 -  RELEASE  -
|  1> !wB97X-D3 RIJCOSX def2-SVPD def2/J TightSCF CPCM(Water)
|  2> *xyz 0 1
|  3> C          2.23447       -2.98975       -2.39762
|  4> N          2.75680       -2.94555       -3.76503
|  5> C          1.98721       -2.59045       -4.81898
|  6> N          0.74322       -3.01749       -4.91352
|  7> C          2.49964       -1.84860       -5.80324
|  8> H          3.30978       -1.29282       -5.55895
|  9> H          1.80103       -1.30430       -6.28913
| 10> H          3.71612       -2.62880       -3.82953
| 11> H          0.39583       -3.62775       -4.18502
| 12> H          0.03920       -2.45438       -5.37137
| 13> H          1.22098       -3.33251       -2.41386
| 14> H          2.27280       -2.00995       -1.96933
| 15> H          2.82798       -3.65908       -1.81056
| 16> *
| 17>
| 18> %MaxCore 64000
| 19>
| 20> %pal nprocs 18
| 21> end
| 22>
| 23> %scf
| 24>   MaxIter 150
| 25> end
| 26>
| 27>
| 28>                          ****END OF INPUT****

CARTESIAN COORDINATES (ANGSTROEM)
---------------------------------
  C      2.234470   -2.989750   -2.397620
  N      2.756800   -2.945550   -3.765030
  C      1.987210   -2.590450   -4.818980
  N      0.743220   -3.017490   -4.913520
  C      2.499640   -1.848600   -5.803240
  H      3.309780   -1.292820   -5.558950
  H      1.801030   -1.304300   -6.289130
  H      3.716120   -2.628800   -3.829530
  H      0.395830   -3.627750   -4.185020
  H      0.039200   -2.454380   -5.371370
  H      1.220980   -3.332510   -2.413860
  H      2.272800   -2.009950   -1.969330
  H      2.827980   -3.659080   -1.810560

 Total Charge           Charge          ....    0
 Multiplicity           Mult            ....    1
 Number of Electrons    NEL             ....   40
 Basis Dimension        Dim             ....  164

ORBITAL ENERGIES
----------------

  NO   OCC          E(Eh)            E(eV)
   0   2.0000     -14.439628      -392.9222
   1   2.0000     -14.437669      -392.8689
   2   2.0000     -10.351255      -281.6720
   3   2.0000     -10.309345      -280.5315
   4   2.0000     -10.209888      -277.8252
   5   2.0000      -1.081002       -29.4156
   6   2.0000      -0.992180       -26.9986
   7   2.0000      -0.851828       -23.1794
   8   2.0000      -0.778838       -21.1933
   9   2.0000      -0.703413       -19.1408
  10   2.0000      -0.640889       -17.4395
  11   2.0000      -0.590589       -16.0707
  12   2.0000      -0.579255       -15.7623
  13   2.0000      -0.542219       -14.7545
  14   2.0000      -0.494136       -13.4461
  15   2.0000      -0.490050       -13.3349
  16   2.0000      -0.474018       -12.8987
  17   2.0000      -0.463752       -12.6193
  18   2.0000      -0.349974        -9.5233
  19   2.0000      -0.272052        -7.4029
  20   0.0000       0.093362         2.5405
  21   0.0000       0.117284         3.1915
  22   0.0000       0.125772         3.4224
  23   0.0000       0.140597         3.8258
  24   0.0000       0.157577         4.2879

MULLIKEN ATOMIC CHARGES
-----------------------
   0 C :    1.048859
   1 N :   -0.663239
   2 C :    0.184003
   3 N :    0.107396
   4 C :    0.435148
   5 H :   -0.167525
   6 H :   -0.388016
   7 H :   -0.087655
   8 H :   -0.055071
   9 H :   -0.021285
  10 H :   -0.161704
  11 H :   -0.067106
  12 H :   -0.163805
Sum of atomic charges:    0.0000000

LOEWDIN ATOMIC CHARGES
----------------------
   0 C :    0.215822
   1 N :   -0.041903
   2 C :   -0.252723
   3 N :    0.198402
   4 C :    0.092148
   5 H :   -0.114777
   6 H :   -0.114480
   7 H :    0.032716
   8 H :   -0.001195
   9 H :    0.028835
  10 H :   -0.023567
  11 H :   -0.008985
  12 H :   -0.010293

  Mayer bond orders larger than 0.100000
B(  0-C ,  1-N ) :   0.8483 B(  0-C , 10-H ) :   0.8398 B(  0-C , 11-H ) :   0.8297
B(  0-C , 12-H ) :   0.8232 B(  1-N ,  2-C ) :   1.0614 B(  1-N ,  4-C ) :   0.1551
B(  1-N ,  7-H ) :   1.1663 B(  1-N , 10-H ) :   0.1387 B(  1-N , 11-H ) :   0.1073
B(  1-N , 12-H ) :   0.1869 B(  2-C ,  3-N ) :   1.1238 B(  2-C ,  4-C ) :   1.9254
B(  2-C ,  5-H ) :   0.2248 B(  2-C ,  6-H ) :   0.2514 B(  3-N ,  4-C ) :   0.1853
B(  3-N ,  8-H ) :   0.9849 B(  3-N ,  9-H ) :   1.1369 B(  4-C ,  5-H ) :   0.7734
B(  4-C ,  6-H ) :   0.7221 B(  5-H ,  6-H ) :   0.2615 B(  8-H ,  9-H ) :  -0.1417

Dispersion correction           -0.002432462
FINAL SINGLE POINT ENERGY      -228.381482557831

DIPOLE MOMENT
-------------
                                X             Y             Z
Electronic contribution:     -0.36785      -1.02976      -0.94747
Nuclear contribution   :     -0.52265       1.05368       2.74049
                        -----------------------------------------
Total Dipole Moment    :     -0.89049       0.02392       1.79303
                        -----------------------------------------
Magnitude (a.u.)       :      2.00212
Magnitude (Debye)      :      5.08899

Rotational constants in cm-1:     0.310125     0.138772     0.101978
Rotational constants in MHz :  9297.312912  4160.277024  3057.230514

                             ****ORCA TERMINATED NORMALLY****
TOTAL RUN TIME: 0 days 0 hours 0 minutes 9 seconds 868 msec
