                         Program Version 5.0.0 -  RELEASE  -
|  1> !wB97X-D3 RIJCOSX def2-SVPD def2/J TightSCF CPCM(Water) xyzfile
|  2>
|  3> *xyzfile 0 1 D4.xyz
|  4>
|  5> %MaxCore 64000
|  6>
|  7> %pal nprocs 18
|  8> end
|  9>
| 10> %scf
| 11>   MaxIter 150
| 12> end
| 13>
| 14>
| 15>                          ****END OF INPUT****

CARTESIAN COORDINATES (ANGSTROEM)
---------------------------------
  C      2.234473   -2.989754   -2.397622
  C      2.756799   -2.945553   -3.765029
  C     -1.104325    0.251374   -2.860056
  C     -0.711893    0.842517   -4.218344
  H      0.154626    1.499800   -4.130909
  H     -1.538134    1.459222   -4.582671
  C     -0.397624   -0.205875   -5.288018
  C      1.987208   -2.590451   -4.818975
  N      0.743221   -3.017493   -4.913524
  N      2.499636   -1.848598   -5.803241
  H      3.309780   -1.292818   -5.558947
  H      1.801025   -1.304298   -6.289129
  H      3.716116   -2.628797   -3.829533
  H      0.395828   -3.627747   -4.185024
  H      0.039201   -2.454383   -5.371367
  O      0.617165   -0.005348   -5.998273
  F     -1.133173   -1.221380   -5.341465
  C      2.191199   -1.619503   -1.715492
  H      2.872783   -3.666368   -1.828014
  H      1.246188   -3.447444   -2.407842
  C      1.298729   -0.554314   -2.359773
  H      1.872917   -1.787955   -0.681310
  H      3.216809   -1.238432   -1.654428
  C     -0.196255   -0.863365   -2.325763
  H      1.612531   -0.371346   -3.393065
  H      1.480944    0.388638   -1.834444
  H     -0.404105   -1.761825   -2.909448
  H     -0.490439   -1.087880   -1.294131
  H     -1.143842    1.066711   -2.129680
  H     -2.114401   -0.156834   -2.930323

 Total Charge           Charge          ....    0
 Multiplicity           Mult            ....    1
 Number of Electrons    NEL             ....  102
 Basis Dimension        Dim             ....  402

ORBITAL ENERGIES
----------------

  NO   OCC          E(Eh)            E(eV)
   0   2.0000     -24.896861      -677.4780
   1   2.0000     -19.277941      -524.5795
   2   2.0000     -14.431296      -392.6955
   3   2.0000     -14.420454      -392.4005
   4   2.0000     -10.494149      -285.5603
   5   2.0000     -10.339991      -281.3655
   6   2.0000     -10.313979      -280.6576
   7   2.0000     -10.293676      -280.1052
   8   2.0000     -10.280922      -279.7581
   9   2.0000     -10.276757      -279.6448
  10   2.0000     -10.271706      -279.5073
  11   2.0000     -10.267117      -279.3825
  12   2.0000     -10.212325      -277.8915
  13   2.0000      -1.448931       -39.4274
  14   2.0000      -1.169452       -31.8224
  15   2.0000      -1.074091       -29.2275
  16   2.0000      -0.976560       -26.5736
  17   2.0000      -0.931793       -25.3554
  18   2.0000      -0.898405       -24.4468
  19   2.0000      -0.858466       -23.3600
  20   2.0000      -0.808519       -22.0009
  21   2.0000      -0.789771       -21.4908
  22   2.0000      -0.760895       -20.7050
  23   2.0000      -0.715045       -19.4574
  24   2.0000      -0.698218       -18.9995
  25   2.0000      -0.683944       -18.6111
  26   2.0000      -0.670517       -18.2457
  27   2.0000      -0.666022       -18.1234
  28   2.0000      -0.624697       -16.9989
  29   2.0000      -0.620655       -16.8889
  30   2.0000      -0.593494       -16.1498
  31   2.0000      -0.576050       -15.6751
  32   2.0000      -0.565295       -15.3825
  33   2.0000      -0.555207       -15.1080
  34   2.0000      -0.539332       -14.6760
  35   2.0000      -0.531945       -14.4750
  36   2.0000      -0.522778       -14.2255
  37   2.0000      -0.499331       -13.5875
  38   2.0000      -0.491654       -13.3786
  39   2.0000      -0.487491       -13.2653
  40   2.0000      -0.477687       -12.9985
  41   2.0000      -0.463674       -12.6172
  42   2.0000      -0.450044       -12.2463
  43   2.0000      -0.433719       -11.8021
  44   2.0000      -0.431229       -11.7344
  45   2.0000      -0.416050       -11.3213
  46   2.0000      -0.404647       -11.0110
  47   2.0000      -0.398617       -10.8469
  48   2.0000      -0.395338       -10.7577
  49   2.0000      -0.361520        -9.8375
  50   2.0000      -0.249075        -6.7777
  51   0.0000       0.036319         0.9883
  52   0.0000       0.090597         2.4653
  53   0.0000       0.105548         2.8721
  54   0.0000       0.109275         2.9735
  55   0.0000       0.111469         3.0332

MULLIKEN ATOMIC CHARGES
-----------------------
   0 C :    0.246623
   1 C :   -0.093837
   2 C :    0.440251
   3 C :    0.050242
   4 H :    0.239589
   5 H :   -0.135338
   6 C :    0.674557
   7 C :    0.241862
   8 N :    0.190529
   9 N :   -0.010821
  10 H :    0.184882
  11 H :   -0.128302
  12 H :   -0.181437
  13 H :    0.133507
  14 H :   -0.399895
  15 O :   -0.512854
  16 F :   -0.474318
  17 C :    0.428114
  18 H :   -0.151338
  19 H :   -0.129084
  20 C :   -0.051351
  21 H :   -0.003999
  22 H :   -0.074433
  23 C :   -0.033749
  24 H :   -0.116576
  25 H :   -0.102921
  26 H :   -0.181358
  27 H :   -0.090501
  28 H :   -0.040778
  29 H :    0.082733
Sum of atomic charges:    0.0000000

LOEWDIN ATOMIC CHARGES
----------------------
   0 C :   -0.071624
   1 C :   -0.048358
   2 C :   -0.015318
   3 C :    0.069311
   4 H :    0.040785
   5 H :    0.052980
   6 C :    0.045846
   7 C :   -0.238615
   8 N :    0.232186
   9 N :    0.202644
  10 H :    0.018439
  11 H :   -0.091127
  12 H :   -0.065367
  13 H :    0.014274
  14 H :   -0.061084
  15 O :   -0.148923
  16 F :   -0.021415
  17 C :   -0.027109
  18 H :    0.006799
  19 H :   -0.004130
  20 C :   -0.024482
  21 H :    0.018779
  22 H :    0.022552
  23 C :   -0.026739
  24 H :    0.003037
  25 H :    0.028807
  26 H :   -0.006315
  27 H :    0.031714
  28 H :    0.033323
  29 H :    0.029126

  Mayer bond orders larger than 0.100000
B(  0-C ,  1-C ) :   1.1860 B(  0-C ,  7-C ) :   0.1283 B(  0-C , 12-H ) :   0.3537
B(  0-C , 17-C ) :   1.1288 B(  0-C , 18-H ) :   0.7429 B(  0-C , 19-H ) :   0.7960
B(  0-C , 21-H ) :   0.1972 B(  0-C , 22-H ) :   0.1818 B(  1-C ,  7-C ) :   1.6990
B(  1-C ,  8-N ) :   0.1371 B(  1-C ,  9-N ) :   0.2963 B(  1-C , 12-H ) :   0.5455
B(  1-C , 18-H ) :   0.2011 B(  1-C , 19-H ) :   0.1984 B(  2-C ,  3-C ) :   1.1762
B(  2-C ,  5-H ) :   0.1641 B(  2-C , 23-C ) :   1.2535 B(  2-C , 28-H ) :   0.8209
B(  2-C , 29-H ) :   0.6735 B(  3-C ,  4-H ) :   0.8150 B(  3-C ,  5-H ) :   0.8368
B(  3-C ,  6-C ) :   1.1956 B(  3-C , 28-H ) :   0.1275 B(  4-H ,  6-C ) :   0.1723
B(  5-H ,  6-C ) :   0.1923 B(  6-C , 15-O ) :   1.6606 B(  6-C , 16-F ) :   0.5796
B(  7-C ,  8-N ) :   1.0173 B(  7-C ,  9-N ) :   0.9281 B(  7-C , 11-H ) :   0.1465
B(  7-C , 12-H ) :   0.3692 B(  8-N ,  9-N ) :   0.1074 B(  8-N , 13-H ) :   0.8654
B(  8-N , 14-H ) :   1.1327 B(  9-N , 10-H ) :   0.8187 B(  9-N , 11-H ) :   0.7754
B( 11-H , 15-O ) :   0.1270 B( 13-H , 14-H ) :  -0.2060 B( 17-C , 19-H ) :   0.1062
B( 17-C , 20-C ) :   1.2220 B( 17-C , 21-H ) :   0.7741 B( 17-C , 22-H ) :   0.7024
B( 17-C , 24-H ) :   0.1002 B( 20-C , 21-H ) :   0.1496 B( 20-C , 22-H ) :   0.2652
B( 20-C , 23-C ) :   1.2714 B( 20-C , 24-H ) :   0.9316 B( 20-C , 25-H ) :   0.8104
B( 20-C , 26-H ) :   0.1315 B( 20-C , 27-H ) :   0.2051 B( 21-H , 22-H ) :  -0.1240
B( 23-C , 24-H ) :   0.1311 B( 23-C , 25-H ) :   0.2023 B( 23-C , 26-H ) :   0.9167
B( 23-C , 27-H ) :   0.8127 B( 23-C , 28-H ) :   0.1598 B( 23-C , 29-H ) :   0.2345
B( 28-H , 29-H ) :  -0.1023

Dispersion correction           -0.015911782
FINAL SINGLE POINT ENERGY      -637.152479155045

DIPOLE MOMENT
-------------
                                X             Y             Z
Electronic contribution:     -6.71976       0.72332     -13.18015
Nuclear contribution   :      4.38568       1.15960      13.97148
                        -----------------------------------------
Total Dipole Moment    :     -2.33408       1.88292       0.79133
                        -----------------------------------------
Magnitude (a.u.)       :      3.10154
Magnitude (Debye)      :      7.88348

Rotational constants in cm-1:     0.032892     0.023844     0.017123
Rotational constants in MHz :   986.091711   714.821905   513.334630

                             ****ORCA TERMINATED NORMALLY****
TOTAL RUN TIME: 0 days 0 hours 1 minutes 8 seconds 581 msec
