                         Program Version 5.0.0 -  RELEASE  -
|  1> !wB97X-D3 RIJCOSX def2-SVPD def2/J TightSCF CPCM(Water) xyzfile
|  2>
|  3> *xyzfile 0 1 D5.xyz
|  4>
|  5> %MaxCore 64000
|  6>
|  7> %pal nprocs 18
|  8> end
|  9>
| 10> %scf
| 11>   MaxIter 150
| 12> end
| 13>
| 14>
| 15>                          ****END OF INPUT****

CARTESIAN COORDINATES (ANGSTROEM)
---------------------------------
  C      2.234473   -2.989754   -2.397622
  N      2.756799   -2.945553   -3.765029
  C     -1.104325    0.251374   -2.860056
  C     -0.711893    0.842517   -4.218344
  H      0.154626    1.499800   -4.130909
  H     -1.538134    1.459222   -4.582671
  C     -0.397624   -0.205875   -5.288018
  C      1.987208   -2.590451   -4.818975
  C      0.743221   -3.017493   -4.913524
  N      2.499636   -1.848598   -5.803241
  H      3.309780   -1.292818   -5.558947
  H      1.801025   -1.304298   -6.289129
  H      3.716116   -2.628797   -3.829533
  H      0.395828   -3.627747   -4.185024
  H      0.039201   -2.454383   -5.371367
  O      0.617165   -0.005348   -5.998273
  F     -1.133173   -1.221380   -5.341465
  C      2.191199   -1.619503   -1.715492
  H      2.872783   -3.666368   -1.828014
  H      1.246188   -3.447444   -2.407842
  C      1.298729   -0.554314   -2.359773
  H      1.872917   -1.787955   -0.681310
  H      3.216809   -1.238432   -1.654428
  C     -0.196255   -0.863365   -2.325763
  H      1.612531   -0.371346   -3.393065
  H      1.480944    0.388638   -1.834444
  H     -0.404105   -1.761825   -2.909448
  H     -0.490439   -1.087880   -1.294131
  H     -1.143842    1.066711   -2.129680
  H     -2.114401   -0.156834   -2.930323

 Total Charge           Charge          ....    0
 Multiplicity           Mult            ....    1
 Number of Electrons    NEL             ....  102
 Basis Dimension        Dim             ....  402

ORBITAL ENERGIES
----------------

  NO   OCC          E(Eh)            E(eV)
   0   2.0000     -24.881759      -677.0671
   1   2.0000     -19.270421      -524.3748
   2   2.0000     -14.433759      -392.7625
   3   2.0000     -14.419430      -392.3726
   4   2.0000     -10.487253      -285.3726
   5   2.0000     -10.338483      -281.3244
   6   2.0000     -10.313244      -280.6376
   7   2.0000     -10.311002      -280.5766
   8   2.0000     -10.292288      -280.0674
   9   2.0000     -10.280476      -279.7460
  10   2.0000     -10.279882      -279.7298
  11   2.0000     -10.278909      -279.7033
  12   2.0000     -10.203099      -277.6404
  13   2.0000      -1.435171       -39.0530
  14   2.0000      -1.161972       -31.6189
  15   2.0000      -1.071966       -29.1697
  16   2.0000      -0.988016       -26.8853
  17   2.0000      -0.927950       -25.2508
  18   2.0000      -0.887318       -24.1451
  19   2.0000      -0.841630       -22.9019
  20   2.0000      -0.818891       -22.2832
  21   2.0000      -0.791732       -21.5441
  22   2.0000      -0.766509       -20.8578
  23   2.0000      -0.717789       -19.5320
  24   2.0000      -0.690869       -18.7995
  25   2.0000      -0.675501       -18.3813
  26   2.0000      -0.659689       -17.9511
  27   2.0000      -0.647739       -17.6259
  28   2.0000      -0.637568       -17.3491
  29   2.0000      -0.619212       -16.8496
  30   2.0000      -0.591020       -16.0825
  31   2.0000      -0.577685       -15.7196
  32   2.0000      -0.565136       -15.3781
  33   2.0000      -0.547102       -14.8874
  34   2.0000      -0.537050       -14.6139
  35   2.0000      -0.521537       -14.1917
  36   2.0000      -0.509334       -13.8597
  37   2.0000      -0.503653       -13.7051
  38   2.0000      -0.494789       -13.4639
  39   2.0000      -0.489690       -13.3251
  40   2.0000      -0.471609       -12.8331
  41   2.0000      -0.461517       -12.5585
  42   2.0000      -0.452917       -12.3245
  43   2.0000      -0.447162       -12.1679
  44   2.0000      -0.441603       -12.0166
  45   2.0000      -0.418900       -11.3989
  46   2.0000      -0.413384       -11.2488
  47   2.0000      -0.402657       -10.9569
  48   2.0000      -0.395570       -10.7640
  49   2.0000      -0.339288        -9.2325
  50   2.0000      -0.267604        -7.2819
  51   0.0000       0.043548         1.1850
  52   0.0000       0.091514         2.4902
  53   0.0000       0.105468         2.8699
  54   0.0000       0.107913         2.9365
  55   0.0000       0.110318         3.0019

MULLIKEN ATOMIC CHARGES
-----------------------
   0 C :    0.761834
   1 N :   -0.493454
   2 C :    0.461289
   3 C :    0.048529
   4 H :    0.216126
   5 H :   -0.144293
   6 C :    0.619351
   7 C :    0.389137
   8 C :    0.761055
   9 N :    0.019994
  10 H :    0.125030
  11 H :   -0.136668
  12 H :   -0.122588
  13 H :   -0.058361
  14 H :   -0.767306
  15 O :   -0.516443
  16 F :   -0.517457
  17 C :    0.284155
  18 H :   -0.310468
  19 H :    0.028903
  20 C :   -0.040087
  21 H :    0.052346
  22 H :   -0.038565
  23 C :   -0.102302
  24 H :   -0.181354
  25 H :   -0.127393
  26 H :   -0.158929
  27 H :   -0.095980
  28 H :   -0.042573
  29 H :    0.086471
Sum of atomic charges:    0.0000000

LOEWDIN ATOMIC CHARGES
----------------------
   0 C :    0.060444
   1 N :   -0.003487
   2 C :   -0.015033
   3 C :    0.067567
   4 H :    0.039121
   5 H :    0.051320
   6 C :    0.044327
   7 C :   -0.240593
   8 C :    0.144009
   9 N :    0.199390
  10 H :    0.010395
  11 H :   -0.085607
  12 H :    0.029639
  13 H :   -0.096054
  14 H :   -0.147045
  15 O :   -0.154932
  16 F :   -0.037979
  17 C :   -0.014712
  18 H :    0.022612
  19 H :    0.006704
  20 C :   -0.023195
  21 H :    0.026049
  22 H :    0.024161
  23 C :   -0.025292
  24 H :    0.003186
  25 H :    0.030066
  26 H :   -0.007164
  27 H :    0.031328
  28 H :    0.032163
  29 H :    0.028610

  Mayer bond orders larger than 0.100000
B(  0-C ,  1-N ) :   0.8797 B(  0-C , 17-C ) :   1.1030 B(  0-C , 18-H ) :   0.8489
B(  0-C , 19-H ) :   0.7711 B(  0-C , 21-H ) :   0.1511 B(  0-C , 22-H ) :   0.1202
B(  1-N ,  7-C ) :   1.0023 B(  1-N ,  8-C ) :   0.2903 B(  1-N ,  9-N ) :   0.1447
B(  1-N , 12-H ) :   1.0875 B(  1-N , 18-H ) :   0.1866 B(  1-N , 19-H ) :   0.1200
B(  2-C ,  3-C ) :   1.1681 B(  2-C ,  5-H ) :   0.1634 B(  2-C , 23-C ) :   1.2615
B(  2-C , 28-H ) :   0.8135 B(  2-C , 29-H ) :   0.6730 B(  3-C ,  4-H ) :   0.8348
B(  3-C ,  5-H ) :   0.8164 B(  3-C ,  6-C ) :   1.2133 B(  3-C , 28-H ) :   0.1306
B(  4-H ,  6-C ) :   0.1788 B(  5-H ,  6-C ) :   0.2111 B(  6-C , 14-H ) :   0.1413
B(  6-C , 15-O ) :   1.6397 B(  6-C , 16-F ) :   0.6193 B(  7-C ,  8-C ) :   1.8568
B(  7-C ,  9-N ) :   0.8375 B(  7-C , 13-H ) :   0.3296 B(  7-C , 14-H ) :   0.2034
B(  8-C ,  9-N ) :   0.2149 B(  8-C , 13-H ) :   0.3636 B(  8-C , 14-H ) :   0.1787
B(  9-N , 10-H ) :   0.8185 B(  9-N , 11-H ) :   0.8846 B( 11-H , 15-O ) :   0.1233
B( 14-H , 16-F ) :   0.2362 B( 17-C , 18-H ) :   0.1009 B( 17-C , 19-H ) :   0.1214
B( 17-C , 20-C ) :   1.2112 B( 17-C , 21-H ) :   0.7998 B( 17-C , 22-H ) :   0.7541
B( 17-C , 24-H ) :   0.1106 B( 18-H , 19-H ) :  -0.1235 B( 20-C , 21-H ) :   0.1616
B( 20-C , 22-H ) :   0.2301 B( 20-C , 23-C ) :   1.2732 B( 20-C , 24-H ) :   0.9411
B( 20-C , 25-H ) :   0.8523 B( 20-C , 26-H ) :   0.1440 B( 20-C , 27-H ) :   0.2265
B( 23-C , 24-H ) :   0.1435 B( 23-C , 25-H ) :   0.2116 B( 23-C , 26-H ) :   0.9461
B( 23-C , 27-H ) :   0.7958 B( 23-C , 28-H ) :   0.1620 B( 23-C , 29-H ) :   0.2297
B( 28-H , 29-H ) :  -0.1062

Dispersion correction           -0.015816978
FINAL SINGLE POINT ENERGY      -637.141439694957

DIPOLE MOMENT
-------------
                                X             Y             Z
Electronic contribution:     -4.36540       0.78411     -11.79607
Nuclear contribution   :      4.07548       1.14852      13.79455
                        -----------------------------------------
Total Dipole Moment    :     -0.28991       1.93263       1.99848
                        -----------------------------------------
Magnitude (a.u.)       :      2.79518
Magnitude (Debye)      :      7.10479

Rotational constants in cm-1:     0.033274     0.023559     0.016968
Rotational constants in MHz :   997.539108   706.293545   508.690532

                             ****ORCA TERMINATED NORMALLY****
TOTAL RUN TIME: 0 days 0 hours 1 minutes 1 seconds 734 msec
