                         Program Version 5.0.0 -  RELEASE  -
|  1> !LC-PBE RIJCOSX def2-TZVP def2/J TightSCF
|  2> *xyz -1 1
|  3> C         -0.10608        1.76991       -4.08984
|  4> C         -0.25875        1.00432       -5.40983
|  5> C          0.39596       -0.37070       -5.33994
|  6> H          0.23915        1.56939       -6.20125
|  7> H         -1.30936        0.88869       -5.68245
|  8> O         -0.32633       -1.39040       -5.49128
|  9> O          1.61941       -0.40073       -5.03683
| 10> H         -0.57627        2.72718       -4.17630
| 11> H          0.93321        1.90140       -3.87192
| 12> H         -0.56868        1.21534       -3.30031
| 13> *
| 14> %MaxCore 64000
| 15>
| 16> %pal nprocs 4
| 17> end
| 18>
| 19> %scf
| 20>   MaxIter 150
| 21> end
| 22>
| 23>
| 24>                          ****END OF INPUT****

CARTESIAN COORDINATES (ANGSTROEM)
---------------------------------
  C     -0.106080    1.769910   -4.089840
  C     -0.258750    1.004320   -5.409830
  C      0.395960   -0.370700   -5.339940
  H      0.239150    1.569390   -6.201250
  H     -1.309360    0.888690   -5.682450
  O     -0.326330   -1.390400   -5.491280
  O      1.619410   -0.400730   -5.036830
  H     -0.576270    2.727180   -4.176300
  H      0.933210    1.901400   -3.871920
  H     -0.568680    1.215340   -3.300310

 Total Charge           Charge          ....   -1
 Multiplicity           Mult            ....    1
 Number of Electrons    NEL             ....   40
 Basis Dimension        Dim             ....  185

ORBITAL ENERGIES
----------------

  NO   OCC          E(Eh)            E(eV)
   0   2.0000     -18.699037      -508.8267
   1   2.0000     -18.697590      -508.7873
   2   2.0000      -9.995089      -271.9802
   3   2.0000      -9.948711      -270.7182
   4   2.0000      -9.939099      -270.4566
   5   2.0000      -0.978871       -26.6364
   6   2.0000      -0.875139       -23.8137
   7   2.0000      -0.781269       -21.2594
   8   2.0000      -0.637395       -17.3444
   9   2.0000      -0.468336       -12.7441
  10   2.0000      -0.436686       -11.8828
  11   2.0000      -0.399863       -10.8808
  12   2.0000      -0.369488       -10.0543
  13   2.0000      -0.348956        -9.4956
  14   2.0000      -0.342534        -9.3208
  15   2.0000      -0.307359        -8.3637
  16   2.0000      -0.293893        -7.9972
  17   2.0000      -0.168548        -4.5864
  18   2.0000      -0.166348        -4.5265
  19   2.0000      -0.153955        -4.1893
  20   0.0000       0.266186         7.2433
  21   0.0000       0.307662         8.3719
  22   0.0000       0.329282         8.9602
  23   0.0000       0.331611         9.0236
  24   0.0000       0.350446         9.5361

MULLIKEN ATOMIC CHARGES
-----------------------
   0 C :   -0.428213
   1 C :   -0.219763
   2 C :    0.157161
   3 H :    0.080255
   4 H :    0.087111
   5 O :   -0.512712
   6 O :   -0.521986
   7 H :    0.091331
   8 H :    0.141014
   9 H :    0.125802
Sum of atomic charges:   -1.0000000

LOEWDIN ATOMIC CHARGES
----------------------
   0 C :   -0.343022
   1 C :   -0.303870
   2 C :   -0.706261
   3 H :    0.131224
   4 H :    0.127292
   5 O :   -0.121389
   6 O :   -0.124510
   7 H :    0.101350
   8 H :    0.121640
   9 H :    0.117546

  Mayer bond orders larger than 0.100000
B(  0-C ,  1-C ) :   0.9490 B(  0-C ,  7-H ) :   0.9797 B(  0-C ,  8-H ) :   0.9682
B(  0-C ,  9-H ) :   0.9807 B(  1-C ,  2-C ) :   0.9429 B(  1-C ,  3-H ) :   0.9683
B(  1-C ,  4-H ) :   0.9668 B(  2-C ,  5-O ) :   1.9012 B(  2-C ,  6-O ) :   1.8443

FINAL SINGLE POINT ENERGY      -267.151737657038

DIPOLE MOMENT
-------------
                                X             Y             Z
Electronic contribution:      1.71579      -5.26762      -1.70648
Nuclear contribution   :     -2.46071       7.20791       1.95694
                        -----------------------------------------
Total Dipole Moment    :     -0.74492       1.94029       0.25046
                        -----------------------------------------
Magnitude (a.u.)       :      2.09341
Magnitude (Debye)      :      5.32103

Rotational constants in cm-1:     0.309435     0.135317     0.107436
Rotational constants in MHz :  9276.637721  4056.700783  3220.846587

                             ****ORCA TERMINATED NORMALLY****
TOTAL RUN TIME: 0 days 0 hours 0 minutes 23 seconds 234 msec
