                         Program Version 5.0.0 -  RELEASE  -
|  1> !LC-PBE RIJCOSX def2-TZVP def2/J TightSCF
|  2> *xyz 1 1
|  3> C          0.81607       -2.10149       -2.18655
|  4> H          1.69623       -2.36869       -1.60046
|  5> N          1.10055       -2.46749       -3.59927
|  6> C          0.51624       -0.61363       -2.03937
|  7> H         -0.02007       -2.71285       -1.84084
|  8> H          1.70061       -1.75723       -4.07838
|  9> H          0.29386       -2.35977       -4.25632
| 10> H          1.50132       -3.42848       -3.69491
| 11> H         -0.34841       -0.36504       -2.61858
| 12> H          1.35358       -0.04503       -2.38643
| 13> H          0.33317       -0.38682       -1.00984
| 14> *
| 15> %MaxCore 64000
| 16>
| 17> %pal nprocs 4
| 18> end
| 19>
| 20> %scf
| 21>   MaxIter 150
| 22> end
| 23>
| 24>
| 25>                          ****END OF INPUT****

CARTESIAN COORDINATES (ANGSTROEM)
---------------------------------
  C      0.816070   -2.101490   -2.186550
  H      1.696230   -2.368690   -1.600460
  N      1.100550   -2.467490   -3.599270
  C      0.516240   -0.613630   -2.039370
  H     -0.020070   -2.712850   -1.840840
  H      1.700610   -1.757230   -4.078380
  H      0.293860   -2.359770   -4.256320
  H      1.501320   -3.428480   -3.694910
  H     -0.348410   -0.365040   -2.618580
  H      1.353580   -0.045030   -2.386430
  H      0.333170   -0.386820   -1.009840

 Total Charge           Charge          ....    1
 Multiplicity           Mult            ....    1
 Number of Electrons    NEL             ....   26
 Basis Dimension        Dim             ....  141

ORBITAL ENERGIES
----------------

  NO   OCC          E(Eh)            E(eV)
   0   2.0000     -14.553019      -396.0078
   1   2.0000     -10.369770      -282.1758
   2   2.0000     -10.287384      -279.9340
   3   2.0000      -1.384822       -37.6829
   4   2.0000      -1.139962       -31.0199
   5   2.0000      -1.012466       -27.5506
   6   2.0000      -0.936953       -25.4958
   7   2.0000      -0.921038       -25.0627
   8   2.0000      -0.844790       -22.9879
   9   2.0000      -0.778501       -21.1841
  10   2.0000      -0.717531       -19.5250
  11   2.0000      -0.701416       -19.0865
  12   2.0000      -0.680062       -18.5054
  13   0.0000      -0.107324        -2.9204
  14   0.0000      -0.045875        -1.2483
  15   0.0000      -0.043457        -1.1825
  16   0.0000      -0.024709        -0.6724
  17   0.0000       0.018881         0.5138

MULLIKEN ATOMIC CHARGES
-----------------------
   0 C :   -0.258916
   1 H :    0.217560
   2 N :   -0.337407
   3 C :   -0.468307
   4 H :    0.221018
   5 H :    0.343397
   6 H :    0.347048
   7 H :    0.363134
   8 H :    0.180950
   9 H :    0.181465
  10 H :    0.210058
Sum of atomic charges:    1.0000000

LOEWDIN ATOMIC CHARGES
----------------------
   0 C :   -0.299180
   1 H :    0.161163
   2 N :    0.140258
   3 C :   -0.299984
   4 H :    0.160929
   5 H :    0.235878
   6 H :    0.235066
   7 H :    0.238049
   8 H :    0.137054
   9 H :    0.136519
  10 H :    0.154248

  Mayer bond orders larger than 0.100000
B(  0-C ,  1-H ) :   0.9472 B(  0-C ,  2-N ) :   0.8621 B(  0-C ,  3-C ) :   0.9810
B(  0-C ,  4-H ) :   0.9487 B(  2-N ,  5-H ) :   0.8671 B(  2-N ,  6-H ) :   0.8664
B(  2-N ,  7-H ) :   0.8582 B(  3-C ,  8-H ) :   0.9551 B(  3-C ,  9-H ) :   0.9536
B(  3-C , 10-H ) :   0.9525

FINAL SINGLE POINT ENERGY      -135.125933267589

DIPOLE MOMENT
-------------
                                X             Y             Z
Electronic contribution:      0.42751      -1.45251      -1.10610
Nuclear contribution   :     -0.07506       0.54337      -0.16191
                        -----------------------------------------
Total Dipole Moment    :      0.35245      -0.90914      -1.26801
                        -----------------------------------------
Magnitude (a.u.)       :      1.59957
Magnitude (Debye)      :      4.06577

Rotational constants in cm-1:     0.999557     0.280801     0.246932
Rotational constants in MHz : 29965.963633  8418.199581  7402.841054

                             ****ORCA TERMINATED NORMALLY****
TOTAL RUN TIME: 0 days 0 hours 0 minutes 14 seconds 599 msec
