                         Program Version 5.0.0 -  RELEASE  -
|  1> !LC-PBE RIJCOSX def2-TZVP def2/J TightSCF
|  2> *xyz 0 1
|  3> C         -0.10608        1.76991       -4.08984
|  4> C         -0.25875        1.00432       -5.40983
|  5> C          0.39596       -0.37070       -5.33994
|  6> H          0.23915        1.56939       -6.20125
|  7> H         -1.30936        0.88869       -5.68245
|  8> F         -0.32633       -1.39040       -5.49128
|  9> O          1.61941       -0.40073       -5.03683
| 10> H         -0.57627        2.72718       -4.17630
| 11> H          0.93321        1.90140       -3.87192
| 12> H         -0.56868        1.21534       -3.30031
| 13> *
| 14> %MaxCore 64000
| 15>
| 16> %pal nprocs 4
| 17> end
| 18>
| 19> %scf
| 20>   MaxIter 150
| 21> end
| 22>
| 23>
| 24>                          ****END OF INPUT****

CARTESIAN COORDINATES (ANGSTROEM)
---------------------------------
  C     -0.106080    1.769910   -4.089840
  C     -0.258750    1.004320   -5.409830
  C      0.395960   -0.370700   -5.339940
  H      0.239150    1.569390   -6.201250
  H     -1.309360    0.888690   -5.682450
  F     -0.326330   -1.390400   -5.491280
  O      1.619410   -0.400730   -5.036830
  H     -0.576270    2.727180   -4.176300
  H      0.933210    1.901400   -3.871920
  H     -0.568680    1.215340   -3.300310

 Total Charge           Charge          ....    0
 Multiplicity           Mult            ....    1
 Number of Electrons    NEL             ....   40
 Basis Dimension        Dim             ....  185

ORBITAL ENERGIES
----------------

  NO   OCC          E(Eh)            E(eV)
   0   2.0000     -24.560832      -668.3342
   1   2.0000     -18.982205      -516.5321
   2   2.0000     -10.301919      -280.3295
   3   2.0000     -10.150592      -276.2116
   4   2.0000     -10.119210      -275.3577
   5   2.0000      -1.476148       -40.1680
   6   2.0000      -1.196423       -32.5563
   7   2.0000      -0.981381       -26.7047
   8   2.0000      -0.855242       -23.2723
   9   2.0000      -0.797583       -21.7033
  10   2.0000      -0.705534       -19.1986
  11   2.0000      -0.689162       -18.7531
  12   2.0000      -0.659948       -17.9581
  13   2.0000      -0.611926       -16.6513
  14   2.0000      -0.577239       -15.7075
  15   2.0000      -0.538063       -14.6414
  16   2.0000      -0.513954       -13.9854
  17   2.0000      -0.508080       -13.8256
  18   2.0000      -0.479609       -13.0508
  19   2.0000      -0.430179       -11.7058
  20   0.0000       0.067089         1.8256
  21   0.0000       0.119119         3.2414
  22   0.0000       0.158349         4.3089
  23   0.0000       0.171751         4.6736
  24   0.0000       0.185737         5.0542

MULLIKEN ATOMIC CHARGES
-----------------------
   0 C :   -0.450829
   1 C :   -0.284306
   2 C :    0.318428
   3 H :    0.166536
   4 H :    0.149938
   5 F :   -0.070869
   6 O :   -0.312489
   7 H :    0.154845
   8 H :    0.176820
   9 H :    0.151926
Sum of atomic charges:    0.0000000

LOEWDIN ATOMIC CHARGES
----------------------
   0 C :   -0.307092
   1 C :   -0.275738
   2 C :   -0.504417
   3 H :    0.163846
   4 H :    0.147233
   5 F :    0.329593
   6 O :    0.057905
   7 H :    0.126773
   8 H :    0.134105
   9 H :    0.127792

  Mayer bond orders larger than 0.100000
B(  0-C ,  1-C ) :   0.9584 B(  0-C ,  7-H ) :   0.9717 B(  0-C ,  8-H ) :   0.9614
B(  0-C ,  9-H ) :   0.9700 B(  1-C ,  2-C ) :   0.9777 B(  1-C ,  3-H ) :   0.9454
B(  1-C ,  4-H ) :   0.9627 B(  2-C ,  5-F ) :   1.2046 B(  2-C ,  6-O ) :   2.0583

FINAL SINGLE POINT ENERGY      -291.694241197142

DIPOLE MOMENT
-------------
                                X             Y             Z
Electronic contribution:      0.81133      -8.15901      -2.58288
Nuclear contribution   :     -1.80992       8.85192       2.42184
                        -----------------------------------------
Total Dipole Moment    :     -0.99860       0.69291      -0.16104
                        -----------------------------------------
Magnitude (a.u.)       :      1.22607
Magnitude (Debye)      :      3.11643

Rotational constants in cm-1:     0.298360     0.128849     0.102271
Rotational constants in MHz :  8944.606599  3862.796179  3066.020510

                             ****ORCA TERMINATED NORMALLY****
TOTAL RUN TIME: 0 days 0 hours 0 minutes 21 seconds 397 msec
