                         Program Version 5.0.0 -  RELEASE  -
|  1> !LC-PBE RIJCOSX def2-TZVP def2/J TightSCF
|  2> *xyz 0 1
|  3> C          0.81607       -2.10149       -2.18655
|  4> H          1.69623       -2.36869       -1.60046
|  5> C          1.10055       -2.46749       -3.59927
|  6> C          0.51624       -0.61363       -2.03937
|  7> H         -0.02007       -2.71285       -1.84084
|  8> H          1.70061       -1.75723       -4.07838
|  9> H          0.29386       -2.35977       -4.25632
| 10> H          1.50132       -3.42848       -3.69491
| 11> H         -0.34841       -0.36504       -2.61858
| 12> H          1.35358       -0.04503       -2.38643
| 13> H          0.33317       -0.38682       -1.00984
| 14> *
| 15> %MaxCore 64000
| 16>
| 17> %pal nprocs 4
| 18> end
| 19>
| 20> %scf
| 21>   MaxIter 150
| 22> end
| 23>
| 24>
| 25>                          ****END OF INPUT****

CARTESIAN COORDINATES (ANGSTROEM)
---------------------------------
  C      0.816070   -2.101490   -2.186550
  H      1.696230   -2.368690   -1.600460
  C      1.100550   -2.467490   -3.599270
  C      0.516240   -0.613630   -2.039370
  H     -0.020070   -2.712850   -1.840840
  H      1.700610   -1.757230   -4.078380
  H      0.293860   -2.359770   -4.256320
  H      1.501320   -3.428480   -3.694910
  H     -0.348410   -0.365040   -2.618580
  H      1.353580   -0.045030   -2.386430
  H      0.333170   -0.386820   -1.009840

 Total Charge           Charge          ....    0
 Multiplicity           Mult            ....    1
 Number of Electrons    NEL             ....   26
 Basis Dimension        Dim             ....  141

ORBITAL ENERGIES
----------------

  NO   OCC          E(Eh)            E(eV)
   0   2.0000     -10.102618      -274.9062
   1   2.0000     -10.090612      -274.5795
   2   2.0000     -10.077517      -274.2232
   3   2.0000      -0.970194       -26.4003
   4   2.0000      -0.858172       -23.3521
   5   2.0000      -0.749660       -20.3993
   6   2.0000      -0.607913       -16.5422
   7   2.0000      -0.590846       -16.0777
   8   2.0000      -0.551342       -15.0028
   9   2.0000      -0.510687       -13.8965
  10   2.0000      -0.470704       -12.8085
  11   2.0000      -0.466297       -12.6886
  12   2.0000      -0.446492       -12.1497
  13   0.0000       0.123809         3.3690
  14   0.0000       0.168507         4.5853
  15   0.0000       0.170318         4.6346
  16   0.0000       0.181249         4.9320
  17   0.0000       0.200081         5.4445

MULLIKEN ATOMIC CHARGES
-----------------------
   0 C :   -0.210824
   1 H :    0.121938
   2 C :   -0.453443
   3 C :   -0.438005
   4 H :    0.122059
   5 H :    0.139391
   6 H :    0.147993
   7 H :    0.146662
   8 H :    0.138619
   9 H :    0.141706
  10 H :    0.143906
Sum of atomic charges:    0.0000000

LOEWDIN ATOMIC CHARGES
----------------------
   0 C :   -0.340095
   1 H :    0.140364
   2 C :   -0.339735
   3 C :   -0.326986
   4 H :    0.139332
   5 H :    0.121519
   6 H :    0.119623
   7 H :    0.118456
   8 H :    0.122932
   9 H :    0.122730
  10 H :    0.121861

  Mayer bond orders larger than 0.100000
B(  0-C ,  1-H ) :   0.9751 B(  0-C ,  2-C ) :   0.9542 B(  0-C ,  3-C ) :   0.9643
B(  0-C ,  4-H ) :   0.9736 B(  2-C ,  5-H ) :   0.9764 B(  2-C ,  6-H ) :   0.9776
B(  2-C ,  7-H ) :   0.9777 B(  3-C ,  8-H ) :   0.9734 B(  3-C ,  9-H ) :   0.9743
B(  3-C , 10-H ) :   0.9813

FINAL SINGLE POINT ENERGY      -118.738234721027

DIPOLE MOMENT
-------------
                                X             Y             Z
Electronic contribution:     -0.01860      -0.30732       0.45899
Nuclear contribution   :      0.01737       0.30387      -0.47422
                        -----------------------------------------
Total Dipole Moment    :     -0.00122      -0.00345      -0.01522
                        -----------------------------------------
Magnitude (a.u.)       :      0.01566
Magnitude (Debye)      :      0.03980

Rotational constants in cm-1:     1.006891     0.295208     0.258491
Rotational constants in MHz : 30185.831813  8850.104914  7749.351732

                             ****ORCA TERMINATED NORMALLY****
TOTAL RUN TIME: 0 days 0 hours 0 minutes 14 seconds 708 msec
