                         Program Version 5.0.0 -  RELEASE  -
|  1> !LC-PBE RIJCOSX def2-TZVP def2/J TightSCF
|  2> *xyz 0 1
|  3> C         -0.10608        1.76991       -4.08984
|  4> C         -0.25875        1.00432       -5.40983
|  5> C          0.39596       -0.37070       -5.33994
|  6> H          0.23915        1.56939       -6.20125
|  7> H         -1.30936        0.88869       -5.68245
|  8> O         -0.32633       -1.39040       -5.49128
|  9> F          1.61941       -0.40073       -5.03683
| 10> H         -0.57627        2.72718       -4.17630
| 11> H          0.93321        1.90140       -3.87192
| 12> H         -0.56868        1.21534       -3.30031
| 13> *
| 14> %MaxCore 64000
| 15>
| 16> %pal nprocs 4
| 17> end
| 18>
| 19> %scf
| 20>   MaxIter 150
| 21> end
| 22>
| 23>
| 24>                          ****END OF INPUT****

CARTESIAN COORDINATES (ANGSTROEM)
---------------------------------
  C     -0.106080    1.769910   -4.089840
  C     -0.258750    1.004320   -5.409830
  C      0.395960   -0.370700   -5.339940
  H      0.239150    1.569390   -6.201250
  H     -1.309360    0.888690   -5.682450
  O     -0.326330   -1.390400   -5.491280
  F      1.619410   -0.400730   -5.036830
  H     -0.576270    2.727180   -4.176300
  H      0.933210    1.901400   -3.871920
  H     -0.568680    1.215340   -3.300310

 Total Charge           Charge          ....    0
 Multiplicity           Mult            ....    1
 Number of Electrons    NEL             ....   40
 Basis Dimension        Dim             ....  185

ORBITAL ENERGIES
----------------

  NO   OCC          E(Eh)            E(eV)
   0   2.0000     -24.559336      -668.2935
   1   2.0000     -18.983101      -516.5565
   2   2.0000     -10.300995      -280.3043
   3   2.0000     -10.150380      -276.2059
   4   2.0000     -10.124564      -275.5034
   5   2.0000      -1.474605       -40.1260
   6   2.0000      -1.196287       -32.5526
   7   2.0000      -0.986419       -26.8418
   8   2.0000      -0.852265       -23.1913
   9   2.0000      -0.801462       -21.8089
  10   2.0000      -0.706881       -19.2352
  11   2.0000      -0.693415       -18.8688
  12   2.0000      -0.651730       -17.7345
  13   2.0000      -0.612228       -16.6596
  14   2.0000      -0.577864       -15.7245
  15   2.0000      -0.542246       -14.7553
  16   2.0000      -0.521108       -14.1801
  17   2.0000      -0.511163       -13.9094
  18   2.0000      -0.485399       -13.2084
  19   2.0000      -0.426367       -11.6020
  20   0.0000       0.071454         1.9444
  21   0.0000       0.115121         3.1326
  22   0.0000       0.156472         4.2578
  23   0.0000       0.173625         4.7246
  24   0.0000       0.189457         5.1554

MULLIKEN ATOMIC CHARGES
-----------------------
   0 C :   -0.454402
   1 C :   -0.279526
   2 C :    0.307705
   3 H :    0.154746
   4 H :    0.172107
   5 O :   -0.305493
   6 F :   -0.075577
   7 H :    0.159340
   8 H :    0.158543
   9 H :    0.162558
Sum of atomic charges:   -0.0000000

LOEWDIN ATOMIC CHARGES
----------------------
   0 C :   -0.313043
   1 C :   -0.270555
   2 C :   -0.507565
   3 H :    0.156526
   4 H :    0.159866
   5 O :    0.059066
   6 F :    0.328595
   7 H :    0.128806
   8 H :    0.128047
   9 H :    0.130257

  Mayer bond orders larger than 0.100000
B(  0-C ,  1-C ) :   0.9484 B(  0-C ,  7-H ) :   0.9714 B(  0-C ,  8-H ) :   0.9656
B(  0-C ,  9-H ) :   0.9666 B(  1-C ,  2-C ) :   0.9923 B(  1-C ,  3-H ) :   0.9464
B(  1-C ,  4-H ) :   0.9625 B(  2-C ,  5-O ) :   2.0879 B(  2-C ,  6-F ) :   1.1874

FINAL SINGLE POINT ENERGY      -291.695692756472

DIPOLE MOMENT
-------------
                                X             Y             Z
Electronic contribution:      4.07403      -6.46569      -1.81279
Nuclear contribution   :     -3.93139       7.77287       1.92635
                        -----------------------------------------
Total Dipole Moment    :      0.14264       1.30719       0.11356
                        -----------------------------------------
Magnitude (a.u.)       :      1.31984
Magnitude (Debye)      :      3.35477

Rotational constants in cm-1:     0.286068     0.133630     0.103472
Rotational constants in MHz :  8576.109806  4006.118234  3102.010802

                             ****ORCA TERMINATED NORMALLY****
TOTAL RUN TIME: 0 days 0 hours 0 minutes 22 seconds 667 msec
