                         Program Version 5.0.0 -  RELEASE  -
|  1> !PBE D3BJ RIJCOSX def2-TZVP def2/J TightSCF
|  2> *xyz -1 1
|  3> C          0.70466        1.44313       -4.50363
|  4> C          1.72854        1.42432       -5.63944
|  5> H          2.64672        1.95379       -5.38105
|  6> H          1.29992        1.93061       -6.50361
|  7> S          2.25263       -0.18811       -6.27184
|  8> O          3.56261       -0.44446       -5.63155
|  9> O          2.34494       -0.03374       -7.69650
| 10> O          1.26606       -1.15918       -5.80536
| 11> H         -0.17385        0.91270       -4.80656
| 12> H          0.44778        2.45562       -4.27173
| 13> H          1.12367        0.97423       -3.63791
| 14> *
| 15>
| 16> %MaxCore 64000
| 17>
| 18> %pal nprocs 4
| 19> end
| 20>
| 21> %scf
| 22>   MaxIter 150
| 23> end
| 24>
| 25>
| 26>                          ****END OF INPUT****

CARTESIAN COORDINATES (ANGSTROEM)
---------------------------------
  C      0.704660    1.443130   -4.503630
  C      1.728540    1.424320   -5.639440
  H      2.646720    1.953790   -5.381050
  H      1.299920    1.930610   -6.503610
  S      2.252630   -0.188110   -6.271840
  O      3.562610   -0.444460   -5.631550
  O      2.344940   -0.033740   -7.696500
  O      1.266060   -1.159180   -5.805360
  H     -0.173850    0.912700   -4.806560
  H      0.447780    2.455620   -4.271730
  H      1.123670    0.974230   -3.637910

 Total Charge           Charge          ....   -1
 Multiplicity           Mult            ....    1
 Number of Electrons    NEL             ....   58
 Basis Dimension        Dim             ....  222

ORBITAL ENERGIES
----------------

  NO   OCC          E(Eh)            E(eV)
   0   2.0000     -88.001348     -2394.6384
   1   2.0000     -18.521294      -503.9900
   2   2.0000     -18.515122      -503.8221
   3   2.0000     -18.505671      -503.5649
   4   2.0000      -9.734304      -264.8839
   5   2.0000      -9.732348      -264.8306
   6   2.0000      -7.596194      -206.7029
   7   2.0000      -5.617250      -152.8531
   8   2.0000      -5.616026      -152.8198
   9   2.0000      -5.615770      -152.8129
  10   2.0000      -0.822438       -22.3797
  11   2.0000      -0.697113       -18.9694
  12   2.0000      -0.674845       -18.3635
  13   2.0000      -0.553989       -15.0748
  14   2.0000      -0.436699       -11.8832
  15   2.0000      -0.315442        -8.5836
  16   2.0000      -0.263384        -7.1670
  17   2.0000      -0.252998        -6.8844
  18   2.0000      -0.219095        -5.9619
  19   2.0000      -0.199769        -5.4360
  20   2.0000      -0.197006        -5.3608
  21   2.0000      -0.175282        -4.7697
  22   2.0000      -0.167294        -4.5523
  23   2.0000      -0.093774        -2.5517
  24   2.0000      -0.091755        -2.4968
  25   2.0000      -0.062470        -1.6999
  26   2.0000      -0.057279        -1.5587
  27   2.0000      -0.044116        -1.2005
  28   2.0000      -0.008674        -0.2360
  29   0.0000       0.153930         4.1887
  30   0.0000       0.200500         5.4559
  31   0.0000       0.210344         5.7237
  32   0.0000       0.216884         5.9017
  33   0.0000       0.236606         6.4384

MULLIKEN ATOMIC CHARGES
-----------------------
   0 C :   -0.306311
   1 C :   -0.251190
   2 H :    0.083920
   3 H :    0.078254
   4 S :    0.659867
   5 O :   -0.535094
   6 O :   -0.484269
   7 O :   -0.508378
   8 H :    0.104916
   9 H :    0.062942
  10 H :    0.095342
Sum of atomic charges:   -1.0000000

LOEWDIN ATOMIC CHARGES
----------------------
   0 C :   -0.350993
   1 C :   -0.440484
   2 H :    0.117973
   3 H :    0.117055
   4 S :    0.349230
   5 O :   -0.404375
   6 O :   -0.344910
   7 O :   -0.368995
   8 H :    0.113603
   9 H :    0.099192
  10 H :    0.112705

  Mayer bond orders larger than 0.100000
B(  0-C ,  1-C ) :   0.9810 B(  0-C ,  8-H ) :   0.9677 B(  0-C ,  9-H ) :   0.9510
B(  0-C , 10-H ) :   0.9705 B(  1-C ,  2-H ) :   0.9533 B(  1-C ,  3-H ) :   0.9467
B(  1-C ,  4-S ) :   0.8589 B(  4-S ,  5-O ) :   1.8071 B(  4-S ,  6-O ) :   1.8591
B(  4-S ,  7-O ) :   1.8117

Dispersion correction           -0.009551711
FINAL SINGLE POINT ENERGY      -702.804069000271

DIPOLE MOMENT
-------------
                                X             Y             Z
Electronic contribution:      3.73249      -5.78184      -4.37860
Nuclear contribution   :     -4.50297       7.24642       5.01775
                        -----------------------------------------
Total Dipole Moment    :     -0.77048       1.46458       0.63916
                        -----------------------------------------
Magnitude (a.u.)       :      1.77402
Magnitude (Debye)      :      4.50921

Rotational constants in cm-1:     0.162459     0.081286     0.079601
Rotational constants in MHz :  4870.394399  2436.893583  2386.374948

                             ****ORCA TERMINATED NORMALLY****
TOTAL RUN TIME: 0 days 0 hours 0 minutes 11 seconds 407 msec
