                         Program Version 5.0.0 -  RELEASE  -
|  1> !PBE D3BJ RIJCOSX def2-TZVP def2/J TightSCF
|  2> *xyz 1 1
|  3> C          2.91632       -1.24259       -1.54313
|  4> C          3.46659       -1.59097       -2.88908
|  5> N          4.65227       -1.14316       -3.25969
|  6> N          2.75226       -2.29204       -3.72803
|  7> H          1.77836       -2.48960       -3.51274
|  8> H          2.94861       -2.20854       -4.71681
|  9> H          5.14672       -0.51251       -2.63385
| 10> H          4.78303       -1.00720       -4.25350
| 11> C          2.80408        0.29070       -1.35924
| 12> H          1.94047       -1.71653       -1.44116
| 13> H          3.55857       -1.66343       -0.76637
| 14> H          2.17393        0.69633       -2.12297
| 15> H          3.77707        0.73043       -1.42880
| 16> H          2.38369        0.50492       -0.39889
| 17> *
| 18>
| 19> %MaxCore 64000
| 20>
| 21> %pal nprocs 4
| 22> end
| 23>
| 24> %scf
| 25>   MaxIter 150
| 26> end
| 27>
| 28>
| 29>                          ****END OF INPUT****

CARTESIAN COORDINATES (ANGSTROEM)
---------------------------------
  C      2.916320   -1.242590   -1.543130
  C      3.466590   -1.590970   -2.889080
  N      4.652270   -1.143160   -3.259690
  N      2.752260   -2.292040   -3.728030
  H      1.778360   -2.489600   -3.512740
  H      2.948610   -2.208540   -4.716810
  H      5.146720   -0.512510   -2.633850
  H      4.783030   -1.007200   -4.253500
  C      2.804080    0.290700   -1.359240
  H      1.940470   -1.716530   -1.441160
  H      3.558570   -1.663430   -0.766370
  H      2.173930    0.696330   -2.122970
  H      3.777070    0.730430   -1.428800
  H      2.383690    0.504920   -0.398890

 Total Charge           Charge          ....    1
 Multiplicity           Mult            ....    1
 Number of Electrons    NEL             ....   40
 Basis Dimension        Dim             ....  209

ORBITAL ENERGIES
----------------

  NO   OCC          E(Eh)            E(eV)
   0   2.0000     -14.231805      -387.2671
   1   2.0000     -14.226904      -387.1337
   2   2.0000     -10.195442      -277.4321
   3   2.0000     -10.083351      -274.3819
   4   2.0000     -10.042407      -273.2678
   5   2.0000      -1.127928       -30.6925
   6   2.0000      -1.035304       -28.1721
   7   2.0000      -0.900220       -24.4962
   8   2.0000      -0.802760       -21.8442
   9   2.0000      -0.759555       -20.6686
  10   2.0000      -0.717435       -19.5224
  11   2.0000      -0.699537       -19.0354
  12   2.0000      -0.650961       -17.7136
  13   2.0000      -0.616363       -16.7721
  14   2.0000      -0.578917       -15.7531
  15   2.0000      -0.555213       -15.1081
  16   2.0000      -0.511992       -13.9320
  17   2.0000      -0.500657       -13.6236
  18   2.0000      -0.488203       -13.2847
  19   2.0000      -0.460088       -12.5196
  20   0.0000      -0.254165        -6.9162
  21   0.0000      -0.183452        -4.9920
  22   0.0000      -0.141104        -3.8396
  23   0.0000      -0.138703        -3.7743
  24   0.0000      -0.105204        -2.8627

MULLIKEN ATOMIC CHARGES
-----------------------
   0 C :   -0.219459
   1 C :    0.253835
   2 N :   -0.279755
   3 N :   -0.275811
   4 H :    0.288172
   5 H :    0.265624
   6 H :    0.283854
   7 H :    0.267291
   8 C :   -0.343160
   9 H :    0.135210
  10 H :    0.180510
  11 H :    0.145440
  12 H :    0.122155
  13 H :    0.176096
Sum of atomic charges:    1.0000000

LOEWDIN ATOMIC CHARGES
----------------------
   0 C :   -0.218733
   1 C :   -0.316890
   2 N :    0.121663
   3 N :    0.133640
   4 H :    0.208937
   5 H :    0.198181
   6 H :    0.206245
   7 H :    0.199028
   8 C :   -0.259783
   9 H :    0.159474
  10 H :    0.173245
  11 H :    0.130884
  12 H :    0.122042
  13 H :    0.142067

  Mayer bond orders larger than 0.100000
B(  0-C ,  1-C ) :   1.0244 B(  0-C ,  8-C ) :   0.9753 B(  0-C ,  9-H ) :   0.9476
B(  0-C , 10-H ) :   0.9227 B(  1-C ,  2-N ) :   1.4308 B(  1-C ,  3-N ) :   1.4881
B(  2-N ,  6-H ) :   0.8901 B(  2-N ,  7-H ) :   0.8888 B(  3-N ,  4-H ) :   0.8818
B(  3-N ,  5-H ) :   0.8894 B(  8-C , 11-H ) :   0.9571 B(  8-C , 12-H ) :   0.9639
B(  8-C , 13-H ) :   0.9524

Dispersion correction           -0.010225062
FINAL SINGLE POINT ENERGY      -228.821656532544

DIPOLE MOMENT
-------------
                                X             Y             Z
Electronic contribution:      1.31875      -2.85034      -2.78686
Nuclear contribution   :     -1.30215       2.77761       1.84194
                        -----------------------------------------
Total Dipole Moment    :      0.01660      -0.07273      -0.94492
                        -----------------------------------------
Magnitude (a.u.)       :      0.94786
Magnitude (Debye)      :      2.40927

Rotational constants in cm-1:     0.267442     0.127541     0.099068
Rotational constants in MHz :  8017.703171  3823.592522  2969.992494

                             ****ORCA TERMINATED NORMALLY****
TOTAL RUN TIME: 0 days 0 hours 0 minutes 10 seconds 544 msec
