                         Program Version 5.0.0 -  RELEASE  -
|  1> !PBE D3BJ RIJCOSX def2-TZVP def2/J TightSCF
|  2> *xyz 0 1
|  3> C          0.70466        1.44313       -4.50363
|  4> C          1.72854        1.42432       -5.63944
|  5> H          2.64672        1.95379       -5.38105
|  6> H          1.29992        1.93061       -6.50361
|  7> S          2.25263       -0.18811       -6.27184
|  8> F          3.56261       -0.44446       -5.63155
|  9> O          2.34494       -0.03374       -7.69650
| 10> O          1.26606       -1.15918       -5.80536
| 11> H         -0.17385        0.91270       -4.80656
| 12> H          0.44778        2.45562       -4.27173
| 13> H          1.12367        0.97423       -3.63791
| 14> *
| 15>
| 16> %MaxCore 64000
| 17>
| 18> %pal nprocs 4
| 19> end
| 20>
| 21> %scf
| 22>   MaxIter 150
| 23> end
| 24>
| 25>
| 26>                          ****END OF INPUT****

CARTESIAN COORDINATES (ANGSTROEM)
---------------------------------
  C      0.704660    1.443130   -4.503630
  C      1.728540    1.424320   -5.639440
  H      2.646720    1.953790   -5.381050
  H      1.299920    1.930610   -6.503610
  S      2.252630   -0.188110   -6.271840
  F      3.562610   -0.444460   -5.631550
  O      2.344940   -0.033740   -7.696500
  O      1.266060   -1.159180   -5.805360
  H     -0.173850    0.912700   -4.806560
  H      0.447780    2.455620   -4.271730
  H      1.123670    0.974230   -3.637910

 Total Charge           Charge          ....    0
 Multiplicity           Mult            ....    1
 Number of Electrons    NEL             ....   58
 Basis Dimension        Dim             ....  222

ORBITAL ENERGIES
----------------

  NO   OCC          E(Eh)            E(eV)
   0   2.0000     -88.264148     -2401.7896
   1   2.0000     -24.351561      -662.6397
   2   2.0000     -18.761146      -510.5167
   3   2.0000     -18.754401      -510.3332
   4   2.0000      -9.938401      -270.4376
   5   2.0000      -9.896626      -269.3009
   6   2.0000      -7.859784      -213.8756
   7   2.0000      -5.884187      -160.1169
   8   2.0000      -5.877801      -159.9431
   9   2.0000      -5.877195      -159.9266
  10   2.0000      -1.243821       -33.8461
  11   2.0000      -1.019039       -27.7295
  12   2.0000      -0.930204       -25.3121
  13   2.0000      -0.745397       -20.2833
  14   2.0000      -0.655050       -17.8248
  15   2.0000      -0.604010       -16.4360
  16   2.0000      -0.512602       -13.9486
  17   2.0000      -0.495256       -13.4766
  18   2.0000      -0.489116       -13.3095
  19   2.0000      -0.440018       -11.9735
  20   2.0000      -0.425168       -11.5694
  21   2.0000      -0.401220       -10.9178
  22   2.0000      -0.382324       -10.4036
  23   2.0000      -0.357859        -9.7378
  24   2.0000      -0.351283        -9.5589
  25   2.0000      -0.335659        -9.1337
  26   2.0000      -0.289851        -7.8873
  27   2.0000      -0.285615        -7.7720
  28   2.0000      -0.269390        -7.3305
  29   0.0000      -0.010377        -0.2824
  30   0.0000       0.002640         0.0718
  31   0.0000       0.027436         0.7466
  32   0.0000       0.040834         1.1112
  33   0.0000       0.051799         1.4095

MULLIKEN ATOMIC CHARGES
-----------------------
   0 C :   -0.322647
   1 C :   -0.266777
   2 H :    0.133208
   3 H :    0.155786
   4 S :    0.723094
   5 F :   -0.087351
   6 O :   -0.351131
   7 O :   -0.377299
   8 H :    0.144519
   9 H :    0.126989
  10 H :    0.121609
Sum of atomic charges:    0.0000000

LOEWDIN ATOMIC CHARGES
----------------------
   0 C :   -0.314517
   1 C :   -0.403110
   2 H :    0.134969
   3 H :    0.148018
   4 S :    0.477264
   5 F :    0.066913
   6 O :   -0.230369
   7 O :   -0.255195
   8 H :    0.127795
   9 H :    0.125432
  10 H :    0.122800

  Mayer bond orders larger than 0.100000
B(  0-C ,  1-C ) :   0.9984 B(  0-C ,  8-H ) :   0.9625 B(  0-C ,  9-H ) :   0.9479
B(  0-C , 10-H ) :   0.9658 B(  1-C ,  2-H ) :   0.9357 B(  1-C ,  3-H ) :   0.9340
B(  1-C ,  4-S ) :   0.8940 B(  4-S ,  5-F ) :   1.1380 B(  4-S ,  6-O ) :   1.9827
B(  4-S ,  7-O ) :   1.9452

Dispersion correction           -0.009128552
FINAL SINGLE POINT ENERGY      -727.330687526702

DIPOLE MOMENT
-------------
                                X             Y             Z
Electronic contribution:      6.30999      -6.57838      -3.76277
Nuclear contribution   :     -6.09914       7.80989       4.64238
                        -----------------------------------------
Total Dipole Moment    :      0.21085       1.23151       0.87961
                        -----------------------------------------
Magnitude (a.u.)       :      1.52800
Magnitude (Debye)      :      3.88388

Rotational constants in cm-1:     0.154372     0.078826     0.078033
Rotational constants in MHz :  4627.943144  2363.154585  2339.382767

                             ****ORCA TERMINATED NORMALLY****
TOTAL RUN TIME: 0 days 0 hours 0 minutes 10 seconds 997 msec
