                         Program Version 5.0.0 -  RELEASE  -
|  1> !PBE D3BJ RIJCOSX def2-TZVP def2/J TightSCF
|  2> *xyz 0 1
|  3> C          2.91632       -1.24259       -1.54313
|  4> C          3.46659       -1.59097       -2.88908
|  5> C          4.65227       -1.14316       -3.25969
|  6> N          2.75226       -2.29204       -3.72803
|  7> H          1.77836       -2.48960       -3.51274
|  8> H          2.94861       -2.20854       -4.71681
|  9> H          5.14672       -0.51251       -2.63385
| 10> H          4.78303       -1.00720       -4.25350
| 11> C          2.80408        0.29070       -1.35924
| 12> H          1.94047       -1.71653       -1.44116
| 13> H          3.55857       -1.66343       -0.76637
| 14> H          2.17393        0.69633       -2.12297
| 15> H          3.77707        0.73043       -1.42880
| 16> H          2.38369        0.50492       -0.39889
| 17> *
| 18>
| 19> %MaxCore 64000
| 20>
| 21> %pal nprocs 4
| 22> end
| 23>
| 24> %scf
| 25>   MaxIter 150
| 26> end
| 27>
| 28>
| 29>                          ****END OF INPUT****

CARTESIAN COORDINATES (ANGSTROEM)
---------------------------------
  C      2.916320   -1.242590   -1.543130
  C      3.466590   -1.590970   -2.889080
  C      4.652270   -1.143160   -3.259690
  N      2.752260   -2.292040   -3.728030
  H      1.778360   -2.489600   -3.512740
  H      2.948610   -2.208540   -4.716810
  H      5.146720   -0.512510   -2.633850
  H      4.783030   -1.007200   -4.253500
  C      2.804080    0.290700   -1.359240
  H      1.940470   -1.716530   -1.441160
  H      3.558570   -1.663430   -0.766370
  H      2.173930    0.696330   -2.122970
  H      3.777070    0.730430   -1.428800
  H      2.383690    0.504920   -0.398890

 Total Charge           Charge          ....    0
 Multiplicity           Mult            ....    1
 Number of Electrons    NEL             ....   40
 Basis Dimension        Dim             ....  209

ORBITAL ENERGIES
----------------

  NO   OCC          E(Eh)            E(eV)
   0   2.0000     -13.987131      -380.6092
   1   2.0000      -9.896536      -269.2984
   2   2.0000      -9.883718      -268.9496
   3   2.0000      -9.866040      -268.4686
   4   2.0000      -9.807652      -266.8798
   5   2.0000      -0.857143       -23.3240
   6   2.0000      -0.709209       -19.2985
   7   2.0000      -0.642753       -17.4902
   8   2.0000      -0.580686       -15.8013
   9   2.0000      -0.510083       -13.8801
  10   2.0000      -0.471546       -12.8314
  11   2.0000      -0.428488       -11.6598
  12   2.0000      -0.401148       -10.9158
  13   2.0000      -0.362662        -9.8685
  14   2.0000      -0.344658        -9.3786
  15   2.0000      -0.332122        -9.0375
  16   2.0000      -0.313861        -8.5406
  17   2.0000      -0.300578        -8.1791
  18   2.0000      -0.283953        -7.7268
  19   2.0000      -0.158350        -4.3089
  20   0.0000       0.002190         0.0596
  21   0.0000       0.007972         0.2169
  22   0.0000       0.047415         1.2902
  23   0.0000       0.050843         1.3835
  24   0.0000       0.070393         1.9155

MULLIKEN ATOMIC CHARGES
-----------------------
   0 C :   -0.176871
   1 C :    0.169084
   2 C :   -0.386286
   3 N :   -0.389315
   4 H :    0.212026
   5 H :    0.216836
   6 H :    0.080721
   7 H :    0.070399
   8 C :   -0.322330
   9 H :    0.075180
  10 H :    0.116505
  11 H :    0.108581
  12 H :    0.115664
  13 H :    0.109807
Sum of atomic charges:    0.0000000

LOEWDIN ATOMIC CHARGES
----------------------
   0 C :   -0.239168
   1 C :   -0.384881
   2 C :   -0.281775
   3 N :    0.021441
   4 H :    0.164991
   5 H :    0.171235
   6 H :    0.105278
   7 H :    0.100944
   8 C :   -0.290654
   9 H :    0.132703
  10 H :    0.149362
  11 H :    0.118111
  12 H :    0.118676
  13 H :    0.113737

  Mayer bond orders larger than 0.100000
B(  0-C ,  1-C ) :   0.9846 B(  0-C ,  8-C ) :   0.9903 B(  0-C ,  9-H ) :   0.9547
B(  0-C , 10-H ) :   0.9643 B(  1-C ,  2-C ) :   1.7377 B(  1-C ,  3-N ) :   1.2184
B(  2-C ,  6-H ) :   0.9990 B(  2-C ,  7-H ) :   0.9688 B(  3-N ,  4-H ) :   0.9167
B(  3-N ,  5-H ) :   0.9128 B(  8-C , 11-H ) :   0.9704 B(  8-C , 12-H ) :   0.9710
B(  8-C , 13-H ) :   0.9606

Dispersion correction           -0.010613096
FINAL SINGLE POINT ENERGY      -212.350055274663

DIPOLE MOMENT
-------------
                                X             Y             Z
Electronic contribution:      0.07841      -2.76796      -1.84573
Nuclear contribution   :     -0.99366       2.78648       1.68526
                        -----------------------------------------
Total Dipole Moment    :     -0.91525       0.01852      -0.16047
                        -----------------------------------------
Magnitude (a.u.)       :      0.92940
Magnitude (Debye)      :      2.36234

Rotational constants in cm-1:     0.282898     0.128664     0.101801
Rotational constants in MHz :  8481.061354  3857.240210  3051.924245

                             ****ORCA TERMINATED NORMALLY****
TOTAL RUN TIME: 0 days 0 hours 0 minutes 11 seconds 572 msec
