                         Program Version 5.0.0 -  RELEASE  -
|  1> !PBE D3BJ RIJCOSX def2-TZVP def2/J TightSCF
|  2> *xyz 0 1
|  3> C          0.70466        1.44313       -4.50363
|  4> C          1.72854        1.42432       -5.63944
|  5> H          2.64672        1.95379       -5.38105
|  6> H          1.29992        1.93061       -6.50361
|  7> S          2.25263       -0.18811       -6.27184
|  8> O          3.56261       -0.44446       -5.63155
|  9> F          2.34494       -0.03374       -7.69650
| 10> O          1.26606       -1.15918       -5.80536
| 11> H         -0.17385        0.91270       -4.80656
| 12> H          0.44778        2.45562       -4.27173
| 13> H          1.12367        0.97423       -3.63791
| 14> *
| 15>
| 16> %MaxCore 64000
| 17>
| 18> %pal nprocs 4
| 19> end
| 20>
| 21> %scf
| 22>   MaxIter 150
| 23> end
| 24>
| 25>
| 26>                          ****END OF INPUT****

CARTESIAN COORDINATES (ANGSTROEM)
---------------------------------
  C      0.704660    1.443130   -4.503630
  C      1.728540    1.424320   -5.639440
  H      2.646720    1.953790   -5.381050
  H      1.299920    1.930610   -6.503610
  S      2.252630   -0.188110   -6.271840
  O      3.562610   -0.444460   -5.631550
  F      2.344940   -0.033740   -7.696500
  O      1.266060   -1.159180   -5.805360
  H     -0.173850    0.912700   -4.806560
  H      0.447780    2.455620   -4.271730
  H      1.123670    0.974230   -3.637910

 Total Charge           Charge          ....    0
 Multiplicity           Mult            ....    1
 Number of Electrons    NEL             ....   58
 Basis Dimension        Dim             ....  222

ORBITAL ENERGIES
----------------

  NO   OCC          E(Eh)            E(eV)
   0   2.0000     -88.266537     -2401.8546
   1   2.0000     -24.374317      -663.2589
   2   2.0000     -18.754412      -510.3335
   3   2.0000     -18.746240      -510.1111
   4   2.0000      -9.939318      -270.4626
   5   2.0000      -9.897316      -269.3197
   6   2.0000      -7.862027      -213.9366
   7   2.0000      -5.886330      -160.1752
   8   2.0000      -5.879912      -160.0005
   9   2.0000      -5.879553      -159.9908
  10   2.0000      -1.280428       -34.8422
  11   2.0000      -1.005222       -27.3535
  12   2.0000      -0.911005       -24.7897
  13   2.0000      -0.746157       -20.3040
  14   2.0000      -0.668934       -18.2026
  15   2.0000      -0.611455       -16.6385
  16   2.0000      -0.525205       -14.2916
  17   2.0000      -0.521529       -14.1915
  18   2.0000      -0.494918       -13.4674
  19   2.0000      -0.441049       -12.0015
  20   2.0000      -0.426415       -11.6034
  21   2.0000      -0.392817       -10.6891
  22   2.0000      -0.379841       -10.3360
  23   2.0000      -0.360063        -9.7978
  24   2.0000      -0.344708        -9.3800
  25   2.0000      -0.331799        -9.0287
  26   2.0000      -0.283771        -7.7218
  27   2.0000      -0.273406        -7.4398
  28   2.0000      -0.253598        -6.9007
  29   0.0000      -0.010863        -0.2956
  30   0.0000      -0.000987        -0.0269
  31   0.0000       0.024094         0.6556
  32   0.0000       0.038186         1.0391
  33   0.0000       0.050818         1.3828

MULLIKEN ATOMIC CHARGES
-----------------------
   0 C :   -0.325199
   1 C :   -0.257823
   2 H :    0.154421
   3 H :    0.123133
   4 S :    0.717165
   5 O :   -0.390281
   6 F :   -0.053110
   7 O :   -0.368509
   8 H :    0.134812
   9 H :    0.128000
  10 H :    0.137390
Sum of atomic charges:   -0.0000000

LOEWDIN ATOMIC CHARGES
----------------------
   0 C :   -0.308430
   1 C :   -0.404738
   2 H :    0.143010
   3 H :    0.133142
   4 S :    0.467871
   5 O :   -0.281305
   6 F :    0.121890
   7 O :   -0.251578
   8 H :    0.126166
   9 H :    0.126308
  10 H :    0.127664

  Mayer bond orders larger than 0.100000
B(  0-C ,  1-C ) :   1.0043 B(  0-C ,  8-H ) :   0.9615 B(  0-C ,  9-H ) :   0.9473
B(  0-C , 10-H ) :   0.9656 B(  1-C ,  2-H ) :   0.9315 B(  1-C ,  3-H ) :   0.9304
B(  1-C ,  4-S ) :   0.8969 B(  4-S ,  5-O ) :   1.9354 B(  4-S ,  6-F ) :   1.1816
B(  4-S ,  7-O ) :   1.9474

Dispersion correction           -0.009140731
FINAL SINGLE POINT ENERGY      -727.311746461328

DIPOLE MOMENT
-------------
                                X             Y             Z
Electronic contribution:      4.25326      -5.89448      -7.21106
Nuclear contribution   :     -4.83029       7.38191       6.79413
                        -----------------------------------------
Total Dipole Moment    :     -0.57703       1.48743      -0.41693
                        -----------------------------------------
Magnitude (a.u.)       :      1.64901
Magnitude (Debye)      :      4.19144

Rotational constants in cm-1:     0.156575     0.079070     0.076729
Rotational constants in MHz :  4694.010604  2370.444114  2300.280155

                             ****ORCA TERMINATED NORMALLY****
TOTAL RUN TIME: 0 days 0 hours 0 minutes 11 seconds 470 msec
