                         Program Version 5.0.0 -  RELEASE  -
|  1> !PBE D3BJ RIJCOSX def2-TZVP def2/J TightSCF
|  2> *xyz 0 1
|  3> C          2.91632       -1.24259       -1.54313
|  4> C          3.46659       -1.59097       -2.88908
|  5> N          4.65227       -1.14316       -3.25969
|  6> C          2.75226       -2.29204       -3.72803
|  7> H          1.77836       -2.48960       -3.51274
|  8> H          2.94861       -2.20854       -4.71681
|  9> H          5.14672       -0.51251       -2.63385
| 10> H          4.78303       -1.00720       -4.25350
| 11> C          2.80408        0.29070       -1.35924
| 12> H          1.94047       -1.71653       -1.44116
| 13> H          3.55857       -1.66343       -0.76637
| 14> H          2.17393        0.69633       -2.12297
| 15> H          3.77707        0.73043       -1.42880
| 16> H          2.38369        0.50492       -0.39889
| 17> *
| 18>
| 19> %MaxCore 64000
| 20>
| 21> %pal nprocs 4
| 22> end
| 23>
| 24> %scf
| 25>   MaxIter 150
| 26> end
| 27>
| 28>
| 29>                          ****END OF INPUT****

CARTESIAN COORDINATES (ANGSTROEM)
---------------------------------
  C      2.916320   -1.242590   -1.543130
  C      3.466590   -1.590970   -2.889080
  N      4.652270   -1.143160   -3.259690
  C      2.752260   -2.292040   -3.728030
  H      1.778360   -2.489600   -3.512740
  H      2.948610   -2.208540   -4.716810
  H      5.146720   -0.512510   -2.633850
  H      4.783030   -1.007200   -4.253500
  C      2.804080    0.290700   -1.359240
  H      1.940470   -1.716530   -1.441160
  H      3.558570   -1.663430   -0.766370
  H      2.173930    0.696330   -2.122970
  H      3.777070    0.730430   -1.428800
  H      2.383690    0.504920   -0.398890

 Total Charge           Charge          ....    0
 Multiplicity           Mult            ....    1
 Number of Electrons    NEL             ....   40
 Basis Dimension        Dim             ....  209

ORBITAL ENERGIES
----------------

  NO   OCC          E(Eh)            E(eV)
   0   2.0000     -13.983793      -380.5184
   1   2.0000      -9.895513      -269.2706
   2   2.0000      -9.881970      -268.9021
   3   2.0000      -9.871205      -268.6092
   4   2.0000      -9.811113      -266.9740
   5   2.0000      -0.852441       -23.1961
   6   2.0000      -0.707067       -19.2403
   7   2.0000      -0.653314       -17.7776
   8   2.0000      -0.573552       -15.6072
   9   2.0000      -0.509806       -13.8725
  10   2.0000      -0.475636       -12.9427
  11   2.0000      -0.425536       -11.5794
  12   2.0000      -0.390322       -10.6212
  13   2.0000      -0.386017       -10.5041
  14   2.0000      -0.341537        -9.2937
  15   2.0000      -0.336469        -9.1558
  16   2.0000      -0.314363        -8.5542
  17   2.0000      -0.299841        -8.1591
  18   2.0000      -0.278814        -7.5869
  19   2.0000      -0.164869        -4.4863
  20   0.0000       0.000804         0.0219
  21   0.0000       0.009205         0.2505
  22   0.0000       0.051530         1.4022
  23   0.0000       0.054890         1.4936
  24   0.0000       0.067766         1.8440

MULLIKEN ATOMIC CHARGES
-----------------------
   0 C :   -0.177070
   1 C :    0.176033
   2 N :   -0.397723
   3 C :   -0.386412
   4 H :    0.087073
   5 H :    0.069242
   6 H :    0.212330
   7 H :    0.221200
   8 C :   -0.339071
   9 H :    0.102036
  10 H :    0.100978
  11 H :    0.120250
  12 H :    0.091594
  13 H :    0.119539
Sum of atomic charges:    0.0000000

LOEWDIN ATOMIC CHARGES
----------------------
   0 C :   -0.239534
   1 C :   -0.382781
   2 N :    0.011451
   3 C :   -0.272635
   4 H :    0.107357
   5 H :    0.100425
   6 H :    0.165721
   7 H :    0.173223
   8 C :   -0.297536
   9 H :    0.147521
  10 H :    0.139151
  11 H :    0.120487
  12 H :    0.109431
  13 H :    0.117719

  Mayer bond orders larger than 0.100000
B(  0-C ,  1-C ) :   1.0157 B(  0-C ,  8-C ) :   0.9723 B(  0-C ,  9-H ) :   0.9561
B(  0-C , 10-H ) :   0.9538 B(  1-C ,  2-N ) :   1.1640 B(  1-C ,  3-C ) :   1.8014
B(  2-N ,  6-H ) :   0.9283 B(  2-N ,  7-H ) :   0.9150 B(  3-C ,  4-H ) :   0.9790
B(  3-C ,  5-H ) :   0.9750 B(  8-C , 11-H ) :   0.9703 B(  8-C , 12-H ) :   0.9707
B(  8-C , 13-H ) :   0.9648

Dispersion correction           -0.010589082
FINAL SINGLE POINT ENERGY      -212.353408337319

DIPOLE MOMENT
-------------
                                X             Y             Z
Electronic contribution:      1.77639      -1.73254      -1.42602
Nuclear contribution   :     -1.43372       2.52039       1.57679
                        -----------------------------------------
Total Dipole Moment    :      0.34268       0.78785       0.15077
                        -----------------------------------------
Magnitude (a.u.)       :      0.87227
Magnitude (Debye)      :      2.21714

Rotational constants in cm-1:     0.274962     0.131786     0.102554
Rotational constants in MHz :  8243.150005  3950.846092  3074.493018

                             ****ORCA TERMINATED NORMALLY****
TOTAL RUN TIME: 0 days 0 hours 0 minutes 8 seconds 182 msec
