                         Program Version 5.0.0 -  RELEASE  -
|  1> !PBE D3BJ RIJCOSX def2-TZVP def2/J TightSCF
|  2> *xyz 0 1
|  3> C          0.70466        1.44313       -4.50363
|  4> C          1.72854        1.42432       -5.63944
|  5> H          2.64672        1.95379       -5.38105
|  6> H          1.29992        1.93061       -6.50361
|  7> S          2.25263       -0.18811       -6.27184
|  8> O          3.56261       -0.44446       -5.63155
|  9> O          2.34494       -0.03374       -7.69650
| 10> F          1.26606       -1.15918       -5.80536
| 11> H         -0.17385        0.91270       -4.80656
| 12> H          0.44778        2.45562       -4.27173
| 13> H          1.12367        0.97423       -3.63791
| 14> *
| 15>
| 16> %MaxCore 64000
| 17>
| 18> %pal nprocs 4
| 19> end
| 20>
| 21> %scf
| 22>   MaxIter 150
| 23> end
| 24>
| 25>
| 26>                          ****END OF INPUT****

CARTESIAN COORDINATES (ANGSTROEM)
---------------------------------
  C      0.704660    1.443130   -4.503630
  C      1.728540    1.424320   -5.639440
  H      2.646720    1.953790   -5.381050
  H      1.299920    1.930610   -6.503610
  S      2.252630   -0.188110   -6.271840
  O      3.562610   -0.444460   -5.631550
  O      2.344940   -0.033740   -7.696500
  F      1.266060   -1.159180   -5.805360
  H     -0.173850    0.912700   -4.806560
  H      0.447780    2.455620   -4.271730
  H      1.123670    0.974230   -3.637910

 Total Charge           Charge          ....    0
 Multiplicity           Mult            ....    1
 Number of Electrons    NEL             ....   58
 Basis Dimension        Dim             ....  222

ORBITAL ENERGIES
----------------

  NO   OCC          E(Eh)            E(eV)
   0   2.0000     -88.264927     -2401.8108
   1   2.0000     -24.362290      -662.9316
   2   2.0000     -18.761037      -510.5138
   3   2.0000     -18.745836      -510.1001
   4   2.0000      -9.938300      -270.4349
   5   2.0000      -9.904017      -269.5020
   6   2.0000      -7.860515      -213.8955
   7   2.0000      -5.884986      -160.1386
   8   2.0000      -5.878281      -159.9562
   9   2.0000      -5.878070      -159.9504
  10   2.0000      -1.259944       -34.2848
  11   2.0000      -1.014888       -27.6165
  12   2.0000      -0.918693       -24.9989
  13   2.0000      -0.749155       -20.3855
  14   2.0000      -0.658546       -17.9199
  15   2.0000      -0.612526       -16.6677
  16   2.0000      -0.525750       -14.3064
  17   2.0000      -0.507399       -13.8070
  18   2.0000      -0.484254       -13.1772
  19   2.0000      -0.444330       -12.0908
  20   2.0000      -0.420047       -11.4301
  21   2.0000      -0.400047       -10.8858
  22   2.0000      -0.390990       -10.6394
  23   2.0000      -0.366219        -9.9653
  24   2.0000      -0.350293        -9.5319
  25   2.0000      -0.335964        -9.1420
  26   2.0000      -0.289727        -7.8839
  27   2.0000      -0.274099        -7.4586
  28   2.0000      -0.260025        -7.0756
  29   0.0000      -0.022155        -0.6029
  30   0.0000       0.016061         0.4371
  31   0.0000       0.028773         0.7830
  32   0.0000       0.035435         0.9642
  33   0.0000       0.051639         1.4052

MULLIKEN ATOMIC CHARGES
-----------------------
   0 C :   -0.352138
   1 C :   -0.252363
   2 H :    0.158682
   3 H :    0.146640
   4 S :    0.719259
   5 O :   -0.395836
   6 O :   -0.346067
   7 F :   -0.072646
   8 H :    0.126307
   9 H :    0.132741
  10 H :    0.135423
Sum of atomic charges:    0.0000000

LOEWDIN ATOMIC CHARGES
----------------------
   0 C :   -0.322053
   1 C :   -0.396425
   2 H :    0.147968
   3 H :    0.141850
   4 S :    0.473655
   5 O :   -0.284566
   6 O :   -0.228291
   7 F :    0.095492
   8 H :    0.120668
   9 H :    0.127593
  10 H :    0.124109

  Mayer bond orders larger than 0.100000
B(  0-C ,  1-C ) :   0.9943 B(  0-C ,  8-H ) :   0.9642 B(  0-C ,  9-H ) :   0.9529
B(  0-C , 10-H ) :   0.9642 B(  1-C ,  2-H ) :   0.9330 B(  1-C ,  3-H ) :   0.9324
B(  1-C ,  4-S ) :   0.9003 B(  4-S ,  5-O ) :   1.9334 B(  4-S ,  6-O ) :   1.9836
B(  4-S ,  7-F ) :   1.1526

Dispersion correction           -0.009086514
FINAL SINGLE POINT ENERGY      -727.321070305355

DIPOLE MOMENT
-------------
                                X             Y             Z
Electronic contribution:      2.45491      -7.73488      -4.05107
Nuclear contribution   :     -3.70606       8.55465       4.82350
                        -----------------------------------------
Total Dipole Moment    :     -1.25115       0.81977       0.77243
                        -----------------------------------------
Magnitude (a.u.)       :      1.68346
Magnitude (Debye)      :      4.27902

Rotational constants in cm-1:     0.153201     0.080978     0.077494
Rotational constants in MHz :  4592.852844  2427.650814  2323.207507

                             ****ORCA TERMINATED NORMALLY****
TOTAL RUN TIME: 0 days 0 hours 0 minutes 7 seconds 968 msec
