                         Program Version 5.0.0 -  RELEASE  -
|  1> !PBE D3BJ RIJCOSX def2-TZVP def2/J TightSCF xyzfile
|  2>
|  3> *xyzfile 0 1 D1.xyz
|  4>
|  5> %MaxCore 64000
|  6>
|  7> %pal nprocs 18
|  8> end
|  9>
| 10> %scf
| 11>   MaxIter 150
| 12> end
| 13>
| 14>
| 15>                          ****END OF INPUT****

CARTESIAN COORDINATES (ANGSTROEM)
---------------------------------
  C      2.916324   -1.242589   -1.543125
  C      0.704661    1.443129   -4.503630
  C      1.728539    1.424320   -5.639443
  H      2.646718    1.953794   -5.381054
  H      1.299916    1.930613   -6.503614
  S      2.252625   -0.188115   -6.271840
  C      3.466585   -1.590971   -2.889082
  C      4.652275   -1.143164   -3.259692
  N      2.752264   -2.292043   -3.728029
  H      1.778364   -2.489604   -3.512738
  H      2.948612   -2.208544   -4.716813
  H      5.146723   -0.512508   -2.633852
  H      4.783030   -1.007203   -4.253498
  F      3.562607   -0.444464   -5.631552
  O      2.344944   -0.033742   -7.696501
  C      2.804084    0.290698   -1.359243
  C      1.052550    0.695659   -3.214915
  H     -0.232483    1.032925   -4.884449
  H      0.511700    2.495794   -4.267966
  C      2.388380    1.093669   -2.597108
  H      3.763425    0.674718   -0.999889
  H      2.094788    0.461222   -0.545756
  O      1.266058   -1.159177   -5.805365
  H      3.167316    1.013242   -3.359430
  H      2.357690    2.149375   -2.310997
  H      1.039284   -0.368429   -3.449329
  H      0.250787    0.865605   -2.488283
  H      1.940472   -1.716529   -1.441161
  H      3.558569   -1.663433   -0.766371

 Total Charge           Charge          ....    0
 Multiplicity           Mult            ....    1
 Number of Electrons    NEL             ....  112
 Basis Dimension        Dim             ....  505

ORBITAL ENERGIES
----------------

  NO   OCC          E(Eh)            E(eV)
   0   2.0000     -88.272468     -2402.0160
   1   2.0000     -24.361419      -662.9079
   2   2.0000     -18.769012      -510.7308
   3   2.0000     -18.766216      -510.6547
   4   2.0000     -13.980380      -380.4255
   5   2.0000      -9.940587      -270.4971
   6   2.0000      -9.909014      -269.6380
   7   2.0000      -9.895763      -269.2774
   8   2.0000      -9.887551      -269.0539
   9   2.0000      -9.886028      -269.0125
  10   2.0000      -9.884489      -268.9706
  11   2.0000      -9.883235      -268.9365
  12   2.0000      -9.806518      -266.8489
  13   2.0000      -7.868503      -214.1128
  14   2.0000      -5.892985      -160.3563
  15   2.0000      -5.886398      -160.1770
  16   2.0000      -5.885850      -160.1621
  17   2.0000      -1.256400       -34.1884
  18   2.0000      -1.029214       -28.0063
  19   2.0000      -0.941835       -25.6286
  20   2.0000      -0.854692       -23.2574
  21   2.0000      -0.764853       -20.8127
  22   2.0000      -0.730750       -19.8847
  23   2.0000      -0.692933       -18.8557
  24   2.0000      -0.664668       -18.0865
  25   2.0000      -0.633049       -17.2261
  26   2.0000      -0.621708       -16.9175
  27   2.0000      -0.572384       -15.5754
  28   2.0000      -0.537846       -14.6355
  29   2.0000      -0.516286       -14.0489
  30   2.0000      -0.508752       -13.8438
  31   2.0000      -0.504623       -13.7315
  32   2.0000      -0.492895       -13.4124
  33   2.0000      -0.464431       -12.6378
  34   2.0000      -0.447477       -12.1765
  35   2.0000      -0.441282       -12.0079
  36   2.0000      -0.428064       -11.6482
  37   2.0000      -0.422025       -11.4839
  38   2.0000      -0.408874       -11.1260
  39   2.0000      -0.396404       -10.7867
  40   2.0000      -0.386488       -10.5169
  41   2.0000      -0.376946       -10.2572
  42   2.0000      -0.352781        -9.5996
  43   2.0000      -0.348861        -9.4930
  44   2.0000      -0.342101        -9.3090
  45   2.0000      -0.337324        -9.1791
  46   2.0000      -0.331217        -9.0129
  47   2.0000      -0.315195        -8.5769
  48   2.0000      -0.308795        -8.4028
  49   2.0000      -0.297758        -8.1024
  50   2.0000      -0.296202        -8.0601
  51   2.0000      -0.286494        -7.7959
  52   2.0000      -0.283442        -7.7128
  53   2.0000      -0.277102        -7.5403
  54   2.0000      -0.275569        -7.4986
  55   2.0000      -0.156745        -4.2652
  56   0.0000      -0.018479        -0.5028
  57   0.0000      -0.005214        -0.1419
  58   0.0000       0.000614         0.0167
  59   0.0000       0.010275         0.2796
  60   0.0000       0.021187         0.5765

MULLIKEN ATOMIC CHARGES
-----------------------
   0 C :   -0.191116
   1 C :   -0.116302
   2 C :   -0.314922
   3 H :    0.152230
   4 H :    0.168271
   5 S :    0.741293
   6 C :    0.085077
   7 C :   -0.392910
   8 N :   -0.317860
   9 H :    0.213176
  10 H :    0.197119
  11 H :    0.087484
  12 H :    0.074239
  13 F :   -0.083191
  14 O :   -0.353571
  15 C :   -0.217324
  16 C :   -0.233970
  17 H :    0.119406
  18 H :    0.104102
  19 C :   -0.108042
  20 H :    0.111447
  21 H :    0.089411
  22 O :   -0.393539
  23 H :    0.090100
  24 H :    0.086501
  25 H :    0.092711
  26 H :    0.093230
  27 H :    0.093882
  28 H :    0.123067
Sum of atomic charges:   -0.0000000

LOEWDIN ATOMIC CHARGES
----------------------
   0 C :   -0.217785
   1 C :   -0.282959
   2 C :   -0.374503
   3 H :    0.139890
   4 H :    0.152020
   5 S :    0.488503
   6 C :   -0.397552
   7 C :   -0.293515
   8 N :    0.040165
   9 H :    0.163224
  10 H :    0.155802
  11 H :    0.105661
  12 H :    0.092380
  13 F :    0.085018
  14 O :   -0.223593
  15 C :   -0.253662
  16 C :   -0.274886
  17 H :    0.148069
  18 H :    0.148303
  19 C :   -0.273024
  20 H :    0.140706
  21 H :    0.137256
  22 O :   -0.248353
  23 H :    0.137144
  24 H :    0.137656
  25 H :    0.136375
  26 H :    0.140941
  27 H :    0.137448
  28 H :    0.153270

  Mayer bond orders larger than 0.100000
B(  0-C ,  6-C ) :   0.9670 B(  0-C , 15-C ) :   0.9834 B(  0-C , 27-H ) :   0.9478
B(  0-C , 28-H ) :   0.9563 B(  1-C ,  2-C ) :   0.9843 B(  1-C , 16-C ) :   1.0076
B(  1-C , 17-H ) :   0.9477 B(  1-C , 18-H ) :   0.9270 B(  2-C ,  3-H ) :   0.9342
B(  2-C ,  4-H ) :   0.9322 B(  2-C ,  5-S ) :   0.8970 B(  5-S , 13-F ) :   1.1127
B(  5-S , 14-O ) :   2.0210 B(  5-S , 22-O ) :   1.8733 B(  6-C ,  7-C ) :   1.6943
B(  6-C ,  8-N ) :   1.2609 B(  7-C , 11-H ) :   0.9962 B(  7-C , 12-H ) :   0.9803
B(  8-N ,  9-H ) :   0.9140 B(  8-N , 10-H ) :   0.9153 B( 15-C , 19-C ) :   1.0188
B( 15-C , 20-H ) :   0.9530 B( 15-C , 21-H ) :   0.9459 B( 16-C , 19-C ) :   0.9765
B( 16-C , 25-H ) :   0.9555 B( 16-C , 26-H ) :   0.9396 B( 19-C , 23-H ) :   0.9418
B( 19-C , 24-H ) :   0.9411

Dispersion correction           -0.036536314
FINAL SINGLE POINT ENERGY     -1017.028340709168

DIPOLE MOMENT
-------------
                                X             Y             Z
Electronic contribution:      2.16211      -5.06587     -18.66383
Nuclear contribution   :     -2.89481       6.29550      19.36835
                        -----------------------------------------
Total Dipole Moment    :     -0.73271       1.22963       0.70452
                        -----------------------------------------
Magnitude (a.u.)       :      1.59537
Magnitude (Debye)      :      4.05510

Rotational constants in cm-1:     0.036515     0.018832     0.015081
Rotational constants in MHz :  1094.679513   564.567051   452.109105

                             ****ORCA TERMINATED NORMALLY****
TOTAL RUN TIME: 0 days 0 hours 0 minutes 21 seconds 729 msec
