                         Program Version 5.0.0 -  RELEASE  -
|  1> !PBE D3BJ RIJCOSX def2-TZVP def2/J TightSCF xyzfile
|  2>
|  3> *xyzfile 0 1 D3.xyz
|  4>
|  5> %MaxCore 64000
|  6>
|  7> %pal nprocs 18
|  8> end
|  9>
| 10> %scf
| 11>   MaxIter 150
| 12> end
| 13>
| 14>
| 15>                          ****END OF INPUT****

CARTESIAN COORDINATES (ANGSTROEM)
---------------------------------
  C      2.916324   -1.242589   -1.543125
  C      0.704661    1.443129   -4.503630
  C      1.728539    1.424320   -5.639443
  H      2.646718    1.953794   -5.381054
  H      1.299916    1.930613   -6.503614
  S      2.252625   -0.188115   -6.271840
  C      3.466585   -1.590971   -2.889082
  C      4.652275   -1.143164   -3.259692
  N      2.752264   -2.292043   -3.728029
  H      1.778364   -2.489604   -3.512738
  H      2.948612   -2.208544   -4.716813
  H      5.146723   -0.512508   -2.633852
  H      4.783030   -1.007203   -4.253498
  O      3.562607   -0.444464   -5.631552
  F      2.344944   -0.033742   -7.696501
  C      2.804084    0.290698   -1.359243
  C      1.052550    0.695659   -3.214915
  H     -0.232483    1.032925   -4.884449
  H      0.511700    2.495794   -4.267966
  C      2.388380    1.093669   -2.597108
  H      3.763425    0.674718   -0.999889
  H      2.094788    0.461222   -0.545756
  O      1.266058   -1.159177   -5.805365
  H      3.167316    1.013242   -3.359430
  H      2.357690    2.149375   -2.310997
  H      1.039284   -0.368429   -3.449329
  H      0.250787    0.865605   -2.488283
  H      1.940472   -1.716529   -1.441161
  H      3.558569   -1.663433   -0.766371

 Total Charge           Charge          ....    0
 Multiplicity           Mult            ....    1
 Number of Electrons    NEL             ....  112
 Basis Dimension        Dim             ....  505

ORBITAL ENERGIES
----------------

  NO   OCC          E(Eh)            E(eV)
   0   2.0000     -88.278807     -2402.1885
   1   2.0000     -24.384130      -663.5259
   2   2.0000     -18.769651      -510.7482
   3   2.0000     -18.761253      -510.5197
   4   2.0000     -13.957729      -379.8091
   5   2.0000      -9.944066      -270.5918
   6   2.0000      -9.910518      -269.6789
   7   2.0000      -9.881573      -268.8913
   8   2.0000      -9.874110      -268.6882
   9   2.0000      -9.873871      -268.6817
  10   2.0000      -9.871923      -268.6287
  11   2.0000      -9.869699      -268.5682
  12   2.0000      -9.781863      -266.1780
  13   2.0000      -7.874757      -214.2830
  14   2.0000      -5.899002      -160.5200
  15   2.0000      -5.892645      -160.3470
  16   2.0000      -5.892256      -160.3364
  17   2.0000      -1.290428       -35.1143
  18   2.0000      -1.022642       -27.8275
  19   2.0000      -0.928693       -25.2710
  20   2.0000      -0.832401       -22.6508
  21   2.0000      -0.763973       -20.7888
  22   2.0000      -0.722423       -19.6581
  23   2.0000      -0.692302       -18.8385
  24   2.0000      -0.659379       -17.9426
  25   2.0000      -0.630946       -17.1689
  26   2.0000      -0.607103       -16.5201
  27   2.0000      -0.570820       -15.5328
  28   2.0000      -0.537007       -14.6127
  29   2.0000      -0.531710       -14.4686
  30   2.0000      -0.512049       -13.9336
  31   2.0000      -0.505372       -13.7519
  32   2.0000      -0.481686       -13.1073
  33   2.0000      -0.452330       -12.3085
  34   2.0000      -0.444488       -12.0951
  35   2.0000      -0.441792       -12.0218
  36   2.0000      -0.425336       -11.5740
  37   2.0000      -0.417275       -11.3546
  38   2.0000      -0.399630       -10.8745
  39   2.0000      -0.389370       -10.5953
  40   2.0000      -0.379543       -10.3279
  41   2.0000      -0.366172        -9.9640
  42   2.0000      -0.352386        -9.5889
  43   2.0000      -0.340962        -9.2781
  44   2.0000      -0.333800        -9.0832
  45   2.0000      -0.319893        -8.7047
  46   2.0000      -0.314026        -8.5451
  47   2.0000      -0.307406        -8.3650
  48   2.0000      -0.295857        -8.0507
  49   2.0000      -0.292656        -7.9636
  50   2.0000      -0.284756        -7.7486
  51   2.0000      -0.275637        -7.5005
  52   2.0000      -0.273061        -7.4304
  53   2.0000      -0.265536        -7.2256
  54   2.0000      -0.258312        -7.0290
  55   2.0000      -0.134656        -3.6642
  56   0.0000      -0.023500        -0.6395
  57   0.0000      -0.009707        -0.2641
  58   0.0000       0.012616         0.3433
  59   0.0000       0.018405         0.5008
  60   0.0000       0.024502         0.6667

MULLIKEN ATOMIC CHARGES
-----------------------
   0 C :   -0.191296
   1 C :   -0.130382
   2 C :   -0.303732
   3 H :    0.165133
   4 H :    0.144470
   5 S :    0.741958
   6 C :    0.100895
   7 C :   -0.395960
   8 N :   -0.332374
   9 H :    0.200018
  10 H :    0.210500
  11 H :    0.074846
  12 H :    0.106192
  13 O :   -0.390874
  14 F :   -0.050456
  15 C :   -0.217108
  16 C :   -0.210917
  17 H :    0.113164
  18 H :    0.107114
  19 C :   -0.118022
  20 H :    0.108343
  21 H :    0.081187
  22 O :   -0.387585
  23 H :    0.114614
  24 H :    0.078773
  25 H :    0.087252
  26 H :    0.090168
  27 H :    0.087036
  28 H :    0.117044
Sum of atomic charges:   -0.0000000

LOEWDIN ATOMIC CHARGES
----------------------
   0 C :   -0.221519
   1 C :   -0.280178
   2 C :   -0.376715
   3 H :    0.147450
   4 H :    0.138364
   5 S :    0.483081
   6 C :   -0.398422
   7 C :   -0.289038
   8 N :    0.036239
   9 H :    0.156704
  10 H :    0.159008
  11 H :    0.102018
  12 H :    0.100302
  13 O :   -0.251514
  14 F :    0.126274
  15 C :   -0.255323
  16 C :   -0.271343
  17 H :    0.146360
  18 H :    0.149839
  19 C :   -0.272473
  20 H :    0.140055
  21 H :    0.134294
  22 O :   -0.246397
  23 H :    0.144312
  24 H :    0.134925
  25 H :    0.137507
  26 H :    0.140128
  27 H :    0.134813
  28 H :    0.151252

  Mayer bond orders larger than 0.100000
B(  0-C ,  6-C ) :   0.9737 B(  0-C , 15-C ) :   0.9865 B(  0-C , 27-H ) :   0.9478
B(  0-C , 28-H ) :   0.9576 B(  1-C ,  2-C ) :   0.9943 B(  1-C , 16-C ) :   1.0135
B(  1-C , 17-H ) :   0.9484 B(  1-C , 18-H ) :   0.9286 B(  2-C ,  3-H ) :   0.9309
B(  2-C ,  4-H ) :   0.9285 B(  2-C ,  5-S ) :   0.9014 B(  5-S , 13-O ) :   1.8477
B(  5-S , 14-F ) :   1.1958 B(  5-S , 22-O ) :   1.8968 B(  6-C ,  7-C ) :   1.7074
B(  6-C ,  8-N ) :   1.2499 B(  7-C , 11-H ) :   0.9901 B(  7-C , 12-H ) :   0.9722
B(  8-N ,  9-H ) :   0.9193 B(  8-N , 10-H ) :   0.9043 B( 15-C , 19-C ) :   1.0225
B( 15-C , 20-H ) :   0.9521 B( 15-C , 21-H ) :   0.9449 B( 16-C , 19-C ) :   0.9749
B( 16-C , 25-H ) :   0.9503 B( 16-C , 26-H ) :   0.9408 B( 19-C , 23-H ) :   0.9409
B( 19-C , 24-H ) :   0.9395

Dispersion correction           -0.036918150
FINAL SINGLE POINT ENERGY     -1017.012237558710

DIPOLE MOMENT
-------------
                                X             Y             Z
Electronic contribution:      0.09773      -4.29383     -22.54243
Nuclear contribution   :     -1.50273       5.82595      21.72909
                        -----------------------------------------
Total Dipole Moment    :     -1.40499       1.53212      -0.81334
                        -----------------------------------------
Magnitude (a.u.)       :      2.23224
Magnitude (Debye)      :      5.67391

Rotational constants in cm-1:     0.036883     0.018294     0.014745
Rotational constants in MHz :  1105.724679   548.429785   442.050481

                             ****ORCA TERMINATED NORMALLY****
TOTAL RUN TIME: 0 days 0 hours 0 minutes 21 seconds 732 msec
