                         Program Version 5.0.0 -  RELEASE  -
|  1> !M062X D3Zero RIJCOSX def2-SVPD def2/J TightSCF
|  2> *xyz -1 1
|  3> C          3.76678       -2.26611       -6.51175
|  4> C          2.49670       -1.84416       -5.73570
|  5> H          1.62642       -2.21743       -6.30895
|  6> H          2.48182       -2.45607       -4.79341
|  7> O          2.45973       -0.50920       -5.50576
|  8> H          3.82914       -1.70941       -7.42340
|  9> H          3.71764       -3.31144       -6.73483
| 10> H          4.63199       -2.06931       -5.91377
| 11> *
| 12>
| 13> %MaxCore 64000
| 14>
| 15> %pal nprocs 4
| 16> end
| 17>
| 18> %scf
| 19>   MaxIter 150
| 20> end
| 21>
| 22>
| 23>                          ****END OF INPUT****

CARTESIAN COORDINATES (ANGSTROEM)
---------------------------------
  C      3.766780   -2.266110   -6.511750
  C      2.496700   -1.844160   -5.735700
  H      1.626420   -2.217430   -6.308950
  H      2.481820   -2.456070   -4.793410
  O      2.459730   -0.509200   -5.505760
  H      3.829140   -1.709410   -7.423400
  H      3.717640   -3.311440   -6.734830
  H      4.631990   -2.069310   -5.913770

 Total Charge           Charge          ....   -1
 Multiplicity           Mult            ....    1
 Number of Electrons    NEL             ....   26
 Basis Dimension        Dim             ....  103

ORBITAL ENERGIES
----------------

  NO   OCC          E(Eh)            E(eV)
   0   2.0000     -19.298735      -525.1453
   1   2.0000     -10.364383      -282.0292
   2   2.0000     -10.339386      -281.3490
   3   2.0000      -0.782969       -21.3057
   4   2.0000      -0.608373       -16.5547
   5   2.0000      -0.446232       -12.1426
   6   2.0000      -0.316579        -8.6145
   7   2.0000      -0.292566        -7.9611
   8   2.0000      -0.235647        -6.4123
   9   2.0000      -0.219077        -5.9614
  10   2.0000      -0.179871        -4.8945
  11   2.0000      -0.031829        -0.8661
  12   2.0000      -0.030731        -0.8362
  13   0.0000       0.201645         5.4870
  14   0.0000       0.231929         6.3111
  15   0.0000       0.272916         7.4264
  16   0.0000       0.284546         7.7429
  17   0.0000       0.297262         8.0889

MULLIKEN ATOMIC CHARGES
-----------------------
   0 C :    0.316965
   1 C :    0.145079
   2 H :   -0.165860
   3 H :   -0.121289
   4 O :   -0.899490
   5 H :   -0.106152
   6 H :   -0.071235
   7 H :   -0.098018
Sum of atomic charges:   -1.0000000

LOEWDIN ATOMIC CHARGES
----------------------
   0 C :    0.062677
   1 C :   -0.261399
   2 H :   -0.035285
   3 H :   -0.027372
   4 O :   -0.590180
   5 H :   -0.043274
   6 H :   -0.060971
   7 H :   -0.044197

  Mayer bond orders larger than 0.100000
B(  0-C ,  1-C ) :   1.1746 B(  0-C ,  2-H ) :   0.1163 B(  0-C ,  3-H ) :   0.1116
B(  0-C ,  4-O ) :   0.1314 B(  0-C ,  5-H ) :   0.9075 B(  0-C ,  6-H ) :   0.8997
B(  0-C ,  7-H ) :   0.8982 B(  1-C ,  2-H ) :   0.9773 B(  1-C ,  3-H ) :   0.9830
B(  1-C ,  4-O ) :   1.1409 B(  1-C ,  5-H ) :   0.1732 B(  1-C ,  6-H ) :   0.1178
B(  1-C ,  7-H ) :   0.1673

Dispersion correction           -0.000014695
FINAL SINGLE POINT ENERGY      -154.234665793655

DIPOLE MOMENT
-------------
                                X             Y             Z
Electronic contribution:     -1.05130       2.46373       0.93300
Nuclear contribution   :      1.63615      -3.79938      -1.48621
                        -----------------------------------------
Total Dipole Moment    :      0.58485      -1.33565      -0.55321
                        -----------------------------------------
Magnitude (a.u.)       :      1.55950
Magnitude (Debye)      :      3.96394

Rotational constants in cm-1:     1.265582     0.329289     0.289024
Rotational constants in MHz : 37941.194363  9871.829581  8664.719106

                             ****ORCA TERMINATED NORMALLY****
TOTAL RUN TIME: 0 days 0 hours 0 minutes 10 seconds 511 msec
