                         Program Version 5.0.0 -  RELEASE  -
|  1> !M062X D3Zero RIJCOSX def2-SVPD def2/J TightSCF
|  2> *xyz 1 1
|  3> C          4.99986       -1.59613       -5.92488
|  4> N          5.28156       -1.97413       -4.53576
|  5> C          3.76678       -2.26611       -6.51175
|  6> C          4.79250       -1.36132       -3.45730
|  7> N          3.93990       -0.37492       -3.55736
|  8> N          5.25986       -1.75422       -2.23913
|  9> H          5.92282       -2.52145       -2.18672
| 10> H          4.65468       -1.64040       -1.44202
| 11> H          5.70914       -2.87560       -4.38702
| 12> H          3.33010       -0.31764       -4.36125
| 13> H          3.69849        0.11447       -2.70833
| 14> H          4.84333       -0.51793       -5.94302
| 15> H          5.90170       -1.82250       -6.49647
| 16> H          3.63046       -1.94025       -7.52177
| 17> H          2.90710       -2.00116       -5.93240
| 18> H          3.89538       -3.32820       -6.49392
| 19> *
| 20>
| 21> %MaxCore 64000
| 22>
| 23> %pal nprocs 4
| 24> end
| 25>
| 26> %scf
| 27>   MaxIter 150
| 28> end
| 29>
| 30>
| 31>                          ****END OF INPUT****

CARTESIAN COORDINATES (ANGSTROEM)
---------------------------------
  C      4.999860   -1.596130   -5.924880
  N      5.281560   -1.974130   -4.535760
  C      3.766780   -2.266110   -6.511750
  C      4.792500   -1.361320   -3.457300
  N      3.939900   -0.374920   -3.557360
  N      5.259860   -1.754220   -2.239130
  H      5.922820   -2.521450   -2.186720
  H      4.654680   -1.640400   -1.442020
  H      5.709140   -2.875600   -4.387020
  H      3.330100   -0.317640   -4.361250
  H      3.698490    0.114470   -2.708330
  H      4.843330   -0.517930   -5.943020
  H      5.901700   -1.822500   -6.496470
  H      3.630460   -1.940250   -7.521770
  H      2.907100   -2.001160   -5.932400
  H      3.895380   -3.328200   -6.493920

 Total Charge           Charge          ....    1
 Multiplicity           Mult            ....    1
 Number of Electrons    NEL             ....   48
 Basis Dimension        Dim             ....  200

ORBITAL ENERGIES
----------------

  NO   OCC          E(Eh)            E(eV)
   0   2.0000     -14.992141      -407.9569
   1   2.0000     -14.987641      -407.8345
   2   2.0000     -14.981707      -407.6730
   3   2.0000     -10.893404      -296.4246
   4   2.0000     -10.758531      -292.7545
   5   2.0000     -10.691555      -290.9320
   6   2.0000      -1.319501       -35.9054
   7   2.0000      -1.201763       -32.7016
   8   2.0000      -1.185171       -32.2501
   9   2.0000      -1.020800       -27.7774
  10   2.0000      -0.923739       -25.1362
  11   2.0000      -0.884367       -24.0649
  12   2.0000      -0.868306       -23.6278
  13   2.0000      -0.815684       -22.1959
  14   2.0000      -0.768920       -20.9234
  15   2.0000      -0.763766       -20.7831
  16   2.0000      -0.711704       -19.3664
  17   2.0000      -0.706742       -19.2314
  18   2.0000      -0.676204       -18.4004
  19   2.0000      -0.628995       -17.1158
  20   2.0000      -0.598684       -16.2910
  21   2.0000      -0.578455       -15.7406
  22   2.0000      -0.545537       -14.8448
  23   2.0000      -0.512787       -13.9536
  24   0.0000      -0.141600        -3.8531
  25   0.0000      -0.127046        -3.4571
  26   0.0000      -0.097135        -2.6432
  27   0.0000      -0.088622        -2.4115
  28   0.0000      -0.064860        -1.7649

MULLIKEN ATOMIC CHARGES
-----------------------
   0 C :    0.271372
   1 N :   -0.465593
   2 C :    0.654087
   3 C :    1.364560
   4 N :    0.002366
   5 N :   -0.145480
   6 H :   -0.014411
   7 H :   -0.001367
   8 H :   -0.258180
   9 H :   -0.039044
  10 H :   -0.071416
  11 H :   -0.030552
  12 H :   -0.250998
  13 H :    0.088611
  14 H :   -0.096222
  15 H :   -0.007733
Sum of atomic charges:    1.0000000

LOEWDIN ATOMIC CHARGES
----------------------
   0 C :    0.043811
   1 N :    0.035909
   2 C :    0.159584
   3 C :   -0.024823
   4 N :    0.279758
   5 N :    0.254162
   6 H :    0.035204
   7 H :    0.029528
   8 H :    0.056523
   9 H :    0.029653
  10 H :    0.047216
  11 H :    0.026939
  12 H :    0.042679
  13 H :    0.006955
  14 H :   -0.019994
  15 H :   -0.003106

  Mayer bond orders larger than 0.100000
B(  0-C ,  1-N ) :   0.8886 B(  0-C ,  2-C ) :   1.2433 B(  0-C ,  8-H ) :  -0.2152
B(  0-C , 11-H ) :   0.8555 B(  0-C , 12-H ) :   0.9607 B(  0-C , 13-H ) :   0.1587
B(  0-C , 14-H ) :   0.2036 B(  0-C , 15-H ) :   0.2241 B(  1-N ,  3-C ) :   1.0339
B(  1-N ,  4-N ) :   0.2185 B(  1-N ,  5-N ) :   0.1834 B(  1-N ,  8-H ) :   1.3411
B(  1-N , 11-H ) :   0.1429 B(  1-N , 12-H ) :   0.1491 B(  2-C , 13-H ) :   0.7952
B(  2-C , 14-H ) :   0.8219 B(  2-C , 15-H ) :   0.8062 B(  3-C ,  4-N ) :   1.0341
B(  3-C ,  5-N ) :   0.7868 B(  3-C ,  6-H ) :  -0.1059 B(  3-C ,  8-H ) :  -0.2254
B(  3-C ,  9-H ) :  -0.1313 B(  3-C , 10-H ) :  -0.1088 B(  4-N ,  5-N ) :   0.1413
B(  4-N ,  9-H ) :   1.1337 B(  4-N , 10-H ) :   1.1865 B(  5-N ,  6-H ) :   1.0754
B(  5-N ,  7-H ) :   1.1436 B(  6-H ,  7-H ) :  -0.1356 B(  9-H , 10-H ) :  -0.1787

Dispersion correction           -0.000310223
FINAL SINGLE POINT ENERGY      -284.065437453828

DIPOLE MOMENT
-------------
                                X             Y             Z
Electronic contribution:      1.74354       1.09498       4.71400
Nuclear contribution   :     -1.95709      -1.20097      -3.70214
                        -----------------------------------------
Total Dipole Moment    :     -0.21355      -0.10599       1.01186
                        -----------------------------------------
Magnitude (a.u.)       :      1.03957
Magnitude (Debye)      :      2.64238

Rotational constants in cm-1:     0.241661     0.071598     0.061743
Rotational constants in MHz :  7244.800091  2146.442409  1851.001864

                             ****ORCA TERMINATED NORMALLY****
TOTAL RUN TIME: 0 days 0 hours 0 minutes 31 seconds 26 msec
