                         Program Version 5.0.0 -  RELEASE  -
|  1> !M062X D3Zero RIJCOSX def2-SVPD def2/J TightSCF
|  2> *xyz 0 1
|  3> C          3.76678       -2.26611       -6.51175
|  4> C          2.49670       -1.84416       -5.73570
|  5> H          1.62642       -2.21743       -6.30895
|  6> H          2.48182       -2.45607       -4.79341
|  7> F          2.45973       -0.50920       -5.50576
|  8> H          3.82914       -1.70941       -7.42340
|  9> H          3.71764       -3.31144       -6.73483
| 10> H          4.63199       -2.06931       -5.91377
| 11> *
| 12>
| 13> %MaxCore 64000
| 14>
| 15> %pal nprocs 4
| 16> end
| 17>
| 18> %scf
| 19>   MaxIter 150
| 20> end
| 21>
| 22>
| 23>                          ****END OF INPUT****

CARTESIAN COORDINATES (ANGSTROEM)
---------------------------------
  C      3.766780   -2.266110   -6.511750
  C      2.496700   -1.844160   -5.735700
  H      1.626420   -2.217430   -6.308950
  H      2.481820   -2.456070   -4.793410
  F      2.459730   -0.509200   -5.505760
  H      3.829140   -1.709410   -7.423400
  H      3.717640   -3.311440   -6.734830
  H      4.631990   -2.069310   -5.913770

 Total Charge           Charge          ....    0
 Multiplicity           Mult            ....    1
 Number of Electrons    NEL             ....   26
 Basis Dimension        Dim             ....  103

ORBITAL ENERGIES
----------------

  NO   OCC          E(Eh)            E(eV)
   0   2.0000     -25.247661      -687.0238
   1   2.0000     -10.633297      -289.3467
   2   2.0000     -10.546564      -286.9866
   3   2.0000      -1.327726       -36.1293
   4   2.0000      -0.852364       -23.1940
   5   2.0000      -0.716968       -19.5097
   6   2.0000      -0.595977       -16.2174
   7   2.0000      -0.583982       -15.8910
   8   2.0000      -0.549369       -14.9491
   9   2.0000      -0.482094       -13.1185
  10   2.0000      -0.468129       -12.7385
  11   2.0000      -0.404483       -11.0065
  12   2.0000      -0.398699       -10.8492
  13   0.0000       0.039913         1.0861
  14   0.0000       0.069673         1.8959
  15   0.0000       0.100436         2.7330
  16   0.0000       0.105644         2.8747
  17   0.0000       0.134634         3.6636

MULLIKEN ATOMIC CHARGES
-----------------------
   0 C :    0.236000
   1 C :    0.366201
   2 H :   -0.045753
   3 H :   -0.005752
   4 F :   -0.465976
   5 H :   -0.040898
   6 H :   -0.013382
   7 H :   -0.030439
Sum of atomic charges:   -0.0000000

LOEWDIN ATOMIC CHARGES
----------------------
   0 C :    0.136534
   1 C :    0.070324
   2 H :    0.027983
   3 H :    0.037888
   4 F :   -0.227277
   5 H :   -0.015013
   6 H :   -0.014691
   7 H :   -0.015748

  Mayer bond orders larger than 0.100000
B(  0-C ,  1-C ) :   1.3346 B(  0-C ,  5-H ) :   0.9101 B(  0-C ,  6-H ) :   0.8784
B(  0-C ,  7-H ) :   0.9050 B(  1-C ,  2-H ) :   0.9618 B(  1-C ,  3-H ) :   0.9590
B(  1-C ,  4-F ) :   0.6911 B(  1-C ,  5-H ) :   0.1336 B(  1-C ,  6-H ) :   0.1066
B(  1-C ,  7-H ) :   0.1275

Dispersion correction           -0.000018643
FINAL SINGLE POINT ENERGY      -178.847342423899

DIPOLE MOMENT
-------------
                                X             Y             Z
Electronic contribution:     -2.07738       4.30755       1.80694
Nuclear contribution   :      2.16248      -5.01128      -1.96962
                        -----------------------------------------
Total Dipole Moment    :      0.08510      -0.70373      -0.16268
                        -----------------------------------------
Magnitude (a.u.)       :      0.72729
Magnitude (Debye)      :      1.84862

Rotational constants in cm-1:     1.244010     0.306580     0.270375
Rotational constants in MHz : 37294.476802  9191.037795  8105.639967

                             ****ORCA TERMINATED NORMALLY****
TOTAL RUN TIME: 0 days 0 hours 0 minutes 10 seconds 765 msec
