                         Program Version 5.0.0 -  RELEASE  -
|  1> !M062X D3Zero RIJCOSX def2-SVPD def2/J TightSCF
|  2> *xyz 0 1
|  3> C          4.99986       -1.59613       -5.92488
|  4> C          5.28156       -1.97413       -4.53576
|  5> C          3.76678       -2.26611       -6.51175
|  6> C          4.79250       -1.36132       -3.45730
|  7> N          3.93990       -0.37492       -3.55736
|  8> N          5.25986       -1.75422       -2.23913
|  9> H          5.92282       -2.52145       -2.18672
| 10> H          4.65468       -1.64040       -1.44202
| 11> H          5.70914       -2.87560       -4.38702
| 12> H          3.33010       -0.31764       -4.36125
| 13> H          3.69849        0.11447       -2.70833
| 14> H          4.84333       -0.51793       -5.94302
| 15> H          5.90170       -1.82250       -6.49647
| 16> H          3.63046       -1.94025       -7.52177
| 17> H          2.90710       -2.00116       -5.93240
| 18> H          3.89538       -3.32820       -6.49392
| 19> *
| 20>
| 21> %MaxCore 64000
| 22>
| 23> %pal nprocs 4
| 24> end
| 25>
| 26> %scf
| 27>   MaxIter 150
| 28> end
| 29>
| 30>
| 31>                          ****END OF INPUT****

CARTESIAN COORDINATES (ANGSTROEM)
---------------------------------
  C      4.999860   -1.596130   -5.924880
  C      5.281560   -1.974130   -4.535760
  C      3.766780   -2.266110   -6.511750
  C      4.792500   -1.361320   -3.457300
  N      3.939900   -0.374920   -3.557360
  N      5.259860   -1.754220   -2.239130
  H      5.922820   -2.521450   -2.186720
  H      4.654680   -1.640400   -1.442020
  H      5.709140   -2.875600   -4.387020
  H      3.330100   -0.317640   -4.361250
  H      3.698490    0.114470   -2.708330
  H      4.843330   -0.517930   -5.943020
  H      5.901700   -1.822500   -6.496470
  H      3.630460   -1.940250   -7.521770
  H      2.907100   -2.001160   -5.932400
  H      3.895380   -3.328200   -6.493920

 Total Charge           Charge          ....    0
 Multiplicity           Mult            ....    1
 Number of Electrons    NEL             ....   48
 Basis Dimension        Dim             ....  200

ORBITAL ENERGIES
----------------

  NO   OCC          E(Eh)            E(eV)
   0   2.0000     -14.766459      -401.8158
   1   2.0000     -14.757947      -401.5842
   2   2.0000     -10.595362      -288.3145
   3   2.0000     -10.523727      -286.3652
   4   2.0000     -10.520034      -286.2647
   5   2.0000     -10.475793      -285.0608
   6   2.0000      -1.062725       -28.9182
   7   2.0000      -0.963257       -26.2115
   8   2.0000      -0.864150       -23.5147
   9   2.0000      -0.779924       -21.2228
  10   2.0000      -0.694599       -18.9010
  11   2.0000      -0.654931       -17.8216
  12   2.0000      -0.621395       -16.9090
  13   2.0000      -0.576727       -15.6935
  14   2.0000      -0.547304       -14.8929
  15   2.0000      -0.513202       -13.9649
  16   2.0000      -0.483323       -13.1519
  17   2.0000      -0.465965       -12.6796
  18   2.0000      -0.450326       -12.2540
  19   2.0000      -0.416428       -11.3316
  20   2.0000      -0.388400       -10.5689
  21   2.0000      -0.380706       -10.3595
  22   2.0000      -0.331016        -9.0074
  23   2.0000      -0.214583        -5.8391
  24   0.0000       0.034243         0.9318
  25   0.0000       0.060445         1.6448
  26   0.0000       0.070521         1.9190
  27   0.0000       0.082822         2.2537
  28   0.0000       0.097873         2.6633

MULLIKEN ATOMIC CHARGES
-----------------------
   0 C :   -0.182648
   1 C :   -0.364976
   2 C :    0.668302
   3 C :    0.934325
   4 N :    0.062594
   5 N :   -0.150888
   6 H :    0.000381
   7 H :   -0.092547
   8 H :   -0.335105
   9 H :   -0.079978
  10 H :   -0.198494
  11 H :   -0.017906
  12 H :   -0.100534
  13 H :    0.027253
  14 H :   -0.137086
  15 H :   -0.032694
Sum of atomic charges:    0.0000000

LOEWDIN ATOMIC CHARGES
----------------------
   0 C :   -0.103557
   1 C :   -0.025104
   2 C :    0.115734
   3 C :   -0.224926
   4 N :    0.191903
   5 N :    0.170374
   6 H :    0.002268
   7 H :   -0.019979
   8 H :   -0.055044
   9 H :   -0.001310
  10 H :   -0.000127
  11 H :    0.005146
  12 H :    0.014846
  13 H :   -0.023075
  14 H :   -0.029733
  15 H :   -0.017416

  Mayer bond orders larger than 0.100000
B(  0-C ,  1-C ) :   1.1751 B(  0-C ,  2-C ) :   1.1947 B(  0-C ,  8-H ) :   0.2057
B(  0-C , 11-H ) :   0.8411 B(  0-C , 12-H ) :   0.8905 B(  0-C , 13-H ) :   0.1607
B(  0-C , 14-H ) :   0.2101 B(  0-C , 15-H ) :   0.2292 B(  1-C ,  3-C ) :   1.5369
B(  1-C ,  4-N ) :   0.2967 B(  1-C ,  5-N ) :   0.3136 B(  1-C ,  8-H ) :   0.9127
B(  1-C , 11-H ) :   0.2787 B(  1-C , 12-H ) :   0.1800 B(  2-C , 13-H ) :   0.8109
B(  2-C , 14-H ) :   0.8339 B(  2-C , 15-H ) :   0.8054 B(  3-C ,  4-N ) :   1.0223
B(  3-C ,  5-N ) :   0.7077 B(  3-C ,  8-H ) :   0.1033 B(  3-C , 10-H ) :  -0.1126
B(  3-C , 11-H ) :  -0.1069 B(  4-N ,  9-H ) :   1.1065 B(  4-N , 10-H ) :   1.2394
B(  5-N ,  6-H ) :   1.0601 B(  5-N ,  7-H ) :   1.1442 B(  6-H ,  7-H ) :  -0.1226
B(  9-H , 10-H ) :  -0.1695

Dispersion correction           -0.000308397
FINAL SINGLE POINT ENERGY      -267.601186522699

DIPOLE MOMENT
-------------
                                X             Y             Z
Electronic contribution:      1.22659       1.38212       4.49056
Nuclear contribution   :     -1.82485      -1.28952      -3.74132
                        -----------------------------------------
Total Dipole Moment    :     -0.59826       0.09260       0.74924
                        -----------------------------------------
Magnitude (a.u.)       :      0.96325
Magnitude (Debye)      :      2.44840

Rotational constants in cm-1:     0.245790     0.071632     0.062004
Rotational constants in MHz :  7368.599517  2147.482078  1858.844841

                             ****ORCA TERMINATED NORMALLY****
TOTAL RUN TIME: 0 days 0 hours 0 minutes 30 seconds 127 msec
