                         Program Version 5.0.0 -  RELEASE  -
|  1> !M062X D3Zero RIJCOSX def2-SVPD def2/J TightSCF
|  2> *xyz 0 1
|  3> C          4.99986       -1.59613       -5.92488
|  4> N          5.28156       -1.97413       -4.53576
|  5> C          3.76678       -2.26611       -6.51175
|  6> C          4.79250       -1.36132       -3.45730
|  7> C          3.93990       -0.37492       -3.55736
|  8> N          5.25986       -1.75422       -2.23913
|  9> H          5.92282       -2.52145       -2.18672
| 10> H          4.65468       -1.64040       -1.44202
| 11> H          5.70914       -2.87560       -4.38702
| 12> H          3.33010       -0.31764       -4.36125
| 13> H          3.69849        0.11447       -2.70833
| 14> H          4.84333       -0.51793       -5.94302
| 15> H          5.90170       -1.82250       -6.49647
| 16> H          3.63046       -1.94025       -7.52177
| 17> H          2.90710       -2.00116       -5.93240
| 18> H          3.89538       -3.32820       -6.49392
| 19> *
| 20>
| 21> %MaxCore 64000
| 22>
| 23> %pal nprocs 4
| 24> end
| 25>
| 26> %scf
| 27>   MaxIter 150
| 28> end
| 29>
| 30>
| 31>                          ****END OF INPUT****

CARTESIAN COORDINATES (ANGSTROEM)
---------------------------------
  C      4.999860   -1.596130   -5.924880
  N      5.281560   -1.974130   -4.535760
  C      3.766780   -2.266110   -6.511750
  C      4.792500   -1.361320   -3.457300
  C      3.939900   -0.374920   -3.557360
  N      5.259860   -1.754220   -2.239130
  H      5.922820   -2.521450   -2.186720
  H      4.654680   -1.640400   -1.442020
  H      5.709140   -2.875600   -4.387020
  H      3.330100   -0.317640   -4.361250
  H      3.698490    0.114470   -2.708330
  H      4.843330   -0.517930   -5.943020
  H      5.901700   -1.822500   -6.496470
  H      3.630460   -1.940250   -7.521770
  H      2.907100   -2.001160   -5.932400
  H      3.895380   -3.328200   -6.493920

 Total Charge           Charge          ....    0
 Multiplicity           Mult            ....    1
 Number of Electrons    NEL             ....   48
 Basis Dimension        Dim             ....  200

ORBITAL ENERGIES
----------------

  NO   OCC          E(Eh)            E(eV)
   0   2.0000     -14.762860      -401.7178
   1   2.0000     -14.758586      -401.6015
   2   2.0000     -10.597012      -288.3593
   3   2.0000     -10.582368      -287.9609
   4   2.0000     -10.535854      -286.6952
   5   2.0000     -10.465773      -284.7882
   6   2.0000      -1.062175       -28.9033
   7   2.0000      -0.972157       -26.4537
   8   2.0000      -0.844088       -22.9688
   9   2.0000      -0.803701       -21.8698
  10   2.0000      -0.717730       -19.5304
  11   2.0000      -0.640215       -17.4211
  12   2.0000      -0.617948       -16.8152
  13   2.0000      -0.584379       -15.9018
  14   2.0000      -0.525391       -14.2966
  15   2.0000      -0.514945       -14.0124
  16   2.0000      -0.496538       -13.5115
  17   2.0000      -0.465317       -12.6619
  18   2.0000      -0.450066       -12.2469
  19   2.0000      -0.435319       -11.8456
  20   2.0000      -0.419062       -11.4033
  21   2.0000      -0.410247       -11.1634
  22   2.0000      -0.313084        -8.5194
  23   2.0000      -0.226584        -6.1657
  24   0.0000       0.034979         0.9518
  25   0.0000       0.057880         1.5750
  26   0.0000       0.066781         1.8172
  27   0.0000       0.074498         2.0272
  28   0.0000       0.098631         2.6839

MULLIKEN ATOMIC CHARGES
-----------------------
   0 C :    0.235188
   1 N :   -0.448101
   2 C :    0.707875
   3 C :    0.807004
   4 C :    0.302607
   5 N :   -0.078267
   6 H :   -0.131124
   7 H :   -0.023285
   8 H :   -0.368195
   9 H :   -0.230491
  10 H :   -0.346354
  11 H :    0.035445
  12 H :   -0.313793
  13 H :    0.035236
  14 H :   -0.140962
  15 H :   -0.042783
Sum of atomic charges:    0.0000000

LOEWDIN ATOMIC CHARGES
----------------------
   0 C :    0.017986
   1 N :   -0.034192
   2 C :    0.133919
   3 C :   -0.232747
   4 C :    0.159463
   5 N :    0.175816
   6 H :   -0.012782
   7 H :   -0.003474
   8 H :    0.016765
   9 H :   -0.103449
  10 H :   -0.092837
  11 H :    0.016749
  12 H :    0.018194
  13 H :   -0.015761
  14 H :   -0.023563
  15 H :   -0.020087

  Mayer bond orders larger than 0.100000
B(  0-C ,  1-N ) :   0.9000 B(  0-C ,  2-C ) :   1.2023 B(  0-C ,  4-C ) :   0.1079
B(  0-C ,  8-H ) :  -0.2059 B(  0-C , 11-H ) :   0.8357 B(  0-C , 12-H ) :   0.9846
B(  0-C , 13-H ) :   0.1757 B(  0-C , 14-H ) :   0.2112 B(  0-C , 15-H ) :   0.2182
B(  1-N ,  3-C ) :   0.9023 B(  1-N ,  4-C ) :   0.3481 B(  1-N ,  5-N ) :   0.1299
B(  1-N ,  8-H ) :   1.3820 B(  1-N , 11-H ) :   0.1290 B(  1-N , 12-H ) :   0.1418
B(  2-C , 13-H ) :   0.7857 B(  2-C , 14-H ) :   0.8582 B(  2-C , 15-H ) :   0.7993
B(  3-C ,  4-C ) :   1.7454 B(  3-C ,  5-N ) :   0.7697 B(  3-C ,  8-H ) :  -0.2561
B(  3-C ,  9-H ) :   0.1875 B(  3-C , 10-H ) :   0.2974 B(  4-C ,  5-N ) :   0.2703
B(  4-C ,  9-H ) :   0.6582 B(  4-C , 10-H ) :   0.7440 B(  5-N ,  6-H ) :   1.0837
B(  5-N ,  7-H ) :   1.1126 B(  6-H ,  7-H ) :  -0.1291 B(  9-H , 11-H ) :   0.1316
B( 11-H , 12-H ) :  -0.1169

Dispersion correction           -0.000305731
FINAL SINGLE POINT ENERGY      -267.594411464006

DIPOLE MOMENT
-------------
                                X             Y             Z
Electronic contribution:      2.39340      -0.06985       3.48333
Nuclear contribution   :     -2.10948      -0.95026      -3.53375
                        -----------------------------------------
Total Dipole Moment    :      0.28392      -1.02011      -0.05043
                        -----------------------------------------
Magnitude (a.u.)       :      1.06008
Magnitude (Debye)      :      2.69451

Rotational constants in cm-1:     0.255209     0.072067     0.062929
Rotational constants in MHz :  7650.964615  2160.525743  1886.569524

                             ****ORCA TERMINATED NORMALLY****
TOTAL RUN TIME: 0 days 0 hours 0 minutes 30 seconds 919 msec
