                         Program Version 5.0.0 -  RELEASE  -
|  1> !M062X D3Zero RIJCOSX def2-SVPD def2/J TightSCF
|  2> *xyz 0 1
|  3> C          4.99986       -1.59613       -5.92488
|  4> N          5.28156       -1.97413       -4.53576
|  5> C          3.76678       -2.26611       -6.51175
|  6> C          4.79250       -1.36132       -3.45730
|  7> N          3.93990       -0.37492       -3.55736
|  8> C          5.25986       -1.75422       -2.23913
|  9> H          5.92282       -2.52145       -2.18672
| 10> H          4.65468       -1.64040       -1.44202
| 11> H          5.70914       -2.87560       -4.38702
| 12> H          3.33010       -0.31764       -4.36125
| 13> H          3.69849        0.11447       -2.70833
| 14> H          4.84333       -0.51793       -5.94302
| 15> H          5.90170       -1.82250       -6.49647
| 16> H          3.63046       -1.94025       -7.52177
| 17> H          2.90710       -2.00116       -5.93240
| 18> H          3.89538       -3.32820       -6.49392
| 19> *
| 20>
| 21> %MaxCore 64000
| 22>
| 23> %pal nprocs 4
| 24> end
| 25>
| 26> %scf
| 27>   MaxIter 150
| 28> end
| 29>
| 30>
| 31>                          ****END OF INPUT****

CARTESIAN COORDINATES (ANGSTROEM)
---------------------------------
  C      4.999860   -1.596130   -5.924880
  N      5.281560   -1.974130   -4.535760
  C      3.766780   -2.266110   -6.511750
  C      4.792500   -1.361320   -3.457300
  N      3.939900   -0.374920   -3.557360
  C      5.259860   -1.754220   -2.239130
  H      5.922820   -2.521450   -2.186720
  H      4.654680   -1.640400   -1.442020
  H      5.709140   -2.875600   -4.387020
  H      3.330100   -0.317640   -4.361250
  H      3.698490    0.114470   -2.708330
  H      4.843330   -0.517930   -5.943020
  H      5.901700   -1.822500   -6.496470
  H      3.630460   -1.940250   -7.521770
  H      2.907100   -2.001160   -5.932400
  H      3.895380   -3.328200   -6.493920

 Total Charge           Charge          ....    0
 Multiplicity           Mult            ....    1
 Number of Electrons    NEL             ....   48
 Basis Dimension        Dim             ....  200

ORBITAL ENERGIES
----------------

  NO   OCC          E(Eh)            E(eV)
   0   2.0000     -14.766680      -401.8218
   1   2.0000     -14.762900      -401.7189
   2   2.0000     -10.601315      -288.4765
   3   2.0000     -10.591268      -288.2030
   4   2.0000     -10.546820      -286.9936
   5   2.0000     -10.460188      -284.6362
   6   2.0000      -1.073112       -29.2009
   7   2.0000      -0.983505       -26.7625
   8   2.0000      -0.862255       -23.4632
   9   2.0000      -0.781961       -21.2783
  10   2.0000      -0.708629       -19.2828
  11   2.0000      -0.682073       -18.5601
  12   2.0000      -0.621021       -16.8988
  13   2.0000      -0.572362       -15.5748
  14   2.0000      -0.552928       -15.0459
  15   2.0000      -0.514427       -13.9983
  16   2.0000      -0.500719       -13.6252
  17   2.0000      -0.472093       -12.8463
  18   2.0000      -0.454162       -12.3584
  19   2.0000      -0.430560       -11.7161
  20   2.0000      -0.427332       -11.6283
  21   2.0000      -0.413478       -11.2513
  22   2.0000      -0.319770        -8.7014
  23   2.0000      -0.211084        -5.7439
  24   0.0000       0.029615         0.8059
  25   0.0000       0.062932         1.7125
  26   0.0000       0.063906         1.7390
  27   0.0000       0.069764         1.8984
  28   0.0000       0.096001         2.6123

MULLIKEN ATOMIC CHARGES
-----------------------
   0 C :    0.293831
   1 N :   -0.336439
   2 C :    0.676206
   3 C :    0.518997
   4 N :    0.090861
   5 C :    0.459793
   6 H :   -0.217064
   7 H :   -0.419891
   8 H :   -0.326186
   9 H :   -0.130358
  10 H :   -0.092005
  11 H :   -0.069108
  12 H :   -0.323980
  13 H :    0.038350
  14 H :   -0.117157
  15 H :   -0.045852
Sum of atomic charges:   -0.0000000

LOEWDIN ATOMIC CHARGES
----------------------
   0 C :    0.011733
   1 N :   -0.021217
   2 C :    0.129877
   3 C :   -0.236925
   4 N :    0.191910
   5 C :    0.145663
   6 H :   -0.109666
   7 H :   -0.116456
   8 H :    0.031305
   9 H :   -0.012998
  10 H :    0.015551
  11 H :    0.011448
  12 H :    0.019008
  13 H :   -0.015916
  14 H :   -0.026856
  15 H :   -0.016460

  Mayer bond orders larger than 0.100000
B(  0-C ,  1-N ) :   0.9082 B(  0-C ,  2-C ) :   1.2149 B(  0-C ,  8-H ) :  -0.2356
B(  0-C , 11-H ) :   0.8692 B(  0-C , 12-H ) :   0.9526 B(  0-C , 13-H ) :   0.1685
B(  0-C , 14-H ) :   0.2196 B(  0-C , 15-H ) :   0.2369 B(  1-N ,  3-C ) :   1.0485
B(  1-N ,  4-N ) :   0.1683 B(  1-N ,  5-C ) :   0.2235 B(  1-N ,  8-H ) :   1.2830
B(  1-N , 11-H ) :   0.1393 B(  1-N , 12-H ) :   0.1566 B(  2-C , 13-H ) :   0.8007
B(  2-C , 14-H ) :   0.8193 B(  2-C , 15-H ) :   0.8017 B(  3-C ,  4-N ) :   1.0553
B(  3-C ,  5-C ) :   1.7092 B(  3-C ,  6-H ) :   0.1977 B(  3-C ,  7-H ) :   0.2147
B(  3-C ,  8-H ) :  -0.2008 B(  4-N ,  5-C ) :   0.1892 B(  4-N ,  9-H ) :   1.1202
B(  4-N , 10-H ) :   1.1653 B(  5-C ,  6-H ) :   0.7565 B(  5-C ,  7-H ) :   0.7641
B(  6-H ,  7-H ) :   0.1145 B(  9-H , 10-H ) :  -0.1705 B( 11-H , 12-H ) :  -0.1016

Dispersion correction           -0.000305321
FINAL SINGLE POINT ENERGY      -267.588236284943

DIPOLE MOMENT
-------------
                                X             Y             Z
Electronic contribution:      1.15032       1.25125       2.13649
Nuclear contribution   :     -1.82946      -1.24287      -3.25410
                        -----------------------------------------
Total Dipole Moment    :     -0.67914       0.00838      -1.11761
                        -----------------------------------------
Magnitude (a.u.)       :      1.30780
Magnitude (Debye)      :      3.32417

Rotational constants in cm-1:     0.244672     0.074506     0.064043
Rotational constants in MHz :  7335.067153  2233.624025  1919.970379

                             ****ORCA TERMINATED NORMALLY****
TOTAL RUN TIME: 0 days 0 hours 0 minutes 32 seconds 667 msec
