                         Program Version 5.0.0 -  RELEASE  -
|  1> !M062X D3Zero RIJCOSX def2-SVPD def2/J TightSCF xyzfile
|  2>
|  3> *xyzfile 0 1 D3.xyz
|  4>
|  5> %MaxCore 64000
|  6>
|  7> %pal nprocs 4
|  8> end
|  9>
| 10> %scf
| 11>   MaxIter 150
| 12> end
| 13>
| 14>
| 15>                          ****END OF INPUT****

CARTESIAN COORDINATES (ANGSTROEM)
---------------------------------
  C      4.999862   -1.596133   -5.924876
  N      5.281560   -1.974132   -4.535764
  C      3.766779   -2.266110   -6.511752
  C      2.496702   -1.844161   -5.735704
  H      1.626416   -2.217434   -6.308950
  H      2.481824   -2.456069   -4.793414
  F      2.459729   -0.509204   -5.505757
  C      4.792500   -1.361316   -3.457295
  N      3.939898   -0.374925   -3.557359
  C      5.259860   -1.754224   -2.239133
  H      5.922824   -2.521451   -2.186720
  H      4.654678   -1.640404   -1.442016
  H      5.709139   -2.875599   -4.387021
  H      3.330101   -0.317639   -4.361247
  H      3.698494    0.114468   -2.708333
  H      4.843333   -0.517930   -5.943019
  H      5.901695   -1.822503   -6.496467
  H      3.886191   -3.357076   -6.533604
  H      3.685602   -1.922168   -7.547128

 Total Charge           Charge          ....    0
 Multiplicity           Mult            ....    1
 Number of Electrons    NEL             ....   64
 Basis Dimension        Dim             ....  251

ORBITAL ENERGIES
----------------

  NO   OCC          E(Eh)            E(eV)
   0   2.0000     -25.294944      -688.3104
   1   2.0000     -14.761421      -401.6787
   2   2.0000     -14.736485      -401.0002
   3   2.0000     -10.655192      -289.9425
   4   2.0000     -10.593892      -288.2744
   5   2.0000     -10.592282      -288.2306
   6   2.0000     -10.573422      -287.7174
   7   2.0000     -10.451384      -284.3966
   8   2.0000      -1.383216       -37.6392
   9   2.0000      -1.064906       -28.9776
  10   2.0000      -0.975524       -26.5453
  11   2.0000      -0.891155       -24.2496
  12   2.0000      -0.818102       -22.2617
  13   2.0000      -0.757019       -20.5995
  14   2.0000      -0.703696       -19.1485
  15   2.0000      -0.676443       -18.4069
  16   2.0000      -0.663063       -18.0429
  17   2.0000      -0.630010       -17.1435
  18   2.0000      -0.600349       -16.3363
  19   2.0000      -0.581235       -15.8162
  20   2.0000      -0.548164       -14.9163
  21   2.0000      -0.542120       -14.7518
  22   2.0000      -0.511440       -13.9170
  23   2.0000      -0.499112       -13.5815
  24   2.0000      -0.457710       -12.4549
  25   2.0000      -0.445540       -12.1237
  26   2.0000      -0.436431       -11.8759
  27   2.0000      -0.422541       -11.4979
  28   2.0000      -0.409920       -11.1545
  29   2.0000      -0.407635       -11.0923
  30   2.0000      -0.310726        -8.4553
  31   2.0000      -0.202997        -5.5238
  32   0.0000       0.026618         0.7243
  33   0.0000       0.050405         1.3716
  34   0.0000       0.056795         1.5455
  35   0.0000       0.062057         1.6887
  36   0.0000       0.085745         2.3332

MULLIKEN ATOMIC CHARGES
-----------------------
   0 C :    0.722134
   1 N :   -0.309741
   2 C :    0.007939
   3 C :    0.757476
   4 H :   -0.337779
   5 H :    0.268858
   6 F :   -0.410425
   7 C :    0.361028
   8 N :    0.430094
   9 C :    0.382117
  10 H :   -0.278668
  11 H :   -0.300285
  12 H :   -0.305906
  13 H :   -0.462484
  14 H :   -0.122736
  15 H :    0.153448
  16 H :   -0.452035
  17 H :   -0.130593
  18 H :    0.027558
Sum of atomic charges:    0.0000000

LOEWDIN ATOMIC CHARGES
----------------------
   0 C :    0.059010
   1 N :   -0.011841
   2 C :   -0.003043
   3 C :    0.151140
   4 H :    0.034980
   5 H :    0.052163
   6 F :   -0.198663
   7 C :   -0.236161
   8 N :    0.224510
   9 C :    0.140882
  10 H :   -0.115360
  11 H :   -0.118411
  12 H :    0.030604
  13 H :   -0.127982
  14 H :    0.018753
  15 H :    0.021797
  16 H :    0.021088
  17 H :    0.032071
  18 H :    0.024464

  Mayer bond orders larger than 0.100000
B(  0-C ,  1-N ) :   0.9880 B(  0-C ,  2-C ) :   1.1020 B(  0-C , 12-H ) :  -0.2255
B(  0-C , 15-H ) :   0.7062 B(  0-C , 16-H ) :   0.9681 B(  0-C , 17-H ) :   0.1402
B(  1-N ,  7-C ) :   1.0904 B(  1-N ,  8-N ) :   0.1209 B(  1-N ,  9-C ) :   0.1912
B(  1-N , 12-H ) :   1.2204 B(  1-N , 15-H ) :   0.1589 B(  1-N , 16-H ) :   0.1341
B(  2-C ,  3-C ) :   1.2063 B(  2-C ,  4-H ) :   0.1398 B(  2-C ,  5-H ) :   0.1001
B(  2-C , 17-H ) :   0.9390 B(  2-C , 18-H ) :   0.8869 B(  3-C ,  4-H ) :   1.0346
B(  3-C ,  5-H ) :   0.7781 B(  3-C ,  6-F ) :   0.5696 B(  7-C ,  8-N ) :   1.0626
B(  7-C ,  9-C ) :   1.7735 B(  7-C , 10-H ) :   0.2008 B(  7-C , 11-H ) :   0.1894
B(  7-C , 12-H ) :  -0.1638 B(  8-N ,  9-C ) :   0.1010 B(  8-N , 13-H ) :   1.1523
B(  8-N , 14-H ) :   1.1289 B(  9-C , 10-H ) :   0.7406 B(  9-C , 11-H ) :   0.8251
B( 10-H , 11-H ) :   0.1490 B( 13-H , 14-H ) :  -0.2049 B( 15-H , 16-H ) :  -0.1997

Dispersion correction           -0.000501375
FINAL SINGLE POINT ENERGY      -405.976177218000

DIPOLE MOMENT
-------------
                                X             Y             Z
Electronic contribution:     -3.47594       3.84742      -1.50293
Nuclear contribution   :      2.63642      -4.47741       0.00296
                        -----------------------------------------
Total Dipole Moment    :     -0.83952      -0.62998      -1.49997
                        -----------------------------------------
Magnitude (a.u.)       :      1.83073
Magnitude (Debye)      :      4.65335

Rotational constants in cm-1:     0.108041     0.051979     0.040387
Rotational constants in MHz :  3238.993235  1558.297571  1210.782552

                             ****ORCA TERMINATED NORMALLY****
TOTAL RUN TIME: 0 days 0 hours 0 minutes 57 seconds 65 msec
