                         Program Version 5.0.0 -  RELEASE  -
|  1> !PBE D3BJ RIJCOSX def2-SVPD def2/J TightSCF
|  2> *xyz -1 1
|  3> C         -1.10433        0.25137       -2.86006
|  4> C         -0.71189        0.84252       -4.21834
|  5> H          0.15463        1.49980       -4.13091
|  6> H         -1.53813        1.45922       -4.58267
|  7> C         -0.39762       -0.20587       -5.28802
|  8> O          0.61717       -0.00535       -5.99827
|  9> O         -1.13317       -1.22138       -5.34147
| 10> H         -1.95489       -0.38644       -2.98099
| 11> H         -1.34603        1.04362       -2.18269
| 12> H         -0.28606       -0.31581       -2.46809
| 13> *
| 14>
| 15> %MaxCore 64000
| 16>
| 17> %pal nprocs 4
| 18> end
| 19>
| 20> %scf
| 21>   MaxIter 150
| 22> end
| 23>
| 24>
| 25>                          ****END OF INPUT****

CARTESIAN COORDINATES (ANGSTROEM)
---------------------------------
  C     -1.104330    0.251370   -2.860060
  C     -0.711890    0.842520   -4.218340
  H      0.154630    1.499800   -4.130910
  H     -1.538130    1.459220   -4.582670
  C     -0.397620   -0.205870   -5.288020
  O      0.617170   -0.005350   -5.998270
  O     -1.133170   -1.221380   -5.341470
  H     -1.954890   -0.386440   -2.980990
  H     -1.346030    1.043620   -2.182690
  H     -0.286060   -0.315810   -2.468090

 Total Charge           Charge          ....   -1
 Multiplicity           Mult            ....    1
 Number of Electrons    NEL             ....   40
 Basis Dimension        Dim             ....  146

ORBITAL ENERGIES
----------------

  NO   OCC          E(Eh)            E(eV)
   0   2.0000     -18.506287      -503.5817
   1   2.0000     -18.505061      -503.5483
   2   2.0000      -9.772116      -265.9128
   3   2.0000      -9.731669      -264.8122
   4   2.0000      -9.721589      -264.5379
   5   2.0000      -0.726132       -19.7591
   6   2.0000      -0.637331       -17.3427
   7   2.0000      -0.526682       -14.3318
   8   2.0000      -0.404960       -11.0195
   9   2.0000      -0.264056        -7.1853
  10   2.0000      -0.243608        -6.6289
  11   2.0000      -0.207194        -5.6380
  12   2.0000      -0.183101        -4.9824
  13   2.0000      -0.168827        -4.5940
  14   2.0000      -0.158549        -4.3143
  15   2.0000      -0.132967        -3.6182
  16   2.0000      -0.119794        -3.2598
  17   2.0000      -0.014809        -0.4030
  18   2.0000      -0.000045        -0.0012
  19   2.0000       0.016673         0.4537
  20   0.0000       0.138925         3.7803
  21   0.0000       0.173478         4.7206
  22   0.0000       0.187208         5.0942
  23   0.0000       0.194923         5.3041
  24   0.0000       0.216602         5.8940

MULLIKEN ATOMIC CHARGES
-----------------------
   0 C :    0.597890
   1 C :   -0.365597
   2 H :   -0.053764
   3 H :   -0.014206
   4 C :    0.381529
   5 O :   -0.653428
   6 O :   -0.680319
   7 H :   -0.038665
   8 H :   -0.094877
   9 H :   -0.078562
Sum of atomic charges:   -1.0000000

LOEWDIN ATOMIC CHARGES
----------------------
   0 C :    0.093277
   1 C :   -0.044737
   2 H :   -0.004339
   3 H :    0.007083
   4 C :   -0.327217
   5 O :   -0.315591
   6 O :   -0.302901
   7 H :   -0.032575
   8 H :   -0.047457
   9 H :   -0.025543

  Mayer bond orders larger than 0.100000
B(  0-C ,  1-C ) :   1.3147 B(  0-C ,  7-H ) :   0.8162 B(  0-C ,  8-H ) :   0.8219
B(  0-C ,  9-H ) :   0.8394 B(  1-C ,  2-H ) :   0.9610 B(  1-C ,  3-H ) :   0.8822
B(  1-C ,  4-C ) :   1.0760 B(  1-C ,  7-H ) :   0.2204 B(  1-C ,  8-H ) :   0.2046
B(  1-C ,  9-H ) :   0.1812 B(  2-H ,  4-C ) :   0.1950 B(  4-C ,  5-O ) :   1.4528
B(  4-C ,  6-O ) :   1.4815

Dispersion correction           -0.006523781
FINAL SINGLE POINT ENERGY      -267.357536103958

DIPOLE MOMENT
-------------
                                X             Y             Z
Electronic contribution:      1.56438      -2.41518      -5.28280
Nuclear contribution   :     -2.09607       3.44215       6.87744
                        -----------------------------------------
Total Dipole Moment    :     -0.53169       1.02697       1.59464
                        -----------------------------------------
Magnitude (a.u.)       :      1.96983
Magnitude (Debye)      :      5.00692

Rotational constants in cm-1:     0.324698     0.133739     0.103466
Rotational constants in MHz :  9734.203431  4009.406827  3101.846422

                             ****ORCA TERMINATED NORMALLY****
TOTAL RUN TIME: 0 days 0 hours 0 minutes 8 seconds 826 msec
