                         Program Version 5.0.0 -  RELEASE  -
|  1> !PBE D3BJ RIJCOSX def2-SVPD def2/J TightSCF
|  2> *xyz 1 1
|  3> C          2.23447       -2.98975       -2.39762
|  4> N          2.75680       -2.94555       -3.76503
|  5> C          1.98721       -2.59045       -4.81898
|  6> N          0.74322       -3.01749       -4.91352
|  7> N          2.49964       -1.84860       -5.80324
|  8> H          3.30978       -1.29282       -5.55895
|  9> H          1.80103       -1.30430       -6.28913
| 10> H          3.71612       -2.62880       -3.82953
| 11> H          0.39583       -3.62775       -4.18502
| 12> H          0.03920       -2.45438       -5.37137
| 13> C          2.19120       -1.61950       -1.71549
| 14> H          2.87278       -3.66637       -1.82801
| 15> H          1.24619       -3.44744       -2.40784
| 16> H          1.56387       -0.96046       -2.27853
| 17> H          3.18033       -1.21449       -1.66568
| 18> H          1.79916       -1.72608       -0.72562
| 19> *
| 20>
| 21> %MaxCore 64000
| 22>
| 23> %pal nprocs 4
| 24> end
| 25>
| 26> %scf
| 27>   MaxIter 150
| 28> end
| 29>
| 30>
| 31>                          ****END OF INPUT****

CARTESIAN COORDINATES (ANGSTROEM)
---------------------------------
  C      2.234470   -2.989750   -2.397620
  N      2.756800   -2.945550   -3.765030
  C      1.987210   -2.590450   -4.818980
  N      0.743220   -3.017490   -4.913520
  N      2.499640   -1.848600   -5.803240
  H      3.309780   -1.292820   -5.558950
  H      1.801030   -1.304300   -6.289130
  H      3.716120   -2.628800   -3.829530
  H      0.395830   -3.627750   -4.185020
  H      0.039200   -2.454380   -5.371370
  C      2.191200   -1.619500   -1.715490
  H      2.872780   -3.666370   -1.828010
  H      1.246190   -3.447440   -2.407840
  H      1.563870   -0.960460   -2.278530
  H      3.180330   -1.214490   -1.665680
  H      1.799160   -1.726080   -0.725620

 Total Charge           Charge          ....    1
 Multiplicity           Mult            ....    1
 Number of Electrons    NEL             ....   48
 Basis Dimension        Dim             ....  200

ORBITAL ENERGIES
----------------

  NO   OCC          E(Eh)            E(eV)
   0   2.0000     -14.229923      -387.2159
   1   2.0000     -14.225976      -387.1085
   2   2.0000     -14.225890      -387.1061
   3   2.0000     -10.223897      -278.2064
   4   2.0000     -10.106157      -275.0025
   5   2.0000     -10.039539      -273.1898
   6   2.0000      -1.129876       -30.7455
   7   2.0000      -1.023320       -27.8459
   8   2.0000      -1.018647       -27.7188
   9   2.0000      -0.857058       -23.3217
  10   2.0000      -0.781746       -21.2724
  11   2.0000      -0.745480       -20.2855
  12   2.0000      -0.733563       -19.9613
  13   2.0000      -0.688837       -18.7442
  14   2.0000      -0.654094       -17.7988
  15   2.0000      -0.638780       -17.3821
  16   2.0000      -0.605361       -16.4727
  17   2.0000      -0.576192       -15.6790
  18   2.0000      -0.557253       -15.1636
  19   2.0000      -0.527247       -14.3471
  20   2.0000      -0.493794       -13.4368
  21   2.0000      -0.475313       -12.9339
  22   2.0000      -0.449477       -12.2309
  23   2.0000      -0.416065       -11.3217
  24   0.0000      -0.229396        -6.2422
  25   0.0000      -0.179262        -4.8780
  26   0.0000      -0.148308        -4.0357
  27   0.0000      -0.134966        -3.6726
  28   0.0000      -0.117595        -3.1999

MULLIKEN ATOMIC CHARGES
-----------------------
   0 C :    0.375418
   1 N :   -0.423258
   2 C :    1.055180
   3 N :    0.073382
   4 N :    0.008825
   5 H :   -0.011483
   6 H :    0.025124
   7 H :   -0.203670
   8 H :   -0.024968
   9 H :   -0.044196
  10 C :    0.716960
  11 H :   -0.252304
  12 H :   -0.135468
  13 H :   -0.119538
  14 H :   -0.032090
  15 H :   -0.007914
Sum of atomic charges:    1.0000000

LOEWDIN ATOMIC CHARGES
----------------------
   0 C :    0.034029
   1 N :    0.062867
   2 C :   -0.068687
   3 N :    0.295256
   4 N :    0.283552
   5 H :    0.033115
   6 H :    0.033148
   7 H :    0.048725
   8 H :    0.023401
   9 H :    0.045528
  10 C :    0.165452
  11 H :    0.041164
  12 H :    0.016755
  13 H :   -0.014103
  14 H :   -0.005792
  15 H :    0.005591

  Mayer bond orders larger than 0.100000
B(  0-C ,  1-N ) :   0.8963 B(  0-C ,  7-H ) :  -0.1071 B(  0-C , 10-C ) :   1.3104
B(  0-C , 11-H ) :   0.8472 B(  0-C , 12-H ) :   0.8440 B(  0-C , 13-H ) :   0.2330
B(  0-C , 14-H ) :   0.1978 B(  0-C , 15-H ) :   0.1969 B(  1-N ,  2-C ) :   1.0141
B(  1-N ,  3-N ) :   0.1431 B(  1-N ,  4-N ) :   0.1830 B(  1-N ,  7-H ) :   1.2245
B(  1-N , 11-H ) :   0.2098 B(  1-N , 12-H ) :   0.1340 B(  2-C ,  3-N ) :   1.0120
B(  2-C ,  4-N ) :   0.9978 B(  2-C ,  7-H ) :  -0.2035 B(  2-C ,  9-H ) :  -0.1150
B(  3-N ,  4-N ) :   0.1798 B(  3-N ,  8-H ) :   0.9850 B(  3-N ,  9-H ) :   1.2129
B(  4-N ,  5-H ) :   1.0134 B(  4-N ,  6-H ) :   1.0024 B(  8-H ,  9-H ) :  -0.1626
B( 10-C , 13-H ) :   0.8216 B( 10-C , 14-H ) :   0.8028 B( 10-C , 15-H ) :   0.7832

Dispersion correction           -0.012433815
FINAL SINGLE POINT ENERGY      -283.854037372463

DIPOLE MOMENT
-------------
                                X             Y             Z
Electronic contribution:      0.19964      -1.70143      -5.18519
Nuclear contribution   :     -0.59121       2.30298       4.63196
                        -----------------------------------------
Total Dipole Moment    :     -0.39157       0.60155      -0.55324
                        -----------------------------------------
Magnitude (a.u.)       :      0.90624
Magnitude (Debye)      :      2.30347

Rotational constants in cm-1:     0.205874     0.074757     0.066901
Rotational constants in MHz :  6171.937773  2241.151057  2005.629823

                             ****ORCA TERMINATED NORMALLY****
TOTAL RUN TIME: 0 days 0 hours 0 minutes 13 seconds 806 msec
