                         Program Version 5.0.0 -  RELEASE  -
|  1> !PBE D3BJ RIJCOSX def2-SVPD def2/J TightSCF xyzfile
|  2>
|  3> *xyzfile 0 1 B.xyz
|  4>
|  5> %MaxCore 64000
|  6>
|  7> %pal nprocs 4
|  8> end
|  9>
| 10> %scf
| 11>   MaxIter 150
| 12> end
| 13>
| 14>
| 15>                          ****END OF INPUT****

CARTESIAN COORDINATES (ANGSTROEM)
---------------------------------
  C      2.234473   -2.989754   -2.397622
  N      2.756799   -2.945553   -3.765029
  C     -1.104325    0.251374   -2.860056
  C     -0.711893    0.842517   -4.218344
  H      0.154626    1.499800   -4.130909
  H     -1.538134    1.459222   -4.582671
  C     -0.397624   -0.205875   -5.288018
  C      1.987208   -2.590451   -4.818975
  N      0.743221   -3.017493   -4.913524
  N      2.499636   -1.848598   -5.803241
  H      3.309780   -1.292818   -5.558947
  H      1.801025   -1.304298   -6.289129
  H      3.716116   -2.628797   -3.829533
  H      0.395828   -3.627747   -4.185024
  H      0.039201   -2.454383   -5.371367
  O      0.617165   -0.005348   -5.998273
  O     -1.133173   -1.221380   -5.341465
  C      2.191199   -1.619503   -1.715492
  H      2.872783   -3.666368   -1.828014
  H      1.246188   -3.447444   -2.407842
  C      1.298729   -0.554314   -2.359773
  H      1.872917   -1.787955   -0.681310
  H      3.216809   -1.238432   -1.654428
  C     -0.196255   -0.863365   -2.325763
  H      1.612531   -0.371346   -3.393065
  H      1.480944    0.388638   -1.834444
  H     -0.404105   -1.761825   -2.909448
  H     -0.490439   -1.087880   -1.294131
  H     -1.143842    1.066711   -2.129680
  H     -2.114401   -0.156834   -2.930323

 Total Charge           Charge          ....    0
 Multiplicity           Mult            ....    1
 Number of Electrons    NEL             ....  102
 Basis Dimension        Dim             ....  402

ORBITAL ENERGIES
----------------

  NO   OCC          E(Eh)            E(eV)
   0   2.0000     -18.688639      -508.5437
   1   2.0000     -18.687373      -508.5093
   2   2.0000     -14.069600      -382.8533
   3   2.0000     -14.037824      -381.9886
   4   2.0000     -14.037332      -381.9752
   5   2.0000     -10.049386      -273.4577
   6   2.0000      -9.970023      -271.2981
   7   2.0000      -9.949064      -270.7278
   8   2.0000      -9.921821      -269.9865
   9   2.0000      -9.902236      -269.4535
  10   2.0000      -9.888854      -269.0894
  11   2.0000      -9.879289      -268.8291
  12   2.0000      -9.865448      -268.4525
  13   2.0000      -0.957557       -26.0564
  14   2.0000      -0.912451       -24.8291
  15   2.0000      -0.859136       -23.3783
  16   2.0000      -0.838943       -22.8288
  17   2.0000      -0.819826       -22.3086
  18   2.0000      -0.741645       -20.1812
  19   2.0000      -0.701463       -19.0878
  20   2.0000      -0.654735       -17.8162
  21   2.0000      -0.613995       -16.7076
  22   2.0000      -0.593562       -16.1517
  23   2.0000      -0.565042       -15.3756
  24   2.0000      -0.554769       -15.0960
  25   2.0000      -0.522664       -14.2224
  26   2.0000      -0.500602       -13.6221
  27   2.0000      -0.482712       -13.1352
  28   2.0000      -0.462391       -12.5823
  29   2.0000      -0.454158       -12.3583
  30   2.0000      -0.436939       -11.8897
  31   2.0000      -0.425154       -11.5690
  32   2.0000      -0.410862       -11.1801
  33   2.0000      -0.399045       -10.8586
  34   2.0000      -0.389455       -10.5976
  35   2.0000      -0.382276       -10.4023
  36   2.0000      -0.369116       -10.0441
  37   2.0000      -0.357462        -9.7270
  38   2.0000      -0.343593        -9.3496
  39   2.0000      -0.337397        -9.1810
  40   2.0000      -0.324715        -8.8359
  41   2.0000      -0.316348        -8.6083
  42   2.0000      -0.304650        -8.2899
  43   2.0000      -0.286927        -7.8077
  44   2.0000      -0.277552        -7.5526
  45   2.0000      -0.270157        -7.3513
  46   2.0000      -0.265191        -7.2162
  47   2.0000      -0.257407        -7.0044
  48   2.0000      -0.196767        -5.3543
  49   2.0000      -0.180828        -4.9206
  50   2.0000      -0.168483        -4.5847
  51   0.0000      -0.055769        -1.5176
  52   0.0000      -0.034952        -0.9511
  53   0.0000      -0.014402        -0.3919
  54   0.0000       0.001702         0.0463
  55   0.0000       0.012955         0.3525

MULLIKEN ATOMIC CHARGES
-----------------------
   0 C :    0.868559
   1 N :   -0.517544
   2 C :    0.552460
   3 C :    0.230220
   4 H :    0.175734
   5 H :   -0.293373
   6 C :    0.282008
   7 C :    1.062306
   8 N :    0.275473
   9 N :    0.064472
  10 H :    0.035556
  11 H :   -0.175963
  12 H :   -0.175739
  13 H :    0.029411
  14 H :   -0.338758
  15 O :   -0.595435
  16 O :   -0.725391
  17 C :    0.377616
  18 H :   -0.386739
  19 H :    0.012983
  20 C :   -0.095569
  21 H :    0.040435
  22 H :   -0.082518
  23 C :   -0.083311
  24 H :   -0.081387
  25 H :   -0.166581
  26 H :   -0.108632
  27 H :   -0.151150
  28 H :   -0.121248
  29 H :    0.092105
Sum of atomic charges:    0.0000000

LOEWDIN ATOMIC CHARGES
----------------------
   0 C :    0.059416
   1 N :    0.048439
   2 C :   -0.023752
   3 C :    0.029519
   4 H :    0.013954
   5 H :    0.029426
   6 C :   -0.237720
   7 C :   -0.077178
   8 N :    0.320316
   9 N :    0.285575
  10 H :    0.018876
  11 H :   -0.074214
  12 H :    0.031281
  13 H :    0.013268
  14 H :   -0.083824
  15 O :   -0.236422
  16 O :   -0.225585
  17 C :   -0.016428
  18 H :    0.025263
  19 H :    0.009593
  20 C :   -0.024235
  21 H :    0.028700
  22 H :    0.021420
  23 C :   -0.030888
  24 H :    0.007141
  25 H :    0.031890
  26 H :   -0.010628
  27 H :    0.023839
  28 H :    0.018214
  29 H :    0.024746

  Mayer bond orders larger than 0.100000
B(  0-C ,  1-N ) :   0.9084 B(  0-C , 12-H ) :  -0.1021 B(  0-C , 17-C ) :   1.1223
B(  0-C , 18-H ) :   0.7404 B(  0-C , 19-H ) :   0.7601 B(  0-C , 21-H ) :   0.1518
B(  0-C , 22-H ) :   0.1332 B(  1-N ,  7-C ) :   0.8630 B(  1-N ,  8-N ) :   0.1524
B(  1-N ,  9-N ) :   0.2254 B(  1-N , 12-H ) :   1.2037 B(  1-N , 18-H ) :   0.2451
B(  1-N , 19-H ) :   0.1121 B(  2-C ,  3-C ) :   1.1970 B(  2-C ,  4-H ) :   0.1094
B(  2-C ,  5-H ) :   0.1719 B(  2-C , 23-C ) :   1.2698 B(  2-C , 28-H ) :   0.7640
B(  2-C , 29-H ) :   0.5875 B(  3-C ,  4-H ) :   0.7628 B(  3-C ,  5-H ) :   0.7688
B(  3-C ,  6-C ) :   1.1460 B(  3-C , 23-C ) :   0.1459 B(  3-C , 28-H ) :   0.1684
B(  3-C , 29-H ) :   0.1278 B(  4-H ,  5-H ) :  -0.1008 B(  4-H ,  6-C ) :   0.2759
B(  5-H ,  6-C ) :   0.1730 B(  6-C , 15-O ) :   1.3479 B(  6-C , 16-O ) :   1.3274
B(  7-C ,  8-N ) :   0.9459 B(  7-C ,  9-N ) :   0.8431 B(  7-C , 12-H ) :  -0.2042
B(  7-C , 14-H ) :  -0.1591 B(  8-N ,  9-N ) :   0.1786 B(  8-N , 13-H ) :   0.8716
B(  8-N , 14-H ) :   1.1904 B(  9-N , 10-H ) :   0.9464 B(  9-N , 11-H ) :   0.9784
B( 11-H , 15-O ) :   0.1453 B( 13-H , 14-H ) :  -0.2390 B( 14-H , 16-O ) :   0.2274
B( 15-O , 16-O ) :   0.1069 B( 17-C , 18-H ) :   0.1219 B( 17-C , 19-H ) :   0.1226
B( 17-C , 20-C ) :   1.2335 B( 17-C , 21-H ) :   0.7647 B( 17-C , 22-H ) :   0.6931
B( 17-C , 24-H ) :   0.1092 B( 18-H , 19-H ) :  -0.1497 B( 20-C , 21-H ) :   0.1843
B( 20-C , 22-H ) :   0.2619 B( 20-C , 23-C ) :   1.3289 B( 20-C , 24-H ) :   0.9226
B( 20-C , 25-H ) :   0.8183 B( 20-C , 26-H ) :   0.1601 B( 20-C , 27-H ) :   0.2457
B( 21-H , 22-H ) :  -0.1027 B( 23-C , 24-H ) :   0.1494 B( 23-C , 25-H ) :   0.2072
B( 23-C , 26-H ) :   0.8948 B( 23-C , 27-H ) :   0.7422 B( 23-C , 28-H ) :   0.1852
B( 23-C , 29-H ) :   0.2622 B( 28-H , 29-H ) :  -0.1230

Dispersion correction           -0.035310302
FINAL SINGLE POINT ENERGY      -628.685692046035

DIPOLE MOMENT
-------------
                                X             Y             Z
Electronic contribution:      0.54233      -2.83271     -10.30102
Nuclear contribution   :      1.76912       1.50070      12.36652
                        -----------------------------------------
Total Dipole Moment    :      2.31145      -1.33201       2.06551
                        -----------------------------------------
Magnitude (a.u.)       :      3.37392
Magnitude (Debye)      :      8.57583

Rotational constants in cm-1:     0.033272     0.023886     0.017112
Rotational constants in MHz :   997.469575   716.074432   513.001395

                             ****ORCA TERMINATED NORMALLY****
TOTAL RUN TIME: 0 days 0 hours 0 minutes 42 seconds 531 msec
