                         Program Version 5.0.0 -  RELEASE  -
|  1> !PBE D3BJ RIJCOSX def2-SVPD def2/J TightSCF
|  2> *xyz 0 1
|  3> C         -1.10433        0.25137       -2.86006
|  4> C         -0.71189        0.84252       -4.21834
|  5> H          0.15463        1.49980       -4.13091
|  6> H         -1.53813        1.45922       -4.58267
|  7> C         -0.39762       -0.20587       -5.28802
|  8> F          0.61717       -0.00535       -5.99827
|  9> O         -1.13317       -1.22138       -5.34147
| 10> H         -1.95489       -0.38644       -2.98099
| 11> H         -1.34603        1.04362       -2.18269
| 12> H         -0.28606       -0.31581       -2.46809
| 13> *
| 14>
| 15> %MaxCore 64000
| 16>
| 17> %pal nprocs 4
| 18> end
| 19>
| 20> %scf
| 21>   MaxIter 150
| 22> end
| 23>
| 24>
| 25>                          ****END OF INPUT****

CARTESIAN COORDINATES (ANGSTROEM)
---------------------------------
  C     -1.104330    0.251370   -2.860060
  C     -0.711890    0.842520   -4.218340
  H      0.154630    1.499800   -4.130910
  H     -1.538130    1.459220   -4.582670
  C     -0.397620   -0.205870   -5.288020
  F      0.617170   -0.005350   -5.998270
  O     -1.133170   -1.221380   -5.341470
  H     -1.954890   -0.386440   -2.980990
  H     -1.346030    1.043620   -2.182690
  H     -0.286060   -0.315810   -2.468090

 Total Charge           Charge          ....    0
 Multiplicity           Mult            ....    1
 Number of Electrons    NEL             ....   40
 Basis Dimension        Dim             ....  146

ORBITAL ENERGIES
----------------

  NO   OCC          E(Eh)            E(eV)
   0   2.0000     -24.345698      -662.4801
   1   2.0000     -18.773245      -510.8460
   2   2.0000     -10.067352      -273.9466
   3   2.0000      -9.929398      -270.1927
   4   2.0000      -9.900154      -269.3969
   5   2.0000      -1.205604       -32.8062
   6   2.0000      -0.939957       -25.5775
   7   2.0000      -0.722442       -19.6587
   8   2.0000      -0.622125       -16.9289
   9   2.0000      -0.574712       -15.6387
  10   2.0000      -0.493482       -13.4283
  11   2.0000      -0.477600       -12.9961
  12   2.0000      -0.450099       -12.2478
  13   2.0000      -0.417435       -11.3590
  14   2.0000      -0.385144       -10.4803
  15   2.0000      -0.354800        -9.6546
  16   2.0000      -0.333408        -9.0725
  17   2.0000      -0.331471        -9.0198
  18   2.0000      -0.311619        -8.4796
  19   2.0000      -0.248213        -6.7542
  20   0.0000      -0.071559        -1.9472
  21   0.0000      -0.004212        -0.1146
  22   0.0000       0.027679         0.7532
  23   0.0000       0.040988         1.1153
  24   0.0000       0.053214         1.4480

MULLIKEN ATOMIC CHARGES
-----------------------
   0 C :    0.633477
   1 C :   -0.402398
   2 H :   -0.024657
   3 H :    0.054121
   4 C :    0.684902
   5 F :   -0.322400
   6 O :   -0.473053
   7 H :   -0.027881
   8 H :   -0.066440
   9 H :   -0.055672
Sum of atomic charges:   -0.0000000

LOEWDIN ATOMIC CHARGES
----------------------
   0 C :    0.140070
   1 C :   -0.002046
   2 H :    0.021503
   3 H :    0.040798
   4 C :   -0.037405
   5 F :   -0.016227
   6 O :   -0.114152
   7 H :   -0.010971
   8 H :   -0.013348
   9 H :   -0.008222

  Mayer bond orders larger than 0.100000
B(  0-C ,  1-C ) :   1.3726 B(  0-C ,  7-H ) :   0.8116 B(  0-C ,  8-H ) :   0.8114
B(  0-C ,  9-H ) :   0.8354 B(  1-C ,  2-H ) :   0.9421 B(  1-C ,  3-H ) :   0.8561
B(  1-C ,  4-C ) :   1.1029 B(  1-C ,  7-H ) :   0.1999 B(  1-C ,  8-H ) :   0.1933
B(  1-C ,  9-H ) :   0.1746 B(  2-H ,  4-C ) :   0.1170 B(  4-C ,  5-F ) :   0.7815
B(  4-C ,  6-O ) :   1.8033 B(  5-F ,  6-O ) :   0.1043

Dispersion correction           -0.006206110
FINAL SINGLE POINT ENERGY      -291.874765730306

DIPOLE MOMENT
-------------
                                X             Y             Z
Electronic contribution:      3.59803      -2.39005      -7.72820
Nuclear contribution   :     -3.36368       3.36392       8.24820
                        -----------------------------------------
Total Dipole Moment    :      0.23434       0.97387       0.51999
                        -----------------------------------------
Magnitude (a.u.)       :      1.12860
Magnitude (Debye)      :      2.86867

Rotational constants in cm-1:     0.315013     0.126712     0.098430
Rotational constants in MHz :  9443.861322  3798.734540  2950.846388

                             ****ORCA TERMINATED NORMALLY****
TOTAL RUN TIME: 0 days 0 hours 0 minutes 9 seconds 148 msec
