                         Program Version 5.0.0 -  RELEASE  -
|  1> !PBE D3BJ RIJCOSX def2-SVPD def2/J TightSCF
|  2> *xyz 0 1
|  3> C          2.23447       -2.98975       -2.39762
|  4> C          2.75680       -2.94555       -3.76503
|  5> C          1.98721       -2.59045       -4.81898
|  6> N          0.74322       -3.01749       -4.91352
|  7> N          2.49964       -1.84860       -5.80324
|  8> H          3.30978       -1.29282       -5.55895
|  9> H          1.80103       -1.30430       -6.28913
| 10> H          3.71612       -2.62880       -3.82953
| 11> H          0.39583       -3.62775       -4.18502
| 12> H          0.03920       -2.45438       -5.37137
| 13> C          2.19120       -1.61950       -1.71549
| 14> H          2.87278       -3.66637       -1.82801
| 15> H          1.24619       -3.44744       -2.40784
| 16> H          1.56387       -0.96046       -2.27853
| 17> H          3.18033       -1.21449       -1.66568
| 18> H          1.79916       -1.72608       -0.72562
| 19> *
| 20>
| 21> %MaxCore 64000
| 22>
| 23> %pal nprocs 4
| 24> end
| 25>
| 26> %scf
| 27>   MaxIter 150
| 28> end
| 29>
| 30>
| 31>                          ****END OF INPUT****

CARTESIAN COORDINATES (ANGSTROEM)
---------------------------------
  C      2.234470   -2.989750   -2.397620
  C      2.756800   -2.945550   -3.765030
  C      1.987210   -2.590450   -4.818980
  N      0.743220   -3.017490   -4.913520
  N      2.499640   -1.848600   -5.803240
  H      3.309780   -1.292820   -5.558950
  H      1.801030   -1.304300   -6.289130
  H      3.716120   -2.628800   -3.829530
  H      0.395830   -3.627750   -4.185020
  H      0.039200   -2.454380   -5.371370
  C      2.191200   -1.619500   -1.715490
  H      2.872780   -3.666370   -1.828010
  H      1.246190   -3.447440   -2.407840
  H      1.563870   -0.960460   -2.278530
  H      3.180330   -1.214490   -1.665680
  H      1.799160   -1.726080   -0.725620

 Total Charge           Charge          ....    0
 Multiplicity           Mult            ....    1
 Number of Electrons    NEL             ....   48
 Basis Dimension        Dim             ....  200

ORBITAL ENERGIES
----------------

  NO   OCC          E(Eh)            E(eV)
   0   2.0000     -14.008373      -381.1872
   1   2.0000     -14.003732      -381.0609
   2   2.0000      -9.938587      -270.4427
   3   2.0000      -9.875523      -268.7266
   4   2.0000      -9.866275      -268.4750
   5   2.0000      -9.825436      -267.3637
   6   2.0000      -0.883047       -24.0289
   7   2.0000      -0.797165       -21.6920
   8   2.0000      -0.696708       -18.9584
   9   2.0000      -0.621313       -16.9068
  10   2.0000      -0.557200       -15.1622
  11   2.0000      -0.523127       -14.2350
  12   2.0000      -0.493565       -13.4306
  13   2.0000      -0.456643       -12.4259
  14   2.0000      -0.424858       -11.5610
  15   2.0000      -0.402985       -10.9658
  16   2.0000      -0.368328       -10.0227
  17   2.0000      -0.348019        -9.4701
  18   2.0000      -0.329399        -8.9634
  19   2.0000      -0.319419        -8.6918
  20   2.0000      -0.287321        -7.8184
  21   2.0000      -0.280129        -7.6227
  22   2.0000      -0.234692        -6.3863
  23   2.0000      -0.133474        -3.6320
  24   0.0000      -0.013653        -0.3715
  25   0.0000       0.013662         0.3718
  26   0.0000       0.025673         0.6986
  27   0.0000       0.027635         0.7520
  28   0.0000       0.047019         1.2794

MULLIKEN ATOMIC CHARGES
-----------------------
   0 C :   -0.259843
   1 C :   -0.175480
   2 C :    0.343584
   3 N :    0.025957
   4 N :    0.018464
   5 H :    0.029136
   6 H :   -0.033982
   7 H :   -0.120453
   8 H :   -0.017846
   9 H :   -0.134991
  10 C :    0.759160
  11 H :   -0.051206
  12 H :   -0.178154
  13 H :   -0.110144
  14 H :   -0.045707
  15 H :   -0.048495
Sum of atomic charges:   -0.0000000

LOEWDIN ATOMIC CHARGES
----------------------
   0 C :   -0.109818
   1 C :   -0.019830
   2 C :   -0.251385
   3 N :    0.209153
   4 N :    0.201519
   5 H :   -0.000052
   6 H :   -0.015377
   7 H :   -0.056274
   8 H :   -0.006648
   9 H :   -0.006837
  10 C :    0.123029
  11 H :    0.010236
  12 H :   -0.007653
  13 H :   -0.024034
  14 H :   -0.020133
  15 H :   -0.025896

  Mayer bond orders larger than 0.100000
B(  0-C ,  1-C ) :   1.2977 B(  0-C ,  2-C ) :   0.1421 B(  0-C ,  7-H ) :   0.3337
B(  0-C , 10-C ) :   1.2888 B(  0-C , 11-H ) :   0.8087 B(  0-C , 12-H ) :   0.8663
B(  0-C , 13-H ) :   0.2439 B(  0-C , 14-H ) :   0.2380 B(  0-C , 15-H ) :   0.2323
B(  1-C ,  2-C ) :   1.6500 B(  1-C ,  3-N ) :   0.1685 B(  1-C ,  4-N ) :   0.2316
B(  1-C ,  7-H ) :   0.6207 B(  1-C , 11-H ) :   0.2070 B(  1-C , 12-H ) :   0.2229
B(  2-C ,  3-N ) :   1.0769 B(  2-C ,  4-N ) :   1.0292 B(  2-C ,  7-H ) :   0.2767
B(  3-N ,  4-N ) :   0.1513 B(  3-N ,  8-H ) :   0.9905 B(  3-N ,  9-H ) :   1.2299
B(  4-N ,  5-H ) :   0.9555 B(  4-N ,  6-H ) :   0.9320 B(  8-H ,  9-H ) :  -0.1449
B( 10-C , 13-H ) :   0.8236 B( 10-C , 14-H ) :   0.7852 B( 10-C , 15-H ) :   0.7741
B( 11-H , 12-H ) :   0.1077

Dispersion correction           -0.012901354
FINAL SINGLE POINT ENERGY      -267.392738788900

DIPOLE MOMENT
-------------
                                X             Y             Z
Electronic contribution:     -0.30067      -1.40966      -5.01109
Nuclear contribution   :     -0.44240       2.20379       4.66256
                        -----------------------------------------
Total Dipole Moment    :     -0.74307       0.79413      -0.34853
                        -----------------------------------------
Magnitude (a.u.)       :      1.14204
Magnitude (Debye)      :      2.90285

Rotational constants in cm-1:     0.209447     0.075194     0.066975
Rotational constants in MHz :  6279.068019  2254.272519  2007.845458

                             ****ORCA TERMINATED NORMALLY****
TOTAL RUN TIME: 0 days 0 hours 0 minutes 13 seconds 345 msec
