                         Program Version 5.0.0 -  RELEASE  -
|  1> !PBE D3BJ RIJCOSX def2-SVPD def2/J TightSCF
|  2> *xyz 0 1
|  3> C         -1.10433        0.25137       -2.86006
|  4> C         -0.71189        0.84252       -4.21834
|  5> H          0.15463        1.49980       -4.13091
|  6> H         -1.53813        1.45922       -4.58267
|  7> C         -0.39762       -0.20587       -5.28802
|  8> O          0.61717       -0.00535       -5.99827
|  9> F         -1.13317       -1.22138       -5.34147
| 10> H         -1.95489       -0.38644       -2.98099
| 11> H         -1.34603        1.04362       -2.18269
| 12> H         -0.28606       -0.31581       -2.46809
| 13> *
| 14>
| 15> %MaxCore 64000
| 16>
| 17> %pal nprocs 4
| 18> end
| 19>
| 20> %scf
| 21>   MaxIter 150
| 22> end
| 23>
| 24>
| 25>                          ****END OF INPUT****

CARTESIAN COORDINATES (ANGSTROEM)
---------------------------------
  C     -1.104330    0.251370   -2.860060
  C     -0.711890    0.842520   -4.218340
  H      0.154630    1.499800   -4.130910
  H     -1.538130    1.459220   -4.582670
  C     -0.397620   -0.205870   -5.288020
  O      0.617170   -0.005350   -5.998270
  F     -1.133170   -1.221380   -5.341470
  H     -1.954890   -0.386440   -2.980990
  H     -1.346030    1.043620   -2.182690
  H     -0.286060   -0.315810   -2.468090

 Total Charge           Charge          ....    0
 Multiplicity           Mult            ....    1
 Number of Electrons    NEL             ....   40
 Basis Dimension        Dim             ....  146

ORBITAL ENERGIES
----------------

  NO   OCC          E(Eh)            E(eV)
   0   2.0000     -24.346520      -662.5025
   1   2.0000     -18.771938      -510.8104
   2   2.0000     -10.066804      -273.9317
   3   2.0000      -9.928669      -270.1728
   4   2.0000      -9.905806      -269.5507
   5   2.0000      -1.206091       -32.8194
   6   2.0000      -0.938953       -25.5502
   7   2.0000      -0.726492       -19.7689
   8   2.0000      -0.617428       -16.8011
   9   2.0000      -0.581478       -15.8228
  10   2.0000      -0.495006       -13.4698
  11   2.0000      -0.484218       -13.1762
  12   2.0000      -0.442195       -12.0327
  13   2.0000      -0.418292       -11.3823
  14   2.0000      -0.386364       -10.5135
  15   2.0000      -0.358757        -9.7623
  16   2.0000      -0.341078        -9.2812
  17   2.0000      -0.335239        -9.1223
  18   2.0000      -0.312447        -8.5021
  19   2.0000      -0.243660        -6.6303
  20   0.0000      -0.069865        -1.9011
  21   0.0000      -0.007739        -0.2106
  22   0.0000       0.030413         0.8276
  23   0.0000       0.038474         1.0469
  24   0.0000       0.054473         1.4823

MULLIKEN ATOMIC CHARGES
-----------------------
   0 C :    0.634847
   1 C :   -0.384971
   2 H :   -0.039507
   3 H :    0.044708
   4 C :    0.702572
   5 O :   -0.449607
   6 F :   -0.348489
   7 H :   -0.037853
   8 H :   -0.065623
   9 H :   -0.056077
Sum of atomic charges:   -0.0000000

LOEWDIN ATOMIC CHARGES
----------------------
   0 C :    0.131956
   1 C :    0.004810
   2 H :    0.033529
   3 H :    0.038833
   4 C :   -0.039875
   5 O :   -0.119081
   6 F :   -0.011891
   7 H :   -0.015865
   8 H :   -0.013292
   9 H :   -0.009123

  Mayer bond orders larger than 0.100000
B(  0-C ,  1-C ) :   1.3419 B(  0-C ,  7-H ) :   0.8089 B(  0-C ,  8-H ) :   0.8186
B(  0-C ,  9-H ) :   0.8427 B(  1-C ,  2-H ) :   0.9719 B(  1-C ,  3-H ) :   0.8547
B(  1-C ,  4-C ) :   1.0669 B(  1-C ,  7-H ) :   0.1889 B(  1-C ,  8-H ) :   0.1945
B(  1-C ,  9-H ) :   0.1660 B(  2-H ,  4-C ) :   0.1382 B(  4-C ,  5-O ) :   1.7932
B(  4-C ,  6-F ) :   0.7636 B(  5-O ,  6-F ) :   0.1121

Dispersion correction           -0.006159165
FINAL SINGLE POINT ENERGY      -291.873803709377

DIPOLE MOMENT
-------------
                                X             Y             Z
Electronic contribution:      0.69753      -4.38246      -6.61557
Nuclear contribution   :     -1.45527       4.68977       7.53208
                        -----------------------------------------
Total Dipole Moment    :     -0.75773       0.30731       0.91651
                        -----------------------------------------
Magnitude (a.u.)       :      1.22825
Magnitude (Debye)      :      3.12195

Rotational constants in cm-1:     0.298240     0.132464     0.099915
Rotational constants in MHz :  8940.998095  3971.171647  2995.369122

                             ****ORCA TERMINATED NORMALLY****
TOTAL RUN TIME: 0 days 0 hours 0 minutes 8 seconds 799 msec
