                         Program Version 5.0.0 -  RELEASE  -
|  1> !PBE D3BJ RIJCOSX def2-SVPD def2/J TightSCF
|  2> *xyz 0 1
|  3> C          2.23447       -2.98975       -2.39762
|  4> N          2.75680       -2.94555       -3.76503
|  5> C          1.98721       -2.59045       -4.81898
|  6> C          0.74322       -3.01749       -4.91352
|  7> N          2.49964       -1.84860       -5.80324
|  8> H          3.30978       -1.29282       -5.55895
|  9> H          1.80103       -1.30430       -6.28913
| 10> H          3.71612       -2.62880       -3.82953
| 11> H          0.39583       -3.62775       -4.18502
| 12> H          0.03920       -2.45438       -5.37137
| 13> C          2.19120       -1.61950       -1.71549
| 14> H          2.87278       -3.66637       -1.82801
| 15> H          1.24619       -3.44744       -2.40784
| 16> H          1.56387       -0.96046       -2.27853
| 17> H          3.18033       -1.21449       -1.66568
| 18> H          1.79916       -1.72608       -0.72562
| 19> *
| 20>
| 21> %MaxCore 64000
| 22>
| 23> %pal nprocs 4
| 24> end
| 25>
| 26> %scf
| 27>   MaxIter 150
| 28> end
| 29>
| 30>
| 31>                          ****END OF INPUT****

CARTESIAN COORDINATES (ANGSTROEM)
---------------------------------
  C      2.234470   -2.989750   -2.397620
  N      2.756800   -2.945550   -3.765030
  C      1.987210   -2.590450   -4.818980
  C      0.743220   -3.017490   -4.913520
  N      2.499640   -1.848600   -5.803240
  H      3.309780   -1.292820   -5.558950
  H      1.801030   -1.304300   -6.289130
  H      3.716120   -2.628800   -3.829530
  H      0.395830   -3.627750   -4.185020
  H      0.039200   -2.454380   -5.371370
  C      2.191200   -1.619500   -1.715490
  H      2.872780   -3.666370   -1.828010
  H      1.246190   -3.447440   -2.407840
  H      1.563870   -0.960460   -2.278530
  H      3.180330   -1.214490   -1.665680
  H      1.799160   -1.726080   -0.725620

 Total Charge           Charge          ....    0
 Multiplicity           Mult            ....    1
 Number of Electrons    NEL             ....   48
 Basis Dimension        Dim             ....  200

ORBITAL ENERGIES
----------------

  NO   OCC          E(Eh)            E(eV)
   0   2.0000     -14.005786      -381.1168
   1   2.0000     -14.001765      -381.0074
   2   2.0000      -9.936193      -270.3776
   3   2.0000      -9.928754      -270.1751
   4   2.0000      -9.886431      -269.0235
   5   2.0000      -9.816584      -267.1228
   6   2.0000      -0.880017       -23.9465
   7   2.0000      -0.805593       -21.9213
   8   2.0000      -0.681557       -18.5461
   9   2.0000      -0.641641       -17.4599
  10   2.0000      -0.576633       -15.6910
  11   2.0000      -0.505918       -13.7667
  12   2.0000      -0.493985       -13.4420
  13   2.0000      -0.462150       -12.5757
  14   2.0000      -0.416181       -11.3248
  15   2.0000      -0.399831       -10.8800
  16   2.0000      -0.372365       -10.1326
  17   2.0000      -0.353554        -9.6207
  18   2.0000      -0.349015        -9.4972
  19   2.0000      -0.328295        -8.9334
  20   2.0000      -0.315018        -8.5721
  21   2.0000      -0.306046        -8.3279
  22   2.0000      -0.213809        -5.8180
  23   2.0000      -0.147458        -4.0125
  24   0.0000      -0.009641        -0.2623
  25   0.0000       0.016508         0.4492
  26   0.0000       0.020646         0.5618
  27   0.0000       0.031978         0.8702
  28   0.0000       0.042015         1.1433

MULLIKEN ATOMIC CHARGES
-----------------------
   0 C :    0.299758
   1 N :   -0.318437
   2 C :    0.460304
   3 C :    0.319920
   4 N :    0.042139
   5 H :   -0.094469
   6 H :    0.023283
   7 H :   -0.321660
   8 H :   -0.091112
   9 H :   -0.408158
  10 C :    0.695132
  11 H :   -0.282056
  12 H :   -0.100261
  13 H :   -0.108978
  14 H :   -0.066401
  15 H :   -0.049004
Sum of atomic charges:    0.0000000

LOEWDIN ATOMIC CHARGES
----------------------
   0 C :    0.009369
   1 N :    0.001776
   2 C :   -0.259808
   3 C :    0.162155
   4 N :    0.198972
   5 H :   -0.019625
   6 H :   -0.002262
   7 H :    0.008138
   8 H :   -0.102792
   9 H :   -0.092445
  10 C :    0.135764
  11 H :    0.016519
  12 H :    0.007708
  13 H :   -0.020671
  14 H :   -0.023833
  15 H :   -0.018966

  Mayer bond orders larger than 0.100000
B(  0-C ,  1-N ) :   0.8929 B(  0-C , 10-C ) :   1.2880 B(  0-C , 11-H ) :   0.8601
B(  0-C , 12-H ) :   0.8486 B(  0-C , 13-H ) :   0.2494 B(  0-C , 14-H ) :   0.2081
B(  0-C , 15-H ) :   0.2106 B(  1-N ,  2-C ) :   0.9970 B(  1-N ,  3-C ) :   0.2911
B(  1-N ,  4-N ) :   0.1437 B(  1-N ,  7-H ) :   1.1578 B(  1-N , 11-H ) :   0.1949
B(  1-N , 12-H ) :   0.1210 B(  2-C ,  3-C ) :   1.6546 B(  2-C ,  4-N ) :   0.9458
B(  2-C ,  7-H ) :  -0.1573 B(  2-C ,  8-H ) :   0.2855 B(  2-C ,  9-H ) :   0.1284
B(  3-C ,  4-N ) :   0.2530 B(  3-C ,  8-H ) :   0.5016 B(  3-C ,  9-H ) :   0.9151
B(  4-N ,  5-H ) :   0.9657 B(  4-N ,  6-H ) :   0.9664 B(  8-H ,  9-H ) :   0.2057
B( 10-C , 13-H ) :   0.8129 B( 10-C , 14-H ) :   0.8104 B( 10-C , 15-H ) :   0.7961

Dispersion correction           -0.012837408
FINAL SINGLE POINT ENERGY      -267.385000470510

DIPOLE MOMENT
-------------
                                X             Y             Z
Electronic contribution:      1.49532      -1.28902      -3.86497
Nuclear contribution   :     -0.86957       2.18853       4.41892
                        -----------------------------------------
Total Dipole Moment    :      0.62575       0.89951       0.55395
                        -----------------------------------------
Magnitude (a.u.)       :      1.22782
Magnitude (Debye)      :      3.12086

Rotational constants in cm-1:     0.214718     0.075736     0.068547
Rotational constants in MHz :  6437.075121  2270.519635  2054.974198

                             ****ORCA TERMINATED NORMALLY****
TOTAL RUN TIME: 0 days 0 hours 0 minutes 15 seconds 338 msec
