                         Program Version 5.0.0 -  RELEASE  -
|  1> !PBE D3BJ RIJCOSX def2-SVPD def2/J TightSCF
|  2> *xyz 0 1
|  3> C          2.23447       -2.98975       -2.39762
|  4> N          2.75680       -2.94555       -3.76503
|  5> C          1.98721       -2.59045       -4.81898
|  6> N          0.74322       -3.01749       -4.91352
|  7> C          2.49964       -1.84860       -5.80324
|  8> H          3.30978       -1.29282       -5.55895
|  9> H          1.80103       -1.30430       -6.28913
| 10> H          3.71612       -2.62880       -3.82953
| 11> H          0.39583       -3.62775       -4.18502
| 12> H          0.03920       -2.45438       -5.37137
| 13> C          2.19120       -1.61950       -1.71549
| 14> H          2.87278       -3.66637       -1.82801
| 15> H          1.24619       -3.44744       -2.40784
| 16> H          1.56387       -0.96046       -2.27853
| 17> H          3.18033       -1.21449       -1.66568
| 18> H          1.79916       -1.72608       -0.72562
| 19> *
| 20>
| 21> %MaxCore 64000
| 22>
| 23> %pal nprocs 4
| 24> end
| 25>
| 26> %scf
| 27>   MaxIter 150
| 28> end
| 29>
| 30>
| 31>                          ****END OF INPUT****

CARTESIAN COORDINATES (ANGSTROEM)
---------------------------------
  C      2.234470   -2.989750   -2.397620
  N      2.756800   -2.945550   -3.765030
  C      1.987210   -2.590450   -4.818980
  N      0.743220   -3.017490   -4.913520
  C      2.499640   -1.848600   -5.803240
  H      3.309780   -1.292820   -5.558950
  H      1.801030   -1.304300   -6.289130
  H      3.716120   -2.628800   -3.829530
  H      0.395830   -3.627750   -4.185020
  H      0.039200   -2.454380   -5.371370
  C      2.191200   -1.619500   -1.715490
  H      2.872780   -3.666370   -1.828010
  H      1.246190   -3.447440   -2.407840
  H      1.563870   -0.960460   -2.278530
  H      3.180330   -1.214490   -1.665680
  H      1.799160   -1.726080   -0.725620

 Total Charge           Charge          ....    0
 Multiplicity           Mult            ....    1
 Number of Electrons    NEL             ....   48
 Basis Dimension        Dim             ....  200

ORBITAL ENERGIES
----------------

  NO   OCC          E(Eh)            E(eV)
   0   2.0000     -14.005086      -381.0978
   1   2.0000     -14.004113      -381.0713
   2   2.0000      -9.938569      -270.4422
   3   2.0000      -9.936678      -270.3907
   4   2.0000      -9.890073      -269.1226
   5   2.0000      -9.811699      -266.9899
   6   2.0000      -0.881459       -23.9857
   7   2.0000      -0.805286       -21.9129
   8   2.0000      -0.693026       -18.8582
   9   2.0000      -0.635153       -17.2834
  10   2.0000      -0.565623       -15.3914
  11   2.0000      -0.545145       -14.8341
  12   2.0000      -0.488545       -13.2940
  13   2.0000      -0.444141       -12.0857
  14   2.0000      -0.441904       -12.0248
  15   2.0000      -0.393287       -10.7019
  16   2.0000      -0.381937       -10.3930
  17   2.0000      -0.357294        -9.7225
  18   2.0000      -0.334553        -9.1037
  19   2.0000      -0.323367        -8.7993
  20   2.0000      -0.321707        -8.7541
  21   2.0000      -0.312086        -8.4923
  22   2.0000      -0.215876        -5.8743
  23   2.0000      -0.142575        -3.8797
  24   0.0000      -0.010126        -0.2756
  25   0.0000       0.013986         0.3806
  26   0.0000       0.016588         0.4514
  27   0.0000       0.029507         0.8029
  28   0.0000       0.040177         1.0933

MULLIKEN ATOMIC CHARGES
-----------------------
   0 C :    0.335182
   1 N :   -0.451524
   2 C :    0.403659
   3 N :    0.202641
   4 C :    0.468052
   5 H :   -0.144779
   6 H :   -0.422565
   7 H :   -0.193480
   8 H :   -0.131545
   9 H :   -0.103586
  10 C :    0.681037
  11 H :   -0.285850
  12 H :   -0.151882
  13 H :   -0.123949
  14 H :   -0.066430
  15 H :   -0.014981
Sum of atomic charges:    0.0000000

LOEWDIN ATOMIC CHARGES
----------------------
   0 C :    0.001743
   1 N :    0.004395
   2 C :   -0.256827
   3 N :    0.210115
   4 C :    0.144673
   5 H :   -0.104327
   6 H :   -0.104809
   7 H :    0.022566
   8 H :   -0.022665
   9 H :    0.009749
  10 C :    0.136830
  11 H :    0.015278
  12 H :    0.000705
  13 H :   -0.019218
  14 H :   -0.018808
  15 H :   -0.019403

  Mayer bond orders larger than 0.100000
B(  0-C ,  1-N ) :   0.9187 B(  0-C ,  7-H ) :  -0.1068 B(  0-C , 10-C ) :   1.2907
B(  0-C , 11-H ) :   0.8536 B(  0-C , 12-H ) :   0.8450 B(  0-C , 13-H ) :   0.2374
B(  0-C , 14-H ) :   0.2145 B(  0-C , 15-H ) :   0.1994 B(  1-N ,  2-C ) :   0.9785
B(  1-N ,  4-C ) :   0.2255 B(  1-N ,  7-H ) :   1.1666 B(  1-N , 11-H ) :   0.2191
B(  1-N , 12-H ) :   0.1379 B(  2-C ,  3-N ) :   1.0571 B(  2-C ,  4-C ) :   1.7962
B(  2-C ,  5-H ) :   0.2347 B(  2-C ,  6-H ) :   0.2482 B(  2-C ,  7-H ) :  -0.1405
B(  3-N ,  4-C ) :   0.2557 B(  3-N ,  8-H ) :   0.9868 B(  3-N ,  9-H ) :   1.1539
B(  4-C ,  5-H ) :   0.7213 B(  4-C ,  6-H ) :   0.7195 B(  5-H ,  6-H ) :   0.2743
B(  8-H ,  9-H ) :  -0.1574 B( 10-C , 13-H ) :   0.8259 B( 10-C , 14-H ) :   0.7970
B( 10-C , 15-H ) :   0.7882

Dispersion correction           -0.012798985
FINAL SINGLE POINT ENERGY      -267.380604637960

DIPOLE MOMENT
-------------
                                X             Y             Z
Electronic contribution:     -0.10508      -2.40888      -2.99748
Nuclear contribution   :     -0.49695       2.43650       4.23017
                        -----------------------------------------
Total Dipole Moment    :     -0.60203       0.02762       1.23269
                        -----------------------------------------
Magnitude (a.u.)       :      1.37212
Magnitude (Debye)      :      3.48766

Rotational constants in cm-1:     0.211102     0.077011     0.069221
Rotational constants in MHz :  6328.667765  2308.731604  2075.192956

                             ****ORCA TERMINATED NORMALLY****
TOTAL RUN TIME: 0 days 0 hours 0 minutes 12 seconds 984 msec
