                         Program Version 5.0.0 -  RELEASE  -
|  1> !PBE D3BJ RIJCOSX def2-SVPD def2/J TightSCF xyzfile
|  2>
|  3> *xyzfile 0 1 D3.xyz
|  4>
|  5> %MaxCore 64000
|  6>
|  7> %pal nprocs 4
|  8> end
|  9>
| 10> %scf
| 11>   MaxIter 150
| 12> end
| 13>
| 14>
| 15>                          ****END OF INPUT****

CARTESIAN COORDINATES (ANGSTROEM)
---------------------------------
  C      2.234473   -2.989754   -2.397622
  N      2.756799   -2.945553   -3.765029
  C     -1.104325    0.251374   -2.860056
  C     -0.711893    0.842517   -4.218344
  H      0.154626    1.499800   -4.130909
  H     -1.538134    1.459222   -4.582671
  C     -0.397624   -0.205875   -5.288018
  C      1.987208   -2.590451   -4.818975
  N      0.743221   -3.017493   -4.913524
  C      2.499636   -1.848598   -5.803241
  H      3.309780   -1.292818   -5.558947
  H      1.801025   -1.304298   -6.289129
  H      3.716116   -2.628797   -3.829533
  H      0.395828   -3.627747   -4.185024
  H      0.039201   -2.454383   -5.371367
  F      0.617165   -0.005348   -5.998273
  O     -1.133173   -1.221380   -5.341465
  C      2.191199   -1.619503   -1.715492
  H      2.872783   -3.666368   -1.828014
  H      1.246188   -3.447444   -2.407842
  C      1.298729   -0.554314   -2.359773
  H      1.872917   -1.787955   -0.681310
  H      3.216809   -1.238432   -1.654428
  C     -0.196255   -0.863365   -2.325763
  H      1.612531   -0.371346   -3.393065
  H      1.480944    0.388638   -1.834444
  H     -0.404105   -1.761825   -2.909448
  H     -0.490439   -1.087880   -1.294131
  H     -1.143842    1.066711   -2.129680
  H     -2.114401   -0.156834   -2.930323

 Total Charge           Charge          ....    0
 Multiplicity           Mult            ....    1
 Number of Electrons    NEL             ....  102
 Basis Dimension        Dim             ....  402

ORBITAL ENERGIES
----------------

  NO   OCC          E(Eh)            E(eV)
   0   2.0000     -24.357341      -662.7969
   1   2.0000     -18.794032      -511.4116
   2   2.0000     -13.996525      -380.8648
   3   2.0000     -13.978552      -380.3757
   4   2.0000     -10.084705      -274.4188
   5   2.0000      -9.935568      -270.3605
   6   2.0000      -9.930543      -270.2238
   7   2.0000      -9.927434      -270.1392
   8   2.0000      -9.916881      -269.8520
   9   2.0000      -9.901884      -269.4440
  10   2.0000      -9.901683      -269.4385
  11   2.0000      -9.901302      -269.4281
  12   2.0000      -9.799376      -266.6546
  13   2.0000      -1.219284       -33.1784
  14   2.0000      -0.965356       -26.2687
  15   2.0000      -0.869889       -23.6709
  16   2.0000      -0.792758       -21.5720
  17   2.0000      -0.751144       -20.4397
  18   2.0000      -0.714346       -19.4383
  19   2.0000      -0.671978       -18.2855
  20   2.0000      -0.638447       -17.3730
  21   2.0000      -0.620467       -16.8838
  22   2.0000      -0.588227       -16.0065
  23   2.0000      -0.555279       -15.1099
  24   2.0000      -0.538463       -14.6523
  25   2.0000      -0.521277       -14.1847
  26   2.0000      -0.503994       -13.7144
  27   2.0000      -0.481854       -13.1119
  28   2.0000      -0.476445       -12.9647
  29   2.0000      -0.473622       -12.8879
  30   2.0000      -0.443702       -12.0737
  31   2.0000      -0.433844       -11.8055
  32   2.0000      -0.426006       -11.5922
  33   2.0000      -0.415567       -11.3082
  34   2.0000      -0.401974       -10.9383
  35   2.0000      -0.390741       -10.6326
  36   2.0000      -0.369602       -10.0574
  37   2.0000      -0.366662        -9.9774
  38   2.0000      -0.348567        -9.4850
  39   2.0000      -0.339991        -9.2516
  40   2.0000      -0.335632        -9.1330
  41   2.0000      -0.327983        -8.9249
  42   2.0000      -0.322010        -8.7623
  43   2.0000      -0.316119        -8.6020
  44   2.0000      -0.304132        -8.2758
  45   2.0000      -0.295544        -8.0422
  46   2.0000      -0.291609        -7.9351
  47   2.0000      -0.287677        -7.8281
  48   2.0000      -0.266604        -7.2547
  49   2.0000      -0.202328        -5.5056
  50   2.0000      -0.132118        -3.5951
  51   0.0000      -0.089967        -2.4481
  52   0.0000      -0.010315        -0.2807
  53   0.0000       0.002639         0.0718
  54   0.0000       0.006205         0.1688
  55   0.0000       0.016051         0.4368

MULLIKEN ATOMIC CHARGES
-----------------------
   0 C :    0.875896
   1 N :   -0.500389
   2 C :    0.571570
   3 C :    0.114584
   4 H :    0.195821
   5 H :   -0.248171
   6 C :    0.657081
   7 C :    0.316200
   8 N :    0.381201
   9 C :    0.740194
  10 H :   -0.080292
  11 H :   -0.652198
  12 H :   -0.156199
  13 H :   -0.051275
  14 H :   -0.340190
  15 F :   -0.393744
  16 O :   -0.574858
  17 C :    0.321952
  18 H :   -0.402116
  19 H :   -0.001883
  20 C :   -0.093007
  21 H :    0.027936
  22 H :   -0.109709
  23 C :   -0.093073
  24 H :   -0.014006
  25 H :   -0.222790
  26 H :   -0.101816
  27 H :   -0.155767
  28 H :   -0.095942
  29 H :    0.084991
Sum of atomic charges:   -0.0000000

LOEWDIN ATOMIC CHARGES
----------------------
   0 C :    0.046558
   1 N :    0.016820
   2 C :   -0.013190
   3 C :    0.053760
   4 H :    0.027296
   5 H :    0.042838
   6 C :    0.009481
   7 C :   -0.245453
   8 N :    0.243247
   9 C :    0.152971
  10 H :   -0.097881
  11 H :   -0.145705
  12 H :    0.022240
  13 H :   -0.012791
  14 H :   -0.092293
  15 F :   -0.010594
  16 O :   -0.100612
  17 C :   -0.018513
  18 H :    0.016369
  19 H :    0.001334
  20 C :   -0.025147
  21 H :    0.020890
  22 H :    0.022096
  23 C :   -0.026834
  24 H :    0.006150
  25 H :    0.026348
  26 H :   -0.006616
  27 H :    0.029220
  28 H :    0.028515
  29 H :    0.029497

  Mayer bond orders larger than 0.100000
B(  0-C ,  1-N ) :   0.9366 B(  0-C , 12-H ) :  -0.1153 B(  0-C , 17-C ) :   1.1140
B(  0-C , 18-H ) :   0.7488 B(  0-C , 19-H ) :   0.7430 B(  0-C , 21-H ) :   0.1509
B(  0-C , 22-H ) :   0.1556 B(  1-N ,  7-C ) :   0.9997 B(  1-N ,  8-N ) :   0.1010
B(  1-N ,  9-C ) :   0.2352 B(  1-N , 12-H ) :   1.1333 B(  1-N , 18-H ) :   0.2589
B(  1-N , 19-H ) :   0.1294 B(  2-C ,  3-C ) :   1.2090 B(  2-C ,  4-H ) :   0.1057
B(  2-C ,  5-H ) :   0.1829 B(  2-C , 23-C ) :   1.2722 B(  2-C , 28-H ) :   0.7579
B(  2-C , 29-H ) :   0.5930 B(  3-C ,  4-H ) :   0.7928 B(  3-C ,  5-H ) :   0.7523
B(  3-C ,  6-C ) :   1.2064 B(  3-C , 23-C ) :   0.1366 B(  3-C , 28-H ) :   0.1620
B(  3-C , 29-H ) :   0.1028 B(  4-H ,  6-C ) :   0.1707 B(  5-H ,  6-C ) :   0.2012
B(  6-C , 15-F ) :   0.6835 B(  6-C , 16-O ) :   1.6090 B(  7-C ,  8-N ) :   0.9600
B(  7-C ,  9-C ) :   1.8465 B(  7-C , 10-H ) :   0.3295 B(  7-C , 11-H ) :   0.3645
B(  7-C , 12-H ) :  -0.1288 B(  8-N ,  9-C ) :   0.2558 B(  8-N , 13-H ) :   0.9151
B(  8-N , 14-H ) :   1.0014 B(  9-C , 10-H ) :   0.4731 B(  9-C , 11-H ) :   0.1824
B( 10-H , 11-H ) :   0.3044 B( 11-H , 15-F ) :   0.1945 B( 13-H , 14-H ) :  -0.2274
B( 14-H , 16-O ) :   0.1559 B( 15-F , 16-O ) :   0.1021 B( 17-C , 18-H ) :   0.1288
B( 17-C , 19-H ) :   0.1361 B( 17-C , 20-C ) :   1.2647 B( 17-C , 21-H ) :   0.7915
B( 17-C , 22-H ) :   0.6778 B( 17-C , 24-H ) :   0.1272 B( 18-H , 19-H ) :  -0.1549
B( 20-C , 21-H ) :   0.1745 B( 20-C , 22-H ) :   0.2636 B( 20-C , 23-C ) :   1.3138
B( 20-C , 24-H ) :   0.9026 B( 20-C , 25-H ) :   0.8138 B( 20-C , 26-H ) :   0.1631
B( 20-C , 27-H ) :   0.2250 B( 21-H , 22-H ) :  -0.1085 B( 23-C , 24-H ) :   0.1461
B( 23-C , 25-H ) :   0.1969 B( 23-C , 26-H ) :   0.9217 B( 23-C , 27-H ) :   0.7413
B( 23-C , 28-H ) :   0.1847 B( 23-C , 29-H ) :   0.2664 B( 28-H , 29-H ) :  -0.1223

Dispersion correction           -0.035152445
FINAL SINGLE POINT ENERGY      -636.532450685932

DIPOLE MOMENT
-------------
                                X             Y             Z
Electronic contribution:     -2.85704       1.29428     -12.79092
Nuclear contribution   :      2.27881      -0.10762      14.43322
                        -----------------------------------------
Total Dipole Moment    :     -0.57823       1.18666       1.64229
                        -----------------------------------------
Magnitude (a.u.)       :      2.10705
Magnitude (Debye)      :      5.35569

Rotational constants in cm-1:     0.033336     0.023673     0.017062
Rotational constants in MHz :   999.388459   709.685364   511.514310

                             ****ORCA TERMINATED NORMALLY****
TOTAL RUN TIME: 0 days 0 hours 0 minutes 42 seconds 830 msec
