                         Program Version 5.0.0 -  RELEASE  -
|  1> !LC-PBE RIJCOSX def2-SVPD def2/J TightSCF
|  2> *xyz -1 1
|  3> C         -1.10433        0.25137       -2.86006
|  4> C         -0.71189        0.84252       -4.21834
|  5> H          0.15463        1.49980       -4.13091
|  6> H         -1.53813        1.45922       -4.58267
|  7> C         -0.39762       -0.20587       -5.28802
|  8> O          0.61717       -0.00535       -5.99827
|  9> O         -1.13317       -1.22138       -5.34147
| 10> H         -1.95489       -0.38644       -2.98099
| 11> H         -1.34603        1.04362       -2.18269
| 12> H         -0.28606       -0.31581       -2.46809
| 13> *
| 14>
| 15> %MaxCore 64000
| 16>
| 17> %pal nprocs 4
| 18> end
| 19>
| 20> %scf
| 21>   MaxIter 150
| 22> end
| 23>
| 24>
| 25>                          ****END OF INPUT****

CARTESIAN COORDINATES (ANGSTROEM)
---------------------------------
  C     -1.104330    0.251370   -2.860060
  C     -0.711890    0.842520   -4.218340
  H      0.154630    1.499800   -4.130910
  H     -1.538130    1.459220   -4.582670
  C     -0.397620   -0.205870   -5.288020
  O      0.617170   -0.005350   -5.998270
  O     -1.133170   -1.221380   -5.341470
  H     -1.954890   -0.386440   -2.980990
  H     -1.346030    1.043620   -2.182690
  H     -0.286060   -0.315810   -2.468090

 Total Charge           Charge          ....   -1
 Multiplicity           Mult            ....    1
 Number of Electrons    NEL             ....   40
 Basis Dimension        Dim             ....  146

ORBITAL ENERGIES
----------------

  NO   OCC          E(Eh)            E(eV)
   0   2.0000     -18.727752      -509.6080
   1   2.0000     -18.726878      -509.5843
   2   2.0000     -10.018602      -272.6200
   3   2.0000      -9.964312      -271.1427
   4   2.0000      -9.955475      -270.9022
   5   2.0000      -0.981781       -26.7156
   6   2.0000      -0.878155       -23.8958
   7   2.0000      -0.777135       -21.1469
   8   2.0000      -0.634897       -17.2764
   9   2.0000      -0.468815       -12.7571
  10   2.0000      -0.440510       -11.9869
  11   2.0000      -0.402934       -10.9644
  12   2.0000      -0.375789       -10.2258
  13   2.0000      -0.356625        -9.7043
  14   2.0000      -0.348267        -9.4768
  15   2.0000      -0.316666        -8.6169
  16   2.0000      -0.299321        -8.1449
  17   2.0000      -0.179707        -4.8901
  18   2.0000      -0.175089        -4.7644
  19   2.0000      -0.164690        -4.4814
  20   0.0000       0.220522         6.0007
  21   0.0000       0.255236         6.9453
  22   0.0000       0.263805         7.1785
  23   0.0000       0.288002         7.8369
  24   0.0000       0.314105         8.5472

MULLIKEN ATOMIC CHARGES
-----------------------
   0 C :    0.369890
   1 C :   -0.443091
   2 H :    0.022312
   3 H :    0.052148
   4 C :    0.314363
   5 O :   -0.640977
   6 O :   -0.663954
   7 H :    0.018648
   8 H :   -0.017843
   9 H :   -0.011495
Sum of atomic charges:   -1.0000000

LOEWDIN ATOMIC CHARGES
----------------------
   0 C :    0.066559
   1 C :   -0.064882
   2 H :    0.013080
   3 H :    0.023609
   4 C :   -0.328745
   5 O :   -0.329020
   6 O :   -0.319151
   7 H :   -0.018554
   8 H :   -0.031261
   9 H :   -0.011636

  Mayer bond orders larger than 0.100000
B(  0-C ,  1-C ) :   1.2707 B(  0-C ,  7-H ) :   0.8622 B(  0-C ,  8-H ) :   0.8567
B(  0-C ,  9-H ) :   0.8872 B(  1-C ,  2-H ) :   0.9812 B(  1-C ,  3-H ) :   0.9132
B(  1-C ,  4-C ) :   1.0166 B(  1-C ,  7-H ) :   0.1658 B(  1-C ,  8-H ) :   0.1480
B(  1-C ,  9-H ) :   0.1331 B(  2-H ,  4-C ) :   0.1589 B(  4-C ,  5-O ) :   1.5622
B(  4-C ,  6-O ) :   1.5837

FINAL SINGLE POINT ENERGY      -266.875565567233

DIPOLE MOMENT
-------------
                                X             Y             Z
Electronic contribution:      1.51553      -2.29220      -5.13331
Nuclear contribution   :     -2.09607       3.44215       6.87744
                        -----------------------------------------
Total Dipole Moment    :     -0.58054       1.14995       1.74413
                        -----------------------------------------
Magnitude (a.u.)       :      2.16827
Magnitude (Debye)      :      5.51130

Rotational constants in cm-1:     0.324698     0.133739     0.103466
Rotational constants in MHz :  9734.203431  4009.406827  3101.846422

                             ****ORCA TERMINATED NORMALLY****
TOTAL RUN TIME: 0 days 0 hours 0 minutes 16 seconds 93 msec
