                         Program Version 5.0.0 -  RELEASE  -
|  1> !LC-PBE RIJCOSX def2-SVPD def2/J TightSCF
|  2> *xyz 1 1
|  3> C          2.23447       -2.98975       -2.39762
|  4> N          2.75680       -2.94555       -3.76503
|  5> C          1.98721       -2.59045       -4.81898
|  6> N          0.74322       -3.01749       -4.91352
|  7> N          2.49964       -1.84860       -5.80324
|  8> H          3.30978       -1.29282       -5.55895
|  9> H          1.80103       -1.30430       -6.28913
| 10> H          3.71612       -2.62880       -3.82953
| 11> H          0.39583       -3.62775       -4.18502
| 12> H          0.03920       -2.45438       -5.37137
| 13> C          2.19120       -1.61950       -1.71549
| 14> H          2.87278       -3.66637       -1.82801
| 15> H          1.24619       -3.44744       -2.40784
| 16> H          1.56387       -0.96046       -2.27853
| 17> H          3.18033       -1.21449       -1.66568
| 18> H          1.79916       -1.72608       -0.72562
| 19> *
| 20>
| 21> %MaxCore 64000
| 22>
| 23> %pal nprocs 4
| 24> end
| 25>
| 26> %scf
| 27>   MaxIter 150
| 28> end
| 29>
| 30>
| 31>                          ****END OF INPUT****

CARTESIAN COORDINATES (ANGSTROEM)
---------------------------------
  C      2.234470   -2.989750   -2.397620
  N      2.756800   -2.945550   -3.765030
  C      1.987210   -2.590450   -4.818980
  N      0.743220   -3.017490   -4.913520
  N      2.499640   -1.848600   -5.803240
  H      3.309780   -1.292820   -5.558950
  H      1.801030   -1.304300   -6.289130
  H      3.716120   -2.628800   -3.829530
  H      0.395830   -3.627750   -4.185020
  H      0.039200   -2.454380   -5.371370
  C      2.191200   -1.619500   -1.715490
  H      2.872780   -3.666370   -1.828010
  H      1.246190   -3.447440   -2.407840
  H      1.563870   -0.960460   -2.278530
  H      3.180330   -1.214490   -1.665680
  H      1.799160   -1.726080   -0.725620

 Total Charge           Charge          ....    1
 Multiplicity           Mult            ....    1
 Number of Electrons    NEL             ....   48
 Basis Dimension        Dim             ....  200

ORBITAL ENERGIES
----------------

  NO   OCC          E(Eh)            E(eV)
   0   2.0000     -14.462415      -393.5423
   1   2.0000     -14.458096      -393.4248
   2   2.0000     -14.457268      -393.4023
   3   2.0000     -10.480423      -285.1868
   4   2.0000     -10.338689      -281.3300
   5   2.0000     -10.268179      -279.4114
   6   2.0000      -1.396935       -38.0125
   7   2.0000      -1.274305       -34.6756
   8   2.0000      -1.266981       -34.4763
   9   2.0000      -1.098921       -29.9032
  10   2.0000      -1.000920       -27.2364
  11   2.0000      -0.964096       -26.2344
  12   2.0000      -0.942082       -25.6354
  13   2.0000      -0.892531       -24.2870
  14   2.0000      -0.851485       -23.1701
  15   2.0000      -0.828626       -22.5481
  16   2.0000      -0.798679       -21.7332
  17   2.0000      -0.769737       -20.9456
  18   2.0000      -0.745992       -20.2995
  19   2.0000      -0.711595       -19.3635
  20   2.0000      -0.669882       -18.2284
  21   2.0000      -0.647542       -17.6205
  22   2.0000      -0.624887       -17.0040
  23   2.0000      -0.581559       -15.8250
  24   0.0000      -0.106239        -2.8909
  25   0.0000      -0.075865        -2.0644
  26   0.0000      -0.043795        -1.1917
  27   0.0000      -0.031947        -0.8693
  28   0.0000      -0.012426        -0.3381

MULLIKEN ATOMIC CHARGES
-----------------------
   0 C :    0.147062
   1 N :   -0.445973
   2 C :    0.954864
   3 N :   -0.021023
   4 N :   -0.107466
   5 H :    0.063607
   6 H :    0.092866
   7 H :   -0.110933
   8 H :    0.040265
   9 H :    0.029624
  10 C :    0.428132
  11 H :   -0.111139
  12 H :   -0.055573
  13 H :   -0.037026
  14 H :    0.044530
  15 H :    0.088184
Sum of atomic charges:    1.0000000

LOEWDIN ATOMIC CHARGES
----------------------
   0 C :    0.014358
   1 N :    0.041133
   2 C :   -0.043426
   3 N :    0.269309
   4 N :    0.255305
   5 H :    0.044911
   6 H :    0.044458
   7 H :    0.060004
   8 H :    0.034261
   9 H :    0.057511
  10 C :    0.129245
  11 H :    0.051351
  12 H :    0.026246
  13 H :   -0.003623
  14 H :    0.004139
  15 H :    0.014817

  Mayer bond orders larger than 0.100000
B(  0-C ,  1-N ) :   0.8965 B(  0-C , 10-C ) :   1.2708 B(  0-C , 11-H ) :   0.9432
B(  0-C , 12-H ) :   0.9064 B(  0-C , 13-H ) :   0.1792 B(  0-C , 14-H ) :   0.1459
B(  0-C , 15-H ) :   0.1454 B(  1-N ,  2-C ) :   1.0648 B(  1-N ,  4-N ) :   0.1381
B(  1-N ,  7-H ) :   1.2150 B(  1-N , 11-H ) :   0.1630 B(  1-N , 12-H ) :   0.1146
B(  2-C ,  3-N ) :   1.0526 B(  2-C ,  4-N ) :   1.0290 B(  2-C ,  7-H ) :  -0.1767
B(  3-N ,  4-N ) :   0.1304 B(  3-N ,  8-H ) :   0.9822 B(  3-N ,  9-H ) :   1.1824
B(  4-N ,  5-H ) :   0.9922 B(  4-N ,  6-H ) :   0.9787 B(  8-H ,  9-H ) :  -0.1483
B( 10-C , 13-H ) :   0.8765 B( 10-C , 14-H ) :   0.8539 B( 10-C , 15-H ) :   0.8346

FINAL SINGLE POINT ENERGY      -283.300816095501

DIPOLE MOMENT
-------------
                                X             Y             Z
Electronic contribution:      0.17339      -1.66188      -5.19840
Nuclear contribution   :     -0.59121       2.30298       4.63196
                        -----------------------------------------
Total Dipole Moment    :     -0.41782       0.64110      -0.56645
                        -----------------------------------------
Magnitude (a.u.)       :      0.95207
Magnitude (Debye)      :      2.41998

Rotational constants in cm-1:     0.205874     0.074757     0.066901
Rotational constants in MHz :  6171.937773  2241.151057  2005.629823

                             ****ORCA TERMINATED NORMALLY****
TOTAL RUN TIME: 0 days 0 hours 0 minutes 35 seconds 621 msec
