                         Program Version 5.0.0 -  RELEASE  -
|  1> !LC-PBE RIJCOSX def2-SVPD def2/J TightSCF xyzfile
|  2>
|  3> *xyzfile 0 1 B.xyz
|  4>
|  5> %MaxCore 64000
|  6>
|  7> %pal nprocs 4
|  8> end
|  9>
| 10> %scf
| 11>   MaxIter 150
| 12> end
| 13>
| 14>
| 15>                          ****END OF INPUT****

CARTESIAN COORDINATES (ANGSTROEM)
---------------------------------
  C      2.234473   -2.989754   -2.397622
  N      2.756799   -2.945553   -3.765029
  C     -1.104325    0.251374   -2.860056
  C     -0.711893    0.842517   -4.218344
  H      0.154626    1.499800   -4.130909
  H     -1.538134    1.459222   -4.582671
  C     -0.397624   -0.205875   -5.288018
  C      1.987208   -2.590451   -4.818975
  N      0.743221   -3.017493   -4.913524
  N      2.499636   -1.848598   -5.803241
  H      3.309780   -1.292818   -5.558947
  H      1.801025   -1.304298   -6.289129
  H      3.716116   -2.628797   -3.829533
  H      0.395828   -3.627747   -4.185024
  H      0.039201   -2.454383   -5.371367
  O      0.617165   -0.005348   -5.998273
  O     -1.133173   -1.221380   -5.341465
  C      2.191199   -1.619503   -1.715492
  H      2.872783   -3.666368   -1.828014
  H      1.246188   -3.447444   -2.407842
  C      1.298729   -0.554314   -2.359773
  H      1.872917   -1.787955   -0.681310
  H      3.216809   -1.238432   -1.654428
  C     -0.196255   -0.863365   -2.325763
  H      1.612531   -0.371346   -3.393065
  H      1.480944    0.388638   -1.834444
  H     -0.404105   -1.761825   -2.909448
  H     -0.490439   -1.087880   -1.294131
  H     -1.143842    1.066711   -2.129680
  H     -2.114401   -0.156834   -2.930323

 Total Charge           Charge          ....    0
 Multiplicity           Mult            ....    1
 Number of Electrons    NEL             ....  102
 Basis Dimension        Dim             ....  402

ORBITAL ENERGIES
----------------

  NO   OCC          E(Eh)            E(eV)
   0   2.0000     -18.912663      -514.6397
   1   2.0000     -18.910569      -514.5827
   2   2.0000     -14.303236      -389.2108
   3   2.0000     -14.270281      -388.3141
   4   2.0000     -14.268901      -388.2765
   5   2.0000     -10.306570      -280.4560
   6   2.0000     -10.205351      -277.7017
   7   2.0000     -10.196646      -277.4648
   8   2.0000     -10.154467      -276.3171
   9   2.0000     -10.134502      -275.7738
  10   2.0000     -10.120629      -275.3963
  11   2.0000     -10.111393      -275.1450
  12   2.0000     -10.097914      -274.7782
  13   2.0000      -1.225342       -33.3432
  14   2.0000      -1.169726       -31.8299
  15   2.0000      -1.111820       -30.2542
  16   2.0000      -1.087373       -29.5889
  17   2.0000      -1.062235       -28.9049
  18   2.0000      -0.995587       -27.0913
  19   2.0000      -0.950135       -25.8545
  20   2.0000      -0.893423       -24.3113
  21   2.0000      -0.845486       -23.0068
  22   2.0000      -0.811709       -22.0877
  23   2.0000      -0.781196       -21.2574
  24   2.0000      -0.769562       -20.9409
  25   2.0000      -0.735768       -20.0213
  26   2.0000      -0.709624       -19.3099
  27   2.0000      -0.688341       -18.7307
  28   2.0000      -0.659324       -17.9411
  29   2.0000      -0.647022       -17.6064
  30   2.0000      -0.630166       -17.1477
  31   2.0000      -0.619925       -16.8690
  32   2.0000      -0.609274       -16.5792
  33   2.0000      -0.596728       -16.2378
  34   2.0000      -0.584284       -15.8992
  35   2.0000      -0.571172       -15.5424
  36   2.0000      -0.555713       -15.1217
  37   2.0000      -0.552378       -15.0310
  38   2.0000      -0.530987       -14.4489
  39   2.0000      -0.523177       -14.2364
  40   2.0000      -0.505834       -13.7644
  41   2.0000      -0.492417       -13.3994
  42   2.0000      -0.480395       -13.0722
  43   2.0000      -0.459430       -12.5017
  44   2.0000      -0.446844       -12.1592
  45   2.0000      -0.438843       -11.9415
  46   2.0000      -0.433247       -11.7893
  47   2.0000      -0.424842       -11.5605
  48   2.0000      -0.363165        -9.8822
  49   2.0000      -0.353460        -9.6181
  50   2.0000      -0.350928        -9.5492
  51   0.0000       0.059922         1.6306
  52   0.0000       0.064491         1.7549
  53   0.0000       0.080526         2.1912
  54   0.0000       0.095448         2.5973
  55   0.0000       0.103370         2.8128

MULLIKEN ATOMIC CHARGES
-----------------------
   0 C :    0.606212
   1 N :   -0.515958
   2 C :    0.347023
   3 C :    0.068192
   4 H :    0.228087
   5 H :   -0.146277
   6 C :    0.157268
   7 C :    0.905109
   8 N :    0.203158
   9 N :   -0.012163
  10 H :    0.112859
  11 H :   -0.121064
  12 H :   -0.082329
  13 H :    0.091764
  14 H :   -0.302439
  15 O :   -0.551859
  16 O :   -0.667274
  17 C :    0.213957
  18 H :   -0.225006
  19 H :    0.063604
  20 C :   -0.164683
  21 H :    0.115855
  22 H :    0.007568
  23 C :   -0.157255
  24 H :   -0.088698
  25 H :   -0.069128
  26 H :   -0.095363
  27 H :   -0.058859
  28 H :   -0.018491
  29 H :    0.156190
Sum of atomic charges:   -0.0000000

LOEWDIN ATOMIC CHARGES
----------------------
   0 C :    0.041897
   1 N :    0.030347
   2 C :   -0.043585
   3 C :    0.008537
   4 H :    0.027849
   5 H :    0.043349
   6 C :   -0.234080
   7 C :   -0.052738
   8 N :    0.300429
   9 N :    0.262446
  10 H :    0.033282
  11 H :   -0.065015
  12 H :    0.045129
  13 H :    0.026410
  14 H :   -0.075043
  15 O :   -0.257543
  16 O :   -0.248728
  17 C :   -0.039000
  18 H :    0.037702
  19 H :    0.020536
  20 C :   -0.044321
  21 H :    0.040058
  22 H :    0.032996
  23 C :   -0.050837
  24 H :    0.016393
  25 H :    0.042703
  26 H :   -0.001537
  27 H :    0.035245
  28 H :    0.030570
  29 H :    0.036545

  Mayer bond orders larger than 0.100000
B(  0-C ,  1-N ) :   0.9295 B(  0-C , 17-C ) :   1.1279 B(  0-C , 18-H ) :   0.8851
B(  0-C , 19-H ) :   0.8141 B(  0-C , 21-H ) :   0.1157 B(  0-C , 22-H ) :   0.1034
B(  1-N ,  7-C ) :   0.9434 B(  1-N ,  9-N ) :   0.1609 B(  1-N , 12-H ) :   1.1889
B(  1-N , 18-H ) :   0.1891 B(  2-C ,  3-C ) :   1.2034 B(  2-C ,  5-H ) :   0.1303
B(  2-C , 23-C ) :   1.2702 B(  2-C , 28-H ) :   0.8448 B(  2-C , 29-H ) :   0.6802
B(  3-C ,  4-H ) :   0.8071 B(  3-C ,  5-H ) :   0.8653 B(  3-C ,  6-C ) :   1.1501
B(  3-C , 28-H ) :   0.1294 B(  3-C , 29-H ) :   0.1011 B(  4-H ,  6-C ) :   0.2416
B(  5-H ,  6-C ) :   0.1388 B(  6-C , 15-O ) :   1.4934 B(  6-C , 16-O ) :   1.4746
B(  7-C ,  8-N ) :   1.0318 B(  7-C ,  9-N ) :   0.9294 B(  7-C , 12-H ) :  -0.1772
B(  7-C , 14-H ) :  -0.1303 B(  8-N ,  9-N ) :   0.1150 B(  8-N , 13-H ) :   0.8822
B(  8-N , 14-H ) :   1.2360 B(  9-N , 10-H ) :   0.9338 B(  9-N , 11-H ) :   0.9967
B( 11-H , 15-O ) :   0.1334 B( 13-H , 14-H ) :  -0.2218 B( 14-H , 16-O ) :   0.2214
B( 15-O , 16-O ) :   0.1124 B( 17-C , 19-H ) :   0.1085 B( 17-C , 20-C ) :   1.2221
B( 17-C , 21-H ) :   0.8252 B( 17-C , 22-H ) :   0.7876 B( 18-H , 19-H ) :  -0.1105
B( 20-C , 21-H ) :   0.1389 B( 20-C , 22-H ) :   0.2137 B( 20-C , 23-C ) :   1.3146
B( 20-C , 24-H ) :   0.9852 B( 20-C , 25-H ) :   0.8916 B( 20-C , 26-H ) :   0.1302
B( 20-C , 27-H ) :   0.2014 B( 23-C , 24-H ) :   0.1281 B( 23-C , 25-H ) :   0.1794
B( 23-C , 26-H ) :   0.9609 B( 23-C , 27-H ) :   0.8174 B( 23-C , 28-H ) :   0.1425
B( 23-C , 29-H ) :   0.2154

FINAL SINGLE POINT ENERGY      -627.481826733990

DIPOLE MOMENT
-------------
                                X             Y             Z
Electronic contribution:      0.62186      -2.82756     -10.13735
Nuclear contribution   :      1.76912       1.50070      12.36652
                        -----------------------------------------
Total Dipole Moment    :      2.39098      -1.32687       2.22918
                        -----------------------------------------
Magnitude (a.u.)       :      3.52797
Magnitude (Debye)      :      8.96740

Rotational constants in cm-1:     0.033272     0.023886     0.017112
Rotational constants in MHz :   997.469575   716.074432   513.001395

                             ****ORCA TERMINATED NORMALLY****
TOTAL RUN TIME: 0 days 0 hours 2 minutes 45 seconds 452 msec
