                         Program Version 5.0.0 -  RELEASE  -
|  1> !LC-PBE RIJCOSX def2-SVPD def2/J TightSCF
|  2> *xyz 0 1
|  3> C         -1.10433        0.25137       -2.86006
|  4> C         -0.71189        0.84252       -4.21834
|  5> H          0.15463        1.49980       -4.13091
|  6> H         -1.53813        1.45922       -4.58267
|  7> C         -0.39762       -0.20587       -5.28802
|  8> F          0.61717       -0.00535       -5.99827
|  9> O         -1.13317       -1.22138       -5.34147
| 10> H         -1.95489       -0.38644       -2.98099
| 11> H         -1.34603        1.04362       -2.18269
| 12> H         -0.28606       -0.31581       -2.46809
| 13> *
| 14>
| 15> %MaxCore 64000
| 16>
| 17> %pal nprocs 4
| 18> end
| 19>
| 20> %scf
| 21>   MaxIter 150
| 22> end
| 23>
| 24>
| 25>                          ****END OF INPUT****

CARTESIAN COORDINATES (ANGSTROEM)
---------------------------------
  C     -1.104330    0.251370   -2.860060
  C     -0.711890    0.842520   -4.218340
  H      0.154630    1.499800   -4.130910
  H     -1.538130    1.459220   -4.582670
  C     -0.397620   -0.205870   -5.288020
  F      0.617170   -0.005350   -5.998270
  O     -1.133170   -1.221380   -5.341470
  H     -1.954890   -0.386440   -2.980990
  H     -1.346030    1.043620   -2.182690
  H     -0.286060   -0.315810   -2.468090

 Total Charge           Charge          ....    0
 Multiplicity           Mult            ....    1
 Number of Electrons    NEL             ....   40
 Basis Dimension        Dim             ....  146

ORBITAL ENERGIES
----------------

  NO   OCC          E(Eh)            E(eV)
   0   2.0000     -24.583028      -668.9382
   1   2.0000     -19.004884      -517.1492
   2   2.0000     -10.320580      -280.8373
   3   2.0000     -10.164526      -276.5908
   4   2.0000     -10.131602      -275.6949
   5   2.0000      -1.469483       -39.9867
   6   2.0000      -1.194614       -32.5071
   7   2.0000      -0.974672       -26.5222
   8   2.0000      -0.853910       -23.2361
   9   2.0000      -0.797505       -21.7012
  10   2.0000      -0.712416       -19.3858
  11   2.0000      -0.694403       -18.8957
  12   2.0000      -0.660025       -17.9602
  13   2.0000      -0.613314       -16.6891
  14   2.0000      -0.580247       -15.7893
  15   2.0000      -0.537541       -14.6272
  16   2.0000      -0.514930       -14.0120
  17   2.0000      -0.511056       -13.9065
  18   2.0000      -0.485977       -13.2241
  19   2.0000      -0.435518       -11.8511
  20   0.0000       0.062956         1.7131
  21   0.0000       0.083357         2.2683
  22   0.0000       0.111207         3.0261
  23   0.0000       0.122453         3.3321
  24   0.0000       0.145618         3.9625

MULLIKEN ATOMIC CHARGES
-----------------------
   0 C :    0.359424
   1 C :   -0.536268
   2 H :    0.078116
   3 H :    0.140198
   4 C :    0.623567
   5 F :   -0.315428
   6 O :   -0.439032
   7 H :    0.043200
   8 H :    0.027982
   9 H :    0.018240
Sum of atomic charges:   -0.0000000

LOEWDIN ATOMIC CHARGES
----------------------
   0 C :    0.108767
   1 C :   -0.021971
   2 H :    0.035567
   3 H :    0.052850
   4 C :   -0.025637
   5 F :   -0.022707
   6 O :   -0.128630
   7 H :    0.000100
   8 H :   -0.001617
   9 H :    0.003277

  Mayer bond orders larger than 0.100000
B(  0-C ,  1-C ) :   1.3221 B(  0-C ,  7-H ) :   0.8623 B(  0-C ,  8-H ) :   0.8621
B(  0-C ,  9-H ) :   0.8860 B(  1-C ,  2-H ) :   0.9615 B(  1-C ,  3-H ) :   0.8910
B(  1-C ,  4-C ) :   1.0902 B(  1-C ,  7-H ) :   0.1487 B(  1-C ,  8-H ) :   0.1383
B(  1-C ,  9-H ) :   0.1283 B(  4-C ,  5-F ) :   0.8330 B(  4-C ,  6-O ) :   1.9166

FINAL SINGLE POINT ENERGY      -291.380944513762

DIPOLE MOMENT
-------------
                                X             Y             Z
Electronic contribution:      3.60942      -2.30633      -7.68262
Nuclear contribution   :     -3.36368       3.36392       8.24820
                        -----------------------------------------
Total Dipole Moment    :      0.24573       1.05759       0.56557
                        -----------------------------------------
Magnitude (a.u.)       :      1.22423
Magnitude (Debye)      :      3.11176

Rotational constants in cm-1:     0.315013     0.126712     0.098430
Rotational constants in MHz :  9443.861322  3798.734540  2950.846388

                             ****ORCA TERMINATED NORMALLY****
TOTAL RUN TIME: 0 days 0 hours 0 minutes 12 seconds 31 msec
