                         Program Version 5.0.0 -  RELEASE  -
|  1> !LC-PBE RIJCOSX def2-SVPD def2/J TightSCF
|  2> *xyz 0 1
|  3> C          2.23447       -2.98975       -2.39762
|  4> C          2.75680       -2.94555       -3.76503
|  5> C          1.98721       -2.59045       -4.81898
|  6> N          0.74322       -3.01749       -4.91352
|  7> N          2.49964       -1.84860       -5.80324
|  8> H          3.30978       -1.29282       -5.55895
|  9> H          1.80103       -1.30430       -6.28913
| 10> H          3.71612       -2.62880       -3.82953
| 11> H          0.39583       -3.62775       -4.18502
| 12> H          0.03920       -2.45438       -5.37137
| 13> C          2.19120       -1.61950       -1.71549
| 14> H          2.87278       -3.66637       -1.82801
| 15> H          1.24619       -3.44744       -2.40784
| 16> H          1.56387       -0.96046       -2.27853
| 17> H          3.18033       -1.21449       -1.66568
| 18> H          1.79916       -1.72608       -0.72562
| 19> *
| 20>
| 21> %MaxCore 64000
| 22>
| 23> %pal nprocs 4
| 24> end
| 25>
| 26> %scf
| 27>   MaxIter 150
| 28> end
| 29>
| 30>
| 31>                          ****END OF INPUT****

CARTESIAN COORDINATES (ANGSTROEM)
---------------------------------
  C      2.234470   -2.989750   -2.397620
  C      2.756800   -2.945550   -3.765030
  C      1.987210   -2.590450   -4.818980
  N      0.743220   -3.017490   -4.913520
  N      2.499640   -1.848600   -5.803240
  H      3.309780   -1.292820   -5.558950
  H      1.801030   -1.304300   -6.289130
  H      3.716120   -2.628800   -3.829530
  H      0.395830   -3.627750   -4.185020
  H      0.039200   -2.454380   -5.371370
  C      2.191200   -1.619500   -1.715490
  H      2.872780   -3.666370   -1.828010
  H      1.246190   -3.447440   -2.407840
  H      1.563870   -0.960460   -2.278530
  H      3.180330   -1.214490   -1.665680
  H      1.799160   -1.726080   -0.725620

 Total Charge           Charge          ....    0
 Multiplicity           Mult            ....    1
 Number of Electrons    NEL             ....   48
 Basis Dimension        Dim             ....  200

ORBITAL ENERGIES
----------------

  NO   OCC          E(Eh)            E(eV)
   0   2.0000     -14.236399      -387.3921
   1   2.0000     -14.231638      -387.2625
   2   2.0000     -10.183300      -277.1017
   3   2.0000     -10.106060      -274.9999
   4   2.0000     -10.095848      -274.7220
   5   2.0000     -10.053527      -273.5704
   6   2.0000      -1.142622       -31.0923
   7   2.0000      -1.041115       -28.3302
   8   2.0000      -0.947624       -25.7862
   9   2.0000      -0.856447       -23.3051
  10   2.0000      -0.775890       -21.1130
  11   2.0000      -0.734692       -19.9920
  12   2.0000      -0.694342       -18.8940
  13   2.0000      -0.655647       -17.8411
  14   2.0000      -0.610648       -16.6166
  15   2.0000      -0.599299       -16.3078
  16   2.0000      -0.556156       -15.1338
  17   2.0000      -0.539068       -14.6688
  18   2.0000      -0.511597       -13.9213
  19   2.0000      -0.497789       -13.5455
  20   2.0000      -0.458827       -12.4853
  21   2.0000      -0.448622       -12.2076
  22   2.0000      -0.411811       -11.2059
  23   2.0000      -0.277526        -7.5519
  24   0.0000       0.084332         2.2948
  25   0.0000       0.115542         3.1441
  26   0.0000       0.116540         3.1712
  27   0.0000       0.124370         3.3843
  28   0.0000       0.146668         3.9910

MULLIKEN ATOMIC CHARGES
-----------------------
   0 C :   -0.384185
   1 C :   -0.191561
   2 C :    0.259572
   3 N :   -0.054662
   4 N :   -0.088403
   5 H :    0.091949
   6 H :    0.035485
   7 H :   -0.088695
   8 H :    0.038605
   9 H :   -0.064325
  10 C :    0.504655
  11 H :    0.039192
  12 H :   -0.107158
  13 H :   -0.038464
  14 H :    0.019103
  15 H :    0.028892
Sum of atomic charges:   -0.0000000

LOEWDIN ATOMIC CHARGES
----------------------
   0 C :   -0.130520
   1 C :   -0.044162
   2 C :   -0.243567
   3 N :    0.181408
   4 N :    0.172067
   5 H :    0.012631
   6 H :   -0.000694
   7 H :   -0.045214
   8 H :    0.004650
   9 H :    0.009366
  10 C :    0.090714
  11 H :    0.022841
  12 H :    0.003731
  13 H :   -0.011674
  14 H :   -0.008224
  15 H :   -0.013354

  Mayer bond orders larger than 0.100000
B(  0-C ,  1-C ) :   1.2773 B(  0-C ,  2-C ) :   0.1138 B(  0-C ,  7-H ) :   0.2802
B(  0-C , 10-C ) :   1.2609 B(  0-C , 11-H ) :   0.8621 B(  0-C , 12-H ) :   0.9367
B(  0-C , 13-H ) :   0.1848 B(  0-C , 14-H ) :   0.1803 B(  0-C , 15-H ) :   0.1707
B(  1-C ,  2-C ) :   1.8799 B(  1-C ,  3-N ) :   0.1345 B(  1-C ,  4-N ) :   0.1817
B(  1-C ,  7-H ) :   0.6957 B(  1-C , 11-H ) :   0.1683 B(  1-C , 12-H ) :   0.1711
B(  2-C ,  3-N ) :   1.0794 B(  2-C ,  4-N ) :   1.0419 B(  2-C ,  7-H ) :   0.2441
B(  3-N ,  4-N ) :   0.1091 B(  3-N ,  8-H ) :   0.9927 B(  3-N ,  9-H ) :   1.2045
B(  4-N ,  5-H ) :   0.9468 B(  4-N ,  6-H ) :   0.9118 B(  8-H ,  9-H ) :  -0.1340
B( 10-C , 13-H ) :   0.8758 B( 10-C , 14-H ) :   0.8388 B( 10-C , 15-H ) :   0.8251
B( 11-H , 12-H ) :   0.1174

FINAL SINGLE POINT ENERGY      -266.853299049995

DIPOLE MOMENT
-------------
                                X             Y             Z
Electronic contribution:     -0.34108      -1.34755      -4.95497
Nuclear contribution   :     -0.44240       2.20379       4.66256
                        -----------------------------------------
Total Dipole Moment    :     -0.78348       0.85624      -0.29240
                        -----------------------------------------
Magnitude (a.u.)       :      1.19686
Magnitude (Debye)      :      3.04218

Rotational constants in cm-1:     0.209447     0.075194     0.066975
Rotational constants in MHz :  6279.068019  2254.272519  2007.845458

                             ****ORCA TERMINATED NORMALLY****
TOTAL RUN TIME: 0 days 0 hours 0 minutes 34 seconds 135 msec
