                         Program Version 5.0.0 -  RELEASE  -
|  1> !LC-PBE RIJCOSX def2-SVPD def2/J TightSCF
|  2> *xyz 0 1
|  3> C         -1.10433        0.25137       -2.86006
|  4> C         -0.71189        0.84252       -4.21834
|  5> H          0.15463        1.49980       -4.13091
|  6> H         -1.53813        1.45922       -4.58267
|  7> C         -0.39762       -0.20587       -5.28802
|  8> O          0.61717       -0.00535       -5.99827
|  9> F         -1.13317       -1.22138       -5.34147
| 10> H         -1.95489       -0.38644       -2.98099
| 11> H         -1.34603        1.04362       -2.18269
| 12> H         -0.28606       -0.31581       -2.46809
| 13> *
| 14>
| 15> %MaxCore 64000
| 16>
| 17> %pal nprocs 4
| 18> end
| 19>
| 20> %scf
| 21>   MaxIter 150
| 22> end
| 23>
| 24>
| 25>                          ****END OF INPUT****

CARTESIAN COORDINATES (ANGSTROEM)
---------------------------------
  C     -1.104330    0.251370   -2.860060
  C     -0.711890    0.842520   -4.218340
  H      0.154630    1.499800   -4.130910
  H     -1.538130    1.459220   -4.582670
  C     -0.397620   -0.205870   -5.288020
  O      0.617170   -0.005350   -5.998270
  F     -1.133170   -1.221380   -5.341470
  H     -1.954890   -0.386440   -2.980990
  H     -1.346030    1.043620   -2.182690
  H     -0.286060   -0.315810   -2.468090

 Total Charge           Charge          ....    0
 Multiplicity           Mult            ....    1
 Number of Electrons    NEL             ....   40
 Basis Dimension        Dim             ....  146

ORBITAL ENERGIES
----------------

  NO   OCC          E(Eh)            E(eV)
   0   2.0000     -24.583664      -668.9555
   1   2.0000     -19.003728      -517.1177
   2   2.0000     -10.319900      -280.8188
   3   2.0000     -10.163768      -276.5702
   4   2.0000     -10.137927      -275.8670
   5   2.0000      -1.469711       -39.9929
   6   2.0000      -1.193732       -32.4831
   7   2.0000      -0.979366       -26.6499
   8   2.0000      -0.848064       -23.0770
   9   2.0000      -0.805303       -21.9134
  10   2.0000      -0.714072       -19.4309
  11   2.0000      -0.702822       -19.1248
  12   2.0000      -0.648708       -17.6523
  13   2.0000      -0.614667       -16.7259
  14   2.0000      -0.578837       -15.7510
  15   2.0000      -0.545545       -14.8450
  16   2.0000      -0.525653       -14.3037
  17   2.0000      -0.513872       -13.9832
  18   2.0000      -0.486911       -13.2495
  19   2.0000      -0.430179       -11.7058
  20   0.0000       0.064907         1.7662
  21   0.0000       0.081304         2.2124
  22   0.0000       0.113107         3.0778
  23   0.0000       0.120284         3.2731
  24   0.0000       0.146193         3.9781

MULLIKEN ATOMIC CHARGES
-----------------------
   0 C :    0.359682
   1 C :   -0.521256
   2 H :    0.067597
   3 H :    0.128334
   4 C :    0.642126
   5 O :   -0.419000
   6 F :   -0.338425
   7 H :    0.032644
   8 H :    0.029060
   9 H :    0.019237
Sum of atomic charges:   -0.0000000

LOEWDIN ATOMIC CHARGES
----------------------
   0 C :    0.100895
   1 C :   -0.015498
   2 H :    0.046077
   3 H :    0.051035
   4 C :   -0.028087
   5 O :   -0.133509
   6 F :   -0.018266
   7 H :   -0.004153
   8 H :   -0.001118
   9 H :    0.002624

  Mayer bond orders larger than 0.100000
B(  0-C ,  1-C ) :   1.2844 B(  0-C ,  7-H ) :   0.8583 B(  0-C ,  8-H ) :   0.8694
B(  0-C ,  9-H ) :   0.8933 B(  1-C ,  2-H ) :   1.0017 B(  1-C ,  3-H ) :   0.8907
B(  1-C ,  4-C ) :   1.0550 B(  1-C ,  7-H ) :   0.1369 B(  1-C ,  8-H ) :   0.1408
B(  1-C ,  9-H ) :   0.1206 B(  2-H ,  4-C ) :   0.1059 B(  4-C ,  5-O ) :   1.9101
B(  4-C ,  6-F ) :   0.8183

FINAL SINGLE POINT ENERGY      -291.380091330739

DIPOLE MOMENT
-------------
                                X             Y             Z
Electronic contribution:      0.64739      -4.34361      -6.54600
Nuclear contribution   :     -1.45527       4.68977       7.53208
                        -----------------------------------------
Total Dipole Moment    :     -0.80787       0.34616       0.98608
                        -----------------------------------------
Magnitude (a.u.)       :      1.32092
Magnitude (Debye)      :      3.35752

Rotational constants in cm-1:     0.298240     0.132464     0.099915
Rotational constants in MHz :  8940.998095  3971.171647  2995.369122

                             ****ORCA TERMINATED NORMALLY****
TOTAL RUN TIME: 0 days 0 hours 0 minutes 18 seconds 796 msec
