                         Program Version 5.0.0 -  RELEASE  -
|  1> !LC-PBE RIJCOSX def2-SVPD def2/J TightSCF
|  2> *xyz 0 1
|  3> C          2.23447       -2.98975       -2.39762
|  4> N          2.75680       -2.94555       -3.76503
|  5> C          1.98721       -2.59045       -4.81898
|  6> C          0.74322       -3.01749       -4.91352
|  7> N          2.49964       -1.84860       -5.80324
|  8> H          3.30978       -1.29282       -5.55895
|  9> H          1.80103       -1.30430       -6.28913
| 10> H          3.71612       -2.62880       -3.82953
| 11> H          0.39583       -3.62775       -4.18502
| 12> H          0.03920       -2.45438       -5.37137
| 13> C          2.19120       -1.61950       -1.71549
| 14> H          2.87278       -3.66637       -1.82801
| 15> H          1.24619       -3.44744       -2.40784
| 16> H          1.56387       -0.96046       -2.27853
| 17> H          3.18033       -1.21449       -1.66568
| 18> H          1.79916       -1.72608       -0.72562
| 19> *
| 20>
| 21> %MaxCore 64000
| 22>
| 23> %pal nprocs 4
| 24> end
| 25>
| 26> %scf
| 27>   MaxIter 150
| 28> end
| 29>
| 30>
| 31>                          ****END OF INPUT****

CARTESIAN COORDINATES (ANGSTROEM)
---------------------------------
  C      2.234470   -2.989750   -2.397620
  N      2.756800   -2.945550   -3.765030
  C      1.987210   -2.590450   -4.818980
  C      0.743220   -3.017490   -4.913520
  N      2.499640   -1.848600   -5.803240
  H      3.309780   -1.292820   -5.558950
  H      1.801030   -1.304300   -6.289130
  H      3.716120   -2.628800   -3.829530
  H      0.395830   -3.627750   -4.185020
  H      0.039200   -2.454380   -5.371370
  C      2.191200   -1.619500   -1.715490
  H      2.872780   -3.666370   -1.828010
  H      1.246190   -3.447440   -2.407840
  H      1.563870   -0.960460   -2.278530
  H      3.180330   -1.214490   -1.665680
  H      1.799160   -1.726080   -0.725620

 Total Charge           Charge          ....    0
 Multiplicity           Mult            ....    1
 Number of Electrons    NEL             ....   48
 Basis Dimension        Dim             ....  200

ORBITAL ENERGIES
----------------

  NO   OCC          E(Eh)            E(eV)
   0   2.0000     -14.233553      -387.3147
   1   2.0000     -14.230170      -387.2226
   2   2.0000     -10.180519      -277.0260
   3   2.0000     -10.160998      -276.4948
   4   2.0000     -10.116187      -275.2754
   5   2.0000     -10.045077      -273.3404
   6   2.0000      -1.140213       -31.0268
   7   2.0000      -1.053773       -28.6746
   8   2.0000      -0.923997       -25.1432
   9   2.0000      -0.880217       -23.9519
  10   2.0000      -0.799902       -21.7665
  11   2.0000      -0.713377       -19.4120
  12   2.0000      -0.696252       -18.9460
  13   2.0000      -0.659642       -17.9498
  14   2.0000      -0.608659       -16.5625
  15   2.0000      -0.590174       -16.0595
  16   2.0000      -0.561475       -15.2785
  17   2.0000      -0.535630       -14.5752
  18   2.0000      -0.532171       -14.4811
  19   2.0000      -0.504407       -13.7256
  20   2.0000      -0.497689       -13.5428
  21   2.0000      -0.477866       -13.0034
  22   2.0000      -0.384961       -10.4753
  23   2.0000      -0.296519        -8.0687
  24   0.0000       0.084556         2.3009
  25   0.0000       0.112247         3.0544
  26   0.0000       0.119727         3.2579
  27   0.0000       0.121474         3.3055
  28   0.0000       0.142930         3.8893

MULLIKEN ATOMIC CHARGES
-----------------------
   0 C :    0.101936
   1 N :   -0.352217
   2 C :    0.396737
   3 C :    0.170988
   4 N :   -0.070162
   5 H :   -0.023863
   6 H :    0.085105
   7 H :   -0.222847
   8 H :   -0.049997
   9 H :   -0.305195
  10 C :    0.435353
  11 H :   -0.152853
  12 H :   -0.025429
  13 H :   -0.029904
  14 H :    0.004552
  15 H :    0.037796
Sum of atomic charges:    0.0000000

LOEWDIN ATOMIC CHARGES
----------------------
   0 C :   -0.009460
   1 N :   -0.021345
   2 C :   -0.252150
   3 C :    0.131129
   4 N :    0.169139
   5 H :   -0.003012
   6 H :    0.011073
   7 H :    0.022610
   8 H :   -0.090892
   9 H :   -0.077907
  10 C :    0.102359
  11 H :    0.028577
  12 H :    0.017276
  13 H :   -0.008391
  14 H :   -0.012016
  15 H :   -0.006990

  Mayer bond orders larger than 0.100000
B(  0-C ,  1-N ) :   0.9077 B(  0-C , 10-C ) :   1.2544 B(  0-C , 11-H ) :   0.9484
B(  0-C , 12-H ) :   0.8961 B(  0-C , 13-H ) :   0.1966 B(  0-C , 14-H ) :   0.1563
B(  0-C , 15-H ) :   0.1561 B(  1-N ,  2-C ) :   1.0066 B(  1-N ,  3-C ) :   0.2342
B(  1-N ,  7-H ) :   1.1641 B(  1-N , 11-H ) :   0.1486 B(  1-N , 12-H ) :   0.1075
B(  2-C ,  3-C ) :   1.8555 B(  2-C ,  4-N ) :   0.9748 B(  2-C ,  7-H ) :  -0.1354
B(  2-C ,  8-H ) :   0.2450 B(  2-C ,  9-H ) :   0.1015 B(  3-C ,  4-N ) :   0.1929
B(  3-C ,  8-H ) :   0.5853 B(  3-C ,  9-H ) :   0.9523 B(  4-N ,  5-H ) :   0.9607
B(  4-N ,  6-H ) :   0.9499 B(  8-H ,  9-H ) :   0.1687 B( 10-C , 13-H ) :   0.8645
B( 10-C , 14-H ) :   0.8588 B( 10-C , 15-H ) :   0.8441

FINAL SINGLE POINT ENERGY      -266.846175032983

DIPOLE MOMENT
-------------
                                X             Y             Z
Electronic contribution:      1.49221      -1.22014      -3.82295
Nuclear contribution   :     -0.86957       2.18853       4.41892
                        -----------------------------------------
Total Dipole Moment    :      0.62264       0.96839       0.59597
                        -----------------------------------------
Magnitude (a.u.)       :      1.29640
Magnitude (Debye)      :      3.29518

Rotational constants in cm-1:     0.214718     0.075736     0.068547
Rotational constants in MHz :  6437.075121  2270.519635  2054.974198

                             ****ORCA TERMINATED NORMALLY****
TOTAL RUN TIME: 0 days 0 hours 0 minutes 34 seconds 608 msec
