                         Program Version 5.0.0 -  RELEASE  -
|  1> !LC-PBE RIJCOSX def2-SVPD def2/J TightSCF
|  2> *xyz 0 1
|  3> C          2.23447       -2.98975       -2.39762
|  4> N          2.75680       -2.94555       -3.76503
|  5> C          1.98721       -2.59045       -4.81898
|  6> N          0.74322       -3.01749       -4.91352
|  7> C          2.49964       -1.84860       -5.80324
|  8> H          3.30978       -1.29282       -5.55895
|  9> H          1.80103       -1.30430       -6.28913
| 10> H          3.71612       -2.62880       -3.82953
| 11> H          0.39583       -3.62775       -4.18502
| 12> H          0.03920       -2.45438       -5.37137
| 13> C          2.19120       -1.61950       -1.71549
| 14> H          2.87278       -3.66637       -1.82801
| 15> H          1.24619       -3.44744       -2.40784
| 16> H          1.56387       -0.96046       -2.27853
| 17> H          3.18033       -1.21449       -1.66568
| 18> H          1.79916       -1.72608       -0.72562
| 19> *
| 20>
| 21> %MaxCore 64000
| 22>
| 23> %pal nprocs 4
| 24> end
| 25>
| 26> %scf
| 27>   MaxIter 150
| 28> end
| 29>
| 30>
| 31>                          ****END OF INPUT****

CARTESIAN COORDINATES (ANGSTROEM)
---------------------------------
  C      2.234470   -2.989750   -2.397620
  N      2.756800   -2.945550   -3.765030
  C      1.987210   -2.590450   -4.818980
  N      0.743220   -3.017490   -4.913520
  C      2.499640   -1.848600   -5.803240
  H      3.309780   -1.292820   -5.558950
  H      1.801030   -1.304300   -6.289130
  H      3.716120   -2.628800   -3.829530
  H      0.395830   -3.627750   -4.185020
  H      0.039200   -2.454380   -5.371370
  C      2.191200   -1.619500   -1.715490
  H      2.872780   -3.666370   -1.828010
  H      1.246190   -3.447440   -2.407840
  H      1.563870   -0.960460   -2.278530
  H      3.180330   -1.214490   -1.665680
  H      1.799160   -1.726080   -0.725620

 Total Charge           Charge          ....    0
 Multiplicity           Mult            ....    1
 Number of Electrons    NEL             ....   48
 Basis Dimension        Dim             ....  200

ORBITAL ENERGIES
----------------

  NO   OCC          E(Eh)            E(eV)
   0   2.0000     -14.233547      -387.3145
   1   2.0000     -14.232663      -387.2905
   2   2.0000     -10.184598      -277.1370
   3   2.0000     -10.170319      -276.7484
   4   2.0000     -10.120432      -275.3910
   5   2.0000     -10.039311      -273.1835
   6   2.0000      -1.142593       -31.0915
   7   2.0000      -1.053104       -28.6564
   8   2.0000      -0.938095       -25.5269
   9   2.0000      -0.873170       -23.7602
  10   2.0000      -0.788502       -21.4562
  11   2.0000      -0.755651       -20.5623
  12   2.0000      -0.691034       -18.8040
  13   2.0000      -0.639689       -17.4068
  14   2.0000      -0.635817       -17.3015
  15   2.0000      -0.580075       -15.7846
  16   2.0000      -0.572127       -15.5684
  17   2.0000      -0.544054       -14.8045
  18   2.0000      -0.512203       -13.9378
  19   2.0000      -0.506903       -13.7935
  20   2.0000      -0.498925       -13.5764
  21   2.0000      -0.487077       -13.2540
  22   2.0000      -0.387509       -10.5446
  23   2.0000      -0.291118        -7.9217
  24   0.0000       0.082682         2.2499
  25   0.0000       0.108783         2.9601
  26   0.0000       0.118469         3.2237
  27   0.0000       0.122072         3.3217
  28   0.0000       0.142496         3.8775

MULLIKEN ATOMIC CHARGES
-----------------------
   0 C :    0.127347
   1 N :   -0.475232
   2 C :    0.312182
   3 N :    0.093237
   4 C :    0.320184
   5 H :   -0.091229
   6 H :   -0.307197
   7 H :   -0.111951
   8 H :   -0.062833
   9 H :   -0.028503
  10 C :    0.418765
  11 H :   -0.150043
  12 H :   -0.078559
  13 H :   -0.038755
  14 H :    0.009261
  15 H :    0.063324
Sum of atomic charges:    0.0000000

LOEWDIN ATOMIC CHARGES
----------------------
   0 C :   -0.015804
   1 N :   -0.018146
   2 C :   -0.247814
   3 N :    0.182120
   4 C :    0.111007
   5 H :   -0.091213
   6 H :   -0.091573
   7 H :    0.035117
   8 H :   -0.008868
   9 H :    0.023379
  10 C :    0.103489
  11 H :    0.027966
  12 H :    0.011688
  13 H :   -0.006924
  14 H :   -0.007181
  15 H :   -0.007243

  Mayer bond orders larger than 0.100000
B(  0-C ,  1-N ) :   0.9281 B(  0-C , 10-C ) :   1.2599 B(  0-C , 11-H ) :   0.9446
B(  0-C , 12-H ) :   0.9068 B(  0-C , 13-H ) :   0.1854 B(  0-C , 14-H ) :   0.1624
B(  0-C , 15-H ) :   0.1460 B(  1-N ,  2-C ) :   0.9969 B(  1-N ,  4-C ) :   0.1977
B(  1-N ,  7-H ) :   1.1678 B(  1-N , 11-H ) :   0.1646 B(  1-N , 12-H ) :   0.1188
B(  2-C ,  3-N ) :   1.0761 B(  2-C ,  4-C ) :   1.9879 B(  2-C ,  5-H ) :   0.1849
B(  2-C ,  6-H ) :   0.2040 B(  2-C ,  7-H ) :  -0.1296 B(  3-N ,  4-C ) :   0.2042
B(  3-N ,  8-H ) :   0.9916 B(  3-N ,  9-H ) :   1.1364 B(  4-C ,  5-H ) :   0.7695
B(  4-C ,  6-H ) :   0.7862 B(  5-H ,  6-H ) :   0.2397 B(  8-H ,  9-H ) :  -0.1467
B( 10-C , 13-H ) :   0.8774 B( 10-C , 14-H ) :   0.8487 B( 10-C , 15-H ) :   0.8333

FINAL SINGLE POINT ENERGY      -266.841246706402

DIPOLE MOMENT
-------------
                                X             Y             Z
Electronic contribution:     -0.13151      -2.36956      -2.92736
Nuclear contribution   :     -0.49695       2.43650       4.23017
                        -----------------------------------------
Total Dipole Moment    :     -0.62846       0.06694       1.30281
                        -----------------------------------------
Magnitude (a.u.)       :      1.44802
Magnitude (Debye)      :      3.68058

Rotational constants in cm-1:     0.211102     0.077011     0.069221
Rotational constants in MHz :  6328.667765  2308.731604  2075.192956

                             ****ORCA TERMINATED NORMALLY****
TOTAL RUN TIME: 0 days 0 hours 0 minutes 38 seconds 346 msec
