                         Program Version 5.0.0 -  RELEASE  -
|  1> !LC-PBE RIJCOSX def2-SVPD def2/J TightSCF xyzfile
|  2>
|  3> *xyzfile 0 1 D4.xyz
|  4>
|  5> %MaxCore 64000
|  6>
|  7> %pal nprocs 4
|  8> end
|  9>
| 10> %scf
| 11>   MaxIter 150
| 12> end
| 13>
| 14>
| 15>                          ****END OF INPUT****

CARTESIAN COORDINATES (ANGSTROEM)
---------------------------------
  C      2.234473   -2.989754   -2.397622
  C      2.756799   -2.945553   -3.765029
  C     -1.104325    0.251374   -2.860056
  C     -0.711893    0.842517   -4.218344
  H      0.154626    1.499800   -4.130909
  H     -1.538134    1.459222   -4.582671
  C     -0.397624   -0.205875   -5.288018
  C      1.987208   -2.590451   -4.818975
  N      0.743221   -3.017493   -4.913524
  N      2.499636   -1.848598   -5.803241
  H      3.309780   -1.292818   -5.558947
  H      1.801025   -1.304298   -6.289129
  H      3.716116   -2.628797   -3.829533
  H      0.395828   -3.627747   -4.185024
  H      0.039201   -2.454383   -5.371367
  O      0.617165   -0.005348   -5.998273
  F     -1.133173   -1.221380   -5.341465
  C      2.191199   -1.619503   -1.715492
  H      2.872783   -3.666368   -1.828014
  H      1.246188   -3.447444   -2.407842
  C      1.298729   -0.554314   -2.359773
  H      1.872917   -1.787955   -0.681310
  H      3.216809   -1.238432   -1.654428
  C     -0.196255   -0.863365   -2.325763
  H      1.612531   -0.371346   -3.393065
  H      1.480944    0.388638   -1.834444
  H     -0.404105   -1.761825   -2.909448
  H     -0.490439   -1.087880   -1.294131
  H     -1.143842    1.066711   -2.129680
  H     -2.114401   -0.156834   -2.930323

 Total Charge           Charge          ....    0
 Multiplicity           Mult            ....    1
 Number of Electrons    NEL             ....  102
 Basis Dimension        Dim             ....  402

ORBITAL ENERGIES
----------------

  NO   OCC          E(Eh)            E(eV)
   0   2.0000     -24.619957      -669.9431
   1   2.0000     -19.037689      -518.0418
   2   2.0000     -14.220783      -386.9672
   3   2.0000     -14.201640      -386.4463
   4   2.0000     -10.350431      -281.6496
   5   2.0000     -10.175908      -276.9005
   6   2.0000     -10.170253      -276.7467
   7   2.0000     -10.154231      -276.3107
   8   2.0000     -10.134531      -275.7746
   9   2.0000     -10.123033      -275.4617
  10   2.0000     -10.111014      -275.1347
  11   2.0000     -10.101009      -274.8624
  12   2.0000     -10.039850      -273.1982
  13   2.0000      -1.507822       -41.0299
  14   2.0000      -1.230117       -33.4732
  15   2.0000      -1.126257       -30.6470
  16   2.0000      -1.023504       -27.8510
  17   2.0000      -1.013808       -27.5871
  18   2.0000      -0.965883       -26.2830
  19   2.0000      -0.923696       -25.1350
  20   2.0000      -0.870393       -23.6846
  21   2.0000      -0.852711       -23.2034
  22   2.0000      -0.819023       -22.2867
  23   2.0000      -0.775698       -21.1078
  24   2.0000      -0.760587       -20.6966
  25   2.0000      -0.740689       -20.1552
  26   2.0000      -0.728674       -19.8282
  27   2.0000      -0.716252       -19.4902
  28   2.0000      -0.678334       -18.4584
  29   2.0000      -0.667461       -18.1626
  30   2.0000      -0.637797       -17.3553
  31   2.0000      -0.634460       -17.2645
  32   2.0000      -0.624136       -16.9836
  33   2.0000      -0.593243       -16.1430
  34   2.0000      -0.586659       -15.9638
  35   2.0000      -0.582836       -15.8598
  36   2.0000      -0.575759       -15.6672
  37   2.0000      -0.546220       -14.8634
  38   2.0000      -0.540814       -14.7163
  39   2.0000      -0.535221       -14.5641
  40   2.0000      -0.521782       -14.1984
  41   2.0000      -0.503607       -13.7038
  42   2.0000      -0.496691       -13.5157
  43   2.0000      -0.478981       -13.0337
  44   2.0000      -0.470816       -12.8116
  45   2.0000      -0.458857       -12.4861
  46   2.0000      -0.446681       -12.1548
  47   2.0000      -0.436977       -11.8907
  48   2.0000      -0.431771       -11.7491
  49   2.0000      -0.390751       -10.6329
  50   2.0000      -0.264275        -7.1913
  51   0.0000       0.035696         0.9713
  52   0.0000       0.071889         1.9562
  53   0.0000       0.095574         2.6007
  54   0.0000       0.100125         2.7245
  55   0.0000       0.106136         2.8881

MULLIKEN ATOMIC CHARGES
-----------------------
   0 C :    0.124214
   1 C :   -0.151419
   2 C :    0.337762
   3 C :   -0.021236
   4 H :    0.275537
   5 H :   -0.107206
   6 C :    0.505308
   7 C :    0.236800
   8 N :    0.192911
   9 N :    0.011299
  10 H :    0.167948
  11 H :   -0.109758
  12 H :   -0.133335
  13 H :    0.109562
  14 H :   -0.413661
  15 O :   -0.402474
  16 F :   -0.396495
  17 C :    0.291996
  18 H :   -0.060247
  19 H :   -0.100913
  20 C :   -0.127609
  21 H :    0.052626
  22 H :   -0.004256
  23 C :   -0.111799
  24 H :   -0.083132
  25 H :   -0.040805
  26 H :   -0.137833
  27 H :   -0.023442
  28 H :    0.005167
  29 H :    0.114489
Sum of atomic charges:    0.0000000

LOEWDIN ATOMIC CHARGES
----------------------
   0 C :   -0.086629
   1 C :   -0.038677
   2 C :   -0.043204
   3 C :    0.039974
   4 H :    0.050292
   5 H :    0.053716
   6 C :    0.014830
   7 C :   -0.230220
   8 N :    0.218054
   9 N :    0.199226
  10 H :    0.018955
  11 H :   -0.086166
  12 H :   -0.046038
  13 H :    0.011534
  14 H :   -0.064422
  15 O :   -0.116043
  16 F :   -0.014576
  17 C :   -0.046768
  18 H :    0.023592
  19 H :    0.001694
  20 C :   -0.045580
  21 H :    0.028987
  22 H :    0.035436
  23 C :   -0.049332
  24 H :    0.015686
  25 H :    0.036834
  26 H :    0.000659
  27 H :    0.041815
  28 H :    0.040899
  29 H :    0.035468

  Mayer bond orders larger than 0.100000
B(  0-C ,  1-C ) :   1.2097 B(  0-C ,  7-C ) :   0.1286 B(  0-C , 12-H ) :   0.3240
B(  0-C , 17-C ) :   1.1652 B(  0-C , 18-H ) :   0.8041 B(  0-C , 19-H ) :   0.8338
B(  0-C , 21-H ) :   0.1664 B(  0-C , 22-H ) :   0.1632 B(  1-C ,  7-C ) :   1.7676
B(  1-C ,  8-N ) :   0.1564 B(  1-C ,  9-N ) :   0.2906 B(  1-C , 12-H ) :   0.5927
B(  1-C , 18-H ) :   0.1859 B(  1-C , 19-H ) :   0.1784 B(  2-C ,  3-C ) :   1.1851
B(  2-C ,  5-H ) :   0.1453 B(  2-C , 23-C ) :   1.2583 B(  2-C , 28-H ) :   0.8510
B(  2-C , 29-H ) :   0.7034 B(  3-C ,  4-H ) :   0.8214 B(  3-C ,  5-H ) :   0.8586
B(  3-C ,  6-C ) :   1.2026 B(  3-C , 28-H ) :   0.1126 B(  4-H ,  6-C ) :   0.1621
B(  5-H ,  6-C ) :   0.1632 B(  6-C , 15-O ) :   1.7731 B(  6-C , 16-F ) :   0.6860
B(  7-C ,  8-N ) :   1.0285 B(  7-C ,  9-N ) :   0.9239 B(  7-C , 11-H ) :   0.1453
B(  7-C , 12-H ) :   0.3396 B(  8-N , 13-H ) :   0.8971 B(  8-N , 14-H ) :   1.1871
B(  9-N , 10-H ) :   0.8523 B(  9-N , 11-H ) :   0.8038 B( 11-H , 15-O ) :   0.1129
B( 13-H , 14-H ) :  -0.2140 B( 17-C , 19-H ) :   0.1101 B( 17-C , 20-C ) :   1.2538
B( 17-C , 21-H ) :   0.8031 B( 17-C , 22-H ) :   0.7577 B( 20-C , 21-H ) :   0.1276
B( 20-C , 22-H ) :   0.2418 B( 20-C , 23-C ) :   1.2971 B( 20-C , 24-H ) :   0.9613
B( 20-C , 25-H ) :   0.8342 B( 20-C , 26-H ) :   0.1321 B( 20-C , 27-H ) :   0.1841
B( 21-H , 22-H ) :  -0.1025 B( 23-C , 24-H ) :   0.1265 B( 23-C , 25-H ) :   0.1877
B( 23-C , 26-H ) :   0.9565 B( 23-C , 27-H ) :   0.8331 B( 23-C , 28-H ) :   0.1383
B( 23-C , 29-H ) :   0.2185

FINAL SINGLE POINT ENERGY      -635.345067996214

DIPOLE MOMENT
-------------
                                X             Y             Z
Electronic contribution:     -6.07850       0.28709     -13.34101
Nuclear contribution   :      4.38568       1.15960      13.97148
                        -----------------------------------------
Total Dipole Moment    :     -1.69282       1.44669       0.63047
                        -----------------------------------------
Magnitude (a.u.)       :      2.31431
Magnitude (Debye)      :      5.88251

Rotational constants in cm-1:     0.032892     0.023844     0.017123
Rotational constants in MHz :   986.091711   714.821905   513.334630

                             ****ORCA TERMINATED NORMALLY****
TOTAL RUN TIME: 0 days 0 hours 3 minutes 6 seconds 386 msec
