                         Program Version 5.0.0 -  RELEASE  -
|  1> !LC-PBE RIJCOSX def2-SVPD def2/J TightSCF xyzfile
|  2>
|  3> *xyzfile 0 1 D5.xyz
|  4>
|  5> %MaxCore 64000
|  6>
|  7> %pal nprocs 4
|  8> end
|  9>
| 10> %scf
| 11>   MaxIter 150
| 12> end
| 13>
| 14>
| 15>                          ****END OF INPUT****

CARTESIAN COORDINATES (ANGSTROEM)
---------------------------------
  C      2.234473   -2.989754   -2.397622
  N      2.756799   -2.945553   -3.765029
  C     -1.104325    0.251374   -2.860056
  C     -0.711893    0.842517   -4.218344
  H      0.154626    1.499800   -4.130909
  H     -1.538134    1.459222   -4.582671
  C     -0.397624   -0.205875   -5.288018
  C      1.987208   -2.590451   -4.818975
  C      0.743221   -3.017493   -4.913524
  N      2.499636   -1.848598   -5.803241
  H      3.309780   -1.292818   -5.558947
  H      1.801025   -1.304298   -6.289129
  H      3.716116   -2.628797   -3.829533
  H      0.395828   -3.627747   -4.185024
  H      0.039201   -2.454383   -5.371367
  O      0.617165   -0.005348   -5.998273
  F     -1.133173   -1.221380   -5.341465
  C      2.191199   -1.619503   -1.715492
  H      2.872783   -3.666368   -1.828014
  H      1.246188   -3.447444   -2.407842
  C      1.298729   -0.554314   -2.359773
  H      1.872917   -1.787955   -0.681310
  H      3.216809   -1.238432   -1.654428
  C     -0.196255   -0.863365   -2.325763
  H      1.612531   -0.371346   -3.393065
  H      1.480944    0.388638   -1.834444
  H     -0.404105   -1.761825   -2.909448
  H     -0.490439   -1.087880   -1.294131
  H     -1.143842    1.066711   -2.129680
  H     -2.114401   -0.156834   -2.930323

 Total Charge           Charge          ....    0
 Multiplicity           Mult            ....    1
 Number of Electrons    NEL             ....  102
 Basis Dimension        Dim             ....  402

ORBITAL ENERGIES
----------------

  NO   OCC          E(Eh)            E(eV)
   0   2.0000     -24.591376      -669.1653
   1   2.0000     -19.020109      -517.5635
   2   2.0000     -14.224833      -387.0774
   3   2.0000     -14.201702      -386.4480
   4   2.0000     -10.333997      -281.2023
   5   2.0000     -10.168219      -276.6913
   6   2.0000     -10.166418      -276.6423
   7   2.0000     -10.156661      -276.3768
   8   2.0000     -10.148260      -276.1482
   9   2.0000     -10.130179      -275.6562
  10   2.0000     -10.130101      -275.6541
  11   2.0000     -10.129932      -275.6495
  12   2.0000     -10.030142      -272.9340
  13   2.0000      -1.480594       -40.2890
  14   2.0000      -1.212711       -32.9996
  15   2.0000      -1.126497       -30.6536
  16   2.0000      -1.040105       -28.3027
  17   2.0000      -1.005849       -27.3705
  18   2.0000      -0.958442       -26.0805
  19   2.0000      -0.902659       -24.5626
  20   2.0000      -0.870500       -23.6875
  21   2.0000      -0.850948       -23.1555
  22   2.0000      -0.823140       -22.3988
  23   2.0000      -0.779218       -21.2036
  24   2.0000      -0.746319       -20.3084
  25   2.0000      -0.731982       -19.9182
  26   2.0000      -0.712327       -19.3834
  27   2.0000      -0.695061       -18.9136
  28   2.0000      -0.679908       -18.5012
  29   2.0000      -0.667250       -18.1568
  30   2.0000      -0.637415       -17.3449
  31   2.0000      -0.630372       -17.1533
  32   2.0000      -0.622635       -16.9428
  33   2.0000      -0.596987       -16.2448
  34   2.0000      -0.587940       -15.9987
  35   2.0000      -0.567269       -15.4362
  36   2.0000      -0.555473       -15.1152
  37   2.0000      -0.552006       -15.0208
  38   2.0000      -0.533498       -14.5172
  39   2.0000      -0.531595       -14.4654
  40   2.0000      -0.514351       -13.9962
  41   2.0000      -0.506327       -13.7779
  42   2.0000      -0.492987       -13.4149
  43   2.0000      -0.490172       -13.3383
  44   2.0000      -0.479074       -13.0363
  45   2.0000      -0.461002       -12.5445
  46   2.0000      -0.457950       -12.4614
  47   2.0000      -0.447464       -12.1761
  48   2.0000      -0.437579       -11.9071
  49   2.0000      -0.368798       -10.0355
  50   2.0000      -0.284160        -7.7324
  51   0.0000       0.051671         1.4060
  52   0.0000       0.079088         2.1521
  53   0.0000       0.092457         2.5159
  54   0.0000       0.099111         2.6969
  55   0.0000       0.108360         2.9486

MULLIKEN ATOMIC CHARGES
-----------------------
   0 C :    0.587307
   1 N :   -0.407754
   2 C :    0.354199
   3 C :   -0.026263
   4 H :    0.249625
   5 H :   -0.114874
   6 C :    0.459127
   7 C :    0.352018
   8 C :    0.631032
   9 N :    0.042500
  10 H :    0.103647
  11 H :   -0.111725
  12 H :   -0.133970
  13 H :   -0.026556
  14 H :   -0.712230
  15 O :   -0.414075
  16 F :   -0.432279
  17 C :    0.206205
  18 H :   -0.245392
  19 H :    0.051656
  20 C :   -0.111647
  21 H :    0.090622
  22 H :    0.010098
  23 C :   -0.190983
  24 H :   -0.138818
  25 H :   -0.068470
  26 H :   -0.099433
  27 H :   -0.030782
  28 H :    0.003025
  29 H :    0.124189
Sum of atomic charges:    0.0000000

LOEWDIN ATOMIC CHARGES
----------------------
   0 C :    0.033781
   1 N :   -0.007117
   2 C :   -0.041703
   3 C :    0.038332
   4 H :    0.047427
   5 H :    0.052526
   6 C :    0.015854
   7 C :   -0.235455
   8 C :    0.150992
   9 N :    0.195654
  10 H :    0.004121
  11 H :   -0.076604
  12 H :    0.024628
  13 H :   -0.077910
  14 H :   -0.131410
  15 O :   -0.123028
  16 F :   -0.022397
  17 C :   -0.041037
  18 H :    0.030358
  19 H :    0.015897
  20 C :   -0.045190
  21 H :    0.033696
  22 H :    0.031010
  23 C :   -0.045900
  24 H :    0.015478
  25 H :    0.037317
  26 H :    0.005055
  27 H :    0.040180
  28 H :    0.038725
  29 H :    0.036721

  Mayer bond orders larger than 0.100000
B(  0-C ,  1-N ) :   0.9581 B(  0-C , 17-C ) :   1.1042 B(  0-C , 18-H ) :   0.9029
B(  0-C , 19-H ) :   0.7861 B(  0-C , 21-H ) :   0.1324 B(  0-C , 22-H ) :   0.1033
B(  1-N ,  7-C ) :   0.9912 B(  1-N ,  8-C ) :   0.2803 B(  1-N ,  9-N ) :   0.1279
B(  1-N , 12-H ) :   1.0846 B(  1-N , 18-H ) :   0.1746 B(  1-N , 19-H ) :   0.1146
B(  2-C ,  3-C ) :   1.1741 B(  2-C ,  5-H ) :   0.1435 B(  2-C , 23-C ) :   1.2755
B(  2-C , 28-H ) :   0.8436 B(  2-C , 29-H ) :   0.7028 B(  3-C ,  4-H ) :   0.8429
B(  3-C ,  5-H ) :   0.8425 B(  3-C ,  6-C ) :   1.2177 B(  3-C , 28-H ) :   0.1168
B(  4-H ,  6-C ) :   0.1691 B(  5-H ,  6-C ) :   0.1794 B(  6-C , 14-H ) :   0.1239
B(  6-C , 15-O ) :   1.7473 B(  6-C , 16-F ) :   0.7269 B(  7-C ,  8-C ) :   1.9337
B(  7-C ,  9-N ) :   0.8542 B(  7-C , 13-H ) :   0.3005 B(  7-C , 14-H ) :   0.1681
B(  8-C ,  9-N ) :   0.1978 B(  8-C , 13-H ) :   0.4312 B(  8-C , 14-H ) :   0.3403
B(  9-N , 10-H ) :   0.8422 B(  9-N , 11-H ) :   0.9225 B( 11-H , 15-O ) :   0.1115
B( 14-H , 16-F ) :   0.2190 B( 15-O , 16-F ) :   0.1006 B( 17-C , 19-H ) :   0.1143
B( 17-C , 20-C ) :   1.2359 B( 17-C , 21-H ) :   0.8210 B( 17-C , 22-H ) :   0.7895
B( 18-H , 19-H ) :  -0.1174 B( 20-C , 21-H ) :   0.1411 B( 20-C , 22-H ) :   0.2109
B( 20-C , 23-C ) :   1.3021 B( 20-C , 24-H ) :   0.9680 B( 20-C , 25-H ) :   0.8745
B( 20-C , 26-H ) :   0.1398 B( 20-C , 27-H ) :   0.2040 B( 23-C , 24-H ) :   0.1417
B( 23-C , 25-H ) :   0.1947 B( 23-C , 26-H ) :   0.9788 B( 23-C , 27-H ) :   0.8178
B( 23-C , 28-H ) :   0.1415 B( 23-C , 29-H ) :   0.2123

FINAL SINGLE POINT ENERGY      -635.333385187613

DIPOLE MOMENT
-------------
                                X             Y             Z
Electronic contribution:     -4.40024       0.26270     -12.33326
Nuclear contribution   :      4.07548       1.14852      13.79455
                        -----------------------------------------
Total Dipole Moment    :     -0.32475       1.41122       1.46129
                        -----------------------------------------
Magnitude (a.u.)       :      2.05727
Magnitude (Debye)      :      5.22917

Rotational constants in cm-1:     0.033274     0.023559     0.016968
Rotational constants in MHz :   997.539108   706.293545   508.690532

                             ****ORCA TERMINATED NORMALLY****
TOTAL RUN TIME: 0 days 0 hours 3 minutes 1 seconds 658 msec
