                         Program Version 5.0.0 -  RELEASE  -
|  1> !BLYP D3BJ RIJCOSX def2-TZVP def2/J TightSCF
|  2> *xyz -1 1
|  3> C         -7.33044       -2.67899       -3.20681
|  4> S         -6.01966       -2.92697       -4.41913
|  5> O         -5.64583       -1.58838       -4.91931
|  6> O         -4.88196       -3.50370       -3.66724
|  7> O         -6.54927       -3.80515       -5.42507
|  8> C         -7.46900       -1.24615       -2.71383
|  9> H         -7.11825       -3.37982       -2.39805
| 10> H         -8.24184       -3.00474       -3.70651
| 11> H         -7.67580       -0.60214       -3.54292
| 12> H         -6.55749       -0.94096       -2.24382
| 13> H         -8.27114       -1.18777       -2.00810
| 14> *
| 15> %MaxCore 64000
| 16>
| 17> %pal nprocs 4
| 18> end
| 19>
| 20> %scf
| 21>   MaxIter 150
| 22> end
| 23>
| 24>
| 25>                          ****END OF INPUT****

CARTESIAN COORDINATES (ANGSTROEM)
---------------------------------
  C     -7.330440   -2.678990   -3.206810
  S     -6.019660   -2.926970   -4.419130
  O     -5.645830   -1.588380   -4.919310
  O     -4.881960   -3.503700   -3.667240
  O     -6.549270   -3.805150   -5.425070
  C     -7.469000   -1.246150   -2.713830
  H     -7.118250   -3.379820   -2.398050
  H     -8.241840   -3.004740   -3.706510
  H     -7.675800   -0.602140   -3.542920
  H     -6.557490   -0.940960   -2.243820
  H     -8.271140   -1.187770   -2.008100

 Total Charge           Charge          ....   -1
 Multiplicity           Mult            ....    1
 Number of Electrons    NEL             ....   58
 Basis Dimension        Dim             ....  222

ORBITAL ENERGIES
----------------

  NO   OCC          E(Eh)            E(eV)
   0   2.0000     -88.069644     -2396.4968
   1   2.0000     -18.542928      -504.5787
   2   2.0000     -18.532858      -504.3047
   3   2.0000     -18.528615      -504.1893
   4   2.0000      -9.759397      -265.5667
   5   2.0000      -9.755154      -265.4512
   6   2.0000      -7.600251      -206.8134
   7   2.0000      -5.628826      -153.1681
   8   2.0000      -5.627982      -153.1452
   9   2.0000      -5.627738      -153.1385
  10   2.0000      -0.812570       -22.1112
  11   2.0000      -0.686979       -18.6936
  12   2.0000      -0.665511       -18.1095
  13   2.0000      -0.550085       -14.9686
  14   2.0000      -0.432416       -11.7666
  15   2.0000      -0.312089        -8.4924
  16   2.0000      -0.262203        -7.1349
  17   2.0000      -0.248282        -6.7561
  18   2.0000      -0.213473        -5.8089
  19   2.0000      -0.193830        -5.2744
  20   2.0000      -0.190782        -5.1915
  21   2.0000      -0.172702        -4.6995
  22   2.0000      -0.166348        -4.5266
  23   2.0000      -0.087876        -2.3912
  24   2.0000      -0.085090        -2.3154
  25   2.0000      -0.058844        -1.6012
  26   2.0000      -0.050357        -1.3703
  27   2.0000      -0.039439        -1.0732
  28   2.0000      -0.003723        -0.1013
  29   0.0000       0.153306         4.1717
  30   0.0000       0.197925         5.3858
  31   0.0000       0.208088         5.6624
  32   0.0000       0.214909         5.8480
  33   0.0000       0.238648         6.4939

MULLIKEN ATOMIC CHARGES
-----------------------
   0 C :   -0.205032
   1 S :    0.741111
   2 O :   -0.549101
   3 O :   -0.559328
   4 O :   -0.510780
   5 C :   -0.252342
   6 H :    0.064376
   7 H :    0.060397
   8 H :    0.087995
   9 H :    0.082400
  10 H :    0.040305
Sum of atomic charges:   -1.0000000

LOEWDIN ATOMIC CHARGES
----------------------
   0 C :   -0.429266
   1 S :    0.397644
   2 O :   -0.396119
   3 O :   -0.414436
   4 O :   -0.357648
   5 C :   -0.340680
   6 H :    0.114060
   7 H :    0.111897
   8 H :    0.110247
   9 H :    0.110802
  10 H :    0.093500

  Mayer bond orders larger than 0.100000
B(  0-C ,  1-S ) :   0.8592 B(  0-C ,  5-C ) :   0.9466 B(  0-C ,  6-H ) :   0.9576
B(  0-C ,  7-H ) :   0.9514 B(  1-S ,  2-O ) :   1.7618 B(  1-S ,  3-O ) :   1.7814
B(  1-S ,  4-O ) :   1.8376 B(  5-C ,  8-H ) :   0.9728 B(  5-C ,  9-H ) :   0.9759
B(  5-C , 10-H ) :   0.9473

Dispersion correction           -0.020460062
FINAL SINGLE POINT ENERGY      -703.237752044547

DIPOLE MOMENT
-------------
                                X             Y             Z
Electronic contribution:      4.81347      -3.56470      -5.21468
Nuclear contribution   :     -6.18165       4.01759       6.33106
                        -----------------------------------------
Total Dipole Moment    :     -1.36818       0.45289       1.11638
                        -----------------------------------------
Magnitude (a.u.)       :      1.82300
Magnitude (Debye)      :      4.63371

Rotational constants in cm-1:     0.161711     0.082788     0.081165
Rotational constants in MHz :  4847.971521  2481.906910  2433.276832

                             ****ORCA TERMINATED NORMALLY****
TOTAL RUN TIME: 0 days 0 hours 0 minutes 12 seconds 14 msec
