                         Program Version 5.0.0 -  RELEASE  -
|  1> !BLYP D3BJ RIJCOSX def2-TZVP def2/J TightSCF
|  2> *xyz 1 1
|  3> C         -2.16038       -1.36949       -3.46710
|  4> N         -3.03011       -1.91086       -4.54107
|  5> C         -2.04772        0.14658       -3.51177
|  6> H         -3.47744       -2.79151       -4.25710
|  7> H         -2.53801       -2.01786       -5.43808
|  8> H         -3.89159       -1.37604       -4.71437
|  9> H         -1.18444       -1.84400       -3.56639
| 10> H         -2.59819       -1.70838       -2.52848
| 11> H         -1.61525        0.44478       -4.44395
| 12> H         -1.42718        0.48198       -2.70720
| 13> H         -3.02145        0.57958       -3.41560
| 14> *
| 15> %MaxCore 64000
| 16>
| 17> %pal nprocs 4
| 18> end
| 19>
| 20> %scf
| 21>   MaxIter 150
| 22> end
| 23>
| 24>
| 25>                          ****END OF INPUT****

CARTESIAN COORDINATES (ANGSTROEM)
---------------------------------
  C     -2.160380   -1.369490   -3.467100
  N     -3.030110   -1.910860   -4.541070
  C     -2.047720    0.146580   -3.511770
  H     -3.477440   -2.791510   -4.257100
  H     -2.538010   -2.017860   -5.438080
  H     -3.891590   -1.376040   -4.714370
  H     -1.184440   -1.844000   -3.566390
  H     -2.598190   -1.708380   -2.528480
  H     -1.615250    0.444780   -4.443950
  H     -1.427180    0.481980   -2.707200
  H     -3.021450    0.579580   -3.415600

 Total Charge           Charge          ....    1
 Multiplicity           Mult            ....    1
 Number of Electrons    NEL             ....   26
 Basis Dimension        Dim             ....  141

ORBITAL ENERGIES
----------------

  NO   OCC          E(Eh)            E(eV)
   0   2.0000     -14.339161      -390.1884
   1   2.0000     -10.157743      -276.4063
   2   2.0000     -10.078321      -274.2451
   3   2.0000      -1.131236       -30.7825
   4   2.0000      -0.892295       -24.2806
   5   2.0000      -0.781503       -21.2658
   6   2.0000      -0.754286       -20.5252
   7   2.0000      -0.715252       -19.4630
   8   2.0000      -0.649045       -17.6614
   9   2.0000      -0.592599       -16.1254
  10   2.0000      -0.535913       -14.5829
  11   2.0000      -0.522476       -14.2173
  12   2.0000      -0.505589       -13.7578
  13   0.0000      -0.223575        -6.0838
  14   0.0000      -0.165019        -4.4904
  15   0.0000      -0.163154        -4.4396
  16   0.0000      -0.137677        -3.7464
  17   0.0000      -0.098635        -2.6840

MULLIKEN ATOMIC CHARGES
-----------------------
   0 C :   -0.154706
   1 N :   -0.251829
   2 C :   -0.305703
   3 H :    0.311406
   4 H :    0.316080
   5 H :    0.300957
   6 H :    0.178887
   7 H :    0.168441
   8 H :    0.135508
   9 H :    0.165993
  10 H :    0.134966
Sum of atomic charges:    1.0000000

LOEWDIN ATOMIC CHARGES
----------------------
   0 C :   -0.272252
   1 N :    0.176137
   2 C :   -0.267549
   3 H :    0.220823
   4 H :    0.220385
   5 H :    0.216668
   6 H :    0.152116
   7 H :    0.149975
   8 H :    0.129179
   9 H :    0.146425
  10 H :    0.128095

  Mayer bond orders larger than 0.100000
B(  0-C ,  1-N ) :   0.8423 B(  0-C ,  2-C ) :   0.9791 B(  0-C ,  6-H ) :   0.9533
B(  0-C ,  7-H ) :   0.9516 B(  1-N ,  3-H ) :   0.8891 B(  1-N ,  4-H ) :   0.8820
B(  1-N ,  5-H ) :   0.8845 B(  2-C ,  8-H ) :   0.9589 B(  2-C ,  9-H ) :   0.9578
B(  2-C , 10-H ) :   0.9586

Dispersion correction           -0.012374211
FINAL SINGLE POINT ENERGY      -135.516010450577

DIPOLE MOMENT
-------------
                                X             Y             Z
Electronic contribution:     -0.64167      -1.48176      -0.76835
Nuclear contribution   :     -0.15215       0.37393      -0.04773
                        -----------------------------------------
Total Dipole Moment    :     -0.79382      -1.10782      -0.81609
                        -----------------------------------------
Magnitude (a.u.)       :      1.58853
Magnitude (Debye)      :      4.03771

Rotational constants in cm-1:     1.020762     0.277172     0.247319
Rotational constants in MHz : 30601.664035  8309.399682  7414.438136

                             ****ORCA TERMINATED NORMALLY****
TOTAL RUN TIME: 0 days 0 hours 0 minutes 7 seconds 991 msec
