                         Program Version 5.0.0 -  RELEASE  -
|  1> !BLYP D3BJ RIJCOSX def2-TZVP def2/J TightSCF xyzfile
|  2>
|  3> *xyzfile 0 1 B.xyz
|  4>
|  5> %MaxCore 64000
|  6>
|  7> %pal nprocs 18
|  8> end
|  9>
| 10> %scf
| 11>   MaxIter 150
| 12> end
| 13>
| 14>
| 15>                          ****END OF INPUT****

CARTESIAN COORDINATES (ANGSTROEM)
---------------------------------
  C     -2.160376   -1.369486   -3.467104
  N     -3.030108   -1.910857   -4.541074
  C     -2.047717    0.146583   -3.511774
  C     -7.330440   -2.678991   -3.206811
  S     -6.019659   -2.926965   -4.419128
  H     -3.477443   -2.791513   -4.257096
  H     -2.538013   -2.017860   -5.438075
  H     -3.891589   -1.376039   -4.714365
  O     -5.645830   -1.588384   -4.919307
  O     -4.881961   -3.503697   -3.667235
  H     -1.184438   -1.843997   -3.566393
  H     -2.598195   -1.708376   -2.528477
  O     -6.549267   -3.805150   -5.425071
  C     -3.328755    0.875037   -3.103669
  H     -1.740034    0.452343   -4.517126
  H     -1.232611    0.434938   -2.842208
  C     -3.628487    0.771601   -1.609363
  H     -4.175106    0.490791   -3.682203
  H     -3.237812    1.928663   -3.381480
  C     -4.975718    1.361432   -1.190644
  H     -2.830700    1.276234   -1.054766
  H     -3.594312   -0.275838   -1.294603
  C     -6.184720    0.784347   -1.926464
  H     -4.956292    2.445725   -1.342200
  H     -5.097256    1.205252   -0.114136
  C     -6.286921   -0.735882   -1.893531
  H     -6.163994    1.100199   -2.974250
  H     -7.094530    1.223459   -1.504509
  C     -7.468999   -1.246153   -2.713833
  H     -6.360641   -1.090347   -0.859176
  H     -5.369848   -1.171853   -2.295982
  H     -7.601914   -0.601349   -3.585329
  H     -8.389791   -1.173436   -2.126922
  H     -7.118254   -3.379818   -2.398055
  H     -8.241838   -3.004745   -3.706513

 Total Charge           Charge          ....    0
 Multiplicity           Mult            ....    1
 Number of Electrons    NEL             ....  122
 Basis Dimension        Dim             ....  566

ORBITAL ENERGIES
----------------

  NO   OCC          E(Eh)            E(eV)
   0   2.0000     -88.243589     -2401.2301
   1   2.0000     -18.720627      -509.4142
   2   2.0000     -18.720450      -509.4093
   3   2.0000     -18.705399      -508.9998
   4   2.0000     -14.104373      -383.7995
   5   2.0000      -9.984946      -271.7042
   6   2.0000      -9.939052      -270.4554
   7   2.0000      -9.919044      -269.9109
   8   2.0000      -9.910817      -269.6870
   9   2.0000      -9.902949      -269.4730
  10   2.0000      -9.901359      -269.4297
  11   2.0000      -9.895153      -269.2608
  12   2.0000      -9.893475      -269.2152
  13   2.0000      -9.891005      -269.1479
  14   2.0000      -7.775238      -211.5750
  15   2.0000      -5.804047      -157.9361
  16   2.0000      -5.802959      -157.9065
  17   2.0000      -5.802183      -157.8854
  18   2.0000      -0.993725       -27.0406
  19   2.0000      -0.916566       -24.9410
  20   2.0000      -0.860914       -23.4267
  21   2.0000      -0.858882       -23.3714
  22   2.0000      -0.754857       -20.5407
  23   2.0000      -0.726278       -19.7630
  24   2.0000      -0.702006       -19.1025
  25   2.0000      -0.662680       -18.0324
  26   2.0000      -0.632420       -17.2090
  27   2.0000      -0.592190       -16.1143
  28   2.0000      -0.557988       -15.1836
  29   2.0000      -0.546905       -14.8820
  30   2.0000      -0.530974       -14.4485
  31   2.0000      -0.511235       -13.9114
  32   2.0000      -0.499193       -13.5837
  33   2.0000      -0.473228       -12.8772
  34   2.0000      -0.460287       -12.5251
  35   2.0000      -0.434824       -11.8321
  36   2.0000      -0.432056       -11.7568
  37   2.0000      -0.415773       -11.3137
  38   2.0000      -0.403088       -10.9686
  39   2.0000      -0.389809       -10.6072
  40   2.0000      -0.387732       -10.5507
  41   2.0000      -0.378271       -10.2933
  42   2.0000      -0.377757       -10.2793
  43   2.0000      -0.363707        -9.8970
  44   2.0000      -0.353898        -9.6301
  45   2.0000      -0.350093        -9.5265
  46   2.0000      -0.339017        -9.2251
  47   2.0000      -0.329720        -8.9721
  48   2.0000      -0.322785        -8.7834
  49   2.0000      -0.309617        -8.4251
  50   2.0000      -0.301707        -8.2099
  51   2.0000      -0.291304        -7.9268
  52   2.0000      -0.279460        -7.6045
  53   2.0000      -0.277315        -7.5461
  54   2.0000      -0.272925        -7.4267
  55   2.0000      -0.265584        -7.2269
  56   2.0000      -0.262246        -7.1361
  57   2.0000      -0.230977        -6.2852
  58   2.0000      -0.227650        -6.1947
  59   2.0000      -0.216729        -5.8975
  60   2.0000      -0.189610        -5.1596
  61   0.0000      -0.031296        -0.8516
  62   0.0000       0.006360         0.1731
  63   0.0000       0.015391         0.4188
  64   0.0000       0.018820         0.5121
  65   0.0000       0.032375         0.8810

MULLIKEN ATOMIC CHARGES
-----------------------
   0 C :   -0.151797
   1 N :   -0.232140
   2 C :   -0.111286
   3 C :   -0.210123
   4 S :    0.798010
   5 H :    0.279866
   6 H :    0.242969
   7 H :    0.267822
   8 O :   -0.564870
   9 O :   -0.562321
  10 H :    0.124279
  11 H :    0.142847
  12 O :   -0.452191
  13 C :   -0.234457
  14 H :    0.090287
  15 H :    0.089422
  16 C :   -0.185795
  17 H :    0.135987
  18 H :    0.087580
  19 C :   -0.101815
  20 H :    0.078886
  21 H :    0.090575
  22 C :   -0.162838
  23 H :    0.073206
  24 H :    0.075828
  25 C :   -0.226476
  26 H :    0.096856
  27 H :    0.074470
  28 C :   -0.078242
  29 H :    0.065211
  30 H :    0.089907
  31 H :    0.084247
  32 H :    0.074215
  33 H :    0.092818
  34 H :    0.119065
Sum of atomic charges:    0.0000000

LOEWDIN ATOMIC CHARGES
----------------------
   0 C :   -0.268319
   1 N :    0.142882
   2 C :   -0.263683
   3 C :   -0.372715
   4 S :    0.439723
   5 H :    0.163139
   6 H :    0.188588
   7 H :    0.170650
   8 O :   -0.361708
   9 O :   -0.368020
  10 H :    0.133871
  11 H :    0.140559
  12 O :   -0.296737
  13 C :   -0.260119
  14 H :    0.135677
  15 H :    0.144445
  16 C :   -0.264538
  17 H :    0.138763
  18 H :    0.138057
  19 C :   -0.259937
  20 H :    0.132712
  21 H :    0.130830
  22 C :   -0.265031
  23 H :    0.132871
  24 H :    0.134122
  25 C :   -0.265852
  26 H :    0.134781
  27 H :    0.133638
  28 C :   -0.282642
  29 H :    0.129362
  30 H :    0.128866
  31 H :    0.139500
  32 H :    0.132547
  33 H :    0.130741
  34 H :    0.132979

  Mayer bond orders larger than 0.100000
B(  0-C ,  1-N ) :   0.9029 B(  0-C ,  2-C ) :   0.9544 B(  0-C , 10-H ) :   0.9661
B(  0-C , 11-H ) :   0.9635 B(  1-N ,  5-H ) :   0.7860 B(  1-N ,  6-H ) :   0.9063
B(  1-N ,  7-H ) :   0.8203 B(  2-C , 13-C ) :   0.9659 B(  2-C , 14-H ) :   0.9622
B(  2-C , 15-H ) :   0.9539 B(  3-C ,  4-S ) :   0.8819 B(  3-C , 28-C ) :   0.9601
B(  3-C , 33-H ) :   0.9476 B(  3-C , 34-H ) :   0.9532 B(  4-S ,  8-O ) :   1.5749
B(  4-S ,  9-O ) :   1.5438 B(  4-S , 12-O ) :   1.9541 B(  5-H ,  9-O ) :   0.1852
B(  7-H ,  8-O ) :   0.1424 B( 13-C , 16-C ) :   0.9439 B( 13-C , 17-H ) :   0.9777
B( 13-C , 18-H ) :   0.9557 B( 16-C , 19-C ) :   0.9698 B( 16-C , 20-H ) :   0.9523
B( 16-C , 21-H ) :   0.9746 B( 19-C , 22-C ) :   0.9654 B( 19-C , 23-H ) :   0.9643
B( 19-C , 24-H ) :   0.9623 B( 22-C , 25-C ) :   0.9506 B( 22-C , 26-H ) :   0.9752
B( 22-C , 27-H ) :   0.9606 B( 25-C , 28-C ) :   0.9694 B( 25-C , 29-H ) :   0.9537
B( 25-C , 30-H ) :   0.9767 B( 28-C , 31-H ) :   0.9554 B( 28-C , 32-H ) :   0.9445

Dispersion correction           -0.083587264
FINAL SINGLE POINT ENERGY     -1034.292450747075

DIPOLE MOMENT
-------------
                                X             Y             Z
Electronic contribution:     -6.00110     -15.29322     -11.51502
Nuclear contribution   :      8.59301      16.99497      12.41069
                        -----------------------------------------
Total Dipole Moment    :      2.59191       1.70175       0.89567
                        -----------------------------------------
Magnitude (a.u.)       :      3.22741
Magnitude (Debye)      :      8.20343

Rotational constants in cm-1:     0.025617     0.015295     0.010641
Rotational constants in MHz :   767.991150   458.522408   319.013093

                             ****ORCA TERMINATED NORMALLY****
TOTAL RUN TIME: 0 days 0 hours 0 minutes 28 seconds 823 msec
