                         Program Version 5.0.0 -  RELEASE  -
|  1> !BLYP D3BJ RIJCOSX def2-TZVP def2/J TightSCF
|  2> *xyz 0 1
|  3> C         -7.33044       -2.67899       -3.20681
|  4> S         -6.01966       -2.92697       -4.41913
|  5> F         -5.64583       -1.58838       -4.91931
|  6> O         -4.88196       -3.50370       -3.66724
|  7> O         -6.54927       -3.80515       -5.42507
|  8> C         -7.46900       -1.24615       -2.71383
|  9> H         -7.11825       -3.37982       -2.39805
| 10> H         -8.24184       -3.00474       -3.70651
| 11> H         -7.67580       -0.60214       -3.54292
| 12> H         -6.55749       -0.94096       -2.24382
| 13> H         -8.27114       -1.18777       -2.00810
| 14> *
| 15> %MaxCore 64000
| 16>
| 17> %pal nprocs 4
| 18> end
| 19>
| 20> %scf
| 21>   MaxIter 150
| 22> end
| 23>
| 24>
| 25>                          ****END OF INPUT****

CARTESIAN COORDINATES (ANGSTROEM)
---------------------------------
  C     -7.330440   -2.678990   -3.206810
  S     -6.019660   -2.926970   -4.419130
  F     -5.645830   -1.588380   -4.919310
  O     -4.881960   -3.503700   -3.667240
  O     -6.549270   -3.805150   -5.425070
  C     -7.469000   -1.246150   -2.713830
  H     -7.118250   -3.379820   -2.398050
  H     -8.241840   -3.004740   -3.706510
  H     -7.675800   -0.602140   -3.542920
  H     -6.557490   -0.940960   -2.243820
  H     -8.271140   -1.187770   -2.008100

 Total Charge           Charge          ....    0
 Multiplicity           Mult            ....    1
 Number of Electrons    NEL             ....   58
 Basis Dimension        Dim             ....  222

ORBITAL ENERGIES
----------------

  NO   OCC          E(Eh)            E(eV)
   0   2.0000     -88.331759     -2403.6294
   1   2.0000     -24.381788      -663.4622
   2   2.0000     -18.782449      -511.0964
   3   2.0000     -18.768323      -510.7120
   4   2.0000      -9.963490      -271.1204
   5   2.0000      -9.929108      -270.1848
   6   2.0000      -7.863155      -213.9673
   7   2.0000      -5.895497      -160.4246
   8   2.0000      -5.888595      -160.2368
   9   2.0000      -5.888518      -160.2347
  10   2.0000      -1.241235       -33.7757
  11   2.0000      -1.007444       -27.4139
  12   2.0000      -0.912787       -24.8382
  13   2.0000      -0.747327       -20.3358
  14   2.0000      -0.649563       -17.6755
  15   2.0000      -0.605676       -16.4813
  16   2.0000      -0.517991       -14.0952
  17   2.0000      -0.495555       -13.4847
  18   2.0000      -0.477584       -12.9957
  19   2.0000      -0.444085       -12.0842
  20   2.0000      -0.415548       -11.3076
  21   2.0000      -0.395632       -10.7657
  22   2.0000      -0.386729       -10.5234
  23   2.0000      -0.366524        -9.9736
  24   2.0000      -0.351151        -9.5553
  25   2.0000      -0.331249        -9.0138
  26   2.0000      -0.286317        -7.7911
  27   2.0000      -0.271257        -7.3813
  28   2.0000      -0.257612        -7.0100
  29   0.0000      -0.023600        -0.6422
  30   0.0000       0.018453         0.5021
  31   0.0000       0.031302         0.8518
  32   0.0000       0.036555         0.9947
  33   0.0000       0.049364         1.3433

MULLIKEN ATOMIC CHARGES
-----------------------
   0 C :   -0.208604
   1 S :    0.795373
   2 F :   -0.110209
   3 O :   -0.421463
   4 O :   -0.373168
   5 C :   -0.308273
   6 H :    0.142502
   7 H :    0.132714
   8 H :    0.112914
   9 H :    0.122025
  10 H :    0.116189
Sum of atomic charges:    0.0000000

LOEWDIN ATOMIC CHARGES
----------------------
   0 C :   -0.384054
   1 S :    0.520319
   2 F :    0.069124
   3 O :   -0.295603
   4 O :   -0.241527
   5 C :   -0.312204
   6 H :    0.144309
   7 H :    0.137527
   8 H :    0.117465
   9 H :    0.121159
  10 H :    0.123486

  Mayer bond orders larger than 0.100000
B(  0-C ,  1-S ) :   0.8952 B(  0-C ,  5-C ) :   0.9515 B(  0-C ,  6-H ) :   0.9396
B(  0-C ,  7-H ) :   0.9382 B(  1-S ,  2-F ) :   1.1074 B(  1-S ,  3-O ) :   1.9067
B(  1-S ,  4-O ) :   1.9586 B(  5-C ,  8-H ) :   0.9676 B(  5-C ,  9-H ) :   0.9687
B(  5-C , 10-H ) :   0.9576

Dispersion correction           -0.019416574
FINAL SINGLE POINT ENERGY      -727.779778421849

DIPOLE MOMENT
-------------
                                X             Y             Z
Electronic contribution:      5.71106      -1.76879      -6.42736
Nuclear contribution   :     -6.81251       2.87933       7.15058
                        -----------------------------------------
Total Dipole Moment    :     -1.10145       1.11054       0.72322
                        -----------------------------------------
Magnitude (a.u.)       :      1.72324
Magnitude (Debye)      :      4.38012

Rotational constants in cm-1:     0.152543     0.082494     0.078987
Rotational constants in MHz :  4573.135887  2473.116216  2367.980829

                             ****ORCA TERMINATED NORMALLY****
TOTAL RUN TIME: 0 days 0 hours 0 minutes 12 seconds 96 msec
