                         Program Version 5.0.0 -  RELEASE  -
|  1> !BLYP D3BJ RIJCOSX def2-TZVP def2/J TightSCF
|  2> *xyz 0 1
|  3> C         -2.16038       -1.36949       -3.46710
|  4> C         -3.03011       -1.91086       -4.54107
|  5> C         -2.04772        0.14658       -3.51177
|  6> H         -3.47744       -2.79151       -4.25710
|  7> H         -2.53801       -2.01786       -5.43808
|  8> H         -3.89159       -1.37604       -4.71437
|  9> H         -1.18444       -1.84400       -3.56639
| 10> H         -2.59819       -1.70838       -2.52848
| 11> H         -1.61525        0.44478       -4.44395
| 12> H         -1.42718        0.48198       -2.70720
| 13> H         -3.02145        0.57958       -3.41560
| 14> *
| 15> %MaxCore 64000
| 16>
| 17> %pal nprocs 4
| 18> end
| 19>
| 20> %scf
| 21>   MaxIter 150
| 22> end
| 23>
| 24>
| 25>                          ****END OF INPUT****

CARTESIAN COORDINATES (ANGSTROEM)
---------------------------------
  C     -2.160380   -1.369490   -3.467100
  C     -3.030110   -1.910860   -4.541070
  C     -2.047720    0.146580   -3.511770
  H     -3.477440   -2.791510   -4.257100
  H     -2.538010   -2.017860   -5.438080
  H     -3.891590   -1.376040   -4.714370
  H     -1.184440   -1.844000   -3.566390
  H     -2.598190   -1.708380   -2.528480
  H     -1.615250    0.444780   -4.443950
  H     -1.427180    0.481980   -2.707200
  H     -3.021450    0.579580   -3.415600

 Total Charge           Charge          ....    0
 Multiplicity           Mult            ....    1
 Number of Electrons    NEL             ....   26
 Basis Dimension        Dim             ....  141

ORBITAL ENERGIES
----------------

  NO   OCC          E(Eh)            E(eV)
   0   2.0000      -9.890138      -269.1243
   1   2.0000      -9.881063      -268.8774
   2   2.0000      -9.863405      -268.3969
   3   2.0000      -0.710054       -19.3216
   4   2.0000      -0.618334       -16.8257
   5   2.0000      -0.523264       -14.2387
   6   2.0000      -0.415786       -11.3141
   7   2.0000      -0.387323       -10.5396
   8   2.0000      -0.352457        -9.5908
   9   2.0000      -0.345263        -9.3951
  10   2.0000      -0.295305        -8.0357
  11   2.0000      -0.284064        -7.7298
  12   2.0000      -0.283094        -7.7034
  13   0.0000       0.020606         0.5607
  14   0.0000       0.061982         1.6866
  15   0.0000       0.067554         1.8382
  16   0.0000       0.070512         1.9187
  17   0.0000       0.094481         2.5710

MULLIKEN ATOMIC CHARGES
-----------------------
   0 C :   -0.110702
   1 C :   -0.312127
   2 C :   -0.282612
   3 H :    0.101283
   4 H :    0.095498
   5 H :    0.094748
   6 H :    0.071238
   7 H :    0.069381
   8 H :    0.088114
   9 H :    0.094255
  10 H :    0.090924
Sum of atomic charges:   -0.0000000

LOEWDIN ATOMIC CHARGES
----------------------
   0 C :   -0.314151
   1 C :   -0.305045
   2 C :   -0.298848
   3 H :    0.109495
   4 H :    0.105641
   5 H :    0.107651
   6 H :    0.129251
   7 H :    0.129248
   8 H :    0.112837
   9 H :    0.111737
  10 H :    0.112182

  Mayer bond orders larger than 0.100000
B(  0-C ,  1-C ) :   0.9589 B(  0-C ,  2-C ) :   0.9666 B(  0-C ,  6-H ) :   0.9701
B(  0-C ,  7-H ) :   0.9711 B(  1-C ,  3-H ) :   0.9796 B(  1-C ,  4-H ) :   0.9777
B(  1-C ,  5-H ) :   0.9782 B(  2-C ,  8-H ) :   0.9756 B(  2-C ,  9-H ) :   0.9764
B(  2-C , 10-H ) :   0.9762

Dispersion correction           -0.012458250
FINAL SINGLE POINT ENERGY      -119.093936106044

DIPOLE MOMENT
-------------
                                X             Y             Z
Electronic contribution:      0.31810      -0.13219       0.27654
Nuclear contribution   :     -0.34625       0.09603      -0.26933
                        -----------------------------------------
Total Dipole Moment    :     -0.02814      -0.03615       0.00721
                        -----------------------------------------
Magnitude (a.u.)       :      0.04638
Magnitude (Debye)      :      0.11789

Rotational constants in cm-1:     1.028617     0.291238     0.258956
Rotational constants in MHz : 30837.159054  8731.095379  7763.318586

                             ****ORCA TERMINATED NORMALLY****
TOTAL RUN TIME: 0 days 0 hours 0 minutes 8 seconds 139 msec
