                         Program Version 5.0.0 -  RELEASE  -
|  1> !BLYP D3BJ RIJCOSX def2-TZVP def2/J TightSCF
|  2> *xyz 0 1
|  3> C         -7.33044       -2.67899       -3.20681
|  4> S         -6.01966       -2.92697       -4.41913
|  5> O         -5.64583       -1.58838       -4.91931
|  6> F         -4.88196       -3.50370       -3.66724
|  7> O         -6.54927       -3.80515       -5.42507
|  8> C         -7.46900       -1.24615       -2.71383
|  9> H         -7.11825       -3.37982       -2.39805
| 10> H         -8.24184       -3.00474       -3.70651
| 11> H         -7.67580       -0.60214       -3.54292
| 12> H         -6.55749       -0.94096       -2.24382
| 13> H         -8.27114       -1.18777       -2.00810
| 14> *
| 15> %MaxCore 64000
| 16>
| 17> %pal nprocs 4
| 18> end
| 19>
| 20> %scf
| 21>   MaxIter 150
| 22> end
| 23>
| 24>
| 25>                          ****END OF INPUT****

CARTESIAN COORDINATES (ANGSTROEM)
---------------------------------
  C     -7.330440   -2.678990   -3.206810
  S     -6.019660   -2.926970   -4.419130
  O     -5.645830   -1.588380   -4.919310
  F     -4.881960   -3.503700   -3.667240
  O     -6.549270   -3.805150   -5.425070
  C     -7.469000   -1.246150   -2.713830
  H     -7.118250   -3.379820   -2.398050
  H     -8.241840   -3.004740   -3.706510
  H     -7.675800   -0.602140   -3.542920
  H     -6.557490   -0.940960   -2.243820
  H     -8.271140   -1.187770   -2.008100

 Total Charge           Charge          ....    0
 Multiplicity           Mult            ....    1
 Number of Electrons    NEL             ....   58
 Basis Dimension        Dim             ....  222

ORBITAL ENERGIES
----------------

  NO   OCC          E(Eh)            E(eV)
   0   2.0000     -88.331864     -2403.6322
   1   2.0000     -24.378932      -663.3845
   2   2.0000     -18.782530      -511.0986
   3   2.0000     -18.771804      -510.8068
   4   2.0000      -9.963804      -271.1289
   5   2.0000      -9.920601      -269.9533
   6   2.0000      -7.863273      -213.9705
   7   2.0000      -5.895551      -160.4261
   8   2.0000      -5.888874      -160.2444
   9   2.0000      -5.888540      -160.2353
  10   2.0000      -1.237606       -33.6770
  11   2.0000      -1.008565       -27.4445
  12   2.0000      -0.916290       -24.9335
  13   2.0000      -0.743178       -20.2229
  14   2.0000      -0.650287       -17.6952
  15   2.0000      -0.599250       -16.3064
  16   2.0000      -0.509500       -13.8642
  17   2.0000      -0.491646       -13.3784
  18   2.0000      -0.484947       -13.1961
  19   2.0000      -0.439011       -11.9461
  20   2.0000      -0.422273       -11.4906
  21   2.0000      -0.396225       -10.7818
  22   2.0000      -0.376628       -10.2486
  23   2.0000      -0.355862        -9.6835
  24   2.0000      -0.348866        -9.4931
  25   2.0000      -0.331086        -9.0093
  26   2.0000      -0.286181        -7.7874
  27   2.0000      -0.277139        -7.5413
  28   2.0000      -0.260569        -7.0904
  29   0.0000      -0.011164        -0.3038
  30   0.0000       0.001524         0.0415
  31   0.0000       0.027421         0.7462
  32   0.0000       0.045651         1.2422
  33   0.0000       0.049484         1.3465

MULLIKEN ATOMIC CHARGES
-----------------------
   0 C :   -0.226349
   1 S :    0.796697
   2 O :   -0.416240
   3 F :   -0.112718
   4 O :   -0.375198
   5 C :   -0.271351
   6 H :    0.116554
   7 H :    0.141482
   8 H :    0.130720
   9 H :    0.107432
  10 H :    0.108971
Sum of atomic charges:    0.0000000

LOEWDIN ATOMIC CHARGES
----------------------
   0 C :   -0.391134
   1 S :    0.521311
   2 O :   -0.281648
   3 F :    0.058182
   4 O :   -0.242362
   5 C :   -0.304642
   6 H :    0.131427
   7 H :    0.143232
   8 H :    0.124830
   9 H :    0.120003
  10 H :    0.120801

  Mayer bond orders larger than 0.100000
B(  0-C ,  1-S ) :   0.8888 B(  0-C ,  5-C ) :   0.9567 B(  0-C ,  6-H ) :   0.9423
B(  0-C ,  7-H ) :   0.9400 B(  1-S ,  2-O ) :   1.8975 B(  1-S ,  3-F ) :   1.1093
B(  1-S ,  4-O ) :   1.9583 B(  5-C ,  8-H ) :   0.9676 B(  5-C ,  9-H ) :   0.9699
B(  5-C , 10-H ) :   0.9505

Dispersion correction           -0.019521601
FINAL SINGLE POINT ENERGY      -727.782933077968

DIPOLE MOMENT
-------------
                                X             Y             Z
Electronic contribution:      7.03104      -4.98033      -4.35518
Nuclear contribution   :     -7.60849       4.87515       5.84588
                        -----------------------------------------
Total Dipole Moment    :     -0.57745      -0.10518       1.49070
                        -----------------------------------------
Magnitude (a.u.)       :      1.60209
Magnitude (Debye)      :      4.07219

Rotational constants in cm-1:     0.153704     0.080342     0.079431
Rotational constants in MHz :  4607.928650  2408.599360  2381.267225

                             ****ORCA TERMINATED NORMALLY****
TOTAL RUN TIME: 0 days 0 hours 0 minutes 12 seconds 90 msec
