                         Program Version 5.0.0 -  RELEASE  -
|  1> !BLYP D3BJ RIJCOSX def2-TZVP def2/J TightSCF
|  2> *xyz 0 1
|  3> C         -7.33044       -2.67899       -3.20681
|  4> S         -6.01966       -2.92697       -4.41913
|  5> O         -5.64583       -1.58838       -4.91931
|  6> O         -4.88196       -3.50370       -3.66724
|  7> F         -6.54927       -3.80515       -5.42507
|  8> C         -7.46900       -1.24615       -2.71383
|  9> H         -7.11825       -3.37982       -2.39805
| 10> H         -8.24184       -3.00474       -3.70651
| 11> H         -7.67580       -0.60214       -3.54292
| 12> H         -6.55749       -0.94096       -2.24382
| 13> H         -8.27114       -1.18777       -2.00810
| 14> *
| 15> %MaxCore 64000
| 16>
| 17> %pal nprocs 4
| 18> end
| 19>
| 20> %scf
| 21>   MaxIter 150
| 22> end
| 23>
| 24>
| 25>                          ****END OF INPUT****

CARTESIAN COORDINATES (ANGSTROEM)
---------------------------------
  C     -7.330440   -2.678990   -3.206810
  S     -6.019660   -2.926970   -4.419130
  O     -5.645830   -1.588380   -4.919310
  O     -4.881960   -3.503700   -3.667240
  F     -6.549270   -3.805150   -5.425070
  C     -7.469000   -1.246150   -2.713830
  H     -7.118250   -3.379820   -2.398050
  H     -8.241840   -3.004740   -3.706510
  H     -7.675800   -0.602140   -3.542920
  H     -6.557490   -0.940960   -2.243820
  H     -8.271140   -1.187770   -2.008100

 Total Charge           Charge          ....    0
 Multiplicity           Mult            ....    1
 Number of Electrons    NEL             ....   58
 Basis Dimension        Dim             ....  222

ORBITAL ENERGIES
----------------

  NO   OCC          E(Eh)            E(eV)
   0   2.0000     -88.334186     -2403.6954
   1   2.0000     -24.400570      -663.9733
   2   2.0000     -18.771922      -510.8100
   3   2.0000     -18.768798      -510.7250
   4   2.0000      -9.964377      -271.1445
   5   2.0000      -9.920778      -269.9581
   6   2.0000      -7.865467      -214.0302
   7   2.0000      -5.897671      -160.4838
   8   2.0000      -5.891046      -160.3035
   9   2.0000      -5.890719      -160.2946
  10   2.0000      -1.273270       -34.6475
  11   2.0000      -0.993118       -27.0241
  12   2.0000      -0.899877       -24.4869
  13   2.0000      -0.743349       -20.2276
  14   2.0000      -0.663515       -18.0552
  15   2.0000      -0.606287       -16.4979
  16   2.0000      -0.521801       -14.1989
  17   2.0000      -0.517234       -14.0747
  18   2.0000      -0.491313       -13.3693
  19   2.0000      -0.440576       -11.9887
  20   2.0000      -0.421395       -11.4668
  21   2.0000      -0.388727       -10.5778
  22   2.0000      -0.373621       -10.1667
  23   2.0000      -0.357754        -9.7350
  24   2.0000      -0.343520        -9.3477
  25   2.0000      -0.323875        -8.8131
  26   2.0000      -0.278162        -7.5692
  27   2.0000      -0.268553        -7.3077
  28   2.0000      -0.247186        -6.7263
  29   0.0000      -0.009443        -0.2569
  30   0.0000      -0.000700        -0.0190
  31   0.0000       0.023149         0.6299
  32   0.0000       0.043447         1.1822
  33   0.0000       0.047627         1.2960

MULLIKEN ATOMIC CHARGES
-----------------------
   0 C :   -0.215617
   1 S :    0.791673
   2 O :   -0.408067
   3 O :   -0.413704
   4 F :   -0.079253
   5 C :   -0.277079
   6 H :    0.138510
   7 H :    0.108069
   8 H :    0.119840
   9 H :    0.125321
  10 H :    0.110307
Sum of atomic charges:   -0.0000000

LOEWDIN ATOMIC CHARGES
----------------------
   0 C :   -0.393367
   1 S :    0.512124
   2 O :   -0.278367
   3 O :   -0.291421
   4 F :    0.111795
   5 C :   -0.299148
   6 H :    0.140086
   7 H :    0.128559
   8 H :    0.122701
   9 H :    0.125270
  10 H :    0.121767

  Mayer bond orders larger than 0.100000
B(  0-C ,  1-S ) :   0.8915 B(  0-C ,  5-C ) :   0.9625 B(  0-C ,  6-H ) :   0.9382
B(  0-C ,  7-H ) :   0.9355 B(  1-S ,  2-O ) :   1.9007 B(  1-S ,  3-O ) :   1.9101
B(  1-S ,  4-F ) :   1.1529 B(  5-C ,  8-H ) :   0.9664 B(  5-C ,  9-H ) :   0.9702
B(  5-C , 10-H ) :   0.9499

Dispersion correction           -0.019550833
FINAL SINGLE POINT ENERGY      -727.765185527724

DIPOLE MOMENT
-------------
                                X             Y             Z
Electronic contribution:      4.23522      -5.47043      -7.30717
Nuclear contribution   :     -5.87110       5.18927       7.67759
                        -----------------------------------------
Total Dipole Moment    :     -1.63588      -0.28116       0.37042
                        -----------------------------------------
Magnitude (a.u.)       :      1.70069
Magnitude (Debye)      :      4.32282

Rotational constants in cm-1:     0.155988     0.080452     0.078187
Rotational constants in MHz :  4676.405251  2411.902056  2343.983816

                             ****ORCA TERMINATED NORMALLY****
TOTAL RUN TIME: 0 days 0 hours 0 minutes 12 seconds 4 msec
