                         Program Version 5.0.0 -  RELEASE  -
|  1> !BLYP D3BJ RIJCOSX def2-TZVP def2/J TightSCF xyzfile
|  2>
|  3> *xyzfile 0 1 D1.xyz
|  4>
|  5> %MaxCore 64000
|  6>
|  7> %pal nprocs 18
|  8> end
|  9>
| 10> %scf
| 11>   MaxIter 150
| 12> end
| 13>
| 14>
| 15>                          ****END OF INPUT****

CARTESIAN COORDINATES (ANGSTROEM)
---------------------------------
  C     -2.160376   -1.369486   -3.467104
  C     -3.030108   -1.910857   -4.541074
  C     -2.047717    0.146583   -3.511774
  C     -7.330440   -2.678991   -3.206811
  S     -6.019659   -2.926965   -4.419128
  H     -3.477443   -2.791513   -4.257096
  H     -2.538013   -2.017860   -5.438075
  H     -3.891589   -1.376039   -4.714365
  F     -5.645830   -1.588384   -4.919307
  O     -4.881961   -3.503697   -3.667235
  H     -1.184438   -1.843997   -3.566393
  H     -2.598195   -1.708376   -2.528477
  O     -6.549267   -3.805150   -5.425071
  C     -3.328755    0.875037   -3.103669
  H     -1.740034    0.452343   -4.517126
  H     -1.232611    0.434938   -2.842208
  C     -3.628487    0.771601   -1.609363
  H     -4.175106    0.490791   -3.682203
  H     -3.237812    1.928663   -3.381480
  C     -4.975718    1.361432   -1.190644
  H     -2.830700    1.276234   -1.054766
  H     -3.594312   -0.275838   -1.294603
  C     -6.184720    0.784347   -1.926464
  H     -4.956292    2.445725   -1.342200
  H     -5.097256    1.205252   -0.114136
  C     -6.286921   -0.735882   -1.893531
  H     -6.163994    1.100199   -2.974250
  H     -7.094530    1.223459   -1.504509
  C     -7.468999   -1.246153   -2.713833
  H     -6.360641   -1.090347   -0.859176
  H     -5.369848   -1.171853   -2.295982
  H     -7.601914   -0.601349   -3.585329
  H     -8.389791   -1.173436   -2.126922
  H     -7.118254   -3.379818   -2.398055
  H     -8.241838   -3.004745   -3.706513

 Total Charge           Charge          ....    0
 Multiplicity           Mult            ....    1
 Number of Electrons    NEL             ....  122
 Basis Dimension        Dim             ....  566

ORBITAL ENERGIES
----------------

  NO   OCC          E(Eh)            E(eV)
   0   2.0000     -88.336998     -2403.7719
   1   2.0000     -24.386991      -663.6038
   2   2.0000     -18.787781      -511.2415
   3   2.0000     -18.773818      -510.8616
   4   2.0000      -9.963050      -271.1084
   5   2.0000      -9.934742      -270.3381
   6   2.0000      -9.914485      -269.7869
   7   2.0000      -9.907298      -269.5913
   8   2.0000      -9.900774      -269.4137
   9   2.0000      -9.894103      -269.2322
  10   2.0000      -9.891792      -269.1693
  11   2.0000      -9.884609      -268.9739
  12   2.0000      -9.874879      -268.7091
  13   2.0000      -9.828927      -267.4587
  14   2.0000      -7.868793      -214.1207
  15   2.0000      -5.901067      -160.5762
  16   2.0000      -5.894330      -160.3929
  17   2.0000      -5.893990      -160.3836
  18   2.0000      -1.250187       -34.0193
  19   2.0000      -1.014578       -27.6081
  20   2.0000      -0.923098       -25.1188
  21   2.0000      -0.763562       -20.7776
  22   2.0000      -0.733675       -19.9643
  23   2.0000      -0.707196       -19.2438
  24   2.0000      -0.682384       -18.5686
  25   2.0000      -0.646727       -17.5983
  26   2.0000      -0.632936       -17.2231
  27   2.0000      -0.599481       -16.3127
  28   2.0000      -0.568277       -15.4636
  29   2.0000      -0.552916       -15.0456
  30   2.0000      -0.523798       -14.2533
  31   2.0000      -0.513917       -13.9844
  32   2.0000      -0.501092       -13.6354
  33   2.0000      -0.487697       -13.2709
  34   2.0000      -0.483349       -13.1526
  35   2.0000      -0.441172       -12.0049
  36   2.0000      -0.434912       -11.8346
  37   2.0000      -0.420297       -11.4369
  38   2.0000      -0.413892       -11.2626
  39   2.0000      -0.406381       -11.0582
  40   2.0000      -0.396606       -10.7922
  41   2.0000      -0.386024       -10.5042
  42   2.0000      -0.380453       -10.3527
  43   2.0000      -0.375922       -10.2294
  44   2.0000      -0.359584        -9.7848
  45   2.0000      -0.346392        -9.4258
  46   2.0000      -0.342800        -9.3281
  47   2.0000      -0.336094        -9.1456
  48   2.0000      -0.329208        -8.9582
  49   2.0000      -0.320165        -8.7121
  50   2.0000      -0.310473        -8.4484
  51   2.0000      -0.305704        -8.3186
  52   2.0000      -0.294001        -8.0002
  53   2.0000      -0.289589        -7.8801
  54   2.0000      -0.285596        -7.7715
  55   2.0000      -0.279792        -7.6135
  56   2.0000      -0.272503        -7.4152
  57   2.0000      -0.265234        -7.2174
  58   2.0000      -0.261959        -7.1283
  59   2.0000      -0.259925        -7.0729
  60   2.0000      -0.232901        -6.3376
  61   0.0000      -0.027309        -0.7431
  62   0.0000       0.009093         0.2474
  63   0.0000       0.019897         0.5414
  64   0.0000       0.021767         0.5923
  65   0.0000       0.026613         0.7242

MULLIKEN ATOMIC CHARGES
-----------------------
   0 C :   -0.128308
   1 C :   -0.394952
   2 C :   -0.056036
   3 C :   -0.197439
   4 S :    0.832562
   5 H :    0.165807
   6 H :    0.086694
   7 H :    0.080235
   8 F :   -0.112746
   9 O :   -0.419625
  10 H :    0.065053
  11 H :    0.071702
  12 O :   -0.381851
  13 C :   -0.192940
  14 H :    0.062328
  15 H :    0.057216
  16 C :   -0.184187
  17 H :    0.073876
  18 H :    0.070196
  19 C :   -0.099768
  20 H :    0.075621
  21 H :    0.092733
  22 C :   -0.155137
  23 H :    0.072928
  24 H :    0.073970
  25 C :   -0.260763
  26 H :    0.089558
  27 H :    0.077091
  28 C :   -0.154832
  29 H :    0.082221
  30 H :    0.132220
  31 H :    0.098851
  32 H :    0.099569
  33 H :    0.132698
  34 H :    0.145455
Sum of atomic charges:   -0.0000000

LOEWDIN ATOMIC CHARGES
----------------------
   0 C :   -0.292747
   1 C :   -0.334979
   2 C :   -0.259912
   3 C :   -0.353998
   4 S :    0.540070
   5 H :    0.101009
   6 H :    0.100157
   7 H :    0.090106
   8 F :    0.086156
   9 O :   -0.257985
  10 H :    0.131134
  11 H :    0.129081
  12 O :   -0.235231
  13 C :   -0.260512
  14 H :    0.131539
  15 H :    0.130405
  16 C :   -0.263479
  17 H :    0.126838
  18 H :    0.131293
  19 C :   -0.260713
  20 H :    0.133469
  21 H :    0.131118
  22 C :   -0.265555
  23 H :    0.133560
  24 H :    0.132721
  25 C :   -0.265042
  26 H :    0.132048
  27 H :    0.133380
  28 C :   -0.282929
  29 H :    0.135426
  30 H :    0.136495
  31 H :    0.137377
  32 H :    0.141986
  33 H :    0.146929
  34 H :    0.140783

  Mayer bond orders larger than 0.100000
B(  0-C ,  1-C ) :   0.9356 B(  0-C ,  2-C ) :   0.9565 B(  0-C , 10-H ) :   0.9630
B(  0-C , 11-H ) :   0.9884 B(  1-C ,  5-H ) :   0.9559 B(  1-C ,  6-H ) :   0.9581
B(  1-C ,  7-H ) :   0.9888 B(  2-C , 13-C ) :   0.9806 B(  2-C , 14-H ) :   0.9562
B(  2-C , 15-H ) :   0.9571 B(  3-C ,  4-S ) :   0.9002 B(  3-C , 28-C ) :   0.9554
B(  3-C , 33-H ) :   0.9402 B(  3-C , 34-H ) :   0.9472 B(  4-S ,  8-F ) :   1.0819
B(  4-S ,  9-O ) :   1.8004 B(  4-S , 12-O ) :   1.9877 B( 13-C , 16-C ) :   0.9655
B( 13-C , 17-H ) :   0.9749 B( 13-C , 18-H ) :   0.9567 B( 16-C , 19-C ) :   0.9601
B( 16-C , 20-H ) :   0.9572 B( 16-C , 21-H ) :   0.9740 B( 19-C , 22-C ) :   0.9735
B( 19-C , 23-H ) :   0.9621 B( 19-C , 24-H ) :   0.9647 B( 22-C , 25-C ) :   0.9403
B( 22-C , 26-H ) :   0.9696 B( 22-C , 27-H ) :   0.9612 B( 25-C , 28-C ) :   0.9260
B( 25-C , 29-H ) :   0.9540 B( 25-C , 30-H ) :   0.9926 B( 28-C , 31-H ) :   0.9712
B( 28-C , 32-H ) :   0.9468

Dispersion correction           -0.082031633
FINAL SINGLE POINT ENERGY     -1042.183482753745

DIPOLE MOMENT
-------------
                                X             Y             Z
Electronic contribution:    -10.81759     -16.26295     -13.23121
Nuclear contribution   :      9.63012      17.20461      14.03552
                        -----------------------------------------
Total Dipole Moment    :     -1.18748       0.94165       0.80431
                        -----------------------------------------
Magnitude (a.u.)       :      1.71573
Magnitude (Debye)      :      4.36104

Rotational constants in cm-1:     0.025899     0.015189     0.010690
Rotational constants in MHz :   776.424978   455.369614   320.488876

                             ****ORCA TERMINATED NORMALLY****
TOTAL RUN TIME: 0 days 0 hours 0 minutes 23 seconds 837 msec
