                         Program Version 5.0.0 -  RELEASE  -
|  1> !BLYP D3BJ RIJCOSX def2-TZVP def2/J TightSCF xyzfile
|  2>
|  3> *xyzfile 0 1 D3.xyz
|  4>
|  5> %MaxCore 64000
|  6>
|  7> %pal nprocs 18
|  8> end
|  9>
| 10> %scf
| 11>   MaxIter 150
| 12> end
| 13>
| 14>
| 15>                          ****END OF INPUT****

CARTESIAN COORDINATES (ANGSTROEM)
---------------------------------
  C     -2.160376   -1.369486   -3.467104
  C     -3.030108   -1.910857   -4.541074
  C     -2.047717    0.146583   -3.511774
  C     -7.330440   -2.678991   -3.206811
  S     -6.019659   -2.926965   -4.419128
  H     -3.477443   -2.791513   -4.257096
  H     -2.538013   -2.017860   -5.438075
  H     -3.891589   -1.376039   -4.714365
  O     -5.645830   -1.588384   -4.919307
  O     -4.881961   -3.503697   -3.667235
  H     -1.184438   -1.843997   -3.566393
  H     -2.598195   -1.708376   -2.528477
  F     -6.549267   -3.805150   -5.425071
  C     -3.328755    0.875037   -3.103669
  H     -1.740034    0.452343   -4.517126
  H     -1.232611    0.434938   -2.842208
  C     -3.628487    0.771601   -1.609363
  H     -4.175106    0.490791   -3.682203
  H     -3.237812    1.928663   -3.381480
  C     -4.975718    1.361432   -1.190644
  H     -2.830700    1.276234   -1.054766
  H     -3.594312   -0.275838   -1.294603
  C     -6.184720    0.784347   -1.926464
  H     -4.956292    2.445725   -1.342200
  H     -5.097256    1.205252   -0.114136
  C     -6.286921   -0.735882   -1.893531
  H     -6.163994    1.100199   -2.974250
  H     -7.094530    1.223459   -1.504509
  C     -7.468999   -1.246153   -2.713833
  H     -6.360641   -1.090347   -0.859176
  H     -5.369848   -1.171853   -2.295982
  H     -7.601914   -0.601349   -3.585329
  H     -8.389791   -1.173436   -2.126922
  H     -7.118254   -3.379818   -2.398055
  H     -8.241838   -3.004745   -3.706513

 Total Charge           Charge          ....    0
 Multiplicity           Mult            ....    1
 Number of Electrons    NEL             ....  122
 Basis Dimension        Dim             ....  566

ORBITAL ENERGIES
----------------

  NO   OCC          E(Eh)            E(eV)
   0   2.0000     -88.342952     -2403.9339
   1   2.0000     -24.407792      -664.1698
   2   2.0000     -18.781401      -511.0679
   3   2.0000     -18.778453      -510.9877
   4   2.0000      -9.965221      -271.1674
   5   2.0000      -9.928646      -270.1722
   6   2.0000      -9.904047      -269.5028
   7   2.0000      -9.896862      -269.3073
   8   2.0000      -9.891439      -269.1597
   9   2.0000      -9.883685      -268.9487
  10   2.0000      -9.878135      -268.7977
  11   2.0000      -9.872645      -268.6483
  12   2.0000      -9.861782      -268.3527
  13   2.0000      -9.808647      -266.9069
  14   2.0000      -7.874556      -214.2776
  15   2.0000      -5.906855      -160.7337
  16   2.0000      -5.900108      -160.5501
  17   2.0000      -5.899673      -160.5383
  18   2.0000      -1.280470       -34.8433
  19   2.0000      -1.007801       -27.4236
  20   2.0000      -0.914615       -24.8879
  21   2.0000      -0.757832       -20.6217
  22   2.0000      -0.725025       -19.7289
  23   2.0000      -0.698079       -18.9957
  24   2.0000      -0.679929       -18.5018
  25   2.0000      -0.649309       -17.6686
  26   2.0000      -0.624892       -17.0042
  27   2.0000      -0.592026       -16.1098
  28   2.0000      -0.559594       -15.2273
  29   2.0000      -0.541514       -14.7353
  30   2.0000      -0.527092       -14.3429
  31   2.0000      -0.521625       -14.1941
  32   2.0000      -0.501679       -13.6514
  33   2.0000      -0.496080       -13.4990
  34   2.0000      -0.471325       -12.8254
  35   2.0000      -0.441498       -12.0138
  36   2.0000      -0.432568       -11.7708
  37   2.0000      -0.415098       -11.2954
  38   2.0000      -0.411491       -11.1972
  39   2.0000      -0.404974       -11.0199
  40   2.0000      -0.391212       -10.6454
  41   2.0000      -0.380393       -10.3510
  42   2.0000      -0.370055       -10.0697
  43   2.0000      -0.365544        -9.9470
  44   2.0000      -0.351814        -9.5733
  45   2.0000      -0.338018        -9.1979
  46   2.0000      -0.331690        -9.0257
  47   2.0000      -0.329611        -8.9692
  48   2.0000      -0.318587        -8.6692
  49   2.0000      -0.306085        -8.3290
  50   2.0000      -0.300705        -8.1826
  51   2.0000      -0.292470        -7.9585
  52   2.0000      -0.287599        -7.8260
  53   2.0000      -0.282768        -7.6945
  54   2.0000      -0.276305        -7.5186
  55   2.0000      -0.268170        -7.2973
  56   2.0000      -0.264523        -7.1980
  57   2.0000      -0.260864        -7.0985
  58   2.0000      -0.247778        -6.7424
  59   2.0000      -0.237065        -6.4509
  60   2.0000      -0.222363        -6.0508
  61   0.0000      -0.018082        -0.4920
  62   0.0000      -0.004802        -0.1307
  63   0.0000       0.017056         0.4641
  64   0.0000       0.023870         0.6495
  65   0.0000       0.029760         0.8098

MULLIKEN ATOMIC CHARGES
-----------------------
   0 C :   -0.128376
   1 C :   -0.383839
   2 C :   -0.051032
   3 C :   -0.222582
   4 S :    0.825532
   5 H :    0.132969
   6 H :    0.070838
   7 H :    0.136109
   8 O :   -0.415825
   9 O :   -0.410463
  10 H :    0.055719
  11 H :    0.064107
  12 F :   -0.080837
  13 C :   -0.203208
  14 H :    0.057891
  15 H :    0.050477
  16 C :   -0.186507
  17 H :    0.109927
  18 H :    0.062197
  19 C :   -0.095086
  20 H :    0.070336
  21 H :    0.089020
  22 C :   -0.167262
  23 H :    0.069214
  24 H :    0.069029
  25 C :   -0.244545
  26 H :    0.098881
  27 H :    0.069432
  28 C :   -0.101006
  29 H :    0.073966
  30 H :    0.137402
  31 H :    0.097137
  32 H :    0.094948
  33 H :    0.130165
  34 H :    0.125273
Sum of atomic charges:    0.0000000

LOEWDIN ATOMIC CHARGES
----------------------
   0 C :   -0.296564
   1 C :   -0.334418
   2 C :   -0.260591
   3 C :   -0.364824
   4 S :    0.533883
   5 H :    0.097793
   6 H :    0.096039
   7 H :    0.099922
   8 O :   -0.249429
   9 O :   -0.255818
  10 H :    0.127648
  11 H :    0.127013
  12 F :    0.116362
  13 C :   -0.260136
  14 H :    0.130796
  15 H :    0.127976
  16 C :   -0.264229
  17 H :    0.134912
  18 H :    0.129443
  19 C :   -0.261565
  20 H :    0.131690
  21 H :    0.130199
  22 C :   -0.264439
  23 H :    0.132636
  24 H :    0.131001
  25 C :   -0.261738
  26 H :    0.135703
  27 H :    0.131161
  28 C :   -0.272915
  29 H :    0.131975
  30 H :    0.140884
  31 H :    0.143294
  32 H :    0.141511
  33 H :    0.142862
  34 H :    0.131965

  Mayer bond orders larger than 0.100000
B(  0-C ,  1-C ) :   0.9371 B(  0-C ,  2-C ) :   0.9630 B(  0-C , 10-H ) :   0.9613
B(  0-C , 11-H ) :   0.9866 B(  1-C ,  5-H ) :   0.9585 B(  1-C ,  6-H ) :   0.9616
B(  1-C ,  7-H ) :   0.9786 B(  2-C , 13-C ) :   0.9812 B(  2-C , 14-H ) :   0.9547
B(  2-C , 15-H ) :   0.9570 B(  3-C ,  4-S ) :   0.8957 B(  3-C , 28-C ) :   0.9514
B(  3-C , 33-H ) :   0.9371 B(  3-C , 34-H ) :   0.9425 B(  4-S ,  8-O ) :   1.8332
B(  4-S ,  9-O ) :   1.8292 B(  4-S , 12-F ) :   1.1592 B( 13-C , 16-C ) :   0.9686
B( 13-C , 17-H ) :   0.9733 B( 13-C , 18-H ) :   0.9547 B( 16-C , 19-C ) :   0.9617
B( 16-C , 20-H ) :   0.9570 B( 16-C , 21-H ) :   0.9733 B( 19-C , 22-C ) :   0.9742
B( 19-C , 23-H ) :   0.9612 B( 19-C , 24-H ) :   0.9643 B( 22-C , 25-C ) :   0.9565
B( 22-C , 26-H ) :   0.9704 B( 22-C , 27-H ) :   0.9595 B( 25-C , 28-C ) :   0.9572
B( 25-C , 29-H ) :   0.9544 B( 25-C , 30-H ) :   0.9809 B( 28-C , 31-H ) :   0.9560
B( 28-C , 32-H ) :   0.9426

Dispersion correction           -0.082824075
FINAL SINGLE POINT ENERGY     -1042.169695694542

DIPOLE MOMENT
-------------
                                X             Y             Z
Electronic contribution:    -12.57263     -20.28393     -14.34967
Nuclear contribution   :     10.70731      19.84772      14.63855
                        -----------------------------------------
Total Dipole Moment    :     -1.86532      -0.43621       0.28888
                        -----------------------------------------
Magnitude (a.u.)       :      1.93731
Magnitude (Debye)      :      4.92425

Rotational constants in cm-1:     0.026014     0.014812     0.010477
Rotational constants in MHz :   779.874765   444.063394   314.081855

                             ****ORCA TERMINATED NORMALLY****
TOTAL RUN TIME: 0 days 0 hours 0 minutes 27 seconds 411 msec
