                         Program Version 5.0.0 -  RELEASE  -
|  1> !wB97X-D3 RIJCOSX def2-SVPD def2/J TightSCF
|  2> *xyz -1 1
|  3> C         -0.71189        0.84252       -4.21834
|  4> C         -0.39762       -0.20587       -5.28802
|  5> O          0.61717       -0.00535       -5.99827
|  6> O         -1.13317       -1.22138       -5.34147
|  7> H         -0.00939        1.64646       -4.28960
|  8> H         -0.64409        0.39449       -3.24902
|  9> H         -1.70192        1.21961       -4.36851
| 10> *
| 11>
| 12> %MaxCore 64000
| 13>
| 14> %pal nprocs 18
| 15> end
| 16>
| 17> %scf
| 18>   MaxIter 150
| 19> end
| 20>
| 21>
| 22>                          ****END OF INPUT****

CARTESIAN COORDINATES (ANGSTROEM)
---------------------------------
  C     -0.711890    0.842520   -4.218340
  C     -0.397620   -0.205870   -5.288020
  O      0.617170   -0.005350   -5.998270
  O     -1.133170   -1.221380   -5.341470
  H     -0.009390    1.646460   -4.289600
  H     -0.644090    0.394490   -3.249020
  H     -1.701920    1.219610   -4.368510

 Total Charge           Charge          ....   -1
 Multiplicity           Mult            ....    1
 Number of Electrons    NEL             ....   32
 Basis Dimension        Dim             ....  110

ORBITAL ENERGIES
----------------

  NO   OCC          E(Eh)            E(eV)
   0   2.0000     -18.978308      -516.4260
   1   2.0000     -18.977783      -516.4117
   2   2.0000     -10.175661      -276.8938
   3   2.0000     -10.101698      -274.8812
   4   2.0000      -0.924949       -25.1691
   5   2.0000      -0.828938       -22.5565
   6   2.0000      -0.652610       -17.7584
   7   2.0000      -0.405529       -11.0350
   8   2.0000      -0.361282        -9.8310
   9   2.0000      -0.345779        -9.4091
  10   2.0000      -0.326833        -8.8936
  11   2.0000      -0.283369        -7.7109
  12   2.0000      -0.264625        -7.2008
  13   2.0000      -0.140550        -3.8246
  14   2.0000      -0.135694        -3.6924
  15   2.0000      -0.121643        -3.3101
  16   0.0000       0.239518         6.5176
  17   0.0000       0.273929         7.4540
  18   0.0000       0.297563         8.0971
  19   0.0000       0.309541         8.4230
  20   0.0000       0.335056         9.1173

MULLIKEN ATOMIC CHARGES
-----------------------
   0 C :    0.424351
   1 C :    0.046444
   2 O :   -0.652215
   3 O :   -0.671070
   4 H :   -0.063778
   5 H :   -0.042510
   6 H :   -0.041221
Sum of atomic charges:   -1.0000000

LOEWDIN ATOMIC CHARGES
----------------------
   0 C :    0.136941
   1 C :   -0.334408
   2 O :   -0.345198
   3 O :   -0.347050
   4 H :   -0.041565
   5 H :   -0.033333
   6 H :   -0.035386

  Mayer bond orders larger than 0.100000
B(  0-C ,  1-C ) :   1.2060 B(  0-C ,  4-H ) :   0.8792 B(  0-C ,  5-H ) :   0.8341
B(  0-C ,  6-H ) :   0.8251 B(  1-C ,  2-O ) :   1.5247 B(  1-C ,  3-O ) :   1.5253
B(  1-C ,  4-H ) :   0.2310 B(  1-C ,  5-H ) :   0.1488 B(  1-C ,  6-H ) :   0.1562

Dispersion correction           -0.000904839
FINAL SINGLE POINT ENERGY      -228.305603671604

DIPOLE MOMENT
-------------
                                X             Y             Z
Electronic contribution:      0.74747      -2.43751      -2.47945
Nuclear contribution   :     -1.06347       3.45957       3.47855
                        -----------------------------------------
Total Dipole Moment    :     -0.31600       1.02207       0.99911
                        -----------------------------------------
Magnitude (a.u.)       :      1.46379
Magnitude (Debye)      :      3.72067

Rotational constants in cm-1:     0.393276     0.333956     0.186777
Rotational constants in MHz : 11790.103634 10011.747201  5599.422324

                             ****ORCA TERMINATED NORMALLY****
TOTAL RUN TIME: 0 days 0 hours 0 minutes 4 seconds 483 msec
