                         Program Version 5.0.0 -  RELEASE  -
|  1> !wB97X-D3 RIJCOSX def2-SVPD def2/J TightSCF
|  2> *xyz 1 1
|  3> C          2.23447       -2.98975       -2.39762
|  4> N          2.75680       -2.94555       -3.76503
|  5> C          1.98721       -2.59045       -4.81898
|  6> N          0.74322       -3.01749       -4.91352
|  7> N          2.49964       -1.84860       -5.80324
|  8> H          3.30978       -1.29282       -5.55895
|  9> H          1.80103       -1.30430       -6.28913
| 10> H          3.71612       -2.62880       -3.82953
| 11> H          0.39583       -3.62775       -4.18502
| 12> H          0.03920       -2.45438       -5.37137
| 13> H          1.22098       -3.33251       -2.41386
| 14> H          2.27280       -2.00995       -1.96933
| 15> H          2.82798       -3.65908       -1.81056
| 16> *
| 17>
| 18> %MaxCore 64000
| 19>
| 20> %pal nprocs 18
| 21> end
| 22>
| 23> %scf
| 24>   MaxIter 150
| 25> end
| 26>
| 27>
| 28>                          ****END OF INPUT****

CARTESIAN COORDINATES (ANGSTROEM)
---------------------------------
  C      2.234470   -2.989750   -2.397620
  N      2.756800   -2.945550   -3.765030
  C      1.987210   -2.590450   -4.818980
  N      0.743220   -3.017490   -4.913520
  N      2.499640   -1.848600   -5.803240
  H      3.309780   -1.292820   -5.558950
  H      1.801030   -1.304300   -6.289130
  H      3.716120   -2.628800   -3.829530
  H      0.395830   -3.627750   -4.185020
  H      0.039200   -2.454380   -5.371370
  H      1.220980   -3.332510   -2.413860
  H      2.272800   -2.009950   -1.969330
  H      2.827980   -3.659080   -1.810560

 Total Charge           Charge          ....    1
 Multiplicity           Mult            ....    1
 Number of Electrons    NEL             ....   40
 Basis Dimension        Dim             ....  164

ORBITAL ENERGIES
----------------

  NO   OCC          E(Eh)            E(eV)
   0   2.0000     -14.673400      -399.2835
   1   2.0000     -14.669327      -399.1727
   2   2.0000     -14.669085      -399.1661
   3   2.0000     -10.640315      -289.5377
   4   2.0000     -10.498466      -285.6778
   5   2.0000      -1.338642       -36.4263
   6   2.0000      -1.221115       -33.2282
   7   2.0000      -1.216430       -33.1008
   8   2.0000      -1.015009       -27.6198
   9   2.0000      -0.941149       -25.6100
  10   2.0000      -0.897461       -24.4212
  11   2.0000      -0.859997       -23.4017
  12   2.0000      -0.809108       -22.0169
  13   2.0000      -0.791684       -21.5428
  14   2.0000      -0.751136       -20.4395
  15   2.0000      -0.744065       -20.2470
  16   2.0000      -0.697927       -18.9916
  17   2.0000      -0.681688       -18.5497
  18   2.0000      -0.590365       -16.0647
  19   2.0000      -0.555116       -15.1055
  20   0.0000      -0.119635        -3.2554
  21   0.0000      -0.083300        -2.2667
  22   0.0000      -0.044180        -1.2022
  23   0.0000      -0.034740        -0.9453
  24   0.0000      -0.009725        -0.2646

MULLIKEN ATOMIC CHARGES
-----------------------
   0 C :    1.043698
   1 N :   -0.614671
   2 C :    0.959253
   3 N :    0.012405
   4 N :   -0.085458
   5 H :    0.036010
   6 H :    0.079326
   7 H :   -0.132172
   8 H :    0.013761
   9 H :    0.008386
  10 H :   -0.169296
  11 H :   -0.037453
  12 H :   -0.113787
Sum of atomic charges:    1.0000000

LOEWDIN ATOMIC CHARGES
----------------------
   0 C :    0.258821
   1 N :    0.016457
   2 C :   -0.032927
   3 N :    0.275067
   4 N :    0.263314
   5 H :    0.038912
   6 H :    0.038504
   7 H :    0.051466
   8 H :    0.028628
   9 H :    0.051595
  10 H :   -0.013984
  11 H :    0.010815
  12 H :    0.013333

  Mayer bond orders larger than 0.100000
B(  0-C ,  1-N ) :   0.8492 B(  0-C , 10-H ) :   0.8512 B(  0-C , 11-H ) :   0.8453
B(  0-C , 12-H ) :   0.8389 B(  1-N ,  2-C ) :   1.0650 B(  1-N ,  4-N ) :   0.1207
B(  1-N ,  7-H ) :   1.2091 B(  1-N , 10-H ) :   0.1403 B(  1-N , 11-H ) :   0.1159
B(  1-N , 12-H ) :   0.1799 B(  2-C ,  3-N ) :   1.0638 B(  2-C ,  4-N ) :   1.0434
B(  2-C ,  7-H ) :  -0.1374 B(  3-N ,  4-N ) :   0.1396 B(  3-N ,  8-H ) :   0.9913
B(  3-N ,  9-H ) :   1.1821 B(  4-N ,  5-H ) :   0.9966 B(  4-N ,  6-H ) :   0.9893
B(  8-H ,  9-H ) :  -0.1438

Dispersion correction           -0.002421492
FINAL SINGLE POINT ENERGY      -244.841844599459

DIPOLE MOMENT
-------------
                                X             Y             Z
Electronic contribution:      0.26408      -0.05599      -3.01829
Nuclear contribution   :     -0.61773       0.88991       3.03801
                        -----------------------------------------
Total Dipole Moment    :     -0.35365       0.83392       0.01972
                        -----------------------------------------
Magnitude (a.u.)       :      0.90603
Magnitude (Debye)      :      2.30294

Rotational constants in cm-1:     0.302561     0.133407     0.098295
Rotational constants in MHz :  9070.558660  3999.431512  2946.819102

                             ****ORCA TERMINATED NORMALLY****
TOTAL RUN TIME: 0 days 0 hours 0 minutes 8 seconds 324 msec
