                         Program Version 5.0.0 -  RELEASE  -
|  1> !wB97X-D3 RIJCOSX def2-SVPD def2/J TightSCF
|  2> *xyz 0 1
|  3> C         -0.71189        0.84252       -4.21834
|  4> C         -0.39762       -0.20587       -5.28802
|  5> F          0.61717       -0.00535       -5.99827
|  6> O         -1.13317       -1.22138       -5.34147
|  7> H         -0.00939        1.64646       -4.28960
|  8> H         -0.64409        0.39449       -3.24902
|  9> H         -1.70192        1.21961       -4.36851
| 10> *
| 11>
| 12> %MaxCore 64000
| 13>
| 14> %pal nprocs 18
| 15> end
| 16>
| 17> %scf
| 18>   MaxIter 150
| 19> end
| 20>
| 21>
| 22>                          ****END OF INPUT****

CARTESIAN COORDINATES (ANGSTROEM)
---------------------------------
  C     -0.711890    0.842520   -4.218340
  C     -0.397620   -0.205870   -5.288020
  F      0.617170   -0.005350   -5.998270
  O     -1.133170   -1.221380   -5.341470
  H     -0.009390    1.646460   -4.289600
  H     -0.644090    0.394490   -3.249020
  H     -1.701920    1.219610   -4.368510

 Total Charge           Charge          ....    0
 Multiplicity           Mult            ....    1
 Number of Electrons    NEL             ....   32
 Basis Dimension        Dim             ....  110

ORBITAL ENERGIES
----------------

  NO   OCC          E(Eh)            E(eV)
   0   2.0000     -24.877884      -676.9617
   1   2.0000     -19.257613      -524.0263
   2   2.0000     -10.481430      -285.2142
   3   2.0000     -10.318667      -280.7852
   4   2.0000      -1.428686       -38.8765
   5   2.0000      -1.144715       -31.1493
   6   2.0000      -0.884974       -24.0814
   7   2.0000      -0.770643       -20.9703
   8   2.0000      -0.661028       -17.9875
   9   2.0000      -0.656282       -17.8583
  10   2.0000      -0.609990       -16.5987
  11   2.0000      -0.547925       -14.9098
  12   2.0000      -0.534674       -14.5492
  13   2.0000      -0.506089       -13.7714
  14   2.0000      -0.454851       -12.3771
  15   2.0000      -0.397204       -10.8085
  16   0.0000       0.050352         1.3702
  17   0.0000       0.082509         2.2452
  18   0.0000       0.123607         3.3635
  19   0.0000       0.159339         4.3358
  20   0.0000       0.161547         4.3959

MULLIKEN ATOMIC CHARGES
-----------------------
   0 C :    0.274582
   1 C :    0.432226
   2 F :   -0.349049
   3 O :   -0.483676
   4 H :    0.007854
   5 H :    0.060992
   6 H :    0.057070
Sum of atomic charges:    0.0000000

LOEWDIN ATOMIC CHARGES
----------------------
   0 C :    0.209346
   1 C :   -0.022974
   2 F :   -0.042021
   3 O :   -0.145903
   4 H :   -0.011275
   5 H :    0.006988
   6 H :    0.005838

  Mayer bond orders larger than 0.100000
B(  0-C ,  1-C ) :   1.2490 B(  0-C ,  4-H ) :   0.8989 B(  0-C ,  5-H ) :   0.8329
B(  0-C ,  6-H ) :   0.8257 B(  1-C ,  2-F ) :   0.8061 B(  1-C ,  3-O ) :   1.8284
B(  1-C ,  4-H ) :   0.1356 B(  1-C ,  5-H ) :   0.1211 B(  1-C ,  6-H ) :   0.1307

Dispersion correction           -0.000909835
FINAL SINGLE POINT ENERGY      -252.838331562763

DIPOLE MOMENT
-------------
                                X             Y             Z
Electronic contribution:      2.42160      -2.24517      -3.80381
Nuclear contribution   :     -2.12043       3.31297       4.29327
                        -----------------------------------------
Total Dipole Moment    :      0.30117       1.06780       0.48947
                        -----------------------------------------
Magnitude (a.u.)       :      1.21263
Magnitude (Debye)      :      3.08227

Rotational constants in cm-1:     0.368089     0.321934     0.177312
Rotational constants in MHz : 11035.034199  9651.332398  5315.666874

                             ****ORCA TERMINATED NORMALLY****
TOTAL RUN TIME: 0 days 0 hours 0 minutes 4 seconds 799 msec
