                         Program Version 5.0.0 -  RELEASE  -
|  1> !wB97X-D3 RIJCOSX def2-SVPD def2/J TightSCF
|  2> *xyz 0 1
|  3> C          2.23447       -2.98975       -2.39762
|  4> C          2.75680       -2.94555       -3.76503
|  5> C          1.98721       -2.59045       -4.81898
|  6> N          0.74322       -3.01749       -4.91352
|  7> N          2.49964       -1.84860       -5.80324
|  8> H          3.30978       -1.29282       -5.55895
|  9> H          1.80103       -1.30430       -6.28913
| 10> H          3.71612       -2.62880       -3.82953
| 11> H          0.39583       -3.62775       -4.18502
| 12> H          0.03920       -2.45438       -5.37137
| 13> H          1.22098       -3.33251       -2.41386
| 14> H          2.27280       -2.00995       -1.96933
| 15> H          2.82798       -3.65908       -1.81056
| 16> *
| 17>
| 18> %MaxCore 64000
| 19>
| 20> %pal nprocs 18
| 21> end
| 22>
| 23> %scf
| 24>   MaxIter 150
| 25> end
| 26>
| 27>
| 28>                          ****END OF INPUT****

CARTESIAN COORDINATES (ANGSTROEM)
---------------------------------
  C      2.234470   -2.989750   -2.397620
  C      2.756800   -2.945550   -3.765030
  C      1.987210   -2.590450   -4.818980
  N      0.743220   -3.017490   -4.913520
  N      2.499640   -1.848600   -5.803240
  H      3.309780   -1.292820   -5.558950
  H      1.801030   -1.304300   -6.289130
  H      3.716120   -2.628800   -3.829530
  H      0.395830   -3.627750   -4.185020
  H      0.039200   -2.454380   -5.371370
  H      1.220980   -3.332510   -2.413860
  H      2.272800   -2.009950   -1.969330
  H      2.827980   -3.659080   -1.810560

 Total Charge           Charge          ....    0
 Multiplicity           Mult            ....    1
 Number of Electrons    NEL             ....   40
 Basis Dimension        Dim             ....  164

ORBITAL ENERGIES
----------------

  NO   OCC          E(Eh)            E(eV)
   0   2.0000     -14.443614      -393.0307
   1   2.0000     -14.439388      -392.9157
   2   2.0000     -10.338977      -281.3379
   3   2.0000     -10.256679      -279.0984
   4   2.0000     -10.215171      -277.9689
   5   2.0000      -1.081634       -29.4328
   6   2.0000      -0.987047       -26.8589
   7   2.0000      -0.862444       -23.4683
   8   2.0000      -0.762192       -20.7403
   9   2.0000      -0.693817       -18.8797
  10   2.0000      -0.647233       -17.6121
  11   2.0000      -0.609474       -16.5846
  12   2.0000      -0.570193       -15.5157
  13   2.0000      -0.539126       -14.6704
  14   2.0000      -0.502715       -13.6796
  15   2.0000      -0.476220       -12.9586
  16   2.0000      -0.456246       -12.4151
  17   2.0000      -0.433728       -11.8023
  18   2.0000      -0.372021       -10.1232
  19   2.0000      -0.246101        -6.6968
  20   0.0000       0.085380         2.3233
  21   0.0000       0.111027         3.0212
  22   0.0000       0.125100         3.4041
  23   0.0000       0.138277         3.7627
  24   0.0000       0.154769         4.2115

MULLIKEN ATOMIC CHARGES
-----------------------
   0 C :    0.789452
   1 C :   -0.398615
   2 C :    0.309339
   3 N :   -0.019631
   4 N :   -0.070390
   5 H :    0.052540
   6 H :   -0.000220
   7 H :   -0.264400
   8 H :   -0.008858
   9 H :   -0.098330
  10 H :   -0.235698
  11 H :   -0.076217
  12 H :    0.021031
Sum of atomic charges:    0.0000000

LOEWDIN ATOMIC CHARGES
----------------------
   0 C :    0.085865
   1 C :   -0.058503
   2 C :   -0.239074
   3 N :    0.186388
   4 N :    0.179075
   5 H :    0.004170
   6 H :   -0.009640
   7 H :   -0.060895
   8 H :   -0.002711
   9 H :    0.000386
  10 H :   -0.043901
  11 H :   -0.018511
  12 H :   -0.022651

  Mayer bond orders larger than 0.100000
B(  0-C ,  1-C ) :   1.1083 B(  0-C ,  7-H ) :   0.1786 B(  0-C , 10-H ) :   0.7547
B(  0-C , 11-H ) :   0.8324 B(  0-C , 12-H ) :   0.7315 B(  1-C ,  2-C ) :   1.8541
B(  1-C ,  3-N ) :   0.1720 B(  1-C ,  4-N ) :   0.2004 B(  1-C ,  7-H ) :   0.8480
B(  1-C , 10-H ) :   0.2920 B(  1-C , 12-H ) :   0.2098 B(  2-C ,  3-N ) :   1.0471
B(  2-C ,  4-N ) :   1.0246 B(  2-C ,  7-H ) :   0.2492 B(  3-N ,  4-N ) :   0.1185
B(  3-N ,  8-H ) :   0.9920 B(  3-N ,  9-H ) :   1.1972 B(  4-N ,  5-H ) :   0.9475
B(  4-N ,  6-H ) :   0.9405 B(  8-H ,  9-H ) :  -0.1270 B( 10-H , 12-H ) :   0.1221

Dispersion correction           -0.002422996
FINAL SINGLE POINT ENERGY      -228.379029173176

DIPOLE MOMENT
-------------
                                X             Y             Z
Electronic contribution:     -0.29848       0.06139      -3.42554
Nuclear contribution   :     -0.47056       0.83150       3.15332
                        -----------------------------------------
Total Dipole Moment    :     -0.76904       0.89289      -0.27222
                        -----------------------------------------
Magnitude (a.u.)       :      1.20945
Magnitude (Debye)      :      3.07418

Rotational constants in cm-1:     0.307275     0.134774     0.099280
Rotational constants in MHz :  9211.860934  4040.421317  2976.324646

                             ****ORCA TERMINATED NORMALLY****
TOTAL RUN TIME: 0 days 0 hours 0 minutes 8 seconds 286 msec
