                         Program Version 5.0.0 -  RELEASE  -
|  1> !wB97X-D3 RIJCOSX def2-SVPD def2/J TightSCF
|  2> *xyz 0 1
|  3> C         -0.71189        0.84252       -4.21834
|  4> C         -0.39762       -0.20587       -5.28802
|  5> O          0.61717       -0.00535       -5.99827
|  6> F         -1.13317       -1.22138       -5.34147
|  7> H         -0.00939        1.64646       -4.28960
|  8> H         -0.64409        0.39449       -3.24902
|  9> H         -1.70192        1.21961       -4.36851
| 10> *
| 11>
| 12> %MaxCore 64000
| 13>
| 14> %pal nprocs 18
| 15> end
| 16>
| 17> %scf
| 18>   MaxIter 150
| 19> end
| 20>
| 21>
| 22>                          ****END OF INPUT****

CARTESIAN COORDINATES (ANGSTROEM)
---------------------------------
  C     -0.711890    0.842520   -4.218340
  C     -0.397620   -0.205870   -5.288020
  O      0.617170   -0.005350   -5.998270
  F     -1.133170   -1.221380   -5.341470
  H     -0.009390    1.646460   -4.289600
  H     -0.644090    0.394490   -3.249020
  H     -1.701920    1.219610   -4.368510

 Total Charge           Charge          ....    0
 Multiplicity           Mult            ....    1
 Number of Electrons    NEL             ....   32
 Basis Dimension        Dim             ....  110

ORBITAL ENERGIES
----------------

  NO   OCC          E(Eh)            E(eV)
   0   2.0000     -24.878412      -676.9760
   1   2.0000     -19.257422      -524.0211
   2   2.0000     -10.481107      -285.2054
   3   2.0000     -10.318372      -280.7772
   4   2.0000      -1.428638       -38.8752
   5   2.0000      -1.145056       -31.1586
   6   2.0000      -0.884518       -24.0690
   7   2.0000      -0.770659       -20.9707
   8   2.0000      -0.661662       -18.0047
   9   2.0000      -0.655870       -17.8471
  10   2.0000      -0.609479       -16.5848
  11   2.0000      -0.547094       -14.8872
  12   2.0000      -0.535283       -14.5658
  13   2.0000      -0.505950       -13.7676
  14   2.0000      -0.457424       -12.4471
  15   2.0000      -0.395180       -10.7534
  16   0.0000       0.053516         1.4562
  17   0.0000       0.082498         2.2449
  18   0.0000       0.123399         3.3579
  19   0.0000       0.156560         4.2602
  20   0.0000       0.164271         4.4700

MULLIKEN ATOMIC CHARGES
-----------------------
   0 C :    0.289712
   1 C :    0.445155
   2 O :   -0.466311
   3 F :   -0.370992
   4 H :   -0.013011
   5 H :    0.059174
   6 H :    0.056273
Sum of atomic charges:   -0.0000000

LOEWDIN ATOMIC CHARGES
----------------------
   0 C :    0.208542
   1 C :   -0.024077
   2 O :   -0.146059
   3 F :   -0.039940
   4 H :    0.000981
   5 H :    0.001440
   6 H :   -0.000887

  Mayer bond orders larger than 0.100000
B(  0-C ,  1-C ) :   1.2301 B(  0-C ,  4-H ) :   0.9134 B(  0-C ,  5-H ) :   0.8282
B(  0-C ,  6-H ) :   0.8238 B(  1-C ,  2-O ) :   1.8539 B(  1-C ,  3-F ) :   0.7689
B(  1-C ,  4-H ) :   0.1893 B(  1-C ,  5-H ) :   0.1074 B(  1-C ,  6-H ) :   0.1115

Dispersion correction           -0.000897078
FINAL SINGLE POINT ENERGY      -252.838392482978

DIPOLE MOMENT
-------------
                                X             Y             Z
Electronic contribution:     -0.44959      -4.24018      -2.72577
Nuclear contribution   :     -0.31181       4.56949       3.61460
                        -----------------------------------------
Total Dipole Moment    :     -0.76140       0.32931       0.88883
                        -----------------------------------------
Magnitude (a.u.)       :      1.21581
Magnitude (Debye)      :      3.09035

Rotational constants in cm-1:     0.370228     0.320104     0.177247
Rotational constants in MHz : 11099.151631  9596.483000  5313.726171

                             ****ORCA TERMINATED NORMALLY****
TOTAL RUN TIME: 0 days 0 hours 0 minutes 5 seconds 58 msec
