                         Program Version 5.0.0 -  RELEASE  -
|  1> !wB97X-D3 RIJCOSX def2-SVPD def2/J TightSCF
|  2> *xyz 0 1
|  3> C          2.23447       -2.98975       -2.39762
|  4> N          2.75680       -2.94555       -3.76503
|  5> C          1.98721       -2.59045       -4.81898
|  6> C          0.74322       -3.01749       -4.91352
|  7> N          2.49964       -1.84860       -5.80324
|  8> H          3.30978       -1.29282       -5.55895
|  9> H          1.80103       -1.30430       -6.28913
| 10> H          3.71612       -2.62880       -3.82953
| 11> H          0.39583       -3.62775       -4.18502
| 12> H          0.03920       -2.45438       -5.37137
| 13> H          1.22098       -3.33251       -2.41386
| 14> H          2.27280       -2.00995       -1.96933
| 15> H          2.82798       -3.65908       -1.81056
| 16> *
| 17>
| 18> %MaxCore 64000
| 19>
| 20> %pal nprocs 18
| 21> end
| 22>
| 23> %scf
| 24>   MaxIter 150
| 25> end
| 26>
| 27>
| 28>                          ****END OF INPUT****

CARTESIAN COORDINATES (ANGSTROEM)
---------------------------------
  C      2.234470   -2.989750   -2.397620
  N      2.756800   -2.945550   -3.765030
  C      1.987210   -2.590450   -4.818980
  C      0.743220   -3.017490   -4.913520
  N      2.499640   -1.848600   -5.803240
  H      3.309780   -1.292820   -5.558950
  H      1.801030   -1.304300   -6.289130
  H      3.716120   -2.628800   -3.829530
  H      0.395830   -3.627750   -4.185020
  H      0.039200   -2.454380   -5.371370
  H      1.220980   -3.332510   -2.413860
  H      2.272800   -2.009950   -1.969330
  H      2.827980   -3.659080   -1.810560

 Total Charge           Charge          ....    0
 Multiplicity           Mult            ....    1
 Number of Electrons    NEL             ....   40
 Basis Dimension        Dim             ....  164

ORBITAL ENERGIES
----------------

  NO   OCC          E(Eh)            E(eV)
   0   2.0000     -14.441490      -392.9729
   1   2.0000     -14.438877      -392.9018
   2   2.0000     -10.338420      -281.3227
   3   2.0000     -10.314451      -280.6705
   4   2.0000     -10.206857      -277.7427
   5   2.0000      -1.079159       -29.3654
   6   2.0000      -0.995649       -27.0930
   7   2.0000      -0.834116       -22.6975
   8   2.0000      -0.803935       -21.8762
   9   2.0000      -0.670795       -18.2533
  10   2.0000      -0.649291       -17.6681
  11   2.0000      -0.616774       -16.7833
  12   2.0000      -0.552869       -15.0443
  13   2.0000      -0.540215       -14.7000
  14   2.0000      -0.519283       -14.1304
  15   2.0000      -0.490267       -13.3408
  16   2.0000      -0.474047       -12.8995
  17   2.0000      -0.456642       -12.4259
  18   2.0000      -0.348901        -9.4941
  19   2.0000      -0.265398        -7.2218
  20   0.0000       0.086677         2.3586
  21   0.0000       0.111560         3.0357
  22   0.0000       0.125202         3.4069
  23   0.0000       0.134276         3.6538
  24   0.0000       0.155812         4.2399

MULLIKEN ATOMIC CHARGES
-----------------------
   0 C :    1.096389
   1 N :   -0.520117
   2 C :    0.388369
   3 C :    0.340338
   4 N :   -0.034420
   5 H :   -0.061660
   6 H :    0.059489
   7 H :   -0.266910
   8 H :   -0.168901
   9 H :   -0.377432
  10 H :   -0.187413
  11 H :   -0.100714
  12 H :   -0.167018
Sum of atomic charges:    0.0000000

LOEWDIN ATOMIC CHARGES
----------------------
   0 C :    0.212080
   1 N :   -0.047407
   2 C :   -0.244998
   3 C :    0.150374
   4 N :    0.176875
   5 H :   -0.011323
   6 H :    0.003220
   7 H :    0.011243
   8 H :   -0.102573
   9 H :   -0.090261
  10 H :   -0.027832
  11 H :   -0.014831
  12 H :   -0.014568

  Mayer bond orders larger than 0.100000
B(  0-C ,  1-N ) :   0.8484 B(  0-C , 10-H ) :   0.8554 B(  0-C , 11-H ) :   0.8189
B(  0-C , 12-H ) :   0.8049 B(  1-N ,  2-C ) :   1.0195 B(  1-N ,  3-C ) :   0.2183
B(  1-N ,  7-H ) :   1.1689 B(  1-N , 10-H ) :   0.1324 B(  1-N , 11-H ) :   0.1477
B(  1-N , 12-H ) :   0.1795 B(  2-C ,  3-C ) :   1.8062 B(  2-C ,  4-N ) :   0.9754
B(  2-C ,  8-H ) :   0.2466 B(  3-C ,  4-N ) :   0.2233 B(  3-C ,  8-H ) :   0.5784
B(  3-C ,  9-H ) :   0.9201 B(  4-N ,  5-H ) :   0.9634 B(  4-N ,  6-H ) :   0.9699
B(  8-H ,  9-H ) :   0.1430

Dispersion correction           -0.002419930
FINAL SINGLE POINT ENERGY      -228.370958807729

DIPOLE MOMENT
-------------
                                X             Y             Z
Electronic contribution:      1.53952       0.12363      -2.35144
Nuclear contribution   :     -0.87840       0.81693       2.92070
                        -----------------------------------------
Total Dipole Moment    :      0.66112       0.94056       0.56926
                        -----------------------------------------
Magnitude (a.u.)       :      1.28288
Magnitude (Debye)      :      3.26083

Rotational constants in cm-1:     0.323282     0.134248     0.100848
Rotational constants in MHz :  9691.753357  4024.663509  3023.338831

                             ****ORCA TERMINATED NORMALLY****
TOTAL RUN TIME: 0 days 0 hours 0 minutes 9 seconds 61 msec
