                         Program Version 5.0.0 -  RELEASE  -
|  1> !wB97X-D3 RIJCOSX def2-SVPD def2/J TightSCF
|  2> *xyz 0 1
|  3> C          2.23447       -2.98975       -2.39762
|  4> N          2.75680       -2.94555       -3.76503
|  5> C          1.98721       -2.59045       -4.81898
|  6> N          0.74322       -3.01749       -4.91352
|  7> C          2.49964       -1.84860       -5.80324
|  8> H          3.30978       -1.29282       -5.55895
|  9> H          1.80103       -1.30430       -6.28913
| 10> H          3.71612       -2.62880       -3.82953
| 11> H          0.39583       -3.62775       -4.18502
| 12> H          0.03920       -2.45438       -5.37137
| 13> H          1.22098       -3.33251       -2.41386
| 14> H          2.27280       -2.00995       -1.96933
| 15> H          2.82798       -3.65908       -1.81056
| 16> *
| 17>
| 18> %MaxCore 64000
| 19>
| 20> %pal nprocs 18
| 21> end
| 22>
| 23> %scf
| 24>   MaxIter 150
| 25> end
| 26>
| 27>
| 28>                          ****END OF INPUT****

CARTESIAN COORDINATES (ANGSTROEM)
---------------------------------
  C      2.234470   -2.989750   -2.397620
  N      2.756800   -2.945550   -3.765030
  C      1.987210   -2.590450   -4.818980
  N      0.743220   -3.017490   -4.913520
  C      2.499640   -1.848600   -5.803240
  H      3.309780   -1.292820   -5.558950
  H      1.801030   -1.304300   -6.289130
  H      3.716120   -2.628800   -3.829530
  H      0.395830   -3.627750   -4.185020
  H      0.039200   -2.454380   -5.371370
  H      1.220980   -3.332510   -2.413860
  H      2.272800   -2.009950   -1.969330
  H      2.827980   -3.659080   -1.810560

 Total Charge           Charge          ....    0
 Multiplicity           Mult            ....    1
 Number of Electrons    NEL             ....   40
 Basis Dimension        Dim             ....  164

ORBITAL ENERGIES
----------------

  NO   OCC          E(Eh)            E(eV)
   0   2.0000     -14.442223      -392.9929
   1   2.0000     -14.440930      -392.9577
   2   2.0000     -10.342669      -281.4383
   3   2.0000     -10.323728      -280.9229
   4   2.0000     -10.201879      -277.6072
   5   2.0000      -1.081644       -29.4330
   6   2.0000      -0.996027       -27.1033
   7   2.0000      -0.852703       -23.2032
   8   2.0000      -0.781343       -21.2614
   9   2.0000      -0.707881       -19.2624
  10   2.0000      -0.644289       -17.5320
  11   2.0000      -0.593616       -16.1531
  12   2.0000      -0.584514       -15.9054
  13   2.0000      -0.552101       -15.0234
  14   2.0000      -0.505136       -13.7455
  15   2.0000      -0.489060       -13.3080
  16   2.0000      -0.470863       -12.8128
  17   2.0000      -0.459300       -12.4982
  18   2.0000      -0.351594        -9.5674
  19   2.0000      -0.260785        -7.0963
  20   0.0000       0.083039         2.2596
  21   0.0000       0.115660         3.1473
  22   0.0000       0.122329         3.3287
  23   0.0000       0.133750         3.6395
  24   0.0000       0.155512         4.2317

MULLIKEN ATOMIC CHARGES
-----------------------
   0 C :    1.078033
   1 N :   -0.636135
   2 C :    0.276115
   3 N :    0.134773
   4 C :    0.460739
   5 H :   -0.156385
   6 H :   -0.385914
   7 H :   -0.138949
   8 H :   -0.109558
   9 H :   -0.066413
  10 H :   -0.199362
  11 H :   -0.077431
  12 H :   -0.179515
Sum of atomic charges:    0.0000000

LOEWDIN ATOMIC CHARGES
----------------------
   0 C :    0.206167
   1 N :   -0.044052
   2 C :   -0.239372
   3 N :    0.187810
   4 C :    0.132856
   5 H :   -0.103470
   6 H :   -0.103564
   7 H :    0.024865
   8 H :   -0.016219
   9 H :    0.016117
  10 H :   -0.032416
  11 H :   -0.014045
  12 H :   -0.014678

  Mayer bond orders larger than 0.100000
B(  0-C ,  1-N ) :   0.8543 B(  0-C , 10-H ) :   0.8331 B(  0-C , 11-H ) :   0.8276
B(  0-C , 12-H ) :   0.8190 B(  1-N ,  2-C ) :   1.0229 B(  1-N ,  4-C ) :   0.1583
B(  1-N ,  7-H ) :   1.1728 B(  1-N , 10-H ) :   0.1376 B(  1-N , 11-H ) :   0.1075
B(  1-N , 12-H ) :   0.1864 B(  2-C ,  3-N ) :   1.0715 B(  2-C ,  4-C ) :   1.9400
B(  2-C ,  5-H ) :   0.2073 B(  2-C ,  6-H ) :   0.2260 B(  3-N ,  4-C ) :   0.1996
B(  3-N ,  8-H ) :   1.0069 B(  3-N ,  9-H ) :   1.1502 B(  4-C ,  5-H ) :   0.7559
B(  4-C ,  6-H ) :   0.7300 B(  5-H ,  6-H ) :   0.2561 B(  8-H ,  9-H ) :  -0.1413

Dispersion correction           -0.002432462
FINAL SINGLE POINT ENERGY      -228.366046099174

DIPOLE MOMENT
-------------
                                X             Y             Z
Electronic contribution:     -0.09186      -1.03486      -1.47256
Nuclear contribution   :     -0.52265       1.05368       2.74049
                        -----------------------------------------
Total Dipole Moment    :     -0.61451       0.01882       1.26793
                        -----------------------------------------
Magnitude (a.u.)       :      1.40912
Magnitude (Debye)      :      3.58171

Rotational constants in cm-1:     0.310125     0.138772     0.101978
Rotational constants in MHz :  9297.312912  4160.277024  3057.230514

                             ****ORCA TERMINATED NORMALLY****
TOTAL RUN TIME: 0 days 0 hours 0 minutes 8 seconds 265 msec
