                         Program Version 5.0.0 -  RELEASE  -
|  1> !wB97X-D3 RIJCOSX def2-SVPD def2/J TightSCF xyzfile
|  2>
|  3> *xyzfile 0 1 D3.xyz
|  4>
|  5> %MaxCore 64000
|  6>
|  7> %pal nprocs 18
|  8> end
|  9>
| 10> %scf
| 11>   MaxIter 150
| 12> end
| 13>
| 14>
| 15>                          ****END OF INPUT****

CARTESIAN COORDINATES (ANGSTROEM)
---------------------------------
  C      2.234473   -2.989754   -2.397622
  N      2.756799   -2.945553   -3.765029
  C     -1.104325    0.251374   -2.860056
  C     -0.711893    0.842517   -4.218344
  H      0.154626    1.499800   -4.130909
  H     -1.538134    1.459222   -4.582671
  C     -0.397624   -0.205875   -5.288018
  C      1.987208   -2.590451   -4.818975
  N      0.743221   -3.017493   -4.913524
  C      2.499636   -1.848598   -5.803241
  H      3.309780   -1.292818   -5.558947
  H      1.801025   -1.304298   -6.289129
  H      3.716116   -2.628797   -3.829533
  H      0.395828   -3.627747   -4.185024
  H      0.039201   -2.454383   -5.371367
  F      0.617165   -0.005348   -5.998273
  O     -1.133173   -1.221380   -5.341465
  C      2.191199   -1.619503   -1.715492
  H      2.872783   -3.666368   -1.828014
  H      1.246188   -3.447444   -2.407842
  C      1.298729   -0.554314   -2.359773
  H      1.872917   -1.787955   -0.681310
  H      3.216809   -1.238432   -1.654428
  C     -0.196255   -0.863365   -2.325763
  H      1.612531   -0.371346   -3.393065
  H      1.480944    0.388638   -1.834444
  H     -0.404105   -1.761825   -2.909448
  H     -0.490439   -1.087880   -1.294131
  H     -1.143842    1.066711   -2.129680
  H     -2.114401   -0.156834   -2.930323

 Total Charge           Charge          ....    0
 Multiplicity           Mult            ....    1
 Number of Electrons    NEL             ....  102
 Basis Dimension        Dim             ....  402

ORBITAL ENERGIES
----------------

  NO   OCC          E(Eh)            E(eV)
   0   2.0000     -24.887866      -677.2333
   1   2.0000     -19.276512      -524.5406
   2   2.0000     -14.431146      -392.6915
   3   2.0000     -14.413857      -392.2210
   4   2.0000     -10.495294      -285.5915
   5   2.0000     -10.331957      -281.1468
   6   2.0000     -10.329968      -281.0927
   7   2.0000     -10.326283      -280.9924
   8   2.0000     -10.311498      -280.5901
   9   2.0000     -10.295910      -280.1659
  10   2.0000     -10.295650      -280.1589
  11   2.0000     -10.295487      -280.1544
  12   2.0000     -10.187771      -277.2233
  13   2.0000      -1.440584       -39.2003
  14   2.0000      -1.169770       -31.8311
  15   2.0000      -1.069446       -29.1011
  16   2.0000      -0.984848       -26.7991
  17   2.0000      -0.943676       -25.6787
  18   2.0000      -0.903229       -24.5781
  19   2.0000      -0.856335       -23.3021
  20   2.0000      -0.820173       -22.3180
  21   2.0000      -0.798522       -21.7289
  22   2.0000      -0.762992       -20.7621
  23   2.0000      -0.726485       -19.7687
  24   2.0000      -0.703845       -19.1526
  25   2.0000      -0.687516       -18.7082
  26   2.0000      -0.670290       -18.2395
  27   2.0000      -0.650587       -17.7034
  28   2.0000      -0.637171       -17.3383
  29   2.0000      -0.630162       -17.1476
  30   2.0000      -0.598747       -16.2927
  31   2.0000      -0.585602       -15.9350
  32   2.0000      -0.577004       -15.7011
  33   2.0000      -0.565211       -15.3802
  34   2.0000      -0.551960       -15.0196
  35   2.0000      -0.537218       -14.6184
  36   2.0000      -0.516977       -14.0677
  37   2.0000      -0.510777       -13.8990
  38   2.0000      -0.490942       -13.3592
  39   2.0000      -0.481632       -13.1059
  40   2.0000      -0.476635       -12.9699
  41   2.0000      -0.466867       -12.7041
  42   2.0000      -0.460427       -12.5288
  43   2.0000      -0.456812       -12.4305
  44   2.0000      -0.442704       -12.0466
  45   2.0000      -0.430097       -11.7035
  46   2.0000      -0.428266       -11.6537
  47   2.0000      -0.420109       -11.4317
  48   2.0000      -0.408202       -11.1078
  49   2.0000      -0.335426        -9.1274
  50   2.0000      -0.248339        -6.7576
  51   0.0000       0.030675         0.8347
  52   0.0000       0.079492         2.1631
  53   0.0000       0.092435         2.5153
  54   0.0000       0.096600         2.6286
  55   0.0000       0.105592         2.8733

MULLIKEN ATOMIC CHARGES
-----------------------
   0 C :    0.817161
   1 N :   -0.544380
   2 C :    0.501341
   3 C :    0.048444
   4 H :    0.202158
   5 H :   -0.167059
   6 C :    0.750245
   7 C :    0.267860
   8 N :    0.315888
   9 C :    0.796400
  10 H :   -0.095032
  11 H :   -0.650985
  12 H :   -0.116614
  13 H :   -0.018649
  14 H :   -0.346266
  15 F :   -0.426101
  16 O :   -0.598806
  17 C :    0.298128
  18 H :   -0.329479
  19 H :   -0.012260
  20 C :   -0.080493
  21 H :    0.035708
  22 H :   -0.086246
  23 C :   -0.070265
  24 H :   -0.056932
  25 H :   -0.199016
  26 H :   -0.129181
  27 H :   -0.134794
  28 H :   -0.060796
  29 H :    0.090021
Sum of atomic charges:   -0.0000000

LOEWDIN ATOMIC CHARGES
----------------------
   0 C :    0.053035
   1 N :   -0.001744
   2 C :   -0.011624
   3 C :    0.056423
   4 H :    0.029306
   5 H :    0.043833
   6 C :    0.049156
   7 C :   -0.227398
   8 N :    0.227025
   9 C :    0.144199
  10 H :   -0.095762
  11 H :   -0.144480
  12 H :    0.026120
  13 H :   -0.007145
  14 H :   -0.087990
  15 F :   -0.033645
  16 O :   -0.126856
  17 C :   -0.018800
  18 H :    0.018418
  19 H :    0.001835
  20 C :   -0.024203
  21 H :    0.022101
  22 H :    0.022513
  23 C :   -0.025717
  24 H :    0.004873
  25 H :    0.026361
  26 H :   -0.007790
  27 H :    0.029257
  28 H :    0.028913
  29 H :    0.029786

  Mayer bond orders larger than 0.100000
B(  0-C ,  1-N ) :   0.9031 B(  0-C , 17-C ) :   1.1013 B(  0-C , 18-H ) :   0.8307
B(  0-C , 19-H ) :   0.7794 B(  0-C , 21-H ) :   0.1329 B(  0-C , 22-H ) :   0.1429
B(  1-N ,  7-C ) :   0.9962 B(  1-N ,  9-C ) :   0.1904 B(  1-N , 12-H ) :   1.1360
B(  1-N , 18-H ) :   0.2183 B(  1-N , 19-H ) :   0.1320 B(  2-C ,  3-C ) :   1.1934
B(  2-C ,  5-H ) :   0.1666 B(  2-C , 23-C ) :   1.2504 B(  2-C , 28-H ) :   0.8061
B(  2-C , 29-H ) :   0.6558 B(  3-C ,  4-H ) :   0.8215 B(  3-C ,  5-H ) :   0.8066
B(  3-C ,  6-C ) :   1.1909 B(  3-C , 28-H ) :   0.1384 B(  4-H ,  6-C ) :   0.1561
B(  5-H ,  6-C ) :   0.1818 B(  6-C , 15-F ) :   0.6463 B(  6-C , 16-O ) :   1.6387
B(  7-C ,  8-N ) :   0.9635 B(  7-C ,  9-C ) :   2.0047 B(  7-C , 10-H ) :   0.3176
B(  7-C , 11-H ) :   0.3410 B(  7-C , 12-H ) :  -0.1105 B(  8-N ,  9-C ) :   0.2046
B(  8-N , 13-H ) :   0.9224 B(  8-N , 14-H ) :   1.0312 B(  9-C , 10-H ) :   0.4823
B(  9-C , 11-H ) :   0.1713 B( 10-H , 11-H ) :   0.2987 B( 11-H , 15-F ) :   0.1822
B( 13-H , 14-H ) :  -0.2195 B( 14-H , 16-O ) :   0.1506 B( 17-C , 18-H ) :   0.1038
B( 17-C , 19-H ) :   0.1276 B( 17-C , 20-C ) :   1.2280 B( 17-C , 21-H ) :   0.8280
B( 17-C , 22-H ) :   0.7305 B( 17-C , 24-H ) :   0.1040 B( 18-H , 19-H ) :  -0.1275
B( 20-C , 21-H ) :   0.1511 B( 20-C , 22-H ) :   0.2410 B( 20-C , 23-C ) :   1.2637
B( 20-C , 24-H ) :   0.9401 B( 20-C , 25-H ) :   0.8557 B( 20-C , 26-H ) :   0.1437
B( 20-C , 27-H ) :   0.2049 B( 23-C , 24-H ) :   0.1293 B( 23-C , 25-H ) :   0.1855
B( 23-C , 26-H ) :   0.9562 B( 23-C , 27-H ) :   0.7864 B( 23-C , 28-H ) :   0.1647
B( 23-C , 29-H ) :   0.2436 B( 26-H , 27-H ) :   0.1098

Dispersion correction           -0.015940473
FINAL SINGLE POINT ENERGY      -637.119172973465

DIPOLE MOMENT
-------------
                                X             Y             Z
Electronic contribution:     -2.87491       1.38064     -12.70303
Nuclear contribution   :      2.27881      -0.10762      14.43322
                        -----------------------------------------
Total Dipole Moment    :     -0.59610       1.27302       1.73018
                        -----------------------------------------
Magnitude (a.u.)       :      2.22923
Magnitude (Debye)      :      5.66624

Rotational constants in cm-1:     0.033336     0.023673     0.017062
Rotational constants in MHz :   999.388459   709.685364   511.514310

                             ****ORCA TERMINATED NORMALLY****
TOTAL RUN TIME: 0 days 0 hours 1 minutes 18 seconds 379 msec
