                         Program Version 5.0.0 -  RELEASE  -
|  1> !wB97X-D3 RIJCOSX def2-SVPD def2/J TightSCF xyzfile
|  2>
|  3> *xyzfile 0 1 D6.xyz
|  4>
|  5> %MaxCore 64000
|  6>
|  7> %pal nprocs 18
|  8> end
|  9>
| 10> %scf
| 11>   MaxIter 150
| 12> end
| 13>
| 14>
| 15>                          ****END OF INPUT****

CARTESIAN COORDINATES (ANGSTROEM)
---------------------------------
  C      2.234473   -2.989754   -2.397622
  N      2.756799   -2.945553   -3.765029
  C     -1.104325    0.251374   -2.860056
  C     -0.711893    0.842517   -4.218344
  H      0.154626    1.499800   -4.130909
  H     -1.538134    1.459222   -4.582671
  C     -0.397624   -0.205875   -5.288018
  C      1.987208   -2.590451   -4.818975
  N      0.743221   -3.017493   -4.913524
  C      2.499636   -1.848598   -5.803241
  H      3.309780   -1.292818   -5.558947
  H      1.801025   -1.304298   -6.289129
  H      3.716116   -2.628797   -3.829533
  H      0.395828   -3.627747   -4.185024
  H      0.039201   -2.454383   -5.371367
  O      0.617165   -0.005348   -5.998273
  F     -1.133173   -1.221380   -5.341465
  C      2.191199   -1.619503   -1.715492
  H      2.872783   -3.666368   -1.828014
  H      1.246188   -3.447444   -2.407842
  C      1.298729   -0.554314   -2.359773
  H      1.872917   -1.787955   -0.681310
  H      3.216809   -1.238432   -1.654428
  C     -0.196255   -0.863365   -2.325763
  H      1.612531   -0.371346   -3.393065
  H      1.480944    0.388638   -1.834444
  H     -0.404105   -1.761825   -2.909448
  H     -0.490439   -1.087880   -1.294131
  H     -1.143842    1.066711   -2.129680
  H     -2.114401   -0.156834   -2.930323

 Total Charge           Charge          ....    0
 Multiplicity           Mult            ....    1
 Number of Electrons    NEL             ....  102
 Basis Dimension        Dim             ....  402

ORBITAL ENERGIES
----------------

  NO   OCC          E(Eh)            E(eV)
   0   2.0000     -24.898352      -677.5186
   1   2.0000     -19.267169      -524.2863
   2   2.0000     -14.428899      -392.6303
   3   2.0000     -14.425848      -392.5473
   4   2.0000     -10.485887      -285.3355
   5   2.0000     -10.328458      -281.0516
   6   2.0000     -10.325835      -280.9802
   7   2.0000     -10.325368      -280.9676
   8   2.0000     -10.313632      -280.6482
   9   2.0000     -10.300678      -280.2957
  10   2.0000     -10.294573      -280.1296
  11   2.0000     -10.293531      -280.1012
  12   2.0000     -10.178508      -276.9713
  13   2.0000      -1.450987       -39.4834
  14   2.0000      -1.157448       -31.4958
  15   2.0000      -1.070703       -29.1353
  16   2.0000      -0.988849       -26.9080
  17   2.0000      -0.946220       -25.7479
  18   2.0000      -0.902681       -24.5632
  19   2.0000      -0.853661       -23.2293
  20   2.0000      -0.820137       -22.3171
  21   2.0000      -0.793604       -21.5951
  22   2.0000      -0.772218       -21.0131
  23   2.0000      -0.726094       -19.7580
  24   2.0000      -0.713821       -19.4241
  25   2.0000      -0.689681       -18.7672
  26   2.0000      -0.674739       -18.3606
  27   2.0000      -0.667401       -18.1609
  28   2.0000      -0.634490       -17.2654
  29   2.0000      -0.614442       -16.7198
  30   2.0000      -0.597868       -16.2688
  31   2.0000      -0.585719       -15.9382
  32   2.0000      -0.573128       -15.5956
  33   2.0000      -0.563748       -15.3404
  34   2.0000      -0.549038       -14.9401
  35   2.0000      -0.539167       -14.6715
  36   2.0000      -0.517161       -14.0727
  37   2.0000      -0.510645       -13.8954
  38   2.0000      -0.489818       -13.3286
  39   2.0000      -0.483005       -13.1432
  40   2.0000      -0.479738       -13.0543
  41   2.0000      -0.469268       -12.7694
  42   2.0000      -0.464663       -12.6441
  43   2.0000      -0.457757       -12.4562
  44   2.0000      -0.435375       -11.8472
  45   2.0000      -0.428837       -11.6692
  46   2.0000      -0.427250       -11.6261
  47   2.0000      -0.419868       -11.4252
  48   2.0000      -0.384813       -10.4713
  49   2.0000      -0.339158        -9.2290
  50   2.0000      -0.242952        -6.6110
  51   0.0000       0.039097         1.0639
  52   0.0000       0.076076         2.0701
  53   0.0000       0.091795         2.4979
  54   0.0000       0.094964         2.5841
  55   0.0000       0.106407         2.8955

MULLIKEN ATOMIC CHARGES
-----------------------
   0 C :    0.821171
   1 N :   -0.549406
   2 C :    0.495201
   3 C :    0.097622
   4 H :    0.197903
   5 H :   -0.178883
   6 C :    0.632847
   7 C :    0.240144
   8 N :    0.315523
   9 C :    0.778256
  10 H :   -0.098563
  11 H :   -0.583958
  12 H :   -0.111303
  13 H :   -0.022556
  14 H :   -0.333779
  15 O :   -0.468271
  16 F :   -0.469277
  17 C :    0.312498
  18 H :   -0.332655
  19 H :   -0.020426
  20 C :   -0.063490
  21 H :    0.029150
  22 H :   -0.084702
  23 C :   -0.034394
  24 H :   -0.056212
  25 H :   -0.208967
  26 H :   -0.168894
  27 H :   -0.120516
  28 H :   -0.069730
  29 H :    0.055667
Sum of atomic charges:    0.0000000

LOEWDIN ATOMIC CHARGES
----------------------
   0 C :    0.051120
   1 N :   -0.003524
   2 C :   -0.022203
   3 C :    0.061227
   4 H :    0.038431
   5 H :    0.040644
   6 C :    0.036143
   7 C :   -0.228849
   8 N :    0.224193
   9 C :    0.152969
  10 H :   -0.089922
  11 H :   -0.161906
  12 H :    0.026697
  13 H :   -0.009162
  14 H :   -0.057598
  15 O :   -0.120821
  16 F :   -0.037873
  17 C :   -0.019074
  18 H :    0.018046
  19 H :   -0.000080
  20 C :   -0.020658
  21 H :    0.021112
  22 H :    0.023285
  23 C :   -0.029944
  24 H :    0.009373
  25 H :    0.027451
  26 H :   -0.010738
  27 H :    0.028748
  28 H :    0.028441
  29 H :    0.024471

  Mayer bond orders larger than 0.100000
B(  0-C ,  1-N ) :   0.9077 B(  0-C , 17-C ) :   1.0975 B(  0-C , 18-H ) :   0.8309
B(  0-C , 19-H ) :   0.7788 B(  0-C , 21-H ) :   0.1344 B(  0-C , 22-H ) :   0.1434
B(  1-N ,  7-C ) :   0.9895 B(  1-N ,  9-C ) :   0.1953 B(  1-N , 12-H ) :   1.1292
B(  1-N , 18-H ) :   0.2187 B(  1-N , 19-H ) :   0.1328 B(  2-C ,  3-C ) :   1.1644
B(  2-C ,  5-H ) :   0.1605 B(  2-C , 23-C ) :   1.2391 B(  2-C , 28-H ) :   0.8201
B(  2-C , 29-H ) :   0.6634 B(  3-C ,  4-H ) :   0.8359 B(  3-C ,  5-H ) :   0.8151
B(  3-C ,  6-C ) :   1.1701 B(  3-C , 28-H ) :   0.1297 B(  4-H ,  6-C ) :   0.1938
B(  5-H ,  6-C ) :   0.1824 B(  6-C , 15-O ) :   1.7525 B(  6-C , 16-F ) :   0.5585
B(  7-C ,  8-N ) :   0.9527 B(  7-C ,  9-C ) :   2.0247 B(  7-C , 10-H ) :   0.3249
B(  7-C , 11-H ) :   0.3495 B(  7-C , 12-H ) :  -0.1136 B(  8-N ,  9-C ) :   0.2118
B(  8-N , 13-H ) :   0.9386 B(  8-N , 14-H ) :   1.0277 B(  9-C , 10-H ) :   0.4685
B(  9-C , 11-H ) :   0.2309 B( 10-H , 11-H ) :   0.3248 B( 11-H , 15-O ) :   0.2003
B( 13-H , 14-H ) :  -0.2081 B( 17-C , 18-H ) :   0.1029 B( 17-C , 19-H ) :   0.1289
B( 17-C , 20-C ) :   1.2218 B( 17-C , 21-H ) :   0.8253 B( 17-C , 22-H ) :   0.7287
B( 17-C , 24-H ) :   0.1056 B( 18-H , 19-H ) :  -0.1283 B( 20-C , 21-H ) :   0.1502
B( 20-C , 22-H ) :   0.2446 B( 20-C , 23-C ) :   1.2702 B( 20-C , 24-H ) :   0.9362
B( 20-C , 25-H ) :   0.8615 B( 20-C , 26-H ) :   0.1553 B( 20-C , 27-H ) :   0.2069
B( 23-C , 24-H ) :   0.1285 B( 23-C , 25-H ) :   0.1838 B( 23-C , 26-H ) :   0.9200
B( 23-C , 27-H ) :   0.7963 B( 23-C , 28-H ) :   0.1642 B( 23-C , 29-H ) :   0.2395
B( 28-H , 29-H ) :  -0.1076

Dispersion correction           -0.015903772
FINAL SINGLE POINT ENERGY      -637.108867811600

DIPOLE MOMENT
-------------
                                X             Y             Z
Electronic contribution:     -5.74283      -0.67209     -11.66243
Nuclear contribution   :      4.34606       1.32859      13.65749
                        -----------------------------------------
Total Dipole Moment    :     -1.39677       0.65650       1.99506
                        -----------------------------------------
Magnitude (a.u.)       :      2.52234
Magnitude (Debye)      :      6.41129

Rotational constants in cm-1:     0.033551     0.023540     0.017085
Rotational constants in MHz :  1005.818710   705.725032   512.192443

                             ****ORCA TERMINATED NORMALLY****
TOTAL RUN TIME: 0 days 0 hours 1 minutes 34 seconds 516 msec
