                         Program Version 5.0.0 -  RELEASE  -
|  1> !BLYP D3BJ RIJCOSX def2-SVPD def2/J TightSCF
|  2> *xyz -1 1
|  3> C          3.90595        2.81985       -3.75292
|  4> C          3.80351        1.37472       -3.26081
|  5> C          3.93993        0.32036       -4.36773
|  6> H          4.10504       -0.65508       -3.90773
|  7> H          3.02280        0.28052       -4.95712
|  8> C          5.10585        0.66802       -5.30546
|  9> H          4.57483        1.21516       -2.50044
| 10> H          2.84351        1.26085       -2.75146
| 11> O          4.80913        1.15019       -6.41436
| 12> O          6.26737        0.56500       -4.81948
| 13> H          3.15892        2.99660       -4.49832
| 14> H          4.87575        2.98549       -4.17357
| 15> H          3.75481        3.48808       -2.93101
| 16> *
| 17>
| 18> %MaxCore 64000
| 19>
| 20> %pal nprocs 4
| 21> end
| 22>
| 23> %scf
| 24>   MaxIter 150
| 25> end
| 26>
| 27>
| 28>                          ****END OF INPUT****

CARTESIAN COORDINATES (ANGSTROEM)
---------------------------------
  C      3.905950    2.819850   -3.752920
  C      3.803510    1.374720   -3.260810
  C      3.939930    0.320360   -4.367730
  H      4.105040   -0.655080   -3.907730
  H      3.022800    0.280520   -4.957120
  C      5.105850    0.668020   -5.305460
  H      4.574830    1.215160   -2.500440
  H      2.843510    1.260850   -2.751460
  O      4.809130    1.150190   -6.414360
  O      6.267370    0.565000   -4.819480
  H      3.158920    2.996600   -4.498320
  H      4.875750    2.985490   -4.173570
  H      3.754810    3.488080   -2.931010

 Total Charge           Charge          ....   -1
 Multiplicity           Mult            ....    1
 Number of Electrons    NEL             ....   48
 Basis Dimension        Dim             ....  182

ORBITAL ENERGIES
----------------

  NO   OCC          E(Eh)            E(eV)
   0   2.0000     -18.537279      -504.4250
   1   2.0000     -18.534204      -504.3413
   2   2.0000      -9.805414      -266.8189
   3   2.0000      -9.773754      -265.9574
   4   2.0000      -9.762883      -265.6616
   5   2.0000      -9.747396      -265.2401
   6   2.0000      -0.722686       -19.6653
   7   2.0000      -0.635504       -17.2929
   8   2.0000      -0.549787       -14.9605
   9   2.0000      -0.459891       -12.5143
  10   2.0000      -0.372653       -10.1404
  11   2.0000      -0.268451        -7.3049
  12   2.0000      -0.250024        -6.8035
  13   2.0000      -0.233504        -6.3540
  14   2.0000      -0.199848        -5.4382
  15   2.0000      -0.178704        -4.8628
  16   2.0000      -0.164096        -4.4653
  17   2.0000      -0.156300        -4.2531
  18   2.0000      -0.147885        -4.0242
  19   2.0000      -0.128148        -3.4871
  20   2.0000      -0.121009        -3.2928
  21   2.0000      -0.015004        -0.4083
  22   2.0000       0.001424         0.0388
  23   2.0000       0.015257         0.4152
  24   0.0000       0.130614         3.5542
  25   0.0000       0.155740         4.2379
  26   0.0000       0.170912         4.6508
  27   0.0000       0.182753         4.9730
  28   0.0000       0.201356         5.4792

MULLIKEN ATOMIC CHARGES
-----------------------
   0 C :    1.051132
   1 C :   -0.188277
   2 C :    0.538576
   3 H :   -0.192460
   4 H :   -0.140854
   5 C :    0.150720
   6 H :   -0.148531
   7 H :   -0.333607
   8 O :   -0.539375
   9 O :   -0.619919
  10 H :   -0.165929
  11 H :   -0.120569
  12 H :   -0.290908
Sum of atomic charges:   -1.0000000

LOEWDIN ATOMIC CHARGES
----------------------
   0 C :    0.124545
   1 C :   -0.078375
   2 C :    0.008155
   3 H :   -0.005375
   4 H :   -0.007046
   5 C :   -0.337848
   6 H :    0.006652
   7 H :   -0.011512
   8 O :   -0.295525
   9 O :   -0.308802
  10 H :   -0.025786
  11 H :   -0.023641
  12 H :   -0.045441

  Mayer bond orders larger than 0.100000
B(  0-C ,  1-C ) :   1.3239 B(  0-C ,  6-H ) :   0.1179 B(  0-C ,  7-H ) :   0.1408
B(  0-C , 10-H ) :   0.6779 B(  0-C , 11-H ) :   0.7252 B(  0-C , 12-H ) :   0.6292
B(  1-C ,  2-C ) :   1.2061 B(  1-C ,  3-H ) :   0.1860 B(  1-C ,  4-H ) :   0.1962
B(  1-C ,  6-H ) :   0.8363 B(  1-C ,  7-H ) :   0.8592 B(  1-C , 10-H ) :   0.2607
B(  1-C , 11-H ) :   0.2711 B(  1-C , 12-H ) :   0.2947 B(  2-C ,  3-H ) :   0.7483
B(  2-C ,  4-H ) :   0.7838 B(  2-C ,  5-C ) :   0.9927 B(  2-C ,  6-H ) :   0.1313
B(  3-H ,  5-C ) :   0.1513 B(  4-H ,  5-C ) :   0.2299 B(  5-C ,  8-O ) :   1.5817
B(  5-C ,  9-O ) :   1.5567

Dispersion correction           -0.020638950
FINAL SINGLE POINT ENERGY      -306.856919272558

DIPOLE MOMENT
-------------
                                X             Y             Z
Electronic contribution:      4.20811      -2.84182      -4.86926
Nuclear contribution   :     -5.80393       3.20473       6.46101
                        -----------------------------------------
Total Dipole Moment    :     -1.59582       0.36290       1.59175
                        -----------------------------------------
Magnitude (a.u.)       :      2.28298
Magnitude (Debye)      :      5.80287

Rotational constants in cm-1:     0.184459     0.088019     0.082330
Rotational constants in MHz :  5529.929668  2638.753248  2468.201746

                             ****ORCA TERMINATED NORMALLY****
TOTAL RUN TIME: 0 days 0 hours 0 minutes 6 seconds 605 msec
