                         Program Version 5.0.0 -  RELEASE  -
|  1> !BLYP D3BJ RIJCOSX def2-SVPD def2/J TightSCF
|  2> *xyz 1 1
|  3> C          3.90595        2.81985       -3.75292
|  4> N          5.29562        3.13151       -4.10533
|  5> C          3.80351        1.37472       -3.26081
|  6> C          3.93993        0.32036       -4.36773
|  7> C          5.70862        3.46889       -5.32419
|  8> N          6.90470        3.03895       -5.71708
|  9> N          4.98188        4.29357       -6.09746
| 10> H          5.00055        4.10131       -7.08776
| 11> H          4.08469        4.59690       -5.73965
| 12> H          5.96336        2.52611       -3.64239
| 13> H          7.04716        2.06686       -5.47360
| 14> H          7.19815        3.30799       -6.64523
| 15> H          3.28202        2.94919       -4.64026
| 16> H          3.56525        3.51457       -2.98252
| 17> H          4.57483        1.21516       -2.50044
| 18> H          2.84351        1.26085       -2.75146
| 19> H          3.18417        0.48061       -5.10803
| 20> H          3.82485       -0.65632       -3.94614
| 21> H          4.90589        0.40174       -4.82073
| 22> *
| 23>
| 24> %MaxCore 64000
| 25>
| 26> %pal nprocs 4
| 27> end
| 28>
| 29> %scf
| 30>   MaxIter 150
| 31> end
| 32>
| 33>
| 34>                          ****END OF INPUT****

CARTESIAN COORDINATES (ANGSTROEM)
---------------------------------
  C      3.905950    2.819850   -3.752920
  N      5.295620    3.131510   -4.105330
  C      3.803510    1.374720   -3.260810
  C      3.939930    0.320360   -4.367730
  C      5.708620    3.468890   -5.324190
  N      6.904700    3.038950   -5.717080
  N      4.981880    4.293570   -6.097460
  H      5.000550    4.101310   -7.087760
  H      4.084690    4.596900   -5.739650
  H      5.963360    2.526110   -3.642390
  H      7.047160    2.066860   -5.473600
  H      7.198150    3.307990   -6.645230
  H      3.282020    2.949190   -4.640260
  H      3.565250    3.514570   -2.982520
  H      4.574830    1.215160   -2.500440
  H      2.843510    1.260850   -2.751460
  H      3.184170    0.480610   -5.108030
  H      3.824850   -0.656320   -3.946140
  H      4.905890    0.401740   -4.820730

 Total Charge           Charge          ....    1
 Multiplicity           Mult            ....    1
 Number of Electrons    NEL             ....   56
 Basis Dimension        Dim             ....  236

ORBITAL ENERGIES
----------------

  NO   OCC          E(Eh)            E(eV)
   0   2.0000     -14.248876      -387.7316
   1   2.0000     -14.247442      -387.6926
   2   2.0000     -14.246151      -387.6575
   3   2.0000     -10.246448      -278.8200
   4   2.0000     -10.126979      -275.5691
   5   2.0000     -10.074026      -274.1282
   6   2.0000     -10.050459      -273.4869
   7   2.0000      -1.118848       -30.4454
   8   2.0000      -1.014172       -27.5970
   9   2.0000      -1.006995       -27.4017
  10   2.0000      -0.861888       -23.4532
  11   2.0000      -0.789629       -21.4869
  12   2.0000      -0.754203       -20.5229
  13   2.0000      -0.720317       -19.6008
  14   2.0000      -0.701842       -19.0981
  15   2.0000      -0.674632       -18.3577
  16   2.0000      -0.644855       -17.5474
  17   2.0000      -0.634325       -17.2609
  18   2.0000      -0.592811       -16.1312
  19   2.0000      -0.580438       -15.7945
  20   2.0000      -0.538839       -14.6626
  21   2.0000      -0.533911       -14.5284
  22   2.0000      -0.510809       -13.8998
  23   2.0000      -0.468388       -12.7455
  24   2.0000      -0.451674       -12.2907
  25   2.0000      -0.450991       -12.2721
  26   2.0000      -0.441772       -12.0212
  27   2.0000      -0.414607       -11.2820
  28   0.0000      -0.221129        -6.0172
  29   0.0000      -0.176928        -4.8145
  30   0.0000      -0.147635        -4.0174
  31   0.0000      -0.131147        -3.5687
  32   0.0000      -0.116881        -3.1805

MULLIKEN ATOMIC CHARGES
-----------------------
   0 C :    0.992663
   1 N :   -0.159513
   2 C :   -0.004077
   3 C :    1.278484
   4 C :    0.497246
   5 N :    0.321212
   6 N :    0.281267
   7 H :   -0.096995
   8 H :   -0.052350
   9 H :   -0.143711
  10 H :   -0.094448
  11 H :   -0.065127
  12 H :   -0.145810
  13 H :   -0.485170
  14 H :   -0.178239
  15 H :   -0.264908
  16 H :   -0.070741
  17 H :   -0.173577
  18 H :   -0.436206
Sum of atomic charges:    1.0000000

LOEWDIN ATOMIC CHARGES
----------------------
   0 C :    0.076979
   1 N :    0.080219
   2 C :   -0.034717
   3 C :    0.160565
   4 C :   -0.081738
   5 N :    0.293711
   6 N :    0.303767
   7 H :    0.031707
   8 H :    0.018969
   9 H :    0.038793
  10 H :    0.025117
  11 H :    0.031490
  12 H :    0.019894
  13 H :    0.033084
  14 H :    0.024505
  15 H :    0.034490
  16 H :   -0.012843
  17 H :   -0.004622
  18 H :   -0.039370

  Mayer bond orders larger than 0.100000
B(  0-C ,  1-N ) :   0.9687 B(  0-C ,  2-C ) :   1.1508 B(  0-C , 12-H ) :   0.6655
B(  0-C , 13-H ) :   0.7718 B(  0-C , 15-H ) :   0.1998 B(  1-N ,  2-C ) :   0.1319
B(  1-N ,  4-C ) :   1.2406 B(  1-N ,  5-N ) :   0.2063 B(  1-N ,  6-N ) :   0.1023
B(  1-N ,  9-H ) :   1.0808 B(  1-N , 12-H ) :   0.1387 B(  1-N , 13-H ) :   0.1367
B(  2-C ,  3-C ) :   1.2219 B(  2-C , 14-H ) :   0.8383 B(  2-C , 15-H ) :   0.8578
B(  2-C , 16-H ) :   0.2650 B(  2-C , 17-H ) :   0.2729 B(  2-C , 18-H ) :   0.2913
B(  3-C , 16-H ) :   0.6410 B(  3-C , 17-H ) :   0.6364 B(  3-C , 18-H ) :   0.6384
B(  4-C ,  5-N ) :   1.0680 B(  4-C ,  6-N ) :   1.0704 B(  4-C ,  9-H ) :  -0.1951
B(  5-N ,  6-N ) :   0.1391 B(  5-N , 10-H ) :   1.0230 B(  5-N , 11-H ) :   0.9921
B(  6-N ,  7-H ) :   1.1349 B(  6-N ,  8-H ) :   0.9588 B(  7-H ,  8-H ) :  -0.1306
B( 10-H , 11-H ) :  -0.1029 B( 12-H , 13-H ) :  -0.1648 B( 16-H , 18-H ) :   0.1341

Dispersion correction           -0.031880748
FINAL SINGLE POINT ENERGY      -323.363921366473

DIPOLE MOMENT
-------------
                                X             Y             Z
Electronic contribution:      4.01599       5.70414      -2.01968
Nuclear contribution   :     -3.60155      -5.39511       0.90505
                        -----------------------------------------
Total Dipole Moment    :      0.41445       0.30903      -1.11462
                        -----------------------------------------
Magnitude (a.u.)       :      1.22868
Magnitude (Debye)      :      3.12306

Rotational constants in cm-1:     0.145371     0.050507     0.045444
Rotational constants in MHz :  4358.114605  1514.164418  1362.368391

                             ****ORCA TERMINATED NORMALLY****
TOTAL RUN TIME: 0 days 0 hours 0 minutes 11 seconds 301 msec
