                         Program Version 5.0.0 -  RELEASE  -
|  1> !BLYP D3BJ RIJCOSX def2-SVPD def2/J TightSCF
|  2> *xyz 0 1
|  3> C          3.90595        2.81985       -3.75292
|  4> C          3.80351        1.37472       -3.26081
|  5> C          3.93993        0.32036       -4.36773
|  6> H          4.10504       -0.65508       -3.90773
|  7> H          3.02280        0.28052       -4.95712
|  8> C          5.10585        0.66802       -5.30546
|  9> H          4.57483        1.21516       -2.50044
| 10> H          2.84351        1.26085       -2.75146
| 11> F          4.80913        1.15019       -6.41436
| 12> O          6.26737        0.56500       -4.81948
| 13> H          3.15892        2.99660       -4.49832
| 14> H          4.87575        2.98549       -4.17357
| 15> H          3.75481        3.48808       -2.93101
| 16> *
| 17>
| 18> %MaxCore 64000
| 19>
| 20> %pal nprocs 4
| 21> end
| 22>
| 23> %scf
| 24>   MaxIter 150
| 25> end
| 26>
| 27>
| 28>                          ****END OF INPUT****

CARTESIAN COORDINATES (ANGSTROEM)
---------------------------------
  C      3.905950    2.819850   -3.752920
  C      3.803510    1.374720   -3.260810
  C      3.939930    0.320360   -4.367730
  H      4.105040   -0.655080   -3.907730
  H      3.022800    0.280520   -4.957120
  C      5.105850    0.668020   -5.305460
  H      4.574830    1.215160   -2.500440
  H      2.843510    1.260850   -2.751460
  F      4.809130    1.150190   -6.414360
  O      6.267370    0.565000   -4.819480
  H      3.158920    2.996600   -4.498320
  H      4.875750    2.985490   -4.173570
  H      3.754810    3.488080   -2.931010

 Total Charge           Charge          ....    0
 Multiplicity           Mult            ....    1
 Number of Electrons    NEL             ....   48
 Basis Dimension        Dim             ....  182

ORBITAL ENERGIES
----------------

  NO   OCC          E(Eh)            E(eV)
   0   2.0000     -24.380049      -663.4149
   1   2.0000     -18.798126      -511.5230
   2   2.0000     -10.097072      -274.7553
   3   2.0000      -9.951125      -270.7839
   4   2.0000      -9.939006      -270.4541
   5   2.0000      -9.918322      -269.8913
   6   2.0000      -1.205431       -32.8015
   7   2.0000      -0.927832       -25.2476
   8   2.0000      -0.729003       -19.8372
   9   2.0000      -0.649510       -17.6741
  10   2.0000      -0.596088       -16.2204
  11   2.0000      -0.545209       -14.8359
  12   2.0000      -0.492836       -13.4107
  13   2.0000      -0.471417       -12.8279
  14   2.0000      -0.447967       -12.1898
  15   2.0000      -0.413310       -11.2467
  16   2.0000      -0.404260       -11.0005
  17   2.0000      -0.370191       -10.0734
  18   2.0000      -0.351516        -9.5652
  19   2.0000      -0.330091        -8.9822
  20   2.0000      -0.313250        -8.5240
  21   2.0000      -0.305110        -8.3025
  22   2.0000      -0.302810        -8.2399
  23   2.0000      -0.241314        -6.5665
  24   0.0000      -0.070138        -1.9086
  25   0.0000      -0.003964        -0.1079
  26   0.0000       0.025408         0.6914
  27   0.0000       0.029185         0.7942
  28   0.0000       0.039200         1.0667

MULLIKEN ATOMIC CHARGES
-----------------------
   0 C :    1.063185
   1 C :   -0.095946
   2 C :    0.482022
   3 H :   -0.158647
   4 H :   -0.126379
   5 C :    0.577175
   6 H :   -0.142401
   7 H :   -0.299674
   8 F :   -0.287223
   9 O :   -0.430109
  10 H :   -0.173547
  11 H :   -0.153242
  12 H :   -0.255215
Sum of atomic charges:    0.0000000

LOEWDIN ATOMIC CHARGES
----------------------
   0 C :    0.141949
   1 C :   -0.049733
   2 C :    0.053086
   3 H :    0.029900
   4 H :    0.016814
   5 C :   -0.053724
   6 H :    0.025688
   7 H :    0.017260
   8 F :   -0.004172
   9 O :   -0.117260
  10 H :   -0.017530
  11 H :   -0.022993
  12 H :   -0.019287

  Mayer bond orders larger than 0.100000
B(  0-C ,  1-C ) :   1.3479 B(  0-C ,  6-H ) :   0.1107 B(  0-C ,  7-H ) :   0.1303
B(  0-C , 10-H ) :   0.6838 B(  0-C , 11-H ) :   0.7268 B(  0-C , 12-H ) :   0.6478
B(  1-C ,  2-C ) :   1.2193 B(  1-C ,  3-H ) :   0.1738 B(  1-C ,  4-H ) :   0.1844
B(  1-C ,  6-H ) :   0.8320 B(  1-C ,  7-H ) :   0.8478 B(  1-C , 10-H ) :   0.2439
B(  1-C , 11-H ) :   0.2542 B(  1-C , 12-H ) :   0.2736 B(  2-C ,  3-H ) :   0.7493
B(  2-C ,  4-H ) :   0.8021 B(  2-C ,  5-C ) :   1.0408 B(  2-C ,  6-H ) :   0.1217
B(  3-H ,  5-C ) :   0.1270 B(  4-H ,  5-C ) :   0.1171 B(  5-C ,  8-F ) :   0.8020
B(  5-C ,  9-O ) :   1.8541 B(  8-F ,  9-O ) :   0.1375

Dispersion correction           -0.019761230
FINAL SINGLE POINT ENERGY      -331.388153744276

DIPOLE MOMENT
-------------
                                X             Y             Z
Electronic contribution:      4.83938      -3.18963      -8.24258
Nuclear contribution   :     -5.98367       3.22001       8.44002
                        -----------------------------------------
Total Dipole Moment    :     -1.14429       0.03038       0.19744
                        -----------------------------------------
Magnitude (a.u.)       :      1.16159
Magnitude (Debye)      :      2.95253

Rotational constants in cm-1:     0.177409     0.085514     0.078973
Rotational constants in MHz :  5318.577687  2563.657993  2367.557452

                             ****ORCA TERMINATED NORMALLY****
TOTAL RUN TIME: 0 days 0 hours 0 minutes 6 seconds 373 msec
