                         Program Version 5.0.0 -  RELEASE  -
|  1> !BLYP D3BJ RIJCOSX def2-SVPD def2/J TightSCF
|  2> *xyz 0 1
|  3> C          3.90595        2.81985       -3.75292
|  4> C          5.29562        3.13151       -4.10533
|  5> C          3.80351        1.37472       -3.26081
|  6> C          3.93993        0.32036       -4.36773
|  7> C          5.70862        3.46889       -5.32419
|  8> N          6.90470        3.03895       -5.71708
|  9> N          4.98188        4.29357       -6.09746
| 10> H          5.00055        4.10131       -7.08776
| 11> H          4.08469        4.59690       -5.73965
| 12> H          5.96336        2.52611       -3.64239
| 13> H          7.04716        2.06686       -5.47360
| 14> H          7.19815        3.30799       -6.64523
| 15> H          3.28202        2.94919       -4.64026
| 16> H          3.56525        3.51457       -2.98252
| 17> H          4.57483        1.21516       -2.50044
| 18> H          2.84351        1.26085       -2.75146
| 19> H          3.18417        0.48061       -5.10803
| 20> H          3.82485       -0.65632       -3.94614
| 21> H          4.90589        0.40174       -4.82073
| 22> *
| 23>
| 24> %MaxCore 64000
| 25>
| 26> %pal nprocs 4
| 27> end
| 28>
| 29> %scf
| 30>   MaxIter 150
| 31> end
| 32>
| 33>
| 34>                          ****END OF INPUT****

CARTESIAN COORDINATES (ANGSTROEM)
---------------------------------
  C      3.905950    2.819850   -3.752920
  C      5.295620    3.131510   -4.105330
  C      3.803510    1.374720   -3.260810
  C      3.939930    0.320360   -4.367730
  C      5.708620    3.468890   -5.324190
  N      6.904700    3.038950   -5.717080
  N      4.981880    4.293570   -6.097460
  H      5.000550    4.101310   -7.087760
  H      4.084690    4.596900   -5.739650
  H      5.963360    2.526110   -3.642390
  H      7.047160    2.066860   -5.473600
  H      7.198150    3.307990   -6.645230
  H      3.282020    2.949190   -4.640260
  H      3.565250    3.514570   -2.982520
  H      4.574830    1.215160   -2.500440
  H      2.843510    1.260850   -2.751460
  H      3.184170    0.480610   -5.108030
  H      3.824850   -0.656320   -3.946140
  H      4.905890    0.401740   -4.820730

 Total Charge           Charge          ....    0
 Multiplicity           Mult            ....    1
 Number of Electrons    NEL             ....   56
 Basis Dimension        Dim             ....  236

ORBITAL ENERGIES
----------------

  NO   OCC          E(Eh)            E(eV)
   0   2.0000     -14.029793      -381.7701
   1   2.0000     -14.027010      -381.6944
   2   2.0000      -9.960222      -271.0314
   3   2.0000      -9.905460      -269.5413
   4   2.0000      -9.900583      -269.4086
   5   2.0000      -9.899319      -269.3742
   6   2.0000      -9.850618      -268.0489
   7   2.0000      -0.869543       -23.6615
   8   2.0000      -0.787597       -21.4316
   9   2.0000      -0.704062       -19.1585
  10   2.0000      -0.642727       -17.4895
  11   2.0000      -0.586256       -15.9528
  12   2.0000      -0.529055       -14.3963
  13   2.0000      -0.505724       -13.7615
  14   2.0000      -0.479139       -13.0380
  15   2.0000      -0.455547       -12.3961
  16   2.0000      -0.427549       -11.6342
  17   2.0000      -0.394635       -10.7386
  18   2.0000      -0.385727       -10.4962
  19   2.0000      -0.364737        -9.9250
  20   2.0000      -0.336933        -9.1684
  21   2.0000      -0.323208        -8.7949
  22   2.0000      -0.305633        -8.3167
  23   2.0000      -0.289165        -7.8686
  24   2.0000      -0.277527        -7.5519
  25   2.0000      -0.271366        -7.3843
  26   2.0000      -0.229690        -6.2502
  27   2.0000      -0.138003        -3.7553
  28   0.0000      -0.011978        -0.3259
  29   0.0000       0.015320         0.4169
  30   0.0000       0.020477         0.5572
  31   0.0000       0.027830         0.7573
  32   0.0000       0.042815         1.1651

MULLIKEN ATOMIC CHARGES
-----------------------
   0 C :    0.653081
   1 C :    0.123191
   2 C :    0.058028
   3 C :    1.308613
   4 C :    0.015045
   5 N :    0.384218
   6 N :    0.263045
   7 H :   -0.177883
   8 H :   -0.046830
   9 H :   -0.395187
  10 H :   -0.092364
  11 H :   -0.188565
  12 H :   -0.325882
  13 H :   -0.361275
  14 H :   -0.202363
  15 H :   -0.303075
  16 H :   -0.093087
  17 H :   -0.177081
  18 H :   -0.441627
Sum of atomic charges:    0.0000000

LOEWDIN ATOMIC CHARGES
----------------------
   0 C :   -0.057522
   1 C :   -0.006713
   2 C :   -0.067086
   3 C :    0.142957
   4 C :   -0.254627
   5 N :    0.213807
   6 N :    0.221454
   7 H :   -0.020906
   8 H :   -0.012929
   9 H :   -0.059990
  10 H :   -0.009198
  11 H :   -0.019574
  12 H :   -0.002832
  13 H :    0.002689
  14 H :    0.013383
  15 H :    0.007462
  16 H :   -0.024958
  17 H :   -0.027381
  18 H :   -0.038034

  Mayer bond orders larger than 0.100000
B(  0-C ,  1-C ) :   0.9251 B(  0-C ,  2-C ) :   1.2003 B(  0-C ,  9-H ) :   0.2582
B(  0-C , 12-H ) :   0.6403 B(  0-C , 13-H ) :   0.7237 B(  0-C , 14-H ) :   0.1844
B(  0-C , 15-H ) :   0.2442 B(  1-C ,  2-C ) :   0.1447 B(  1-C ,  4-C ) :   1.7271
B(  1-C ,  5-N ) :   0.3439 B(  1-C ,  6-N ) :   0.2050 B(  1-C ,  9-H ) :   0.3330
B(  1-C , 12-H ) :   0.1500 B(  1-C , 13-H ) :   0.1948 B(  2-C ,  3-C ) :   1.1950
B(  2-C , 14-H ) :   0.8225 B(  2-C , 15-H ) :   0.7837 B(  2-C , 16-H ) :   0.2738
B(  2-C , 17-H ) :   0.2665 B(  2-C , 18-H ) :   0.3133 B(  3-C , 16-H ) :   0.6428
B(  3-C , 17-H ) :   0.6092 B(  3-C , 18-H ) :   0.6463 B(  4-C ,  5-N ) :   1.0216
B(  4-C ,  6-N ) :   1.0957 B(  4-C ,  9-H ) :   0.4387 B(  4-C , 11-H ) :   0.1012
B(  5-N ,  6-N ) :   0.1243 B(  5-N , 10-H ) :   1.0022 B(  5-N , 11-H ) :   0.9120
B(  6-N ,  7-H ) :   1.0876 B(  6-N ,  8-H ) :   0.9755 B(  7-H ,  8-H ) :  -0.1019
B( 12-H , 13-H ) :  -0.1119 B( 16-H , 18-H ) :   0.1288

Dispersion correction           -0.033149810
FINAL SINGLE POINT ENERGY      -306.885111822887

DIPOLE MOMENT
-------------
                                X             Y             Z
Electronic contribution:      3.43849       4.96051      -2.08584
Nuclear contribution   :     -3.52450      -5.28471       1.03374
                        -----------------------------------------
Total Dipole Moment    :     -0.08602      -0.32420      -1.05209
                        -----------------------------------------
Magnitude (a.u.)       :      1.10427
Magnitude (Debye)      :      2.80682

Rotational constants in cm-1:     0.147126     0.050704     0.045476
Rotational constants in MHz :  4410.719889  1520.080198  1363.327077

                             ****ORCA TERMINATED NORMALLY****
TOTAL RUN TIME: 0 days 0 hours 0 minutes 9 seconds 972 msec
