                         Program Version 5.0.0 -  RELEASE  -
|  1> !BLYP D3BJ RIJCOSX def2-SVPD def2/J TightSCF
|  2> *xyz 0 1
|  3> C          3.90595        2.81985       -3.75292
|  4> C          3.80351        1.37472       -3.26081
|  5> C          3.93993        0.32036       -4.36773
|  6> H          4.10504       -0.65508       -3.90773
|  7> H          3.02280        0.28052       -4.95712
|  8> C          5.10585        0.66802       -5.30546
|  9> H          4.57483        1.21516       -2.50044
| 10> H          2.84351        1.26085       -2.75146
| 11> O          4.80913        1.15019       -6.41436
| 12> F          6.26737        0.56500       -4.81948
| 13> H          3.15892        2.99660       -4.49832
| 14> H          4.87575        2.98549       -4.17357
| 15> H          3.75481        3.48808       -2.93101
| 16> *
| 17>
| 18> %MaxCore 64000
| 19>
| 20> %pal nprocs 4
| 21> end
| 22>
| 23> %scf
| 24>   MaxIter 150
| 25> end
| 26>
| 27>
| 28>                          ****END OF INPUT****

CARTESIAN COORDINATES (ANGSTROEM)
---------------------------------
  C      3.905950    2.819850   -3.752920
  C      3.803510    1.374720   -3.260810
  C      3.939930    0.320360   -4.367730
  H      4.105040   -0.655080   -3.907730
  H      3.022800    0.280520   -4.957120
  C      5.105850    0.668020   -5.305460
  H      4.574830    1.215160   -2.500440
  H      2.843510    1.260850   -2.751460
  O      4.809130    1.150190   -6.414360
  F      6.267370    0.565000   -4.819480
  H      3.158920    2.996600   -4.498320
  H      4.875750    2.985490   -4.173570
  H      3.754810    3.488080   -2.931010

 Total Charge           Charge          ....    0
 Multiplicity           Mult            ....    1
 Number of Electrons    NEL             ....   48
 Basis Dimension        Dim             ....  182

ORBITAL ENERGIES
----------------

  NO   OCC          E(Eh)            E(eV)
   0   2.0000     -24.373707      -663.2423
   1   2.0000     -18.800643      -511.5915
   2   2.0000     -10.095140      -274.7027
   3   2.0000      -9.950556      -270.7684
   4   2.0000      -9.941019      -270.5089
   5   2.0000      -9.916870      -269.8518
   6   2.0000      -1.192265       -32.4432
   7   2.0000      -0.938262       -25.5314
   8   2.0000      -0.730074       -19.8663
   9   2.0000      -0.647846       -17.6288
  10   2.0000      -0.588954       -16.0263
  11   2.0000      -0.544695       -14.8219
  12   2.0000      -0.487347       -13.2614
  13   2.0000      -0.471585       -12.8325
  14   2.0000      -0.436222       -11.8702
  15   2.0000      -0.419778       -11.4227
  16   2.0000      -0.404309       -11.0018
  17   2.0000      -0.368945       -10.0395
  18   2.0000      -0.349261        -9.5039
  19   2.0000      -0.329126        -8.9560
  20   2.0000      -0.319898        -8.7049
  21   2.0000      -0.310635        -8.4528
  22   2.0000      -0.304492        -8.2856
  23   2.0000      -0.242237        -6.5916
  24   0.0000      -0.066371        -1.8061
  25   0.0000      -0.006411        -0.1745
  26   0.0000       0.026304         0.7158
  27   0.0000       0.031583         0.8594
  28   0.0000       0.036591         0.9957

MULLIKEN ATOMIC CHARGES
-----------------------
   0 C :    1.084960
   1 C :   -0.136276
   2 C :    0.508602
   3 H :   -0.167254
   4 H :   -0.130457
   5 C :    0.570161
   6 H :   -0.164506
   7 H :   -0.296631
   8 O :   -0.364589
   9 F :   -0.340872
  10 H :   -0.149547
  11 H :   -0.142295
  12 H :   -0.271297
Sum of atomic charges:    0.0000000

LOEWDIN ATOMIC CHARGES
----------------------
   0 C :    0.143451
   1 C :   -0.055197
   2 C :    0.055774
   3 H :    0.021558
   4 H :    0.029063
   5 C :   -0.054407
   6 H :    0.019258
   7 H :    0.017873
   8 O :   -0.106827
   9 F :   -0.014971
  10 H :   -0.011536
  11 H :   -0.023597
  12 H :   -0.020441

  Mayer bond orders larger than 0.100000
B(  0-C ,  1-C ) :   1.3475 B(  0-C ,  6-H ) :   0.1120 B(  0-C ,  7-H ) :   0.1280
B(  0-C , 10-H ) :   0.6854 B(  0-C , 11-H ) :   0.7265 B(  0-C , 12-H ) :   0.6293
B(  1-C ,  2-C ) :   1.2022 B(  1-C ,  3-H ) :   0.1791 B(  1-C ,  4-H ) :   0.1794
B(  1-C ,  6-H ) :   0.8321 B(  1-C ,  7-H ) :   0.8473 B(  1-C , 10-H ) :   0.2514
B(  1-C , 11-H ) :   0.2549 B(  1-C , 12-H ) :   0.2828 B(  2-C ,  3-H ) :   0.7581
B(  2-C ,  4-H ) :   0.8036 B(  2-C ,  5-C ) :   1.0119 B(  2-C ,  6-H ) :   0.1191
B(  4-H ,  5-C ) :   0.1657 B(  5-C ,  8-O ) :   1.8861 B(  5-C ,  9-F ) :   0.7536
B(  8-O ,  9-F ) :   0.1431

Dispersion correction           -0.019750876
FINAL SINGLE POINT ENERGY      -331.393055963975

DIPOLE MOMENT
-------------
                                X             Y             Z
Electronic contribution:      7.27374      -4.17155      -5.56901
Nuclear contribution   :     -7.63086       3.88103       6.63849
                        -----------------------------------------
Total Dipole Moment    :     -0.35712      -0.29052       1.06948
                        -----------------------------------------
Magnitude (a.u.)       :      1.16435
Magnitude (Debye)      :      2.95955

Rotational constants in cm-1:     0.177064     0.085023     0.079676
Rotational constants in MHz :  5308.232158  2548.918275  2388.614336

                             ****ORCA TERMINATED NORMALLY****
TOTAL RUN TIME: 0 days 0 hours 0 minutes 6 seconds 270 msec
