                         Program Version 5.0.0 -  RELEASE  -
|  1> !BLYP D3BJ RIJCOSX def2-SVPD def2/J TightSCF
|  2> *xyz 0 1
|  3> C          3.90595        2.81985       -3.75292
|  4> N          5.29562        3.13151       -4.10533
|  5> C          3.80351        1.37472       -3.26081
|  6> C          3.93993        0.32036       -4.36773
|  7> C          5.70862        3.46889       -5.32419
|  8> C          6.90470        3.03895       -5.71708
|  9> N          4.98188        4.29357       -6.09746
| 10> H          5.00055        4.10131       -7.08776
| 11> H          4.08469        4.59690       -5.73965
| 12> H          5.96336        2.52611       -3.64239
| 13> H          7.04716        2.06686       -5.47360
| 14> H          7.19815        3.30799       -6.64523
| 15> H          3.28202        2.94919       -4.64026
| 16> H          3.56525        3.51457       -2.98252
| 17> H          4.57483        1.21516       -2.50044
| 18> H          2.84351        1.26085       -2.75146
| 19> H          3.18417        0.48061       -5.10803
| 20> H          3.82485       -0.65632       -3.94614
| 21> H          4.90589        0.40174       -4.82073
| 22> *
| 23>
| 24> %MaxCore 64000
| 25>
| 26> %pal nprocs 4
| 27> end
| 28>
| 29> %scf
| 30>   MaxIter 150
| 31> end
| 32>
| 33>
| 34>                          ****END OF INPUT****

CARTESIAN COORDINATES (ANGSTROEM)
---------------------------------
  C      3.905950    2.819850   -3.752920
  N      5.295620    3.131510   -4.105330
  C      3.803510    1.374720   -3.260810
  C      3.939930    0.320360   -4.367730
  C      5.708620    3.468890   -5.324190
  C      6.904700    3.038950   -5.717080
  N      4.981880    4.293570   -6.097460
  H      5.000550    4.101310   -7.087760
  H      4.084690    4.596900   -5.739650
  H      5.963360    2.526110   -3.642390
  H      7.047160    2.066860   -5.473600
  H      7.198150    3.307990   -6.645230
  H      3.282020    2.949190   -4.640260
  H      3.565250    3.514570   -2.982520
  H      4.574830    1.215160   -2.500440
  H      2.843510    1.260850   -2.751460
  H      3.184170    0.480610   -5.108030
  H      3.824850   -0.656320   -3.946140
  H      4.905890    0.401740   -4.820730

 Total Charge           Charge          ....    0
 Multiplicity           Mult            ....    1
 Number of Electrons    NEL             ....   56
 Basis Dimension        Dim             ....  236

ORBITAL ENERGIES
----------------

  NO   OCC          E(Eh)            E(eV)
   0   2.0000     -14.028612      -381.7379
   1   2.0000     -14.025144      -381.6436
   2   2.0000      -9.963561      -271.1223
   3   2.0000      -9.958779      -270.9922
   4   2.0000      -9.931981      -270.2629
   5   2.0000      -9.916151      -269.8322
   6   2.0000      -9.837593      -267.6945
   7   2.0000      -0.873235       -23.7619
   8   2.0000      -0.797708       -21.7068
   9   2.0000      -0.707457       -19.2509
  10   2.0000      -0.647982       -17.6325
  11   2.0000      -0.598209       -16.2781
  12   2.0000      -0.539014       -14.6673
  13   2.0000      -0.530040       -14.4231
  14   2.0000      -0.478555       -13.0221
  15   2.0000      -0.444098       -12.0845
  16   2.0000      -0.422823       -11.5056
  17   2.0000      -0.413340       -11.2476
  18   2.0000      -0.394483       -10.7344
  19   2.0000      -0.360655        -9.8139
  20   2.0000      -0.347626        -9.4594
  21   2.0000      -0.340134        -9.2555
  22   2.0000      -0.320697        -8.7266
  23   2.0000      -0.310529        -8.4499
  24   2.0000      -0.308632        -8.3983
  25   2.0000      -0.289243        -7.8707
  26   2.0000      -0.217324        -5.9137
  27   2.0000      -0.139937        -3.8079
  28   0.0000      -0.007960        -0.2166
  29   0.0000       0.009634         0.2622
  30   0.0000       0.018919         0.5148
  31   0.0000       0.024518         0.6672
  32   0.0000       0.032194         0.8761

MULLIKEN ATOMIC CHARGES
-----------------------
   0 C :    0.985492
   1 N :   -0.166191
   2 C :   -0.027327
   3 C :    1.293097
   4 C :    0.041860
   5 C :    0.808827
   6 N :    0.325234
   7 H :   -0.110855
   8 H :   -0.146048
   9 H :   -0.102675
  10 H :   -0.483003
  11 H :   -0.509664
  12 H :   -0.169955
  13 H :   -0.530354
  14 H :   -0.196519
  15 H :   -0.305195
  16 H :   -0.077733
  17 H :   -0.191672
  18 H :   -0.437320
Sum of atomic charges:   -0.0000000

LOEWDIN ATOMIC CHARGES
----------------------
   0 C :    0.045310
   1 N :    0.020866
   2 C :   -0.056354
   3 C :    0.149008
   4 C :   -0.260332
   5 C :    0.160309
   6 N :    0.224510
   7 H :   -0.002646
   8 H :   -0.027235
   9 H :    0.011710
  10 H :   -0.116127
  11 H :   -0.111340
  12 H :    0.006018
  13 H :    0.006716
  14 H :    0.013670
  15 H :    0.012318
  16 H :   -0.022235
  17 H :   -0.023338
  18 H :   -0.030828

  Mayer bond orders larger than 0.100000
B(  0-C ,  1-N ) :   0.9496 B(  0-C ,  2-C ) :   1.1497 B(  0-C , 12-H ) :   0.6657
B(  0-C , 13-H ) :   0.7400 B(  0-C , 14-H ) :   0.1060 B(  0-C , 15-H ) :   0.2039
B(  1-N ,  2-C ) :   0.1259 B(  1-N ,  4-C ) :   1.2336 B(  1-N ,  5-C ) :   0.2463
B(  1-N ,  9-H ) :   1.0202 B(  1-N , 12-H ) :   0.1496 B(  1-N , 13-H ) :   0.1382
B(  2-C ,  3-C ) :   1.2156 B(  2-C , 14-H ) :   0.8264 B(  2-C , 15-H ) :   0.8519
B(  2-C , 16-H ) :   0.2723 B(  2-C , 17-H ) :   0.2849 B(  2-C , 18-H ) :   0.3081
B(  3-C , 16-H ) :   0.6169 B(  3-C , 17-H ) :   0.6078 B(  3-C , 18-H ) :   0.6397
B(  4-C ,  5-C ) :   1.6887 B(  4-C ,  6-N ) :   1.0270 B(  4-C ,  9-H ) :  -0.1549
B(  4-C , 10-H ) :   0.2709 B(  4-C , 11-H ) :   0.4264 B(  5-C ,  6-N ) :   0.2675
B(  5-C , 10-H ) :   0.6982 B(  5-C , 11-H ) :   0.3173 B(  6-N ,  7-H ) :   1.0860
B(  6-N ,  8-H ) :   0.8912 B(  6-N , 11-H ) :   0.1335 B(  7-H ,  8-H ) :  -0.1323
B( 10-H , 11-H ) :   0.1495 B( 12-H , 13-H ) :  -0.1667 B( 16-H , 18-H ) :   0.1764

Dispersion correction           -0.032792254
FINAL SINGLE POINT ENERGY      -306.874628966111

DIPOLE MOMENT
-------------
                                X             Y             Z
Electronic contribution:      1.80448       4.89785      -0.58521
Nuclear contribution   :     -3.17203      -5.30499       0.68068
                        -----------------------------------------
Total Dipole Moment    :     -1.36755      -0.40714       0.09547
                        -----------------------------------------
Magnitude (a.u.)       :      1.43006
Magnitude (Debye)      :      3.63493

Rotational constants in cm-1:     0.149640     0.051631     0.046708
Rotational constants in MHz :  4486.107270  1547.846261  1400.277765

                             ****ORCA TERMINATED NORMALLY****
TOTAL RUN TIME: 0 days 0 hours 0 minutes 11 seconds 252 msec
