                         Program Version 5.0.0 -  RELEASE  -
|  1> !BLYP D3BJ RIJCOSX def2-SVPD def2/J TightSCF
|  2> *xyz 0 1
|  3> C          3.90595        2.81985       -3.75292
|  4> N          5.29562        3.13151       -4.10533
|  5> C          3.80351        1.37472       -3.26081
|  6> C          3.93993        0.32036       -4.36773
|  7> C          5.70862        3.46889       -5.32419
|  8> N          6.90470        3.03895       -5.71708
|  9> C          4.98188        4.29357       -6.09746
| 10> H          5.00055        4.10131       -7.08776
| 11> H          4.08469        4.59690       -5.73965
| 12> H          5.96336        2.52611       -3.64239
| 13> H          7.04716        2.06686       -5.47360
| 14> H          7.19815        3.30799       -6.64523
| 15> H          3.28202        2.94919       -4.64026
| 16> H          3.56525        3.51457       -2.98252
| 17> H          4.57483        1.21516       -2.50044
| 18> H          2.84351        1.26085       -2.75146
| 19> H          3.18417        0.48061       -5.10803
| 20> H          3.82485       -0.65632       -3.94614
| 21> H          4.90589        0.40174       -4.82073
| 22> *
| 23>
| 24> %MaxCore 64000
| 25>
| 26> %pal nprocs 4
| 27> end
| 28>
| 29> %scf
| 30>   MaxIter 150
| 31> end
| 32>
| 33>
| 34>                          ****END OF INPUT****

CARTESIAN COORDINATES (ANGSTROEM)
---------------------------------
  C      3.905950    2.819850   -3.752920
  N      5.295620    3.131510   -4.105330
  C      3.803510    1.374720   -3.260810
  C      3.939930    0.320360   -4.367730
  C      5.708620    3.468890   -5.324190
  N      6.904700    3.038950   -5.717080
  C      4.981880    4.293570   -6.097460
  H      5.000550    4.101310   -7.087760
  H      4.084690    4.596900   -5.739650
  H      5.963360    2.526110   -3.642390
  H      7.047160    2.066860   -5.473600
  H      7.198150    3.307990   -6.645230
  H      3.282020    2.949190   -4.640260
  H      3.565250    3.514570   -2.982520
  H      4.574830    1.215160   -2.500440
  H      2.843510    1.260850   -2.751460
  H      3.184170    0.480610   -5.108030
  H      3.824850   -0.656320   -3.946140
  H      4.905890    0.401740   -4.820730

 Total Charge           Charge          ....    0
 Multiplicity           Mult            ....    1
 Number of Electrons    NEL             ....   56
 Basis Dimension        Dim             ....  236

ORBITAL ENERGIES
----------------

  NO   OCC          E(Eh)            E(eV)
   0   2.0000     -14.027556      -381.7092
   1   2.0000     -14.027376      -381.7043
   2   2.0000      -9.962967      -271.1061
   3   2.0000      -9.953722      -270.8545
   4   2.0000      -9.930540      -270.2237
   5   2.0000      -9.917832      -269.8779
   6   2.0000      -9.843005      -267.8418
   7   2.0000      -0.878174       -23.8963
   8   2.0000      -0.799535       -21.7565
   9   2.0000      -0.702982       -19.1291
  10   2.0000      -0.634834       -17.2747
  11   2.0000      -0.616535       -16.7768
  12   2.0000      -0.542434       -14.7604
  13   2.0000      -0.505865       -13.7653
  14   2.0000      -0.478809       -13.0291
  15   2.0000      -0.461498       -12.5580
  16   2.0000      -0.419651       -11.4193
  17   2.0000      -0.415024       -11.2934
  18   2.0000      -0.384697       -10.4681
  19   2.0000      -0.366390        -9.9700
  20   2.0000      -0.346907        -9.4398
  21   2.0000      -0.336688        -9.1617
  22   2.0000      -0.322428        -8.7737
  23   2.0000      -0.311010        -8.4630
  24   2.0000      -0.306525        -8.3410
  25   2.0000      -0.290556        -7.9064
  26   2.0000      -0.215297        -5.8585
  27   2.0000      -0.143761        -3.9119
  28   0.0000      -0.012282        -0.3342
  29   0.0000       0.012906         0.3512
  30   0.0000       0.020462         0.5568
  31   0.0000       0.026277         0.7150
  32   0.0000       0.033154         0.9022

MULLIKEN ATOMIC CHARGES
-----------------------
   0 C :    0.976371
   1 N :   -0.059443
   2 C :    0.024258
   3 C :    1.274442
   4 C :   -0.031691
   5 N :    0.288362
   6 C :    0.697448
   7 H :   -0.557700
   8 H :   -0.264610
   9 H :   -0.244248
  10 H :   -0.155077
  11 H :   -0.047131
  12 H :   -0.109489
  13 H :   -0.584054
  14 H :   -0.220479
  15 H :   -0.285926
  16 H :   -0.088520
  17 H :   -0.185775
  18 H :   -0.426737
Sum of atomic charges:    0.0000000

LOEWDIN ATOMIC CHARGES
----------------------
   0 C :    0.056989
   1 N :    0.021774
   2 C :   -0.056902
   3 C :    0.146099
   4 C :   -0.271277
   5 N :    0.213347
   6 C :    0.176914
   7 H :   -0.111472
   8 H :   -0.115326
   9 H :    0.001037
  10 H :   -0.024537
  11 H :   -0.003545
  12 H :    0.011981
  13 H :    0.011864
  14 H :    0.010170
  15 H :    0.013842
  16 H :   -0.020053
  17 H :   -0.023802
  18 H :   -0.037104

  Mayer bond orders larger than 0.100000
B(  0-C ,  1-N ) :   1.0043 B(  0-C ,  2-C ) :   1.1337 B(  0-C ,  6-C ) :   0.1028
B(  0-C , 12-H ) :   0.6944 B(  0-C , 13-H ) :   0.7539 B(  0-C , 14-H ) :   0.1112
B(  0-C , 15-H ) :   0.2166 B(  1-N ,  2-C ) :   0.1343 B(  1-N ,  4-C ) :   1.2472
B(  1-N ,  5-N ) :   0.1743 B(  1-N ,  6-C ) :   0.2380 B(  1-N ,  9-H ) :   0.9409
B(  1-N , 12-H ) :   0.1503 B(  1-N , 13-H ) :   0.1180 B(  2-C ,  3-C ) :   1.2145
B(  2-C , 14-H ) :   0.8286 B(  2-C , 15-H ) :   0.8380 B(  2-C , 16-H ) :   0.2730
B(  2-C , 17-H ) :   0.2834 B(  2-C , 18-H ) :   0.3008 B(  3-C , 16-H ) :   0.6424
B(  3-C , 17-H ) :   0.6098 B(  3-C , 18-H ) :   0.6578 B(  4-C ,  5-N ) :   1.1055
B(  4-C ,  6-C ) :   1.7594 B(  4-C ,  7-H ) :   0.2493 B(  4-C ,  8-H ) :   0.3660
B(  4-C ,  9-H ) :  -0.1013 B(  4-C , 12-H ) :   0.1078 B(  5-N ,  6-C ) :   0.1795
B(  5-N , 10-H ) :   0.9236 B(  5-N , 11-H ) :   0.9861 B(  6-C ,  7-H ) :   0.6733
B(  6-C ,  8-H ) :   0.3938 B(  7-H ,  8-H ) :   0.3086 B( 12-H , 13-H ) :  -0.1508
B( 16-H , 18-H ) :   0.1386

Dispersion correction           -0.032849143
FINAL SINGLE POINT ENERGY      -306.878881626143

DIPOLE MOMENT
-------------
                                X             Y             Z
Electronic contribution:      3.61443       3.75149      -0.28443
Nuclear contribution   :     -3.59323      -5.03016       0.59736
                        -----------------------------------------
Total Dipole Moment    :      0.02120      -1.27867       0.31293
                        -----------------------------------------
Magnitude (a.u.)       :      1.31658
Magnitude (Debye)      :      3.34647

Rotational constants in cm-1:     0.148888     0.051791     0.046487
Rotational constants in MHz :  4463.542717  1552.665696  1393.643356

                             ****ORCA TERMINATED NORMALLY****
TOTAL RUN TIME: 0 days 0 hours 0 minutes 11 seconds 314 msec
