                         Program Version 5.0.0 -  RELEASE  -
|  1> !BLYP D3BJ RIJCOSX def2-SVPD def2/J TightSCF xyzfile
|  2>
|  3> *xyzfile 0 1 D2.xyz
|  4>
|  5> %MaxCore 64000
|  6>
|  7> %pal nprocs 4
|  8> end
|  9>
| 10> %scf
| 11>   MaxIter 150
| 12> end
| 13>
| 14>
| 15>                          ****END OF INPUT****

CARTESIAN COORDINATES (ANGSTROEM)
---------------------------------
  C      3.905947    2.819855   -3.752920
  N      5.295615    3.131515   -4.105334
  C      3.803511    1.374716   -3.260807
  C      3.939934    0.320362   -4.367729
  H      4.105043   -0.655085   -3.907733
  H      3.022801    0.280517   -4.957117
  C      5.105846    0.668022   -5.305463
  C      5.708619    3.468885   -5.324190
  C      6.904696    3.038954   -5.717084
  N      4.981884    4.293570   -6.097457
  H      5.000546    4.101311   -7.087761
  H      4.084693    4.596899   -5.739652
  H      5.963358    2.526112   -3.642391
  H      7.047164    2.066861   -5.473604
  H      7.198145    3.307994   -6.645225
  H      3.282025    2.949187   -4.640259
  H      3.565254    3.514574   -2.982523
  H      4.574833    1.215157   -2.500443
  H      2.843514    1.260845   -2.751465
  F      4.809132    1.150187   -6.414361
  O      6.267366    0.564999   -4.819481

 Total Charge           Charge          ....    0
 Multiplicity           Mult            ....    1
 Number of Electrons    NEL             ....   78
 Basis Dimension        Dim             ....  294

ORBITAL ENERGIES
----------------

  NO   OCC          E(Eh)            E(eV)
   0   2.0000     -24.384121      -663.5257
   1   2.0000     -18.799943      -511.5725
   2   2.0000     -14.026317      -381.6755
   3   2.0000     -14.025223      -381.6457
   4   2.0000     -10.102939      -274.9150
   5   2.0000      -9.969433      -271.2821
   6   2.0000      -9.960857      -271.0487
   7   2.0000      -9.955398      -270.9001
   8   2.0000      -9.952508      -270.8215
   9   2.0000      -9.821851      -267.2661
  10   2.0000      -1.209951       -32.9244
  11   2.0000      -0.937159       -25.5014
  12   2.0000      -0.873463       -23.7681
  13   2.0000      -0.798692       -21.7335
  14   2.0000      -0.734423       -19.9847
  15   2.0000      -0.664610       -18.0850
  16   2.0000      -0.623173       -16.9574
  17   2.0000      -0.594003       -16.1636
  18   2.0000      -0.554636       -15.0924
  19   2.0000      -0.533866       -14.5272
  20   2.0000      -0.501380       -13.6432
  21   2.0000      -0.485953       -13.2235
  22   2.0000      -0.476041       -12.9537
  23   2.0000      -0.451747       -12.2927
  24   2.0000      -0.443803       -12.0765
  25   2.0000      -0.429843       -11.6966
  26   2.0000      -0.418920       -11.3994
  27   2.0000      -0.390747       -10.6328
  28   2.0000      -0.370499       -10.0818
  29   2.0000      -0.358516        -9.7557
  30   2.0000      -0.344937        -9.3862
  31   2.0000      -0.344287        -9.3685
  32   2.0000      -0.324784        -8.8378
  33   2.0000      -0.322899        -8.7865
  34   2.0000      -0.302471        -8.2306
  35   2.0000      -0.289643        -7.8816
  36   2.0000      -0.235959        -6.4208
  37   2.0000      -0.216621        -5.8946
  38   2.0000      -0.133080        -3.6213
  39   0.0000      -0.077489        -2.1086
  40   0.0000      -0.013639        -0.3711
  41   0.0000       0.005611         0.1527
  42   0.0000       0.014808         0.4029
  43   0.0000       0.021767         0.5923

MULLIKEN ATOMIC CHARGES
-----------------------
   0 C :    1.042486
   1 N :   -0.119921
   2 C :    0.408590
   3 C :    0.566914
   4 H :   -0.232685
   5 H :   -0.150519
   6 C :    0.583222
   7 C :   -0.159412
   8 C :    1.095061
   9 N :    0.308778
  10 H :   -0.083906
  11 H :   -0.101403
  12 H :   -0.119833
  13 H :   -0.655876
  14 H :   -0.416367
  15 H :   -0.137777
  16 H :   -0.531369
  17 H :   -0.075064
  18 H :   -0.337995
  19 F :   -0.324884
  20 O :   -0.558041
Sum of atomic charges:    0.0000000

LOEWDIN ATOMIC CHARGES
----------------------
   0 C :    0.060106
   1 N :    0.032238
   2 C :    0.002501
   3 C :    0.071271
   4 H :    0.033012
   5 H :    0.019305
   6 C :   -0.023258
   7 C :   -0.270490
   8 C :    0.179615
   9 N :    0.226643
  10 H :   -0.003599
  11 H :   -0.028861
  12 H :    0.009643
  13 H :   -0.159616
  14 H :   -0.096857
  15 H :    0.009760
  16 H :    0.010129
  17 H :    0.027553
  18 H :    0.019608
  19 F :    0.005019
  20 O :   -0.123721

  Mayer bond orders larger than 0.100000
B(  0-C ,  1-N ) :   0.9110 B(  0-C ,  2-C ) :   1.1583 B(  0-C ,  3-C ) :   0.1402
B(  0-C , 12-H ) :  -0.1010 B(  0-C , 15-H ) :   0.6358 B(  0-C , 16-H ) :   0.6523
B(  0-C , 18-H ) :   0.2368 B(  1-N ,  2-C ) :   0.1661 B(  1-N ,  7-C ) :   1.2259
B(  1-N ,  8-C ) :   0.2139 B(  1-N , 12-H ) :   1.0076 B(  1-N , 15-H ) :   0.1643
B(  1-N , 16-H ) :   0.1207 B(  2-C ,  3-C ) :   1.1926 B(  2-C ,  4-H ) :   0.2270
B(  2-C ,  5-H ) :   0.1611 B(  2-C , 17-H ) :   0.7446 B(  2-C , 18-H ) :   0.7821
B(  3-C ,  4-H ) :   0.6769 B(  3-C ,  5-H ) :   0.7788 B(  3-C ,  6-C ) :   1.0792
B(  3-C , 17-H ) :   0.1093 B(  4-H ,  6-C ) :   0.1552 B(  5-H ,  6-C ) :   0.1687
B(  6-C , 19-F ) :   0.7758 B(  6-C , 20-O ) :   1.7808 B(  7-C ,  8-C ) :   1.7287
B(  7-C ,  9-N ) :   0.9758 B(  7-C , 11-H ) :   0.1914 B(  7-C , 12-H ) :  -0.1527
B(  7-C , 13-H ) :   0.2601 B(  7-C , 14-H ) :   0.5527 B(  8-C ,  9-N ) :   0.3004
B(  8-C , 13-H ) :   0.2773 B(  9-N , 10-H ) :   1.0466 B(  9-N , 11-H ) :   0.8337
B(  9-N , 14-H ) :   0.1225 B( 10-H , 11-H ) :  -0.1429 B( 13-H , 14-H ) :   0.2091
B( 13-H , 20-O ) :   0.2503 B( 15-H , 16-H ) :  -0.1835 B( 17-H , 18-H ) :  -0.1375
B( 19-F , 20-O ) :   0.1125

Dispersion correction           -0.046167353
FINAL SINGLE POINT ENERGY      -519.266048496879

DIPOLE MOMENT
-------------
                                X             Y             Z
Electronic contribution:      2.15390      -3.72586      -5.17681
Nuclear contribution   :     -4.40347       3.21582       5.36161
                        -----------------------------------------
Total Dipole Moment    :     -2.24958      -0.51004       0.18480
                        -----------------------------------------
Magnitude (a.u.)       :      2.31406
Magnitude (Debye)      :      5.88188

Rotational constants in cm-1:     0.061226     0.043199     0.033926
Rotational constants in MHz :  1835.503528  1295.087558  1017.061512

                             ****ORCA TERMINATED NORMALLY****
TOTAL RUN TIME: 0 days 0 hours 0 minutes 22 seconds 608 msec
