                         Program Version 5.0.0 -  RELEASE  -
|  1> !BLYP D3BJ RIJCOSX def2-SVPD def2/J TightSCF xyzfile
|  2>
|  3> *xyzfile 0 1 D4.xyz
|  4>
|  5> %MaxCore 64000
|  6>
|  7> %pal nprocs 4
|  8> end
|  9>
| 10> %scf
| 11>   MaxIter 150
| 12> end
| 13>
| 14>
| 15>                          ****END OF INPUT****

CARTESIAN COORDINATES (ANGSTROEM)
---------------------------------
  C      3.905947    2.819855   -3.752920
  C      5.295615    3.131515   -4.105334
  C      3.803511    1.374716   -3.260807
  C      3.939934    0.320362   -4.367729
  H      4.105043   -0.655085   -3.907733
  H      3.022801    0.280517   -4.957117
  C      5.105846    0.668022   -5.305463
  C      5.708619    3.468885   -5.324190
  N      6.904696    3.038954   -5.717084
  N      4.981884    4.293570   -6.097457
  H      5.000546    4.101311   -7.087761
  H      4.084693    4.596899   -5.739652
  H      5.963358    2.526112   -3.642391
  H      7.047164    2.066861   -5.473604
  H      7.198145    3.307994   -6.645225
  H      3.282025    2.949187   -4.640259
  H      3.565254    3.514574   -2.982523
  H      4.574833    1.215157   -2.500443
  H      2.843514    1.260845   -2.751465
  O      4.809132    1.150187   -6.414361
  F      6.267366    0.564999   -4.819481

 Total Charge           Charge          ....    0
 Multiplicity           Mult            ....    1
 Number of Electrons    NEL             ....   78
 Basis Dimension        Dim             ....  294

ORBITAL ENERGIES
----------------

  NO   OCC          E(Eh)            E(eV)
   0   2.0000     -24.378867      -663.3827
   1   2.0000     -18.794660      -511.4287
   2   2.0000     -14.029016      -381.7489
   3   2.0000     -14.017861      -381.4454
   4   2.0000     -10.092200      -274.6227
   5   2.0000      -9.963761      -271.1277
   6   2.0000      -9.945488      -270.6305
   7   2.0000      -9.928821      -270.1770
   8   2.0000      -9.910195      -269.6701
   9   2.0000      -9.854702      -268.1601
  10   2.0000      -1.200333       -32.6627
  11   2.0000      -0.936619       -25.4867
  12   2.0000      -0.866853       -23.5883
  13   2.0000      -0.784635       -21.3510
  14   2.0000      -0.730320       -19.8730
  15   2.0000      -0.669026       -18.2051
  16   2.0000      -0.617780       -16.8106
  17   2.0000      -0.587476       -15.9860
  18   2.0000      -0.541667       -14.7395
  19   2.0000      -0.526273       -14.3206
  20   2.0000      -0.492743       -13.4082
  21   2.0000      -0.481089       -13.0911
  22   2.0000      -0.472491       -12.8571
  23   2.0000      -0.454033       -12.3549
  24   2.0000      -0.436558       -11.8793
  25   2.0000      -0.418805       -11.3963
  26   2.0000      -0.410654       -11.1745
  27   2.0000      -0.390861       -10.6359
  28   2.0000      -0.377664       -10.2768
  29   2.0000      -0.346476        -9.4281
  30   2.0000      -0.336996        -9.1701
  31   2.0000      -0.326916        -8.8958
  32   2.0000      -0.318084        -8.6555
  33   2.0000      -0.301901        -8.2151
  34   2.0000      -0.292852        -7.9689
  35   2.0000      -0.284788        -7.7495
  36   2.0000      -0.242039        -6.5862
  37   2.0000      -0.221802        -6.0355
  38   2.0000      -0.143204        -3.8968
  39   0.0000      -0.063184        -1.7193
  40   0.0000      -0.004416        -0.1202
  41   0.0000       0.010057         0.2737
  42   0.0000       0.019236         0.5234
  43   0.0000       0.025318         0.6890

MULLIKEN ATOMIC CHARGES
-----------------------
   0 C :    0.755239
   1 C :    0.053999
   2 C :    0.453552
   3 C :    0.659124
   4 H :   -0.246342
   5 H :   -0.140973
   6 C :    0.497242
   7 C :    0.033976
   8 N :    0.495972
   9 N :    0.244632
  10 H :   -0.125105
  11 H :   -0.061139
  12 H :   -0.408968
  13 H :   -0.181772
  14 H :   -0.085186
  15 H :   -0.284700
  16 H :   -0.401118
  17 H :   -0.113531
  18 H :   -0.354365
  19 O :   -0.372711
  20 F :   -0.417827
Sum of atomic charges:    0.0000000

LOEWDIN ATOMIC CHARGES
----------------------
   0 C :   -0.035643
   1 C :   -0.009815
   2 C :   -0.011937
   3 C :    0.072648
   4 H :    0.022196
   5 H :    0.028944
   6 C :   -0.043434
   7 C :   -0.255907
   8 N :    0.240950
   9 N :    0.241342
  10 H :   -0.010869
  11 H :   -0.008952
  12 H :   -0.061396
  13 H :   -0.056649
  14 H :   -0.004307
  15 H :    0.006472
  16 H :    0.005742
  17 H :    0.022128
  18 H :    0.015146
  19 O :   -0.124015
  20 F :   -0.032645

  Mayer bond orders larger than 0.100000
B(  0-C ,  1-C ) :   0.9660 B(  0-C ,  2-C ) :   1.2007 B(  0-C , 12-H ) :   0.2507
B(  0-C , 15-H ) :   0.6323 B(  0-C , 16-H ) :   0.6156 B(  0-C , 17-H ) :   0.1107
B(  0-C , 18-H ) :   0.2616 B(  1-C ,  2-C ) :   0.2414 B(  1-C ,  7-C ) :   1.6247
B(  1-C ,  8-N ) :   0.4016 B(  1-C ,  9-N ) :   0.2085 B(  1-C , 12-H ) :   0.2497
B(  1-C , 15-H ) :   0.1416 B(  1-C , 16-H ) :   0.2229 B(  2-C ,  3-C ) :   1.1508
B(  2-C ,  4-H ) :   0.2329 B(  2-C ,  5-H ) :   0.1523 B(  2-C , 17-H ) :   0.7287
B(  2-C , 18-H ) :   0.7209 B(  3-C ,  4-H ) :   0.6835 B(  3-C ,  5-H ) :   0.7459
B(  3-C ,  6-C ) :   1.0843 B(  3-C , 17-H ) :   0.1200 B(  4-H ,  6-C ) :   0.1280
B(  5-H ,  6-C ) :   0.2691 B(  5-H , 19-O ) :  -0.1036 B(  6-C , 19-O ) :   1.8134
B(  6-C , 20-F ) :   0.6492 B(  7-C ,  8-N ) :   0.9129 B(  7-C ,  9-N ) :   1.0900
B(  7-C , 12-H ) :   0.3694 B(  7-C , 14-H ) :   0.2270 B(  8-N ,  9-N ) :   0.1687
B(  8-N , 13-H ) :   0.9000 B(  8-N , 14-H ) :   0.7808 B(  9-N , 10-H ) :   1.0445
B(  9-N , 11-H ) :   0.9716 B( 10-H , 11-H ) :  -0.1147 B( 12-H , 15-H ) :   0.1114
B( 15-H , 16-H ) :  -0.1582 B( 17-H , 18-H ) :  -0.1329 B( 19-O , 20-F ) :   0.1130

Dispersion correction           -0.046553744
FINAL SINGLE POINT ENERGY      -519.296151847910

DIPOLE MOMENT
-------------
                                X             Y             Z
Electronic contribution:      5.88421      -4.39352      -3.89411
Nuclear contribution   :     -6.25608       3.89116       3.75052
                        -----------------------------------------
Total Dipole Moment    :     -0.37186      -0.50237      -0.14359
                        -----------------------------------------
Magnitude (a.u.)       :      0.64130
Magnitude (Debye)      :      1.63007

Rotational constants in cm-1:     0.061229     0.042568     0.033282
Rotational constants in MHz :  1835.590871  1276.154029   997.769927

                             ****ORCA TERMINATED NORMALLY****
TOTAL RUN TIME: 0 days 0 hours 0 minutes 21 seconds 627 msec
