                         Program Version 5.0.0 -  RELEASE  -
|  1> !BLYP D3BJ RIJCOSX def2-SVPD def2/J TightSCF xyzfile
|  2>
|  3> *xyzfile 0 1 D6.xyz
|  4>
|  5> %MaxCore 64000
|  6>
|  7> %pal nprocs 4
|  8> end
|  9>
| 10> %scf
| 11>   MaxIter 150
| 12> end
| 13>
| 14>
| 15>                          ****END OF INPUT****

CARTESIAN COORDINATES (ANGSTROEM)
---------------------------------
  C      3.905947    2.819855   -3.752920
  N      5.295615    3.131515   -4.105334
  C      3.803511    1.374716   -3.260807
  C      3.939934    0.320362   -4.367729
  H      4.105043   -0.655085   -3.907733
  H      3.022801    0.280517   -4.957117
  C      5.105846    0.668022   -5.305463
  C      5.708619    3.468885   -5.324190
  N      6.904696    3.038954   -5.717084
  C      4.981884    4.293570   -6.097457
  H      5.000546    4.101311   -7.087761
  H      4.084693    4.596899   -5.739652
  H      5.963358    2.526112   -3.642391
  H      7.047164    2.066861   -5.473604
  H      7.198145    3.307994   -6.645225
  H      3.282025    2.949187   -4.640259
  H      3.565254    3.514574   -2.982523
  H      4.574833    1.215157   -2.500443
  H      2.843514    1.260845   -2.751465
  O      4.809132    1.150187   -6.414361
  F      6.267366    0.564999   -4.819481

 Total Charge           Charge          ....    0
 Multiplicity           Mult            ....    1
 Number of Electrons    NEL             ....   78
 Basis Dimension        Dim             ....  294

ORBITAL ENERGIES
----------------

  NO   OCC          E(Eh)            E(eV)
   0   2.0000     -24.391773      -663.7339
   1   2.0000     -18.807064      -511.7662
   2   2.0000     -14.035364      -381.9217
   3   2.0000     -14.014811      -381.3624
   4   2.0000     -10.100350      -274.8445
   5   2.0000      -9.965492      -271.1748
   6   2.0000      -9.960672      -271.0437
   7   2.0000      -9.960642      -271.0428
   8   2.0000      -9.952984      -270.8345
   9   2.0000      -9.840644      -267.7775
  10   2.0000      -1.213658       -33.0253
  11   2.0000      -0.946833       -25.7646
  12   2.0000      -0.879887       -23.9429
  13   2.0000      -0.800857       -21.7924
  14   2.0000      -0.731949       -19.9174
  15   2.0000      -0.659252       -17.9392
  16   2.0000      -0.626587       -17.0503
  17   2.0000      -0.608172       -16.5492
  18   2.0000      -0.566588       -15.4176
  19   2.0000      -0.514433       -13.9984
  20   2.0000      -0.510594       -13.8940
  21   2.0000      -0.499722       -13.5981
  22   2.0000      -0.467551       -12.7227
  23   2.0000      -0.452207       -12.3052
  24   2.0000      -0.444709       -12.1011
  25   2.0000      -0.430669       -11.7191
  26   2.0000      -0.426276       -11.5996
  27   2.0000      -0.383055       -10.4235
  28   2.0000      -0.374322       -10.1858
  29   2.0000      -0.357675        -9.7328
  30   2.0000      -0.346356        -9.4248
  31   2.0000      -0.341713        -9.2985
  32   2.0000      -0.336117        -9.1462
  33   2.0000      -0.323341        -8.7985
  34   2.0000      -0.317639        -8.6434
  35   2.0000      -0.287686        -7.8283
  36   2.0000      -0.249738        -6.7957
  37   2.0000      -0.215299        -5.8586
  38   2.0000      -0.142024        -3.8647
  39   0.0000      -0.073660        -2.0044
  40   0.0000      -0.013337        -0.3629
  41   0.0000       0.014401         0.3919
  42   0.0000       0.015756         0.4287
  43   0.0000       0.026655         0.7253

MULLIKEN ATOMIC CHARGES
-----------------------
   0 C :    1.078261
   1 N :   -0.019297
   2 C :    0.437612
   3 C :    0.648214
   4 H :   -0.244923
   5 H :   -0.135060
   6 C :    0.462389
   7 C :    0.001841
   8 N :    0.416982
   9 C :    0.634954
  10 H :   -0.590683
  11 H :   -0.318876
  12 H :   -0.255550
  13 H :   -0.220361
  14 H :    0.002866
  15 H :   -0.093072
  16 H :   -0.622966
  17 H :   -0.126873
  18 H :   -0.331728
  19 O :   -0.323086
  20 F :   -0.400647
Sum of atomic charges:   -0.0000000

LOEWDIN ATOMIC CHARGES
----------------------
   0 C :    0.076328
   1 N :    0.032880
   2 C :   -0.002402
   3 C :    0.073079
   4 H :    0.024124
   5 H :    0.032208
   6 C :   -0.047630
   7 C :   -0.278601
   8 N :    0.236882
   9 C :    0.185634
  10 H :   -0.098724
  11 H :   -0.111542
  12 H :   -0.001706
  13 H :   -0.070034
  14 H :    0.008623
  15 H :    0.021403
  16 H :    0.015550
  17 H :    0.018835
  18 H :    0.020733
  19 O :   -0.098531
  20 F :   -0.037108

  Mayer bond orders larger than 0.100000
B(  0-C ,  1-N ) :   0.9385 B(  0-C ,  2-C ) :   1.1175 B(  0-C ,  3-C ) :   0.1224
B(  0-C , 15-H ) :   0.6668 B(  0-C , 16-H ) :   0.6759 B(  0-C , 18-H ) :   0.2469
B(  1-N ,  2-C ) :   0.2068 B(  1-N ,  7-C ) :   1.3117 B(  1-N ,  8-N ) :   0.1085
B(  1-N ,  9-C ) :   0.2710 B(  1-N , 12-H ) :   0.9194 B(  1-N , 15-H ) :   0.1723
B(  2-C ,  3-C ) :   1.1719 B(  2-C ,  4-H ) :   0.2326 B(  2-C ,  5-H ) :   0.1469
B(  2-C ,  6-C ) :   0.1012 B(  2-C , 17-H ) :   0.7338 B(  2-C , 18-H ) :   0.7719
B(  3-C ,  4-H ) :   0.6766 B(  3-C ,  5-H ) :   0.7254 B(  3-C ,  6-C ) :   1.0859
B(  3-C , 17-H ) :   0.1117 B(  4-H ,  6-C ) :   0.1312 B(  5-H ,  6-C ) :   0.2998
B(  5-H , 19-O ) :  -0.1013 B(  6-C , 19-O ) :   1.8501 B(  6-C , 20-F ) :   0.6565
B(  7-C ,  8-N ) :   1.0844 B(  7-C ,  9-C ) :   1.7301 B(  7-C , 10-H ) :   0.2433
B(  7-C , 11-H ) :   0.3715 B(  7-C , 12-H ) :  -0.1658 B(  7-C , 13-H ) :   0.1725
B(  7-C , 14-H ) :   0.1308 B(  7-C , 15-H ) :   0.1196 B(  8-N ,  9-C ) :   0.2009
B(  8-N , 13-H ) :   0.8222 B(  8-N , 14-H ) :   0.8864 B(  9-C , 10-H ) :   0.6835
B(  9-C , 11-H ) :   0.4265 B( 10-H , 11-H ) :   0.1629 B( 12-H , 13-H ) :   0.1118
B( 12-H , 14-H ) :  -0.1014 B( 15-H , 16-H ) :  -0.1757 B( 17-H , 18-H ) :  -0.1269
B( 19-O , 20-F ) :   0.1160

Dispersion correction           -0.046227247
FINAL SINGLE POINT ENERGY      -519.282306193409

DIPOLE MOMENT
-------------
                                X             Y             Z
Electronic contribution:      6.00079      -5.51793      -2.35333
Nuclear contribution   :     -6.29470       4.03423       3.50525
                        -----------------------------------------
Total Dipole Moment    :     -0.29392      -1.48370       1.15192
                        -----------------------------------------
Magnitude (a.u.)       :      1.90123
Magnitude (Debye)      :      4.83254

Rotational constants in cm-1:     0.061094     0.043661     0.033867
Rotational constants in MHz :  1831.559881  1308.929520  1015.295167

                             ****ORCA TERMINATED NORMALLY****
TOTAL RUN TIME: 0 days 0 hours 0 minutes 21 seconds 692 msec
