                         Program Version 5.0.0 -  RELEASE  -
|  1> !CAM-B3LYP RIJCOSX def2-SVPD def2/J TightSCF
|  2> *xyz -1 1
|  3> C         -1.78916       -0.63923        4.55750
|  4> C         -2.79070       -0.78527        5.70281
|  5> H         -2.86731       -1.83565        6.00167
|  6> H         -3.77455       -0.48658        5.33481
|  7> C         -2.45380        0.05510        6.94145
|  8> C         -2.07842        1.48042        6.56410
|  9> H         -1.62558       -0.38216        7.49891
| 10> H         -3.32527        0.08775        7.59917
| 11> O         -0.90125        1.85816        6.82810
| 12> O         -2.93658        2.17731        5.96415
| 13> H         -2.09421       -1.25377        3.73641
| 14> H         -0.81933       -0.94475        4.89064
| 15> H         -1.75281        0.38306        4.24366
| 16> *
| 17> %MaxCore 64000
| 18>
| 19> %pal nprocs 4
| 20> end
| 21>
| 22> %scf
| 23>   MaxIter 150
| 24> end
| 25>
| 26>
| 27>                          ****END OF INPUT****

CARTESIAN COORDINATES (ANGSTROEM)
---------------------------------
  C     -1.789160   -0.639230    4.557500
  C     -2.790700   -0.785270    5.702810
  H     -2.867310   -1.835650    6.001670
  H     -3.774550   -0.486580    5.334810
  C     -2.453800    0.055100    6.941450
  C     -2.078420    1.480420    6.564100
  H     -1.625580   -0.382160    7.498910
  H     -3.325270    0.087750    7.599170
  O     -0.901250    1.858160    6.828100
  O     -2.936580    2.177310    5.964150
  H     -2.094210   -1.253770    3.736410
  H     -0.819330   -0.944750    4.890640
  H     -1.752810    0.383060    4.243660

 Total Charge           Charge          ....   -1
 Multiplicity           Mult            ....    1
 Number of Electrons    NEL             ....   48
 Basis Dimension        Dim             ....  182

ORBITAL ENERGIES
----------------

  NO   OCC          E(Eh)            E(eV)
   0   2.0000     -18.955977      -515.8184
   1   2.0000     -18.954655      -515.7824
   2   2.0000     -10.151137      -276.2265
   3   2.0000     -10.112392      -275.1722
   4   2.0000     -10.101688      -274.8809
   5   2.0000     -10.086960      -274.4801
   6   2.0000      -0.896312       -24.3899
   7   2.0000      -0.799836       -21.7646
   8   2.0000      -0.715984       -19.4829
   9   2.0000      -0.618291       -16.8246
  10   2.0000      -0.519811       -14.1448
  11   2.0000      -0.400940       -10.9101
  12   2.0000      -0.377346       -10.2681
  13   2.0000      -0.361138        -9.8271
  14   2.0000      -0.324373        -8.8266
  15   2.0000      -0.305998        -8.3266
  16   2.0000      -0.281258        -7.6534
  17   2.0000      -0.276468        -7.5231
  18   2.0000      -0.264955        -7.2098
  19   2.0000      -0.241692        -6.5768
  20   2.0000      -0.232631        -6.3302
  21   2.0000      -0.117535        -3.1983
  22   2.0000      -0.113472        -3.0877
  23   2.0000      -0.099179        -2.6988
  24   0.0000       0.175478         4.7750
  25   0.0000       0.198676         5.4063
  26   0.0000       0.215377         5.8607
  27   0.0000       0.228280         6.2118
  28   0.0000       0.250714         6.8223

MULLIKEN ATOMIC CHARGES
-----------------------
   0 C :    0.845836
   1 C :   -0.276730
   2 H :   -0.259918
   3 H :   -0.067476
   4 C :    0.367493
   5 C :    0.311816
   6 H :   -0.099581
   7 H :   -0.100495
   8 O :   -0.660420
   9 O :   -0.704235
  10 H :   -0.174171
  11 H :   -0.100283
  12 H :   -0.081837
Sum of atomic charges:   -1.0000000

LOEWDIN ATOMIC CHARGES
----------------------
   0 C :    0.115874
   1 C :   -0.084888
   2 H :   -0.002022
   3 H :    0.011346
   4 C :   -0.002625
   5 C :   -0.319614
   6 H :    0.003327
   7 H :    0.009404
   8 O :   -0.331092
   9 O :   -0.322944
  10 H :   -0.037388
  11 H :   -0.020557
  12 H :   -0.018822

  Mayer bond orders larger than 0.100000
B(  0-C ,  1-C ) :   1.3137 B(  0-C , 10-H ) :   0.7039 B(  0-C , 11-H ) :   0.7521
B(  0-C , 12-H ) :   0.7914 B(  1-C ,  2-H ) :   0.9458 B(  1-C ,  3-H ) :   0.8806
B(  1-C ,  4-C ) :   1.1807 B(  1-C ,  6-H ) :   0.1561 B(  1-C ,  7-H ) :   0.1422
B(  1-C , 10-H ) :   0.2468 B(  1-C , 11-H ) :   0.2113 B(  1-C , 12-H ) :   0.2296
B(  3-H ,  4-C ) :   0.1161 B(  4-C ,  5-C ) :   0.9981 B(  4-C ,  6-H ) :   0.8374
B(  4-C ,  7-H ) :   0.7918 B(  5-C ,  6-H ) :   0.2430 B(  5-C ,  7-H ) :   0.1323
B(  5-C ,  8-O ) :   1.4936 B(  5-C ,  9-O ) :   1.5333

FINAL SINGLE POINT ENERGY      -306.807608125498

DIPOLE MOMENT
-------------
                                X             Y             Z
Electronic contribution:      0.61175       6.33507       2.68659
Nuclear contribution   :     -1.12936      -8.75108      -3.05770
                        -----------------------------------------
Total Dipole Moment    :     -0.51762      -2.41601      -0.37111
                        -----------------------------------------
Magnitude (a.u.)       :      2.49855
Magnitude (Debye)      :      6.35081

Rotational constants in cm-1:     0.189092     0.083831     0.082013
Rotational constants in MHz :  5668.846461  2513.177001  2458.689996

                             ****ORCA TERMINATED NORMALLY****
TOTAL RUN TIME: 0 days 0 hours 0 minutes 26 seconds 127 msec
