                         Program Version 5.0.0 -  RELEASE  -
|  1> !CAM-B3LYP RIJCOSX def2-SVPD def2/J TightSCF
|  2> *xyz 1 1
|  3> C         -0.69912        3.48945        3.75516
|  4> H         -0.96672        4.34901        3.14049
|  5> N         -1.08067        3.79296        5.15686
|  6> C          0.77696        3.13839        3.61741
|  7> H         -1.33146        2.65651        3.44632
|  8> H          1.37140        3.88834        4.14974
|  9> H          1.04693        3.23206        2.56133
| 10> C          1.11892        1.73117        4.11516
| 11> H         -0.87449        4.76274        5.42734
| 12> H         -0.68079        3.13476        5.83900
| 13> H         -2.05755        3.53169        5.34620
| 14> H          0.52974        1.01235        3.58499
| 15> H          0.90870        1.66226        5.16204
| 16> H          2.15725        1.53562        3.94624
| 17> *
| 18> %MaxCore 64000
| 19>
| 20> %pal nprocs 4
| 21> end
| 22>
| 23> %scf
| 24>   MaxIter 150
| 25> end
| 26>
| 27>
| 28>                          ****END OF INPUT****

CARTESIAN COORDINATES (ANGSTROEM)
---------------------------------
  C     -0.699120    3.489450    3.755160
  H     -0.966720    4.349010    3.140490
  N     -1.080670    3.792960    5.156860
  C      0.776960    3.138390    3.617410
  H     -1.331460    2.656510    3.446320
  H      1.371400    3.888340    4.149740
  H      1.046930    3.232060    2.561330
  C      1.118920    1.731170    4.115160
  H     -0.874490    4.762740    5.427340
  H     -0.680790    3.134760    5.839000
  H     -2.057550    3.531690    5.346200
  H      0.529740    1.012350    3.584990
  H      0.908700    1.662260    5.162040
  H      2.157250    1.535620    3.946240

 Total Charge           Charge          ....    1
 Multiplicity           Mult            ....    1
 Number of Electrons    NEL             ....   34
 Basis Dimension        Dim             ....  160

ORBITAL ENERGIES
----------------

  NO   OCC          E(Eh)            E(eV)
   0   2.0000     -14.736759      -401.0076
   1   2.0000     -10.506242      -285.8894
   2   2.0000     -10.436188      -283.9831
   3   2.0000     -10.402662      -283.0708
   4   2.0000      -1.288466       -35.0609
   5   2.0000      -1.050775       -28.5931
   6   2.0000      -0.959241       -26.1023
   7   2.0000      -0.886083       -24.1115
   8   2.0000      -0.859705       -23.3938
   9   2.0000      -0.832757       -22.6605
  10   2.0000      -0.763657       -20.7802
  11   2.0000      -0.700197       -19.0533
  12   2.0000      -0.675993       -18.3947
  13   2.0000      -0.652410       -17.7530
  14   2.0000      -0.590681       -16.0733
  15   2.0000      -0.584825       -15.9139
  16   2.0000      -0.578831       -15.7508
  17   0.0000      -0.156330        -4.2540
  18   0.0000      -0.098350        -2.6762
  19   0.0000      -0.097174        -2.6442
  20   0.0000      -0.080772        -2.1979
  21   0.0000      -0.056940        -1.5494

MULLIKEN ATOMIC CHARGES
-----------------------
   0 C :    0.751875
   1 H :   -0.171014
   2 N :   -0.800344
   3 C :   -0.119822
   4 H :   -0.076495
   5 H :   -0.116722
   6 H :   -0.083384
   7 C :    0.944979
   8 H :    0.408162
   9 H :    0.317489
  10 H :    0.353401
  11 H :   -0.048499
  12 H :   -0.258078
  13 H :   -0.101547
Sum of atomic charges:    1.0000000

LOEWDIN ATOMIC CHARGES
----------------------
   0 C :    0.086310
   1 H :    0.053289
   2 N :    0.330025
   3 C :   -0.044271
   4 H :    0.052211
   5 H :    0.033886
   6 H :    0.045116
   7 C :    0.150399
   8 H :    0.115594
   9 H :    0.092000
  10 H :    0.108191
  11 H :   -0.002420
  12 H :   -0.025513
  13 H :    0.005182

  Mayer bond orders larger than 0.100000
B(  0-C ,  1-H ) :   0.8645 B(  0-C ,  2-N ) :   0.7042 B(  0-C ,  3-C ) :   1.1865
B(  0-C ,  4-H ) :   0.8549 B(  0-C ,  6-H ) :   0.1097 B(  1-H ,  2-N ) :   0.1333
B(  2-N ,  8-H ) :   0.7108 B(  2-N ,  9-H ) :   0.8062 B(  2-N , 10-H ) :   0.7464
B(  3-C ,  5-H ) :   0.9143 B(  3-C ,  6-H ) :   0.8954 B(  3-C ,  7-C ) :   1.2584
B(  3-C , 11-H ) :   0.1854 B(  3-C , 12-H ) :   0.1959 B(  3-C , 13-H ) :   0.2271
B(  7-C , 11-H ) :   0.7557 B(  7-C , 12-H ) :   0.7643 B(  7-C , 13-H ) :   0.7620
B( 11-H , 12-H ) :   0.1064

FINAL SINGLE POINT ENERGY      -174.621760332290

DIPOLE MOMENT
-------------
                                X             Y             Z
Electronic contribution:     -1.68047       1.68066       0.73430
Nuclear contribution   :      0.19356      -0.71099       0.46987
                        -----------------------------------------
Total Dipole Moment    :     -1.48691       0.96966       1.20417
                        -----------------------------------------
Magnitude (a.u.)       :      2.14503
Magnitude (Debye)      :      5.45224

Rotational constants in cm-1:     0.465349     0.150671     0.132807
Rotational constants in MHz : 13950.800968  4516.999758  3981.442177

                             ****ORCA TERMINATED NORMALLY****
TOTAL RUN TIME: 0 days 0 hours 0 minutes 19 seconds 312 msec
