                         Program Version 5.0.0 -  RELEASE  -
|  1> !CAM-B3LYP RIJCOSX def2-SVPD def2/J TightSCF xyzfile
|  2>
|  3> *xyzfile 0 1 B.xyz
|  4>
|  5> %MaxCore 64000
|  6>
|  7> %pal nprocs 4
|  8> end
|  9>
| 10> %scf
| 11>   MaxIter 150
| 12> end
| 13>
| 14>
| 15>                          ****END OF INPUT****

CARTESIAN COORDINATES (ANGSTROEM)
---------------------------------
  C     -0.699123    3.489451    3.755163
  H     -0.966716    4.349013    3.140491
  N     -1.080669    3.792957    5.156857
  C      0.776956    3.138391    3.617408
  H     -1.331455    2.656510    3.446323
  H      1.371398    3.888342    4.149744
  H      1.046926    3.232057    2.561331
  C      1.118917    1.731170    4.115155
  H      2.200573    1.654226    4.254882
  C      0.659466    0.635182    3.153306
  H      0.677024    1.576674    5.103150
  H      1.312288    0.638870    2.274207
  H     -0.339563    0.868049    2.772876
  C      0.639957   -0.771175    3.755619
  C     -0.341821   -0.965537    4.915046
  H      1.648266   -1.028665    4.097015
  H      0.398568   -1.482386    2.958453
  H     -0.279892   -2.005646    5.252547
  C     -1.789164   -0.639231    4.557496
  H     -0.032380   -0.352918    5.765118
  H     -2.107151   -1.270102    3.719619
  H     -1.856352    0.391636    4.197604
  C     -2.790700   -0.785275    5.702812
  H     -2.867308   -1.835651    6.001675
  H     -3.774554   -0.486577    5.334807
  C     -2.453797    0.055101    6.941445
  C     -2.078419    1.480421    6.564098
  H     -1.625584   -0.382163    7.498914
  H     -3.325274    0.087746    7.599175
  H     -0.874488    4.762737    5.427344
  H     -0.680793    3.134762    5.839000
  H     -2.057550    3.531691    5.346197
  O     -0.901252    1.858156    6.828104
  O     -2.936582    2.177309    5.964151

 Total Charge           Charge          ....    0
 Multiplicity           Mult            ....    1
 Number of Electrons    NEL             ....  104
 Basis Dimension        Dim             ....  434

ORBITAL ENERGIES
----------------

  NO   OCC          E(Eh)            E(eV)
   0   2.0000     -19.152788      -521.1739
   1   2.0000     -19.151548      -521.1401
   2   2.0000     -14.486234      -394.1905
   3   2.0000     -10.339892      -281.3628
   4   2.0000     -10.329166      -281.0709
   5   2.0000     -10.281443      -279.7723
   6   2.0000     -10.256491      -279.0933
   7   2.0000     -10.253488      -279.0116
   8   2.0000     -10.246829      -278.8304
   9   2.0000     -10.238231      -278.5964
  10   2.0000     -10.237886      -278.5870
  11   2.0000     -10.236427      -278.5473
  12   2.0000     -10.230771      -278.3934
  13   2.0000      -1.104899       -30.0658
  14   2.0000      -1.057661       -28.7804
  15   2.0000      -1.001770       -27.2596
  16   2.0000      -0.900882       -24.5142
  17   2.0000      -0.872168       -23.7329
  18   2.0000      -0.843437       -22.9511
  19   2.0000      -0.795533       -21.6476
  20   2.0000      -0.763297       -20.7704
  21   2.0000      -0.723734       -19.6938
  22   2.0000      -0.684867       -18.6362
  23   2.0000      -0.669846       -18.2274
  24   2.0000      -0.649888       -17.6844
  25   2.0000      -0.625418       -17.0185
  26   2.0000      -0.616822       -16.7846
  27   2.0000      -0.573417       -15.6035
  28   2.0000      -0.553571       -15.0634
  29   2.0000      -0.546171       -14.8621
  30   2.0000      -0.544708       -14.8223
  31   2.0000      -0.518210       -14.1012
  32   2.0000      -0.513980       -13.9861
  33   2.0000      -0.503148       -13.6914
  34   2.0000      -0.492742       -13.4082
  35   2.0000      -0.478361       -13.0169
  36   2.0000      -0.470281       -12.7970
  37   2.0000      -0.469897       -12.7866
  38   2.0000      -0.455133       -12.3848
  39   2.0000      -0.448465       -12.2034
  40   2.0000      -0.429772       -11.6947
  41   2.0000      -0.424557       -11.5528
  42   2.0000      -0.418039       -11.3754
  43   2.0000      -0.401939       -10.9373
  44   2.0000      -0.391201       -10.6451
  45   2.0000      -0.386921       -10.5287
  46   2.0000      -0.372470       -10.1354
  47   2.0000      -0.366654        -9.9772
  48   2.0000      -0.360756        -9.8167
  49   2.0000      -0.316270        -8.6061
  50   2.0000      -0.303570        -8.2606
  51   2.0000      -0.303170        -8.2497
  52   0.0000       0.026052         0.7089
  53   0.0000       0.054136         1.4731
  54   0.0000       0.059245         1.6121
  55   0.0000       0.064878         1.7654
  56   0.0000       0.077135         2.0989

MULLIKEN ATOMIC CHARGES
-----------------------
   0 C :    1.261520
   1 H :   -0.295696
   2 N :   -0.587579
   3 C :    0.477028
   4 H :   -0.402544
   5 H :   -0.154858
   6 H :   -0.138691
   7 C :    0.973944
   8 H :   -0.069043
   9 C :    0.178081
  10 H :   -0.892924
  11 H :   -0.339015
  12 H :   -0.222061
  13 C :    0.884106
  14 C :    0.158041
  15 H :   -0.213780
  16 H :   -0.041329
  17 H :   -0.374127
  18 C :    0.546063
  19 H :   -0.084095
  20 H :   -0.152551
  21 H :   -0.732803
  22 C :    0.603031
  23 H :   -0.275622
  24 H :    0.002108
  25 C :    0.512571
  26 C :    0.267949
  27 H :    0.055355
  28 H :   -0.246070
  29 H :    0.321449
  30 H :    0.184700
  31 H :    0.210037
  32 O :   -0.722741
  33 O :   -0.690456
Sum of atomic charges:    0.0000000

LOEWDIN ATOMIC CHARGES
----------------------
   0 C :    0.098561
   1 H :    0.032925
   2 N :    0.327738
   3 C :   -0.009591
   4 H :    0.025154
   5 H :    0.024391
   6 H :    0.028157
   7 C :   -0.006792
   8 H :    0.030443
   9 C :   -0.031597
  10 H :   -0.013955
  11 H :    0.023170
  12 H :   -0.001445
  13 C :   -0.026198
  14 C :   -0.021720
  15 H :    0.022870
  16 H :    0.021482
  17 H :    0.026501
  18 C :   -0.026819
  19 H :   -0.000668
  20 H :    0.027487
  21 H :   -0.006212
  22 C :   -0.016257
  23 H :    0.019752
  24 H :    0.024102
  25 C :    0.037720
  26 C :   -0.193540
  27 H :    0.019149
  28 H :    0.030060
  29 H :    0.095374
  30 H :   -0.055186
  31 H :   -0.019706
  32 O :   -0.247139
  33 O :   -0.238210

  Mayer bond orders larger than 0.100000
B(  0-C ,  1-H ) :   0.6501 B(  0-C ,  2-N ) :   0.6330 B(  0-C ,  3-C ) :   1.1314
B(  0-C ,  4-H ) :   0.5677 B(  0-C ,  6-H ) :   0.1260 B(  0-C ,  7-C ) :   0.2661
B(  0-C , 10-H ) :  -0.2214 B(  0-C , 18-C ) :   0.1222 B(  0-C , 21-H ) :  -0.1002
B(  1-H ,  3-C ) :   0.1463 B(  1-H ,  8-H ) :   0.1018 B(  2-N ,  4-H ) :   0.3094
B(  2-N , 26-C ) :   0.1113 B(  2-N , 29-H ) :   0.8543 B(  2-N , 30-H ) :   0.8286
B(  2-N , 31-H ) :   0.7977 B(  2-N , 32-O ) :   0.1022 B(  3-C ,  4-H ) :   0.1622
B(  3-C ,  5-H ) :   0.6859 B(  3-C ,  6-H ) :   0.7593 B(  3-C ,  7-C ) :   1.1157
B(  3-C , 10-H ) :   0.2194 B(  4-H ,  7-C ) :  -0.1152 B(  4-H , 10-H ) :   0.1108
B(  4-H , 12-H ) :   0.1246 B(  4-H , 21-H ) :   0.2294 B(  5-H ,  7-C ) :   0.1429
B(  7-C ,  8-H ) :   0.6368 B(  7-C ,  9-C ) :   1.0491 B(  7-C , 11-H ) :   0.2167
B(  7-C , 12-H ) :   0.1012 B(  8-H ,  9-C ) :   0.2020 B(  9-C , 10-H ) :   0.3289
B(  9-C , 11-H ) :   0.8240 B(  9-C , 12-H ) :   0.8380 B(  9-C , 13-C ) :   1.1633
B(  9-C , 14-C ) :   0.1319 B(  9-C , 15-H ) :   0.1387 B(  9-C , 16-H ) :   0.2734
B( 10-H , 13-C ) :  -0.1348 B( 10-H , 19-H ) :   0.1376 B( 13-C , 14-C ) :   1.1189
B( 13-C , 15-H ) :   0.5988 B( 13-C , 16-H ) :   0.6275 B( 14-C , 15-H ) :   0.3201
B( 14-C , 17-H ) :   0.8476 B( 14-C , 18-C ) :   1.1061 B( 14-C , 19-H ) :   0.8612
B( 14-C , 20-H ) :   0.1860 B( 14-C , 21-H ) :   0.2829 B( 15-H , 16-H ) :  -0.1536
B( 17-H , 18-C ) :   0.1520 B( 18-C , 19-H ) :   0.1171 B( 18-C , 20-H ) :   0.6301
B( 18-C , 21-H ) :   0.4671 B( 18-C , 22-C ) :   1.1880 B( 18-C , 23-H ) :   0.1850
B( 18-C , 24-H ) :   0.2874 B( 18-C , 25-C ) :   0.1338 B( 20-H , 21-H ) :   0.1437
B( 21-H , 22-C ) :   0.1719 B( 22-C , 23-H ) :   0.7398 B( 22-C , 24-H ) :   0.6235
B( 22-C , 25-C ) :   1.1216 B( 22-C , 27-H ) :   0.1017 B( 22-C , 28-H ) :   0.1754
B( 23-H , 24-H ) :  -0.1687 B( 23-H , 25-C ) :   0.1472 B( 24-H , 25-C ) :   0.1100
B( 25-C , 26-C ) :   1.1494 B( 25-C , 27-H ) :   0.7634 B( 25-C , 28-H ) :   0.5883
B( 26-C , 27-H ) :   0.2268 B( 26-C , 28-H ) :   0.2958 B( 26-C , 32-O ) :   1.3702
B( 26-C , 33-O ) :   1.3398 B( 30-H , 32-O ) :   0.2440 B( 31-H , 33-O ) :   0.2037
B( 32-O , 33-O ) :   0.1029

FINAL SINGLE POINT ENERGY      -598.235895045472

DIPOLE MOMENT
-------------
                                X             Y             Z
Electronic contribution:     -4.65553       4.83305       6.68461
Nuclear contribution   :      5.60885      -3.40606      -8.06960
                        -----------------------------------------
Total Dipole Moment    :      0.95332       1.42699      -1.38499
                        -----------------------------------------
Magnitude (a.u.)       :      2.20529
Magnitude (Debye)      :      5.60540

Rotational constants in cm-1:     0.028465     0.023505     0.015110
Rotational constants in MHz :   853.363165   704.655786   452.976312

                             ****ORCA TERMINATED NORMALLY****
TOTAL RUN TIME: 0 days 0 hours 5 minutes 0 seconds 567 msec
