                         Program Version 5.0.0 -  RELEASE  -
|  1> !CAM-B3LYP RIJCOSX def2-SVPD def2/J TightSCF
|  2> *xyz 0 1
|  3> C         -1.78916       -0.63923        4.55750
|  4> C         -2.79070       -0.78527        5.70281
|  5> H         -2.86731       -1.83565        6.00167
|  6> H         -3.77455       -0.48658        5.33481
|  7> C         -2.45380        0.05510        6.94145
|  8> C         -2.07842        1.48042        6.56410
|  9> H         -1.62558       -0.38216        7.49891
| 10> H         -3.32527        0.08775        7.59917
| 11> F         -0.90125        1.85816        6.82810
| 12> O         -2.93658        2.17731        5.96415
| 13> H         -2.09421       -1.25377        3.73641
| 14> H         -0.81933       -0.94475        4.89064
| 15> H         -1.75281        0.38306        4.24366
| 16> *
| 17> %MaxCore 64000
| 18>
| 19> %pal nprocs 4
| 20> end
| 21>
| 22> %scf
| 23>   MaxIter 150
| 24> end
| 25>
| 26>
| 27>                          ****END OF INPUT****

CARTESIAN COORDINATES (ANGSTROEM)
---------------------------------
  C     -1.789160   -0.639230    4.557500
  C     -2.790700   -0.785270    5.702810
  H     -2.867310   -1.835650    6.001670
  H     -3.774550   -0.486580    5.334810
  C     -2.453800    0.055100    6.941450
  C     -2.078420    1.480420    6.564100
  H     -1.625580   -0.382160    7.498910
  H     -3.325270    0.087750    7.599170
  F     -0.901250    1.858160    6.828100
  O     -2.936580    2.177310    5.964150
  H     -2.094210   -1.253770    3.736410
  H     -0.819330   -0.944750    4.890640
  H     -1.752810    0.383060    4.243660

 Total Charge           Charge          ....    0
 Multiplicity           Mult            ....    1
 Number of Electrons    NEL             ....   48
 Basis Dimension        Dim             ....  182

ORBITAL ENERGIES
----------------

  NO   OCC          E(Eh)            E(eV)
   0   2.0000     -24.845379      -676.0771
   1   2.0000     -19.227165      -523.1978
   2   2.0000     -10.447335      -284.2864
   3   2.0000     -10.291497      -280.0459
   4   2.0000     -10.276166      -279.6287
   5   2.0000     -10.253627      -279.0154
   6   2.0000      -1.385714       -37.7072
   7   2.0000      -1.109616       -30.1942
   8   2.0000      -0.895698       -24.3732
   9   2.0000      -0.808156       -21.9910
  10   2.0000      -0.739403       -20.1202
  11   2.0000      -0.687936       -18.7197
  12   2.0000      -0.626636       -17.0516
  13   2.0000      -0.607557       -16.5325
  14   2.0000      -0.585684       -15.9373
  15   2.0000      -0.540188       -14.6993
  16   2.0000      -0.529350       -14.4043
  17   2.0000      -0.490030       -13.3344
  18   2.0000      -0.478238       -13.0135
  19   2.0000      -0.442998       -12.0546
  20   2.0000      -0.427843       -11.6422
  21   2.0000      -0.416091       -11.3224
  22   2.0000      -0.413447       -11.2505
  23   2.0000      -0.366859        -9.9827
  24   0.0000       0.011008         0.2995
  25   0.0000       0.044530         1.2117
  26   0.0000       0.071172         1.9367
  27   0.0000       0.075322         2.0496
  28   0.0000       0.089352         2.4314

MULLIKEN ATOMIC CHARGES
-----------------------
   0 C :    0.855341
   1 C :   -0.205325
   2 H :   -0.220237
   3 H :   -0.059357
   4 C :    0.281836
   5 C :    0.670291
   6 H :   -0.069665
   7 H :   -0.049619
   8 F :   -0.360022
   9 O :   -0.491022
  10 H :   -0.140475
  11 H :   -0.100137
  12 H :   -0.111608
Sum of atomic charges:    0.0000000

LOEWDIN ATOMIC CHARGES
----------------------
   0 C :    0.132122
   1 C :   -0.056970
   2 H :    0.024375
   3 H :    0.028278
   4 C :    0.041352
   5 C :   -0.022144
   6 H :    0.025456
   7 H :    0.040515
   8 F :   -0.035773
   9 O :   -0.131477
  10 H :   -0.013583
  11 H :   -0.012614
  12 H :   -0.019537

  Mayer bond orders larger than 0.100000
B(  0-C ,  1-C ) :   1.3314 B(  0-C , 10-H ) :   0.7215 B(  0-C , 11-H ) :   0.7583
B(  0-C , 12-H ) :   0.7918 B(  1-C ,  2-H ) :   0.9360 B(  1-C ,  3-H ) :   0.8810
B(  1-C ,  4-C ) :   1.2010 B(  1-C ,  6-H ) :   0.1500 B(  1-C ,  7-H ) :   0.1356
B(  1-C , 10-H ) :   0.2306 B(  1-C , 11-H ) :   0.1982 B(  1-C , 12-H ) :   0.2144
B(  3-H ,  4-C ) :   0.1067 B(  4-C ,  5-C ) :   1.0712 B(  4-C ,  6-H ) :   0.8626
B(  4-C ,  7-H ) :   0.8021 B(  5-C ,  6-H ) :   0.1174 B(  5-C ,  7-H ) :   0.1088
B(  5-C ,  8-F ) :   0.7377 B(  5-C ,  9-O ) :   1.8473 B(  8-F ,  9-O ) :   0.1104

FINAL SINGLE POINT ENERGY      -331.341450792382

DIPOLE MOMENT
-------------
                                X             Y             Z
Electronic contribution:      2.80235       8.93007       4.29006
Nuclear contribution   :     -2.53960     -10.05333      -3.90042
                        -----------------------------------------
Total Dipole Moment    :      0.26276      -1.12326       0.38964
                        -----------------------------------------
Magnitude (a.u.)       :      1.21761
Magnitude (Debye)      :      3.09493

Rotational constants in cm-1:     0.183043     0.080991     0.078218
Rotational constants in MHz :  5487.486217  2428.040459  2344.904824

                             ****ORCA TERMINATED NORMALLY****
TOTAL RUN TIME: 0 days 0 hours 0 minutes 29 seconds 565 msec
