                         Program Version 5.0.0 -  RELEASE  -
|  1> !CAM-B3LYP RIJCOSX def2-SVPD def2/J TightSCF
|  2> *xyz 0 1
|  3> C         -0.69912        3.48945        3.75516
|  4> H         -0.96672        4.34901        3.14049
|  5> C         -1.08067        3.79296        5.15686
|  6> C          0.77696        3.13839        3.61741
|  7> H         -1.33146        2.65651        3.44632
|  8> H          1.37140        3.88834        4.14974
|  9> H          1.04693        3.23206        2.56133
| 10> C          1.11892        1.73117        4.11516
| 11> H         -0.87449        4.76274        5.42734
| 12> H         -0.68079        3.13476        5.83900
| 13> H         -2.05755        3.53169        5.34620
| 14> H          0.52974        1.01235        3.58499
| 15> H          0.90870        1.66226        5.16204
| 16> H          2.15725        1.53562        3.94624
| 17> *
| 18> %MaxCore 64000
| 19>
| 20> %pal nprocs 4
| 21> end
| 22>
| 23> %scf
| 24>   MaxIter 150
| 25> end
| 26>
| 27>
| 28>                          ****END OF INPUT****

CARTESIAN COORDINATES (ANGSTROEM)
---------------------------------
  C     -0.699120    3.489450    3.755160
  H     -0.966720    4.349010    3.140490
  C     -1.080670    3.792960    5.156860
  C      0.776960    3.138390    3.617410
  H     -1.331460    2.656510    3.446320
  H      1.371400    3.888340    4.149740
  H      1.046930    3.232060    2.561330
  C      1.118920    1.731170    4.115160
  H     -0.874490    4.762740    5.427340
  H     -0.680790    3.134760    5.839000
  H     -2.057550    3.531690    5.346200
  H      0.529740    1.012350    3.584990
  H      0.908700    1.662260    5.162040
  H      2.157250    1.535620    3.946240

 Total Charge           Charge          ....    0
 Multiplicity           Mult            ....    1
 Number of Electrons    NEL             ....   34
 Basis Dimension        Dim             ....  160

ORBITAL ENERGIES
----------------

  NO   OCC          E(Eh)            E(eV)
   0   2.0000     -10.247329      -278.8440
   1   2.0000     -10.243322      -278.7349
   2   2.0000     -10.238486      -278.6034
   3   2.0000     -10.220019      -278.1009
   4   2.0000      -0.879368       -23.9288
   5   2.0000      -0.805457       -21.9176
   6   2.0000      -0.718127       -19.5412
   7   2.0000      -0.641780       -17.4637
   8   2.0000      -0.539668       -14.6851
   9   2.0000      -0.530223       -14.4281
  10   2.0000      -0.497619       -13.5409
  11   2.0000      -0.455361       -12.3910
  12   2.0000      -0.446189       -12.1414
  13   2.0000      -0.430804       -11.7228
  14   2.0000      -0.388943       -10.5837
  15   2.0000      -0.386031       -10.5044
  16   2.0000      -0.381211       -10.3733
  17   0.0000       0.056207         1.5295
  18   0.0000       0.080621         2.1938
  19   0.0000       0.082109         2.2343
  20   0.0000       0.089135         2.4255
  21   0.0000       0.130884         3.5615

MULLIKEN ATOMIC CHARGES
-----------------------
   0 C :   -0.028096
   1 H :   -0.234206
   2 C :    1.291894
   3 C :   -0.107363
   4 H :   -0.074059
   5 H :   -0.163539
   6 H :   -0.166694
   7 C :    0.936437
   8 H :   -0.212430
   9 H :   -0.549018
  10 H :   -0.250995
  11 H :   -0.042719
  12 H :   -0.271513
  13 H :   -0.127698
Sum of atomic charges:    0.0000000

LOEWDIN ATOMIC CHARGES
----------------------
   0 C :   -0.075190
   1 H :    0.021105
   2 C :    0.119541
   3 C :   -0.078932
   4 H :    0.021873
   5 H :    0.022503
   6 H :    0.014197
   7 C :    0.125258
   8 H :   -0.024423
   9 H :   -0.044486
  10 H :   -0.033993
  11 H :   -0.017824
  12 H :   -0.029097
  13 H :   -0.020533

  Mayer bond orders larger than 0.100000
B(  0-C ,  1-H ) :   0.9106 B(  0-C ,  2-C ) :   1.2019 B(  0-C ,  3-C ) :   1.1914
B(  0-C ,  4-H ) :   0.8399 B(  0-C ,  5-H ) :   0.1301 B(  0-C ,  6-H ) :   0.1033
B(  0-C ,  8-H ) :   0.2142 B(  0-C ,  9-H ) :   0.2657 B(  0-C , 10-H ) :   0.2257
B(  1-H ,  3-C ) :   0.1180 B(  2-C ,  4-H ) :   0.1374 B(  2-C ,  8-H ) :   0.6777
B(  2-C ,  9-H ) :   0.4169 B(  2-C , 10-H ) :   0.4986 B(  3-C ,  5-H ) :   0.8970
B(  3-C ,  6-H ) :   0.9124 B(  3-C ,  7-C ) :   1.2395 B(  3-C , 11-H ) :   0.2217
B(  3-C , 12-H ) :   0.2149 B(  3-C , 13-H ) :   0.2310 B(  7-C , 11-H ) :   0.7385
B(  7-C , 12-H ) :   0.7851 B(  7-C , 13-H ) :   0.7326 B(  9-H , 10-H ) :   0.3508

FINAL SINGLE POINT ENERGY      -158.221381475082

DIPOLE MOMENT
-------------
                                X             Y             Z
Electronic contribution:      0.12334       0.47132      -0.75837
Nuclear contribution   :     -0.14518      -0.47660       0.76944
                        -----------------------------------------
Total Dipole Moment    :     -0.02184      -0.00528       0.01107
                        -----------------------------------------
Magnitude (a.u.)       :      0.02505
Magnitude (Debye)      :      0.06367

Rotational constants in cm-1:     0.472466     0.157481     0.138592
Rotational constants in MHz : 14164.171374  4721.163669  4154.874787

                             ****ORCA TERMINATED NORMALLY****
TOTAL RUN TIME: 0 days 0 hours 0 minutes 17 seconds 965 msec
