                         Program Version 5.0.0 -  RELEASE  -
|  1> !CAM-B3LYP RIJCOSX def2-SVPD def2/J TightSCF
|  2> *xyz 0 1
|  3> C         -1.78916       -0.63923        4.55750
|  4> C         -2.79070       -0.78527        5.70281
|  5> H         -2.86731       -1.83565        6.00167
|  6> H         -3.77455       -0.48658        5.33481
|  7> C         -2.45380        0.05510        6.94145
|  8> C         -2.07842        1.48042        6.56410
|  9> H         -1.62558       -0.38216        7.49891
| 10> H         -3.32527        0.08775        7.59917
| 11> O         -0.90125        1.85816        6.82810
| 12> F         -2.93658        2.17731        5.96415
| 13> H         -2.09421       -1.25377        3.73641
| 14> H         -0.81933       -0.94475        4.89064
| 15> H         -1.75281        0.38306        4.24366
| 16> *
| 17> %MaxCore 64000
| 18>
| 19> %pal nprocs 4
| 20> end
| 21>
| 22> %scf
| 23>   MaxIter 150
| 24> end
| 25>
| 26>
| 27>                          ****END OF INPUT****

CARTESIAN COORDINATES (ANGSTROEM)
---------------------------------
  C     -1.789160   -0.639230    4.557500
  C     -2.790700   -0.785270    5.702810
  H     -2.867310   -1.835650    6.001670
  H     -3.774550   -0.486580    5.334810
  C     -2.453800    0.055100    6.941450
  C     -2.078420    1.480420    6.564100
  H     -1.625580   -0.382160    7.498910
  H     -3.325270    0.087750    7.599170
  O     -0.901250    1.858160    6.828100
  F     -2.936580    2.177310    5.964150
  H     -2.094210   -1.253770    3.736410
  H     -0.819330   -0.944750    4.890640
  H     -1.752810    0.383060    4.243660

 Total Charge           Charge          ....    0
 Multiplicity           Mult            ....    1
 Number of Electrons    NEL             ....   48
 Basis Dimension        Dim             ....  182

ORBITAL ENERGIES
----------------

  NO   OCC          E(Eh)            E(eV)
   0   2.0000     -24.848790      -676.1700
   1   2.0000     -19.225232      -523.1452
   2   2.0000     -10.446798      -284.2718
   3   2.0000     -10.290855      -280.0284
   4   2.0000     -10.279641      -279.7232
   5   2.0000     -10.255926      -279.0779
   6   2.0000      -1.391251       -37.8579
   7   2.0000      -1.104367       -30.0513
   8   2.0000      -0.898895       -24.4602
   9   2.0000      -0.807997       -21.9867
  10   2.0000      -0.740411       -20.1476
  11   2.0000      -0.692292       -18.8382
  12   2.0000      -0.631658       -17.1883
  13   2.0000      -0.618293       -16.8246
  14   2.0000      -0.569822       -15.5057
  15   2.0000      -0.548089       -14.9143
  16   2.0000      -0.530258       -14.4290
  17   2.0000      -0.490684       -13.3522
  18   2.0000      -0.474299       -12.9063
  19   2.0000      -0.444000       -12.0819
  20   2.0000      -0.435545       -11.8518
  21   2.0000      -0.418189       -11.3795
  22   2.0000      -0.415528       -11.3071
  23   2.0000      -0.360031        -9.7969
  24   0.0000       0.014207         0.3866
  25   0.0000       0.041997         1.1428
  26   0.0000       0.071769         1.9529
  27   0.0000       0.077079         2.0974
  28   0.0000       0.084799         2.3075

MULLIKEN ATOMIC CHARGES
-----------------------
   0 C :    0.871934
   1 C :   -0.232857
   2 H :   -0.224548
   3 H :   -0.083368
   4 C :    0.311433
   5 C :    0.684033
   6 H :   -0.083575
   7 H :   -0.059672
   8 O :   -0.452188
   9 F :   -0.393925
  10 H :   -0.149131
  11 H :   -0.080979
  12 H :   -0.107156
Sum of atomic charges:    0.0000000

LOEWDIN ATOMIC CHARGES
----------------------
   0 C :    0.133320
   1 C :   -0.063773
   2 H :    0.024826
   3 H :    0.022470
   4 C :    0.044231
   5 C :   -0.027228
   6 H :    0.036593
   7 H :    0.034913
   8 O :   -0.136335
   9 F :   -0.028645
  10 H :   -0.014253
  11 H :   -0.006756
  12 H :   -0.019362

  Mayer bond orders larger than 0.100000
B(  0-C ,  1-C ) :   1.3327 B(  0-C , 10-H ) :   0.7101 B(  0-C , 11-H ) :   0.7585
B(  0-C , 12-H ) :   0.7896 B(  1-C ,  2-H ) :   0.9382 B(  1-C ,  3-H ) :   0.8814
B(  1-C ,  4-C ) :   1.1782 B(  1-C ,  6-H ) :   0.1426 B(  1-C ,  7-H ) :   0.1356
B(  1-C , 10-H ) :   0.2386 B(  1-C , 11-H ) :   0.2064 B(  1-C , 12-H ) :   0.2145
B(  3-H ,  4-C ) :   0.1025 B(  4-C ,  5-C ) :   1.0341 B(  4-C ,  6-H ) :   0.8780
B(  4-C ,  7-H ) :   0.8091 B(  5-C ,  6-H ) :   0.1649 B(  5-C ,  8-O ) :   1.8362
B(  5-C ,  9-F ) :   0.7144 B(  8-O ,  9-F ) :   0.1225

FINAL SINGLE POINT ENERGY      -331.339023432025

DIPOLE MOMENT
-------------
                                X             Y             Z
Electronic contribution:     -0.64822       9.44534       2.81787
Nuclear contribution   :     -0.24054     -10.41383      -2.92452
                        -----------------------------------------
Total Dipole Moment    :     -0.88877      -0.96849      -0.10665
                        -----------------------------------------
Magnitude (a.u.)       :      1.31881
Magnitude (Debye)      :      3.35214

Rotational constants in cm-1:     0.180403     0.081943     0.079197
Rotational constants in MHz :  5408.335479  2456.587956  2374.272438

                             ****ORCA TERMINATED NORMALLY****
TOTAL RUN TIME: 0 days 0 hours 0 minutes 29 seconds 492 msec
