                         Program Version 5.0.0 -  RELEASE  -
|  1> !PBE D3BJ RIJCOSX def2-TZVP def2/J TightSCF
|  2> *xyz -1 1
|  3> C         -0.91495        0.61511        2.50554
|  4> C         -0.05915        1.50352        3.41058
|  5> H          0.36536        2.34431        2.86116
|  6> H         -0.69226        1.92021        4.19898
|  7> C          1.08303        0.74964        4.08571
|  8> O          2.22817        1.26348        4.01983
|  9> O          0.81003       -0.34541        4.63627
| 10> H         -0.30401        0.20228        1.73015
| 11> H         -1.69811        1.19946        2.06954
| 12> H         -1.34124       -0.17772        3.08397
| 13> *
| 14>
| 15> %MaxCore 64000
| 16>
| 17> %pal nprocs 4
| 18> end
| 19>
| 20> %scf
| 21>   MaxIter 150
| 22> end
| 23>
| 24>
| 25>                          ****END OF INPUT****

CARTESIAN COORDINATES (ANGSTROEM)
---------------------------------
  C     -0.914950    0.615110    2.505540
  C     -0.059150    1.503520    3.410580
  H      0.365360    2.344310    2.861160
  H     -0.692260    1.920210    4.198980
  C      1.083030    0.749640    4.085710
  O      2.228170    1.263480    4.019830
  O      0.810030   -0.345410    4.636270
  H     -0.304010    0.202280    1.730150
  H     -1.698110    1.199460    2.069540
  H     -1.341240   -0.177720    3.083970

 Total Charge           Charge          ....   -1
 Multiplicity           Mult            ....    1
 Number of Electrons    NEL             ....   40
 Basis Dimension        Dim             ....  185

ORBITAL ENERGIES
----------------

  NO   OCC          E(Eh)            E(eV)
   0   2.0000     -18.474287      -502.7109
   1   2.0000     -18.472591      -502.6648
   2   2.0000      -9.742628      -265.1104
   3   2.0000      -9.709878      -264.2192
   4   2.0000      -9.698648      -263.9136
   5   2.0000      -0.721363       -19.6293
   6   2.0000      -0.633149       -17.2289
   7   2.0000      -0.527274       -14.3478
   8   2.0000      -0.403968       -10.9925
   9   2.0000      -0.259448        -7.0599
  10   2.0000      -0.238180        -6.4812
  11   2.0000      -0.202074        -5.4987
  12   2.0000      -0.176030        -4.7900
  13   2.0000      -0.160521        -4.3680
  14   2.0000      -0.149629        -4.0716
  15   2.0000      -0.122145        -3.3237
  16   2.0000      -0.109003        -2.9661
  17   2.0000      -0.000786        -0.0214
  18   2.0000       0.012748         0.3469
  19   2.0000       0.030162         0.8208
  20   0.0000       0.166337         4.5263
  21   0.0000       0.207869         5.6564
  22   0.0000       0.217393         5.9156
  23   0.0000       0.229598         6.2477
  24   0.0000       0.236915         6.4468

MULLIKEN ATOMIC CHARGES
-----------------------
   0 C :   -0.308383
   1 C :   -0.134373
   2 H :    0.030083
   3 H :    0.029721
   4 C :    0.108166
   5 O :   -0.472815
   6 O :   -0.470252
   7 H :    0.082994
   8 H :    0.050609
   9 H :    0.084251
Sum of atomic charges:   -1.0000000

LOEWDIN ATOMIC CHARGES
----------------------
   0 C :   -0.335031
   1 C :   -0.304776
   2 H :    0.117417
   3 H :    0.121939
   4 C :   -0.737844
   5 O :   -0.088105
   6 O :   -0.083739
   7 H :    0.108320
   8 H :    0.092417
   9 H :    0.109402

  Mayer bond orders larger than 0.100000
B(  0-C ,  1-C ) :   0.9710 B(  0-C ,  7-H ) :   0.9767 B(  0-C ,  8-H ) :   0.9568
B(  0-C ,  9-H ) :   0.9607 B(  1-C ,  2-H ) :   0.9356 B(  1-C ,  3-H ) :   0.9381
B(  1-C ,  4-C ) :   0.9407 B(  4-C ,  5-O ) :   1.9336 B(  4-C ,  6-O ) :   1.8911

Dispersion correction           -0.006536227
FINAL SINGLE POINT ENERGY      -267.636085879357

DIPOLE MOMENT
-------------
                                X             Y             Z
Electronic contribution:      4.92108      -1.08376       3.47659
Nuclear contribution   :     -6.38408       1.63097      -4.40540
                        -----------------------------------------
Total Dipole Moment    :     -1.46299       0.54721      -0.92881
                        -----------------------------------------
Magnitude (a.u.)       :      1.81727
Magnitude (Debye)      :      4.61914

Rotational constants in cm-1:     0.319732     0.134414     0.104753
Rotational constants in MHz :  9585.336550  4029.633034  3140.404334

                             ****ORCA TERMINATED NORMALLY****
TOTAL RUN TIME: 0 days 0 hours 0 minutes 9 seconds 594 msec
