                         Program Version 5.0.0 -  RELEASE  -
|  1> !PBE D3BJ RIJCOSX def2-TZVP def2/J TightSCF
|  2> *xyz 1 1
|  3> C          4.60295       -2.44010        2.63478
|  4> C          3.86085       -1.59157        3.62289
|  5> N          2.75650       -2.04616        4.16633
|  6> N          4.25433       -0.36291        3.86046
|  7> H          3.56526        0.31099        4.16898
|  8> H          5.05429       -0.01606        3.33784
|  9> H          2.43970       -2.97389        3.89740
| 10> H          2.06687       -1.41253        4.54981
| 11> C          3.74469       -2.58056        1.36188
| 12> H          5.56156       -1.97135        2.40708
| 13> H          4.81050       -3.42255        3.06310
| 14> H          4.26314       -3.18477        0.64702
| 15> H          3.56325       -1.61180        0.94535
| 16> H          2.81197       -3.04259        1.60980
| 17> *
| 18>
| 19> %MaxCore 64000
| 20>
| 21> %pal nprocs 4
| 22> end
| 23>
| 24> %scf
| 25>   MaxIter 150
| 26> end
| 27>
| 28>
| 29>                          ****END OF INPUT****

CARTESIAN COORDINATES (ANGSTROEM)
---------------------------------
  C      4.602950   -2.440100    2.634780
  C      3.860850   -1.591570    3.622890
  N      2.756500   -2.046160    4.166330
  N      4.254330   -0.362910    3.860460
  H      3.565260    0.310990    4.168980
  H      5.054290   -0.016060    3.337840
  H      2.439700   -2.973890    3.897400
  H      2.066870   -1.412530    4.549810
  C      3.744690   -2.580560    1.361880
  H      5.561560   -1.971350    2.407080
  H      4.810500   -3.422550    3.063100
  H      4.263140   -3.184770    0.647020
  H      3.563250   -1.611800    0.945350
  H      2.811970   -3.042590    1.609800

 Total Charge           Charge          ....    1
 Multiplicity           Mult            ....    1
 Number of Electrons    NEL             ....   40
 Basis Dimension        Dim             ....  209

ORBITAL ENERGIES
----------------

  NO   OCC          E(Eh)            E(eV)
   0   2.0000     -14.228969      -387.1899
   1   2.0000     -14.228082      -387.1658
   2   2.0000     -10.193934      -277.3910
   3   2.0000     -10.083431      -274.3841
   4   2.0000     -10.041433      -273.2413
   5   2.0000      -1.125602       -30.6292
   6   2.0000      -1.034503       -28.1503
   7   2.0000      -0.900876       -24.5141
   8   2.0000      -0.800178       -21.7740
   9   2.0000      -0.758934       -20.6517
  10   2.0000      -0.720741       -19.6124
  11   2.0000      -0.699870       -19.0444
  12   2.0000      -0.649917       -17.6851
  13   2.0000      -0.615810       -16.7570
  14   2.0000      -0.579034       -15.7563
  15   2.0000      -0.556646       -15.1471
  16   2.0000      -0.509375       -13.8608
  17   2.0000      -0.500924       -13.6308
  18   2.0000      -0.488757       -13.2998
  19   2.0000      -0.457454       -12.4480
  20   0.0000      -0.249283        -6.7833
  21   0.0000      -0.183441        -4.9917
  22   0.0000      -0.139272        -3.7898
  23   0.0000      -0.137763        -3.7487
  24   0.0000      -0.108246        -2.9455

MULLIKEN ATOMIC CHARGES
-----------------------
   0 C :   -0.238843
   1 C :    0.261002
   2 N :   -0.287713
   3 N :   -0.278761
   4 H :    0.268990
   5 H :    0.286718
   6 H :    0.287600
   7 H :    0.271586
   8 C :   -0.332178
   9 H :    0.141824
  10 H :    0.176655
  11 H :    0.176319
  12 H :    0.140644
  13 H :    0.126156
Sum of atomic charges:    1.0000000

LOEWDIN ATOMIC CHARGES
----------------------
   0 C :   -0.220154
   1 C :   -0.318577
   2 N :    0.129193
   3 N :    0.128041
   4 H :    0.198806
   5 H :    0.209222
   6 H :    0.209068
   7 H :    0.198312
   8 C :   -0.259351
   9 H :    0.159990
  10 H :    0.168504
  11 H :    0.142193
  12 H :    0.130931
  13 H :    0.123824

  Mayer bond orders larger than 0.100000
B(  0-C ,  1-C ) :   1.0229 B(  0-C ,  8-C ) :   0.9720 B(  0-C ,  9-H ) :   0.9458
B(  0-C , 10-H ) :   0.9310 B(  1-C ,  2-N ) :   1.4555 B(  1-C ,  3-N ) :   1.4734
B(  2-N ,  6-H ) :   0.8881 B(  2-N ,  7-H ) :   0.8882 B(  3-N ,  4-H ) :   0.8884
B(  3-N ,  5-H ) :   0.8836 B(  8-C , 11-H ) :   0.9523 B(  8-C , 12-H ) :   0.9545
B(  8-C , 13-H ) :   0.9659

Dispersion correction           -0.010285024
FINAL SINGLE POINT ENERGY      -228.824119872278

DIPOLE MOMENT
-------------
                                X             Y             Z
Electronic contribution:     -0.24842       1.80167       3.73783
Nuclear contribution   :     -0.22400      -1.16268      -3.30447
                        -----------------------------------------
Total Dipole Moment    :     -0.47243       0.63900       0.43336
                        -----------------------------------------
Magnitude (a.u.)       :      0.90515
Magnitude (Debye)      :      2.30072

Rotational constants in cm-1:     0.258103     0.130571     0.102508
Rotational constants in MHz :  7737.732062  3914.431392  3073.119154

                             ****ORCA TERMINATED NORMALLY****
TOTAL RUN TIME: 0 days 0 hours 0 minutes 12 seconds 158 msec
