                         Program Version 5.0.0 -  RELEASE  -
|  1> !PBE D3BJ RIJCOSX def2-TZVP def2/J TightSCF xyzfile
|  2>
|  3> *xyzfile 0 1 B.xyz
|  4>
|  5> %MaxCore 64000
|  6>
|  7> %pal nprocs 18
|  8> end
|  9>
| 10> %scf
| 11>   MaxIter 150
| 12> end
| 13>
| 14>
| 15>                          ****END OF INPUT****

CARTESIAN COORDINATES (ANGSTROEM)
---------------------------------
  C      4.602954   -2.440100    2.634780
  C     -0.914947    0.615112    2.505538
  C     -0.059146    1.503524    3.410578
  H      0.365364    2.344315    2.861161
  H     -0.692261    1.920207    4.198985
  C      1.083027    0.749640    4.085705
  C      3.860851   -1.591565    3.622893
  N      2.756502   -2.046159    4.166333
  N      4.254325   -0.362905    3.860455
  H      3.565256    0.310994    4.168983
  H      5.054292   -0.016059    3.337838
  H      2.439696   -2.973894    3.897395
  H      2.066869   -1.412532    4.549813
  O      2.228167    1.263475    4.019826
  O      0.810034   -0.345411    4.636269
  C      3.744685   -2.580557    1.361882
  C      0.772139    0.636882    0.562129
  C     -0.130740   -0.193985    1.470763
  H     -0.840563   -0.760165    0.856377
  H      0.466691   -0.938942    2.006959
  H     -1.647961    1.245963    1.991076
  H     -1.478180   -0.081046    3.130424
  C      3.203721   -1.256004    0.826211
  H      2.898939   -3.239289    1.583074
  H      4.334962   -3.095523    0.600188
  C      2.107815   -1.442385   -0.216865
  H      2.786775   -0.672760    1.650711
  H      4.021008   -0.652993    0.414046
  C      1.390662   -0.145912   -0.602422
  H      1.372179   -2.152184    0.176151
  H      2.523302   -1.906787   -1.117115
  H      1.561361    1.100094    1.161831
  H      0.195516    1.468325    0.142758
  H      0.602893   -0.398214   -1.319716
  H      2.087247    0.508272   -1.137335
  H      5.561557   -1.971347    2.407084
  H      4.810498   -3.422552    3.063099

 Total Charge           Charge          ....    0
 Multiplicity           Mult            ....    1
 Number of Electrons    NEL             ....  118
 Basis Dimension        Dim             ....  597

ORBITAL ENERGIES
----------------

  NO   OCC          E(Eh)            E(eV)
   0   2.0000     -18.673708      -508.1374
   1   2.0000     -18.671992      -508.0907
   2   2.0000     -14.023511      -381.5991
   3   2.0000     -14.023500      -381.5988
   4   2.0000     -10.006267      -272.2844
   5   2.0000      -9.933366      -270.3006
   6   2.0000      -9.929928      -270.2071
   7   2.0000      -9.912547      -269.7341
   8   2.0000      -9.889431      -269.1051
   9   2.0000      -9.881131      -268.8793
  10   2.0000      -9.873463      -268.6706
  11   2.0000      -9.862938      -268.3842
  12   2.0000      -9.859606      -268.2935
  13   2.0000      -9.855540      -268.1829
  14   2.0000      -9.846156      -267.9275
  15   2.0000      -0.935310       -25.4511
  16   2.0000      -0.919500       -25.0209
  17   2.0000      -0.844858       -22.9898
  18   2.0000      -0.829170       -22.5629
  19   2.0000      -0.762840       -20.7579
  20   2.0000      -0.729855       -19.8604
  21   2.0000      -0.701252       -19.0820
  22   2.0000      -0.664241       -18.0749
  23   2.0000      -0.628722       -17.1084
  24   2.0000      -0.596820       -16.2403
  25   2.0000      -0.580282       -15.7903
  26   2.0000      -0.559411       -15.2224
  27   2.0000      -0.527521       -14.3546
  28   2.0000      -0.521804       -14.1990
  29   2.0000      -0.514660       -14.0046
  30   2.0000      -0.488580       -13.2949
  31   2.0000      -0.461828       -12.5670
  32   2.0000      -0.457422       -12.4471
  33   2.0000      -0.434976       -11.8363
  34   2.0000      -0.421620       -11.4729
  35   2.0000      -0.412726       -11.2308
  36   2.0000      -0.406335       -11.0569
  37   2.0000      -0.395233       -10.7548
  38   2.0000      -0.383486       -10.4352
  39   2.0000      -0.372425       -10.1342
  40   2.0000      -0.363883        -9.9018
  41   2.0000      -0.359974        -9.7954
  42   2.0000      -0.352137        -9.5821
  43   2.0000      -0.347463        -9.4550
  44   2.0000      -0.330831        -9.0024
  45   2.0000      -0.327994        -8.9252
  46   2.0000      -0.323344        -8.7986
  47   2.0000      -0.316844        -8.6218
  48   2.0000      -0.307429        -8.3656
  49   2.0000      -0.292857        -7.9690
  50   2.0000      -0.289059        -7.8657
  51   2.0000      -0.281840        -7.6693
  52   2.0000      -0.268403        -7.3036
  53   2.0000      -0.264336        -7.1929
  54   2.0000      -0.262323        -7.1382
  55   2.0000      -0.254833        -6.9344
  56   2.0000      -0.197676        -5.3790
  57   2.0000      -0.183072        -4.9816
  58   2.0000      -0.172176        -4.6851
  59   0.0000      -0.065803        -1.7906
  60   0.0000      -0.020741        -0.5644
  61   0.0000       0.001066         0.0290
  62   0.0000       0.016465         0.4480
  63   0.0000       0.026273         0.7149

MULLIKEN ATOMIC CHARGES
-----------------------
   0 C :   -0.182846
   1 C :   -0.132522
   2 C :   -0.141228
   3 H :    0.088299
   4 H :    0.092196
   5 C :    0.222732
   6 C :    0.146161
   7 N :   -0.249122
   8 N :   -0.249688
   9 H :    0.249673
  10 H :    0.229433
  11 H :    0.229909
  12 H :    0.250888
  13 O :   -0.478042
  14 O :   -0.462646
  15 C :   -0.212041
  16 C :   -0.261605
  17 C :   -0.195819
  18 H :    0.076829
  19 H :    0.092950
  20 H :    0.078477
  21 H :    0.083495
  22 C :   -0.271191
  23 H :    0.108979
  24 H :    0.111164
  25 C :   -0.153723
  26 H :    0.150265
  27 H :    0.079952
  28 C :   -0.128562
  29 H :    0.098236
  30 H :    0.088511
  31 H :    0.135279
  32 H :    0.086057
  33 H :    0.092321
  34 H :    0.081974
  35 H :    0.106264
  36 H :    0.138990
Sum of atomic charges:   -0.0000000

LOEWDIN ATOMIC CHARGES
----------------------
   0 C :   -0.218234
   1 C :   -0.270155
   2 C :   -0.247438
   3 H :    0.138065
   4 H :    0.146371
   5 C :   -0.662748
   6 C :   -0.359310
   7 N :    0.117849
   8 N :    0.112771
   9 H :    0.148909
  10 H :    0.182679
  11 H :    0.184100
  12 H :    0.149751
  13 O :   -0.028010
  14 O :   -0.021943
  15 C :   -0.254678
  16 C :   -0.274925
  17 C :   -0.276303
  18 H :    0.135003
  19 H :    0.135486
  20 H :    0.133655
  21 H :    0.140483
  22 C :   -0.268693
  23 H :    0.139094
  24 H :    0.142849
  25 C :   -0.272315
  26 H :    0.150503
  27 H :    0.137407
  28 C :   -0.270635
  29 H :    0.138955
  30 H :    0.135840
  31 H :    0.141061
  32 H :    0.138833
  33 H :    0.138324
  34 H :    0.136103
  35 H :    0.147912
  36 H :    0.153386

  Mayer bond orders larger than 0.100000
B(  0-C ,  6-C ) :   1.0159 B(  0-C , 15-C ) :   0.9670 B(  0-C , 35-H ) :   0.9482
B(  0-C , 36-H ) :   0.9476 B(  1-C ,  2-C ) :   0.9937 B(  1-C , 17-C ) :   1.0276
B(  1-C , 20-H ) :   0.9438 B(  1-C , 21-H ) :   0.9356 B(  2-C ,  3-H ) :   0.9509
B(  2-C ,  4-H ) :   0.9246 B(  2-C ,  5-C ) :   0.9777 B(  5-C , 13-O ) :   1.6930
B(  5-C , 14-O ) :   1.7164 B(  6-C ,  7-N ) :   1.5050 B(  6-C ,  8-N ) :   1.5091
B(  7-N , 11-H ) :   0.9108 B(  7-N , 12-H ) :   0.7468 B(  8-N ,  9-H ) :   0.7541
B(  8-N , 10-H ) :   0.9066 B(  9-H , 13-O ) :   0.2228 B( 12-H , 14-O ) :   0.2303
B( 15-C , 22-C ) :   0.9639 B( 15-C , 23-H ) :   0.9656 B( 15-C , 24-H ) :   0.9450
B( 16-C , 17-C ) :   0.9875 B( 16-C , 28-C ) :   1.0112 B( 16-C , 31-H ) :   0.9556
B( 16-C , 32-H ) :   0.9454 B( 17-C , 18-H ) :   0.9451 B( 17-C , 19-H ) :   0.9506
B( 22-C , 25-C ) :   1.0175 B( 22-C , 26-H ) :   0.9552 B( 22-C , 27-H ) :   0.9422
B( 25-C , 28-C ) :   1.0052 B( 25-C , 29-H ) :   0.9477 B( 25-C , 30-H ) :   0.9476
B( 28-C , 33-H ) :   0.9463 B( 28-C , 34-H ) :   0.9509

Dispersion correction           -0.043205529
FINAL SINGLE POINT ENERGY      -691.840237904669

DIPOLE MOMENT
-------------
                                X             Y             Z
Electronic contribution:      3.39716       1.67820      13.10243
Nuclear contribution   :     -1.50655      -3.48027     -14.35034
                        -----------------------------------------
Total Dipole Moment    :      1.89060      -1.80208      -1.24791
                        -----------------------------------------
Magnitude (a.u.)       :      2.89468
Magnitude (Debye)      :      7.35769

Rotational constants in cm-1:     0.021781     0.017296     0.011403
Rotational constants in MHz :   652.971749   518.510612   341.853154

                             ****ORCA TERMINATED NORMALLY****
TOTAL RUN TIME: 0 days 0 hours 0 minutes 34 seconds 846 msec
