                         Program Version 5.0.0 -  RELEASE  -
|  1> !PBE D3BJ RIJCOSX def2-TZVP def2/J TightSCF
|  2> *xyz 0 1
|  3> C         -0.91495        0.61511        2.50554
|  4> C         -0.05915        1.50352        3.41058
|  5> H          0.36536        2.34431        2.86116
|  6> H         -0.69226        1.92021        4.19898
|  7> C          1.08303        0.74964        4.08571
|  8> F          2.22817        1.26348        4.01983
|  9> O          0.81003       -0.34541        4.63627
| 10> H         -0.30401        0.20228        1.73015
| 11> H         -1.69811        1.19946        2.06954
| 12> H         -1.34124       -0.17772        3.08397
| 13> *
| 14>
| 15> %MaxCore 64000
| 16>
| 17> %pal nprocs 4
| 18> end
| 19>
| 20> %scf
| 21>   MaxIter 150
| 22> end
| 23>
| 24>
| 25>                          ****END OF INPUT****

CARTESIAN COORDINATES (ANGSTROEM)
---------------------------------
  C     -0.914950    0.615110    2.505540
  C     -0.059150    1.503520    3.410580
  H      0.365360    2.344310    2.861160
  H     -0.692260    1.920210    4.198980
  C      1.083030    0.749640    4.085710
  F      2.228170    1.263480    4.019830
  O      0.810030   -0.345410    4.636270
  H     -0.304010    0.202280    1.730150
  H     -1.698110    1.199460    2.069540
  H     -1.341240   -0.177720    3.083970

 Total Charge           Charge          ....    0
 Multiplicity           Mult            ....    1
 Number of Electrons    NEL             ....   40
 Basis Dimension        Dim             ....  185

ORBITAL ENERGIES
----------------

  NO   OCC          E(Eh)            E(eV)
   0   2.0000     -24.323392      -661.8732
   1   2.0000     -18.751098      -510.2433
   2   2.0000     -10.045403      -273.3493
   3   2.0000      -9.911273      -269.6995
   4   2.0000      -9.882318      -268.9115
   5   2.0000      -1.212770       -33.0012
   6   2.0000      -0.943648       -25.6780
   7   2.0000      -0.727031       -19.7835
   8   2.0000      -0.623555       -16.9678
   9   2.0000      -0.573492       -15.6055
  10   2.0000      -0.486918       -13.2497
  11   2.0000      -0.472647       -12.8614
  12   2.0000      -0.449258       -12.2249
  13   2.0000      -0.415366       -11.3027
  14   2.0000      -0.382707       -10.4140
  15   2.0000      -0.352811        -9.6005
  16   2.0000      -0.331641        -9.0244
  17   2.0000      -0.327628        -8.9152
  18   2.0000      -0.305731        -8.3194
  19   2.0000      -0.243007        -6.6125
  20   0.0000      -0.065313        -1.7773
  21   0.0000       0.014543         0.3957
  22   0.0000       0.053481         1.4553
  23   0.0000       0.066284         1.8037
  24   0.0000       0.076090         2.0705

MULLIKEN ATOMIC CHARGES
-----------------------
   0 C :   -0.343925
   1 C :   -0.208022
   2 H :    0.106330
   3 H :    0.124489
   4 C :    0.297303
   5 F :   -0.062149
   6 O :   -0.290512
   7 H :    0.117657
   8 H :    0.121244
   9 H :    0.137586
Sum of atomic charges:    0.0000000

LOEWDIN ATOMIC CHARGES
----------------------
   0 C :   -0.291627
   1 C :   -0.269149
   2 H :    0.139722
   3 H :    0.157634
   4 C :   -0.536244
   5 F :    0.342986
   6 O :    0.087748
   7 H :    0.121723
   8 H :    0.120576
   9 H :    0.126629

  Mayer bond orders larger than 0.100000
B(  0-C ,  1-C ) :   0.9978 B(  0-C ,  7-H ) :   0.9717 B(  0-C ,  8-H ) :   0.9605
B(  0-C ,  9-H ) :   0.9630 B(  1-C ,  2-H ) :   0.9445 B(  1-C ,  3-H ) :   0.9238
B(  1-C ,  4-C ) :   1.0070 B(  4-C ,  5-F ) :   1.1952 B(  4-C ,  6-O ) :   2.0772

Dispersion correction           -0.006216165
FINAL SINGLE POINT ENERGY      -292.192731114105

DIPOLE MOMENT
-------------
                                X             Y             Z
Electronic contribution:      7.77010      -0.21508       4.13243
Nuclear contribution   :     -8.12386       1.06915      -4.71960
                        -----------------------------------------
Total Dipole Moment    :     -0.35377       0.85406      -0.58717
                        -----------------------------------------
Magnitude (a.u.)       :      1.09514
Magnitude (Debye)      :      2.78363

Rotational constants in cm-1:     0.309513     0.127560     0.099675
Rotational constants in MHz :  9278.979128  3824.146597  2988.174827

                             ****ORCA TERMINATED NORMALLY****
TOTAL RUN TIME: 0 days 0 hours 0 minutes 9 seconds 163 msec
