                         Program Version 5.0.0 -  RELEASE  -
|  1> !PBE D3BJ RIJCOSX def2-TZVP def2/J TightSCF
|  2> *xyz 0 1
|  3> C          4.60295       -2.44010        2.63478
|  4> C          3.86085       -1.59157        3.62289
|  5> C          2.75650       -2.04616        4.16633
|  6> N          4.25433       -0.36291        3.86046
|  7> H          3.56526        0.31099        4.16898
|  8> H          5.05429       -0.01606        3.33784
|  9> H          2.43970       -2.97389        3.89740
| 10> H          2.06687       -1.41253        4.54981
| 11> C          3.74469       -2.58056        1.36188
| 12> H          5.56156       -1.97135        2.40708
| 13> H          4.81050       -3.42255        3.06310
| 14> H          4.26314       -3.18477        0.64702
| 15> H          3.56325       -1.61180        0.94535
| 16> H          2.81197       -3.04259        1.60980
| 17> *
| 18>
| 19> %MaxCore 64000
| 20>
| 21> %pal nprocs 4
| 22> end
| 23>
| 24> %scf
| 25>   MaxIter 150
| 26> end
| 27>
| 28>
| 29>                          ****END OF INPUT****

CARTESIAN COORDINATES (ANGSTROEM)
---------------------------------
  C      4.602950   -2.440100    2.634780
  C      3.860850   -1.591570    3.622890
  C      2.756500   -2.046160    4.166330
  N      4.254330   -0.362910    3.860460
  H      3.565260    0.310990    4.168980
  H      5.054290   -0.016060    3.337840
  H      2.439700   -2.973890    3.897400
  H      2.066870   -1.412530    4.549810
  C      3.744690   -2.580560    1.361880
  H      5.561560   -1.971350    2.407080
  H      4.810500   -3.422550    3.063100
  H      4.263140   -3.184770    0.647020
  H      3.563250   -1.611800    0.945350
  H      2.811970   -3.042590    1.609800

 Total Charge           Charge          ....    0
 Multiplicity           Mult            ....    1
 Number of Electrons    NEL             ....   40
 Basis Dimension        Dim             ....  209

ORBITAL ENERGIES
----------------

  NO   OCC          E(Eh)            E(eV)
   0   2.0000     -13.984873      -380.5477
   1   2.0000      -9.894166      -269.2340
   2   2.0000      -9.883109      -268.9331
   3   2.0000      -9.864529      -268.4275
   4   2.0000      -9.807820      -266.8844
   5   2.0000      -0.853394       -23.2220
   6   2.0000      -0.709542       -19.3076
   7   2.0000      -0.642422       -17.4812
   8   2.0000      -0.576681       -15.6923
   9   2.0000      -0.507363       -13.8060
  10   2.0000      -0.473467       -12.8837
  11   2.0000      -0.431092       -11.7306
  12   2.0000      -0.399657       -10.8752
  13   2.0000      -0.365072        -9.9341
  14   2.0000      -0.343211        -9.3393
  15   2.0000      -0.332630        -9.0513
  16   2.0000      -0.310135        -8.4392
  17   2.0000      -0.299521        -8.1504
  18   2.0000      -0.285178        -7.7601
  19   2.0000      -0.157947        -4.2980
  20   0.0000       0.004236         0.1153
  21   0.0000       0.010525         0.2864
  22   0.0000       0.049548         1.3483
  23   0.0000       0.052352         1.4246
  24   0.0000       0.069195         1.8829

MULLIKEN ATOMIC CHARGES
-----------------------
   0 C :   -0.196583
   1 C :    0.188022
   2 C :   -0.403707
   3 N :   -0.396884
   4 H :    0.220041
   5 H :    0.212996
   6 H :    0.088089
   7 H :    0.077014
   8 C :   -0.315192
   9 H :    0.078153
  10 H :    0.115555
  11 H :    0.108639
  12 H :    0.105608
  13 H :    0.118248
Sum of atomic charges:   -0.0000000

LOEWDIN ATOMIC CHARGES
----------------------
   0 C :   -0.240126
   1 C :   -0.385072
   2 C :   -0.275877
   3 N :    0.015677
   4 H :    0.172117
   5 H :    0.166737
   6 H :    0.108169
   7 H :    0.098793
   8 C :   -0.291738
   9 H :    0.132234
  10 H :    0.147575
  11 H :    0.113378
  12 H :    0.117942
  13 H :    0.120191

  Mayer bond orders larger than 0.100000
B(  0-C ,  1-C ) :   0.9813 B(  0-C ,  8-C ) :   0.9853 B(  0-C ,  9-H ) :   0.9545
B(  0-C , 10-H ) :   0.9683 B(  1-C ,  2-C ) :   1.7624 B(  1-C ,  3-N ) :   1.1952
B(  2-C ,  6-H ) :   0.9871 B(  2-C ,  7-H ) :   0.9748 B(  3-N ,  4-H ) :   0.9128
B(  3-N ,  5-H ) :   0.9195 B(  8-C , 11-H ) :   0.9610 B(  8-C , 12-H ) :   0.9701
B(  8-C , 13-H ) :   0.9703

Dispersion correction           -0.010672689
FINAL SINGLE POINT ENERGY      -212.353457974777

DIPOLE MOMENT
-------------
                                X             Y             Z
Electronic contribution:      0.82412       1.82145       2.56783
Nuclear contribution   :     -0.47010      -1.22282      -3.06417
                        -----------------------------------------
Total Dipole Moment    :      0.35402       0.59864      -0.49634
                        -----------------------------------------
Magnitude (a.u.)       :      0.85443
Magnitude (Debye)      :      2.17178

Rotational constants in cm-1:     0.271862     0.131962     0.105499
Rotational constants in MHz :  8150.219120  3956.123671  3162.785522

                             ****ORCA TERMINATED NORMALLY****
TOTAL RUN TIME: 0 days 0 hours 0 minutes 11 seconds 724 msec
