                         Program Version 5.0.0 -  RELEASE  -
|  1> !PBE D3BJ RIJCOSX def2-TZVP def2/J TightSCF
|  2> *xyz 0 1
|  3> C         -0.91495        0.61511        2.50554
|  4> C         -0.05915        1.50352        3.41058
|  5> H          0.36536        2.34431        2.86116
|  6> H         -0.69226        1.92021        4.19898
|  7> C          1.08303        0.74964        4.08571
|  8> O          2.22817        1.26348        4.01983
|  9> F          0.81003       -0.34541        4.63627
| 10> H         -0.30401        0.20228        1.73015
| 11> H         -1.69811        1.19946        2.06954
| 12> H         -1.34124       -0.17772        3.08397
| 13> *
| 14>
| 15> %MaxCore 64000
| 16>
| 17> %pal nprocs 4
| 18> end
| 19>
| 20> %scf
| 21>   MaxIter 150
| 22> end
| 23>
| 24>
| 25>                          ****END OF INPUT****

CARTESIAN COORDINATES (ANGSTROEM)
---------------------------------
  C     -0.914950    0.615110    2.505540
  C     -0.059150    1.503520    3.410580
  H      0.365360    2.344310    2.861160
  H     -0.692260    1.920210    4.198980
  C      1.083030    0.749640    4.085710
  O      2.228170    1.263480    4.019830
  F      0.810030   -0.345410    4.636270
  H     -0.304010    0.202280    1.730150
  H     -1.698110    1.199460    2.069540
  H     -1.341240   -0.177720    3.083970

 Total Charge           Charge          ....    0
 Multiplicity           Mult            ....    1
 Number of Electrons    NEL             ....   40
 Basis Dimension        Dim             ....  185

ORBITAL ENERGIES
----------------

  NO   OCC          E(Eh)            E(eV)
   0   2.0000     -24.324451      -661.9019
   1   2.0000     -18.749681      -510.2048
   2   2.0000     -10.044737      -273.3312
   3   2.0000      -9.910633      -269.6820
   4   2.0000      -9.887522      -269.0531
   5   2.0000      -1.214172       -33.0393
   6   2.0000      -0.941490       -25.6192
   7   2.0000      -0.731039       -19.8926
   8   2.0000      -0.619712       -16.8632
   9   2.0000      -0.580017       -15.7831
  10   2.0000      -0.489206       -13.3120
  11   2.0000      -0.478333       -13.0161
  12   2.0000      -0.442165       -12.0319
  13   2.0000      -0.415804       -11.3146
  14   2.0000      -0.384599       -10.4655
  15   2.0000      -0.356213        -9.6931
  16   2.0000      -0.336556        -9.1581
  17   2.0000      -0.331865        -9.0305
  18   2.0000      -0.307642        -8.3714
  19   2.0000      -0.237623        -6.4660
  20   0.0000      -0.062770        -1.7081
  21   0.0000       0.009700         0.2640
  22   0.0000       0.053355         1.4519
  23   0.0000       0.069021         1.8782
  24   0.0000       0.078835         2.1452

MULLIKEN ATOMIC CHARGES
-----------------------
   0 C :   -0.350653
   1 C :   -0.203840
   2 H :    0.129901
   3 H :    0.115831
   4 C :    0.288611
   5 O :   -0.289126
   6 F :   -0.064262
   7 H :    0.126243
   8 H :    0.126263
   9 H :    0.121032
Sum of atomic charges:    0.0000000

LOEWDIN ATOMIC CHARGES
----------------------
   0 C :   -0.300214
   1 C :   -0.264164
   2 H :    0.152792
   3 H :    0.152398
   4 C :   -0.537961
   5 O :    0.083641
   6 F :    0.347420
   7 H :    0.122763
   8 H :    0.122468
   9 H :    0.120858

  Mayer bond orders larger than 0.100000
B(  0-C ,  1-C ) :   0.9802 B(  0-C ,  7-H ) :   0.9700 B(  0-C ,  8-H ) :   0.9614
B(  0-C ,  9-H ) :   0.9653 B(  1-C ,  2-H ) :   0.9525 B(  1-C ,  3-H ) :   0.9223
B(  1-C ,  4-C ) :   1.0245 B(  4-C ,  5-O ) :   2.0952 B(  4-C ,  6-F ) :   1.1832

Dispersion correction           -0.006172295
FINAL SINGLE POINT ENERGY      -292.191641721086

DIPOLE MOMENT
-------------
                                X             Y             Z
Electronic contribution:      5.41144      -2.84872       5.12821
Nuclear contribution   :     -6.57765       2.82334      -5.39171
                        -----------------------------------------
Total Dipole Moment    :     -1.16620      -0.02538      -0.26350
                        -----------------------------------------
Magnitude (a.u.)       :      1.19587
Magnitude (Debye)      :      3.03967

Rotational constants in cm-1:     0.294245     0.132994     0.101060
Rotational constants in MHz :  8821.228602  3987.049251  3029.696815

                             ****ORCA TERMINATED NORMALLY****
TOTAL RUN TIME: 0 days 0 hours 0 minutes 7 seconds 886 msec
