                         Program Version 5.0.0 -  RELEASE  -
|  1> !PBE D3BJ RIJCOSX def2-TZVP def2/J TightSCF
|  2> *xyz 0 1
|  3> C          4.60295       -2.44010        2.63478
|  4> C          3.86085       -1.59157        3.62289
|  5> N          2.75650       -2.04616        4.16633
|  6> C          4.25433       -0.36291        3.86046
|  7> H          3.56526        0.31099        4.16898
|  8> H          5.05429       -0.01606        3.33784
|  9> H          2.43970       -2.97389        3.89740
| 10> H          2.06687       -1.41253        4.54981
| 11> C          3.74469       -2.58056        1.36188
| 12> H          5.56156       -1.97135        2.40708
| 13> H          4.81050       -3.42255        3.06310
| 14> H          4.26314       -3.18477        0.64702
| 15> H          3.56325       -1.61180        0.94535
| 16> H          2.81197       -3.04259        1.60980
| 17> *
| 18>
| 19> %MaxCore 64000
| 20>
| 21> %pal nprocs 4
| 22> end
| 23>
| 24> %scf
| 25>   MaxIter 150
| 26> end
| 27>
| 28>
| 29>                          ****END OF INPUT****

CARTESIAN COORDINATES (ANGSTROEM)
---------------------------------
  C      4.602950   -2.440100    2.634780
  C      3.860850   -1.591570    3.622890
  N      2.756500   -2.046160    4.166330
  C      4.254330   -0.362910    3.860460
  H      3.565260    0.310990    4.168980
  H      5.054290   -0.016060    3.337840
  H      2.439700   -2.973890    3.897400
  H      2.066870   -1.412530    4.549810
  C      3.744690   -2.580560    1.361880
  H      5.561560   -1.971350    2.407080
  H      4.810500   -3.422550    3.063100
  H      4.263140   -3.184770    0.647020
  H      3.563250   -1.611800    0.945350
  H      2.811970   -3.042590    1.609800

 Total Charge           Charge          ....    0
 Multiplicity           Mult            ....    1
 Number of Electrons    NEL             ....   40
 Basis Dimension        Dim             ....  209

ORBITAL ENERGIES
----------------

  NO   OCC          E(Eh)            E(eV)
   0   2.0000     -13.984990      -380.5509
   1   2.0000      -9.895203      -269.2622
   2   2.0000      -9.882430      -268.9146
   3   2.0000      -9.868447      -268.5341
   4   2.0000      -9.809200      -266.9219
   5   2.0000      -0.853178       -23.2162
   6   2.0000      -0.707954       -19.2644
   7   2.0000      -0.650108       -17.6903
   8   2.0000      -0.572228       -15.5711
   9   2.0000      -0.514203       -13.9922
  10   2.0000      -0.474725       -12.9179
  11   2.0000      -0.426446       -11.6042
  12   2.0000      -0.391699       -10.6587
  13   2.0000      -0.381422       -10.3790
  14   2.0000      -0.341856        -9.3024
  15   2.0000      -0.335525        -9.1301
  16   2.0000      -0.313412        -8.5284
  17   2.0000      -0.297550        -8.0967
  18   2.0000      -0.281614        -7.6631
  19   2.0000      -0.160791        -4.3753
  20   0.0000       0.002389         0.0650
  21   0.0000       0.012047         0.3278
  22   0.0000       0.051283         1.3955
  23   0.0000       0.054253         1.4763
  24   0.0000       0.064847         1.7646

MULLIKEN ATOMIC CHARGES
-----------------------
   0 C :   -0.195733
   1 C :    0.187156
   2 N :   -0.401134
   3 C :   -0.387308
   4 H :    0.073006
   5 H :    0.084170
   6 H :    0.215540
   7 H :    0.219066
   8 C :   -0.327057
   9 H :    0.105150
  10 H :    0.096074
  11 H :    0.116996
  12 H :    0.120393
  13 H :    0.093680
Sum of atomic charges:    0.0000000

LOEWDIN ATOMIC CHARGES
----------------------
   0 C :   -0.240434
   1 C :   -0.384843
   2 N :    0.019233
   3 C :   -0.276797
   4 H :    0.099757
   5 H :    0.107510
   6 H :    0.168226
   7 H :    0.171073
   8 C :   -0.296043
   9 H :    0.147160
  10 H :    0.135422
  11 H :    0.116704
  12 H :    0.121593
  13 H :    0.111440

  Mayer bond orders larger than 0.100000
B(  0-C ,  1-C ) :   1.0071 B(  0-C ,  8-C ) :   0.9748 B(  0-C ,  9-H ) :   0.9597
B(  0-C , 10-H ) :   0.9539 B(  1-C ,  2-N ) :   1.1930 B(  1-C ,  3-C ) :   1.7805
B(  2-N ,  6-H ) :   0.9250 B(  2-N ,  7-H ) :   0.9130 B(  3-C ,  4-H ) :   0.9784
B(  3-C ,  5-H ) :   0.9804 B(  8-C , 11-H ) :   0.9638 B(  8-C , 12-H ) :   0.9706
B(  8-C , 13-H ) :   0.9700

Dispersion correction           -0.010656315
FINAL SINGLE POINT ENERGY      -212.354042028123

DIPOLE MOMENT
-------------
                                X             Y             Z
Electronic contribution:     -0.52438       0.30250       2.85735
Nuclear contribution   :     -0.12319      -0.83296      -3.13501
                        -----------------------------------------
Total Dipole Moment    :     -0.64757      -0.53046      -0.27766
                        -----------------------------------------
Magnitude (a.u.)       :      0.88195
Magnitude (Debye)      :      2.24173

Rotational constants in cm-1:     0.266453     0.134423     0.106086
Rotational constants in MHz :  7988.053142  4029.892766  3180.375228

                             ****ORCA TERMINATED NORMALLY****
TOTAL RUN TIME: 0 days 0 hours 0 minutes 11 seconds 355 msec
