                         Program Version 5.0.0 -  RELEASE  -
|  1> !PBE D3BJ RIJCOSX def2-TZVP def2/J TightSCF xyzfile
|  2>
|  3> *xyzfile 0 1 D3.xyz
|  4>
|  5> %MaxCore 64000
|  6>
|  7> %pal nprocs 18
|  8> end
|  9>
| 10> %scf
| 11>   MaxIter 150
| 12> end
| 13>
| 14>
| 15>                          ****END OF INPUT****

CARTESIAN COORDINATES (ANGSTROEM)
---------------------------------
  C      4.602954   -2.440100    2.634780
  C     -0.914947    0.615112    2.505538
  C     -0.059146    1.503524    3.410578
  H      0.365364    2.344315    2.861161
  H     -0.692261    1.920207    4.198985
  C      1.083027    0.749640    4.085705
  C      3.860851   -1.591565    3.622893
  C      2.756502   -2.046159    4.166333
  N      4.254325   -0.362905    3.860455
  H      3.565256    0.310994    4.168983
  H      5.054292   -0.016059    3.337838
  H      2.439696   -2.973894    3.897395
  H      2.066869   -1.412532    4.549813
  O      2.228167    1.263475    4.019826
  F      0.810034   -0.345411    4.636269
  C      3.744685   -2.580557    1.361882
  C      0.772139    0.636882    0.562129
  C     -0.130740   -0.193985    1.470763
  H     -0.840563   -0.760165    0.856377
  H      0.466691   -0.938942    2.006959
  H     -1.647961    1.245963    1.991076
  H     -1.478180   -0.081046    3.130424
  C      3.203721   -1.256004    0.826211
  H      2.898939   -3.239289    1.583074
  H      4.334962   -3.095523    0.600188
  C      2.107815   -1.442385   -0.216865
  H      2.786775   -0.672760    1.650711
  H      4.021008   -0.652993    0.414046
  C      1.390662   -0.145912   -0.602422
  H      1.372179   -2.152184    0.176151
  H      2.523302   -1.906787   -1.117115
  H      1.561361    1.100094    1.161831
  H      0.195516    1.468325    0.142758
  H      0.602893   -0.398214   -1.319716
  H      2.087247    0.508272   -1.137335
  H      5.561557   -1.971347    2.407084
  H      4.810498   -3.422552    3.063099

 Total Charge           Charge          ....    0
 Multiplicity           Mult            ....    1
 Number of Electrons    NEL             ....  118
 Basis Dimension        Dim             ....  597

ORBITAL ENERGIES
----------------

  NO   OCC          E(Eh)            E(eV)
   0   2.0000     -24.339300      -662.3060
   1   2.0000     -18.774728      -510.8863
   2   2.0000     -13.950116      -379.6020
   3   2.0000     -10.065789      -273.9040
   4   2.0000      -9.917490      -269.8686
   5   2.0000      -9.901120      -269.4232
   6   2.0000      -9.885513      -268.9985
   7   2.0000      -9.879718      -268.8408
   8   2.0000      -9.876662      -268.7576
   9   2.0000      -9.875745      -268.7327
  10   2.0000      -9.869773      -268.5702
  11   2.0000      -9.868492      -268.5353
  12   2.0000      -9.867968      -268.5211
  13   2.0000      -9.864160      -268.4175
  14   2.0000      -9.786361      -266.3004
  15   2.0000      -1.233433       -33.5634
  16   2.0000      -0.970631       -26.4122
  17   2.0000      -0.828489       -22.5443
  18   2.0000      -0.759404       -20.6644
  19   2.0000      -0.732158       -19.9230
  20   2.0000      -0.707483       -19.2516
  21   2.0000      -0.674727       -18.3603
  22   2.0000      -0.644289       -17.5320
  23   2.0000      -0.627884       -17.0856
  24   2.0000      -0.605000       -16.4629
  25   2.0000      -0.584968       -15.9178
  26   2.0000      -0.552875       -15.0445
  27   2.0000      -0.529783       -14.4161
  28   2.0000      -0.507859       -13.8195
  29   2.0000      -0.505034       -13.7427
  30   2.0000      -0.494785       -13.4638
  31   2.0000      -0.486020       -13.2253
  32   2.0000      -0.467665       -12.7258
  33   2.0000      -0.441793       -12.0218
  34   2.0000      -0.433234       -11.7889
  35   2.0000      -0.428576       -11.6621
  36   2.0000      -0.417489       -11.3604
  37   2.0000      -0.399735       -10.8773
  38   2.0000      -0.395292       -10.7565
  39   2.0000      -0.381975       -10.3941
  40   2.0000      -0.377301       -10.2669
  41   2.0000      -0.363316        -9.8863
  42   2.0000      -0.359770        -9.7898
  43   2.0000      -0.346511        -9.4291
  44   2.0000      -0.341324        -9.2879
  45   2.0000      -0.332665        -9.0523
  46   2.0000      -0.327717        -8.9176
  47   2.0000      -0.322114        -8.7652
  48   2.0000      -0.310016        -8.4360
  49   2.0000      -0.301127        -8.1941
  50   2.0000      -0.297027        -8.0825
  51   2.0000      -0.291209        -7.9242
  52   2.0000      -0.281682        -7.6650
  53   2.0000      -0.277947        -7.5633
  54   2.0000      -0.271861        -7.3977
  55   2.0000      -0.267928        -7.2907
  56   2.0000      -0.259595        -7.0640
  57   2.0000      -0.250239        -6.8093
  58   2.0000      -0.140367        -3.8196
  59   0.0000      -0.083078        -2.2607
  60   0.0000       0.001541         0.0419
  61   0.0000       0.020202         0.5497
  62   0.0000       0.024902         0.6776
  63   0.0000       0.027752         0.7552

MULLIKEN ATOMIC CHARGES
-----------------------
   0 C :   -0.160243
   1 C :   -0.177216
   2 C :   -0.189681
   3 H :    0.135031
   4 H :    0.131680
   5 C :    0.328696
   6 C :    0.091209
   7 C :   -0.408947
   8 N :   -0.344622
   9 H :    0.220800
  10 H :    0.197032
  11 H :    0.077841
  12 H :    0.089541
  13 O :   -0.329975
  14 F :   -0.052821
  15 C :   -0.151605
  16 C :   -0.257583
  17 C :   -0.231546
  18 H :    0.093692
  19 H :    0.136832
  20 H :    0.104905
  21 H :    0.109458
  22 C :   -0.255998
  23 H :    0.089137
  24 H :    0.080958
  25 C :   -0.149854
  26 H :    0.119889
  27 H :    0.068988
  28 C :   -0.128050
  29 H :    0.093436
  30 H :    0.087273
  31 H :    0.132709
  32 H :    0.089036
  33 H :    0.091901
  34 H :    0.084544
  35 H :    0.074556
  36 H :    0.108997
Sum of atomic charges:   -0.0000000

LOEWDIN ATOMIC CHARGES
----------------------
   0 C :   -0.218002
   1 C :   -0.267723
   2 C :   -0.233056
   3 H :    0.156620
   4 H :    0.158299
   5 C :   -0.510045
   6 C :   -0.395869
   7 C :   -0.297962
   8 N :    0.025030
   9 H :    0.142682
  10 H :    0.160418
  11 H :    0.104504
  12 H :    0.089656
  13 O :    0.100277
  14 F :    0.374235
  15 C :   -0.255503
  16 C :   -0.276202
  17 C :   -0.274184
  18 H :    0.142322
  19 H :    0.143199
  20 H :    0.143539
  21 H :    0.142635
  22 C :   -0.269835
  23 H :    0.138541
  24 H :    0.131930
  25 C :   -0.273568
  26 H :    0.145927
  27 H :    0.133571
  28 C :   -0.269765
  29 H :    0.137572
  30 H :    0.136097
  31 H :    0.139526
  32 H :    0.137686
  33 H :    0.137353
  34 H :    0.137699
  35 H :    0.134112
  36 H :    0.148282

  Mayer bond orders larger than 0.100000
B(  0-C ,  6-C ) :   0.9694 B(  0-C , 15-C ) :   0.9940 B(  0-C , 35-H ) :   0.9476
B(  0-C , 36-H ) :   0.9549 B(  1-C ,  2-C ) :   0.9714 B(  1-C , 17-C ) :   0.9994
B(  1-C , 20-H ) :   0.9420 B(  1-C , 21-H ) :   0.9525 B(  2-C ,  3-H ) :   0.9516
B(  2-C ,  4-H ) :   0.9180 B(  2-C ,  5-C ) :   1.0256 B(  5-C , 13-O ) :   1.9308
B(  5-C , 14-F ) :   1.1714 B(  6-C ,  7-C ) :   1.7452 B(  6-C ,  8-N ) :   1.2511
B(  7-C , 11-H ) :   0.9808 B(  7-C , 12-H ) :   0.9682 B(  8-N ,  9-H ) :   0.8528
B(  8-N , 10-H ) :   0.9235 B(  9-H , 13-O ) :   0.1285 B( 15-C , 22-C ) :   1.0091
B( 15-C , 23-H ) :   0.9515 B( 15-C , 24-H ) :   0.9411 B( 16-C , 17-C ) :   0.9828
B( 16-C , 28-C ) :   1.0192 B( 16-C , 31-H ) :   0.9532 B( 16-C , 32-H ) :   0.9450
B( 17-C , 18-H ) :   0.9454 B( 17-C , 19-H ) :   0.9561 B( 22-C , 25-C ) :   1.0144
B( 22-C , 26-H ) :   0.9659 B( 22-C , 27-H ) :   0.9466 B( 25-C , 28-C ) :   0.9985
B( 25-C , 29-H ) :   0.9492 B( 25-C , 30-H ) :   0.9488 B( 28-C , 33-H ) :   0.9489
B( 28-C , 34-H ) :   0.9493

Dispersion correction           -0.043106111
FINAL SINGLE POINT ENERGY      -699.706716699891

DIPOLE MOMENT
-------------
                                X             Y             Z
Electronic contribution:     -1.13272       4.75762      16.03774
Nuclear contribution   :      0.05905      -3.94566     -16.70013
                        -----------------------------------------
Total Dipole Moment    :     -1.07367       0.81196      -0.66240
                        -----------------------------------------
Magnitude (a.u.)       :      1.50027
Magnitude (Debye)      :      3.81339

Rotational constants in cm-1:     0.021602     0.017295     0.011353
Rotational constants in MHz :   647.614981   518.478934   340.359556

                             ****ORCA TERMINATED NORMALLY****
TOTAL RUN TIME: 0 days 0 hours 0 minutes 31 seconds 591 msec
