                         Program Version 5.0.0 -  RELEASE  -
|  1> !wB97X-D3 RIJCOSX def2-TZVP def2/J TightSCF
|  2> *xyz -1 1
|  3> C          4.90646       -3.10282       -5.95484
|  4> C          3.51177       -2.80621       -6.49228
|  5> H          2.73604       -3.37345       -5.97374
|  6> H          3.44490       -3.04083       -7.55528
|  7> S          3.00462       -1.09621       -6.38926
|  8> O          4.12886       -0.32965       -6.95372
|  9> O          1.78128       -1.00078       -7.13640
| 10> C          5.02498       -3.02568       -4.43762
| 11> H          5.20153       -4.10021       -6.29691
| 12> H          5.60592       -2.39782       -6.41337
| 13> O          2.85155       -0.78368       -4.95679
| 14> H          4.73604       -2.05011       -4.10644
| 15> H          6.03776       -3.21492       -4.14890
| 16> H          4.38436       -3.75784       -3.99214
| 17> *
| 18>
| 19> %MaxCore 64000
| 20>
| 21> %pal nprocs 8
| 22> end
| 23>
| 24> %scf
| 25>   MaxIter 150
| 26> end
| 27>
| 28>
| 29>                          ****END OF INPUT****

CARTESIAN COORDINATES (ANGSTROEM)
---------------------------------
  C      4.906460   -3.102820   -5.954840
  C      3.511770   -2.806210   -6.492280
  H      2.736040   -3.373450   -5.973740
  H      3.444900   -3.040830   -7.555280
  S      3.004620   -1.096210   -6.389260
  O      4.128860   -0.329650   -6.953720
  O      1.781280   -1.000780   -7.136400
  C      5.024980   -3.025680   -4.437620
  H      5.201530   -4.100210   -6.296910
  H      5.605920   -2.397820   -6.413370
  O      2.851550   -0.783680   -4.956790
  H      4.736040   -2.050110   -4.106440
  H      6.037760   -3.214920   -4.148900
  H      4.384360   -3.757840   -3.992140

 Total Charge           Charge          ....   -1
 Multiplicity           Mult            ....    1
 Number of Electrons    NEL             ....   66
 Basis Dimension        Dim             ....  265

ORBITAL ENERGIES
----------------

  NO   OCC          E(Eh)            E(eV)
   0   2.0000     -88.931106     -2419.9384
   1   2.0000     -19.008087      -517.2363
   2   2.0000     -18.996380      -516.9178
   3   2.0000     -18.996337      -516.9166
   4   2.0000     -10.141117      -275.9538
   5   2.0000     -10.135777      -275.8085
   6   2.0000     -10.123291      -275.4687
   7   2.0000      -7.993879      -217.5245
   8   2.0000      -5.948033      -161.8542
   9   2.0000      -5.946971      -161.8253
  10   2.0000      -5.946590      -161.8149
  11   2.0000      -1.035072       -28.1657
  12   2.0000      -0.901034       -24.5184
  13   2.0000      -0.881299       -23.9814
  14   2.0000      -0.773947       -21.0602
  15   2.0000      -0.680669       -18.5220
  16   2.0000      -0.580073       -15.7846
  17   2.0000      -0.485936       -13.2230
  18   2.0000      -0.431699       -11.7471
  19   2.0000      -0.420881       -11.4528
  20   2.0000      -0.388916       -10.5829
  21   2.0000      -0.375958       -10.2303
  22   2.0000      -0.357350        -9.7240
  23   2.0000      -0.347140        -9.4462
  24   2.0000      -0.316916        -8.6237
  25   2.0000      -0.305768        -8.3204
  26   2.0000      -0.295707        -8.0466
  27   2.0000      -0.244516        -6.6536
  28   2.0000      -0.244261        -6.6467
  29   2.0000      -0.206617        -5.6223
  30   2.0000      -0.196383        -5.3439
  31   2.0000      -0.192101        -5.2273
  32   2.0000      -0.154125        -4.1940
  33   0.0000       0.240665         6.5488
  34   0.0000       0.279999         7.6192
  35   0.0000       0.289376         7.8743
  36   0.0000       0.309232         8.4146
  37   0.0000       0.318117         8.6564

MULLIKEN ATOMIC CHARGES
-----------------------
   0 C :   -0.150385
   1 C :   -0.244151
   2 H :    0.079521
   3 H :    0.092597
   4 S :    0.854294
   5 O :   -0.594491
   6 O :   -0.554885
   7 C :   -0.337778
   8 H :    0.046272
   9 H :    0.108164
  10 O :   -0.593458
  11 H :    0.159404
  12 H :    0.067238
  13 H :    0.067658
Sum of atomic charges:   -1.0000000

LOEWDIN ATOMIC CHARGES
----------------------
   0 C :   -0.323372
   1 C :   -0.405788
   2 H :    0.121528
   3 H :    0.123359
   4 S :    0.424706
   5 O :   -0.416926
   6 O :   -0.371355
   7 C :   -0.317779
   8 H :    0.116967
   9 H :    0.136455
  10 O :   -0.416907
  11 H :    0.124642
  12 H :    0.099718
  13 H :    0.104751

  Mayer bond orders larger than 0.100000
B(  0-C ,  1-C ) :   0.9731 B(  0-C ,  7-C ) :   0.9800 B(  0-C ,  8-H ) :   0.9694
B(  0-C ,  9-H ) :   0.9691 B(  1-C ,  2-H ) :   0.9604 B(  1-C ,  3-H ) :   0.9628
B(  1-C ,  4-S ) :   0.8834 B(  4-S ,  5-O ) :   1.7269 B(  4-S ,  6-O ) :   1.8306
B(  4-S , 10-O ) :   1.7318 B(  7-C , 11-H ) :   0.9656 B(  7-C , 12-H ) :   0.9791
B(  7-C , 13-H ) :   0.9798

Dispersion correction           -0.004525158
FINAL SINGLE POINT ENERGY      -742.537204905992

DIPOLE MOMENT
-------------
                                X             Y             Z
Electronic contribution:     -6.22889       7.96117      -3.70342
Nuclear contribution   :      7.19636      -9.97366       3.94889
                        -----------------------------------------
Total Dipole Moment    :      0.96747      -2.01249       0.24547
                        -----------------------------------------
Magnitude (a.u.)       :      2.24641
Magnitude (Debye)      :      5.70992

Rotational constants in cm-1:     0.137066     0.054570     0.051980
Rotational constants in MHz :  4109.139955  1635.961703  1558.315282

                             ****ORCA TERMINATED NORMALLY****
TOTAL RUN TIME: 0 days 0 hours 0 minutes 32 seconds 814 msec
