                         Program Version 5.0.0 -  RELEASE  -
|  1> !wB97X-D3 RIJCOSX def2-TZVP def2/J TightSCF
|  2> *xyz 1 1
|  3> C          4.49059        1.15590       -2.46929
|  4> N          4.30539        1.22276       -3.90832
|  5> C          4.63192        2.24637       -4.67096
|  6> N          4.54169        2.14399       -5.98714
|  7> N          5.08409        3.39358       -4.11855
|  8> H          4.92067        3.57050       -3.13587
|  9> H          5.25465        4.19739       -4.70696
| 10> H          3.82453        0.44911       -4.35093
| 11> H          4.34337        1.24932       -6.41665
| 12> H          4.67671        2.95662       -6.57411
| 13> C          5.94213        0.93950       -2.03689
| 14> H          3.86431        0.32853       -2.13661
| 15> H          4.07623        2.04999       -1.98901
| 16> C          6.55996       -0.35629       -2.55909
| 17> H          5.96798        0.95257       -0.94244
| 18> H          6.54718        1.78833       -2.36885
| 19> H          6.53022       -0.35990       -3.62867
| 20> H          6.00654       -1.19175       -2.18407
| 21> H          7.57588       -0.42487       -2.23029
| 22> *
| 23>
| 24> %MaxCore 64000
| 25>
| 26> %pal nprocs 8
| 27> end
| 28>
| 29> %scf
| 30>   MaxIter 150
| 31> end
| 32>
| 33>
| 34>                          ****END OF INPUT****

CARTESIAN COORDINATES (ANGSTROEM)
---------------------------------
  C      4.490590    1.155900   -2.469290
  N      4.305390    1.222760   -3.908320
  C      4.631920    2.246370   -4.670960
  N      4.541690    2.143990   -5.987140
  N      5.084090    3.393580   -4.118550
  H      4.920670    3.570500   -3.135870
  H      5.254650    4.197390   -4.706960
  H      3.824530    0.449110   -4.350930
  H      4.343370    1.249320   -6.416650
  H      4.676710    2.956620   -6.574110
  C      5.942130    0.939500   -2.036890
  H      3.864310    0.328530   -2.136610
  H      4.076230    2.049990   -1.989010
  C      6.559960   -0.356290   -2.559090
  H      5.967980    0.952570   -0.942440
  H      6.547180    1.788330   -2.368850
  H      6.530220   -0.359900   -3.628670
  H      6.006540   -1.191750   -2.184070
  H      7.575880   -0.424870   -2.230290

 Total Charge           Charge          ....    1
 Multiplicity           Mult            ....    1
 Number of Electrons    NEL             ....   56
 Basis Dimension        Dim             ....  289

ORBITAL ENERGIES
----------------

  NO   OCC          E(Eh)            E(eV)
   0   2.0000     -14.643045      -398.4575
   1   2.0000     -14.642776      -398.4502
   2   2.0000     -14.639737      -398.3675
   3   2.0000     -10.610860      -288.7362
   4   2.0000     -10.476629      -285.0836
   5   2.0000     -10.414046      -283.3806
   6   2.0000     -10.382262      -282.5157
   7   2.0000      -1.332234       -36.2519
   8   2.0000      -1.220046       -33.1992
   9   2.0000      -1.204106       -32.7654
  10   2.0000      -1.053506       -28.6674
  11   2.0000      -0.975980       -26.5578
  12   2.0000      -0.930205       -25.3122
  13   2.0000      -0.890500       -24.2317
  14   2.0000      -0.869587       -23.6627
  15   2.0000      -0.829486       -22.5715
  16   2.0000      -0.789515       -21.4838
  17   2.0000      -0.784432       -21.3455
  18   2.0000      -0.759369       -20.6635
  19   2.0000      -0.725725       -19.7480
  20   2.0000      -0.696795       -18.9608
  21   2.0000      -0.674562       -18.3558
  22   2.0000      -0.643576       -17.5126
  23   2.0000      -0.597340       -16.2544
  24   2.0000      -0.578654       -15.7460
  25   2.0000      -0.577807       -15.7229
  26   2.0000      -0.562226       -15.2989
  27   2.0000      -0.535304       -14.5664
  28   0.0000      -0.079193        -2.1550
  29   0.0000      -0.067427        -1.8348
  30   0.0000      -0.034519        -0.9393
  31   0.0000      -0.024520        -0.6672
  32   0.0000      -0.003604        -0.0981

MULLIKEN ATOMIC CHARGES
-----------------------
   0 C :   -0.236428
   1 N :   -0.293503
   2 C :    0.495807
   3 N :   -0.452487
   4 N :   -0.455190
   5 H :    0.300989
   6 H :    0.288665
   7 H :    0.277515
   8 H :    0.301001
   9 H :    0.300081
  10 C :   -0.175832
  11 H :    0.177328
  12 H :    0.164889
  13 C :   -0.353492
  14 H :    0.150107
  15 H :    0.121411
  16 H :    0.099601
  17 H :    0.132131
  18 H :    0.157408
Sum of atomic charges:    1.0000000

LOEWDIN ATOMIC CHARGES
----------------------
   0 C :   -0.267327
   1 N :    0.171544
   2 C :   -0.395469
   3 N :    0.065576
   4 N :    0.052513
   5 H :    0.195582
   6 H :    0.195349
   7 H :    0.213539
   8 H :    0.200574
   9 H :    0.199972
  10 C :   -0.288647
  11 H :    0.153324
  12 H :    0.139024
  13 C :   -0.290214
  14 H :    0.152028
  15 H :    0.136851
  16 H :    0.112084
  17 H :    0.123265
  18 H :    0.130431

  Mayer bond orders larger than 0.100000
B(  0-C ,  1-N ) :   0.8634 B(  0-C , 10-C ) :   0.9455 B(  0-C , 11-H ) :   0.9582
B(  0-C , 12-H ) :   0.9862 B(  1-N ,  2-C ) :   1.3911 B(  1-N ,  7-H ) :   0.8983
B(  2-C ,  3-N ) :   1.3353 B(  2-C ,  4-N ) :   1.3119 B(  3-N ,  8-H ) :   0.8920
B(  3-N ,  9-H ) :   0.8904 B(  4-N ,  5-H ) :   0.8817 B(  4-N ,  6-H ) :   0.8979
B( 10-C , 13-C ) :   0.9677 B( 10-C , 14-H ) :   0.9622 B( 10-C , 15-H ) :   0.9684
B( 13-C , 16-H ) :   0.9774 B( 13-C , 17-H ) :   0.9732 B( 13-C , 18-H ) :   0.9729

Dispersion correction           -0.005393084
FINAL SINGLE POINT ENERGY      -323.750164605850

DIPOLE MOMENT
-------------
                                X             Y             Z
Electronic contribution:     -3.27540       3.80537      -4.86153
Nuclear contribution   :      2.46011      -2.82418       3.51638
                        -----------------------------------------
Total Dipole Moment    :     -0.81529       0.98119      -1.34515
                        -----------------------------------------
Magnitude (a.u.)       :      1.85388
Magnitude (Debye)      :      4.71218

Rotational constants in cm-1:     0.152406     0.050160     0.046480
Rotational constants in MHz :  4569.006375  1503.763011  1393.441650

                             ****ORCA TERMINATED NORMALLY****
TOTAL RUN TIME: 0 days 0 hours 0 minutes 37 seconds 894 msec
