                         Program Version 5.0.0 -  RELEASE  -
|  1> !wB97X-D3 RIJCOSX def2-TZVP def2/J TightSCF xyzfile
|  2>
|  3> *xyzfile 0 1 B.xyz
|  4>
|  5> %MaxCore 64000
|  6>
|  7> %pal nprocs 18
|  8> end
|  9>
| 10> %scf
| 11>   MaxIter 150
| 12> end
| 13>
| 14>
| 15>                          ****END OF INPUT****

CARTESIAN COORDINATES (ANGSTROEM)
---------------------------------
  C      4.490588    1.155899   -2.469290
  N      4.305394    1.222762   -3.908317
  C      4.906458   -3.102816   -5.954844
  C      3.511771   -2.806215   -6.492283
  H      2.736044   -3.373445   -5.973736
  H      3.444904   -3.040831   -7.555281
  S      3.004618   -1.096206   -6.389259
  C      4.631918    2.246365   -4.670958
  N      4.541686    2.143990   -5.987139
  N      5.084086    3.393584   -4.118545
  H      4.920675    3.570501   -3.135870
  H      5.254652    4.197390   -4.706956
  H      3.824530    0.449113   -4.350926
  H      4.343373    1.249318   -6.416646
  H      4.676712    2.956624   -6.574113
  O      4.128856   -0.329647   -6.953717
  O      1.781285   -1.000779   -7.136399
  C      5.942129    0.939500   -2.036893
  H      3.864305    0.328532   -2.136611
  H      4.076233    2.049994   -1.989010
  C      6.462677   -3.117775   -3.944671
  C      5.024977   -3.025679   -4.437625
  H      4.423321   -3.818693   -3.977648
  H      4.579350   -2.087131   -4.108727
  H      5.201533   -4.100207   -6.296905
  H      5.605922   -2.397822   -6.413368
  C      6.559957   -0.356290   -2.559086
  H      5.967976    0.952567   -0.942444
  H      6.547184    1.788331   -2.368849
  C      6.006283   -1.615917   -1.899301
  H      7.642360   -0.318000   -2.402059
  H      6.414855   -0.403433   -3.642587
  C      6.608718   -2.917014   -2.435655
  H      6.190324   -1.561115   -0.820948
  H      4.919250   -1.651245   -2.016586
  H      7.066975   -2.374258   -4.475514
  H      6.887808   -4.089747   -4.215332
  H      6.135197   -3.755573   -1.915159
  H      7.671142   -2.955503   -2.172291
  O      2.851546   -0.783683   -4.956789

 Total Charge           Charge          ....    0
 Multiplicity           Mult            ....    1
 Number of Electrons    NEL             ....  144
 Basis Dimension        Dim             ....  671

ORBITAL ENERGIES
----------------

  NO   OCC          E(Eh)            E(eV)
   0   2.0000     -89.087914     -2424.2054
   1   2.0000     -19.167276      -521.5681
   2   2.0000     -19.166935      -521.5588
   3   2.0000     -19.152579      -521.1682
   4   2.0000     -14.497368      -394.4934
   5   2.0000     -14.466435      -393.6517
   6   2.0000     -14.462947      -393.5568
   7   2.0000     -10.449069      -284.3336
   8   2.0000     -10.340883      -281.3897
   9   2.0000     -10.294827      -280.1365
  10   2.0000     -10.278124      -279.6820
  11   2.0000     -10.271183      -279.4931
  12   2.0000     -10.266086      -279.3544
  13   2.0000     -10.264890      -279.3219
  14   2.0000     -10.258915      -279.1593
  15   2.0000     -10.256743      -279.1002
  16   2.0000     -10.249300      -278.8976
  17   2.0000      -8.151412      -221.8112
  18   2.0000      -6.105400      -166.1364
  19   2.0000      -6.104817      -166.1205
  20   2.0000      -6.103749      -166.0915
  21   2.0000      -1.197120       -32.5753
  22   2.0000      -1.171151       -31.8686
  23   2.0000      -1.063544       -28.9405
  24   2.0000      -1.059075       -28.8189
  25   2.0000      -1.053191       -28.6588
  26   2.0000      -1.043521       -28.3957
  27   2.0000      -0.941736       -25.6259
  28   2.0000      -0.915276       -24.9059
  29   2.0000      -0.887618       -24.1533
  30   2.0000      -0.849429       -23.1141
  31   2.0000      -0.812785       -22.1170
  32   2.0000      -0.786283       -21.3958
  33   2.0000      -0.757404       -20.6100
  34   2.0000      -0.733967       -19.9723
  35   2.0000      -0.723041       -19.6750
  36   2.0000      -0.702265       -19.1096
  37   2.0000      -0.682325       -18.5670
  38   2.0000      -0.658350       -17.9146
  39   2.0000      -0.648344       -17.6423
  40   2.0000      -0.639605       -17.4045
  41   2.0000      -0.616875       -16.7860
  42   2.0000      -0.605350       -16.4724
  43   2.0000      -0.586086       -15.9482
  44   2.0000      -0.581068       -15.8117
  45   2.0000      -0.566733       -15.4216
  46   2.0000      -0.560403       -15.2493
  47   2.0000      -0.550617       -14.9831
  48   2.0000      -0.533296       -14.5117
  49   2.0000      -0.530085       -14.4243
  50   2.0000      -0.524055       -14.2603
  51   2.0000      -0.513229       -13.9657
  52   2.0000      -0.504199       -13.7199
  53   2.0000      -0.494987       -13.4693
  54   2.0000      -0.484559       -13.1855
  55   2.0000      -0.476098       -12.9553
  56   2.0000      -0.459378       -12.5003
  57   2.0000      -0.452065       -12.3013
  58   2.0000      -0.441960       -12.0263
  59   2.0000      -0.427353       -11.6289
  60   2.0000      -0.419281       -11.4092
  61   2.0000      -0.415863       -11.3162
  62   2.0000      -0.410552       -11.1717
  63   2.0000      -0.405470       -11.0334
  64   2.0000      -0.402338       -10.9482
  65   2.0000      -0.399290       -10.8652
  66   2.0000      -0.393548       -10.7090
  67   2.0000      -0.377379       -10.2690
  68   2.0000      -0.363541        -9.8925
  69   2.0000      -0.355048        -9.6613
  70   2.0000      -0.344972        -9.3872
  71   2.0000      -0.319872        -8.7042
  72   0.0000       0.064312         1.7500
  73   0.0000       0.075602         2.0572
  74   0.0000       0.097552         2.6545
  75   0.0000       0.116884         3.1806
  76   0.0000       0.125287         3.4092

MULLIKEN ATOMIC CHARGES
-----------------------
   0 C :   -0.281738
   1 N :   -0.234304
   2 C :   -0.171610
   3 C :   -0.225344
   4 H :    0.121919
   5 H :    0.138164
   6 S :    0.891070
   7 C :    0.470796
   8 N :   -0.435098
   9 N :   -0.492472
  10 H :    0.276068
  11 H :    0.262155
  12 H :    0.256133
  13 H :    0.302614
  14 H :    0.249883
  15 O :   -0.616291
  16 O :   -0.495332
  17 C :   -0.136155
  18 H :    0.184247
  19 H :    0.132193
  20 C :   -0.203780
  21 C :   -0.276801
  22 H :    0.092347
  23 H :    0.097033
  24 H :    0.098064
  25 H :    0.118419
  26 C :   -0.242203
  27 H :    0.111134
  28 H :    0.116433
  29 C :   -0.250777
  30 H :    0.111793
  31 H :    0.133272
  32 C :   -0.154544
  33 H :    0.102505
  34 H :    0.123626
  35 H :    0.109686
  36 H :    0.104083
  37 H :    0.104131
  38 H :    0.101570
  39 O :   -0.592888
Sum of atomic charges:    0.0000000

LOEWDIN ATOMIC CHARGES
----------------------
   0 C :   -0.272305
   1 N :    0.175546
   2 C :   -0.288604
   3 C :   -0.376471
   4 H :    0.135543
   5 H :    0.137437
   6 S :    0.458791
   7 C :   -0.411569
   8 N :    0.062281
   9 N :    0.013471
  10 H :    0.182198
  11 H :    0.180959
  12 H :    0.174037
  13 H :    0.157577
  14 H :    0.179625
  15 O :   -0.378993
  16 O :   -0.321563
  17 C :   -0.270141
  18 H :    0.149886
  19 H :    0.126810
  20 C :   -0.271792
  21 C :   -0.273525
  22 H :    0.135050
  23 H :    0.134434
  24 H :    0.135466
  25 H :    0.140729
  26 C :   -0.265440
  27 H :    0.141816
  28 H :    0.133555
  29 C :   -0.270671
  30 H :    0.138815
  31 H :    0.141321
  32 C :   -0.266742
  33 H :    0.134580
  34 H :    0.135091
  35 H :    0.133472
  36 H :    0.134670
  37 H :    0.136894
  38 H :    0.134280
  39 O :   -0.376517

  Mayer bond orders larger than 0.100000
B(  0-C ,  1-N ) :   0.8907 B(  0-C , 17-C ) :   0.9245 B(  0-C , 18-H ) :   0.9741
B(  0-C , 19-H ) :   0.9937 B(  1-N ,  7-C ) :   1.4247 B(  1-N , 12-H ) :   0.7955
B(  2-C ,  3-C ) :   0.9686 B(  2-C , 21-C ) :   0.9868 B(  2-C , 24-H ) :   0.9637
B(  2-C , 25-H ) :   0.9676 B(  3-C ,  4-H ) :   0.9602 B(  3-C ,  5-H ) :   0.9625
B(  3-C ,  6-S ) :   0.9010 B(  6-S , 15-O ) :   1.5510 B(  6-S , 16-O ) :   1.9218
B(  6-S , 39-O ) :   1.5589 B(  7-C ,  8-N ) :   1.3974 B(  7-C ,  9-N ) :   1.2355
B(  8-N , 13-H ) :   0.7833 B(  8-N , 14-H ) :   0.9150 B(  9-N , 10-H ) :   0.8969
B(  9-N , 11-H ) :   0.9121 B( 12-H , 39-O ) :   0.1859 B( 13-H , 15-O ) :   0.1709
B( 17-C , 26-C ) :   0.9659 B( 17-C , 27-H ) :   0.9753 B( 17-C , 28-H ) :   0.9786
B( 20-C , 21-C ) :   0.9532 B( 20-C , 32-C ) :   0.9677 B( 20-C , 35-H ) :   0.9904
B( 20-C , 36-H ) :   0.9745 B( 21-C , 22-H ) :   0.9680 B( 21-C , 23-H ) :   0.9777
B( 26-C , 29-C ) :   0.9495 B( 26-C , 30-H ) :   0.9708 B( 26-C , 31-H ) :   0.9751
B( 29-C , 32-C ) :   0.9791 B( 29-C , 33-H ) :   0.9689 B( 29-C , 34-H ) :   0.9841
B( 32-C , 37-H ) :   0.9817 B( 32-C , 38-H ) :   0.9833

Dispersion correction           -0.021985719
FINAL SINGLE POINT ENERGY     -1183.214283602032

DIPOLE MOMENT
-------------
                                X             Y             Z
Electronic contribution:    -14.51545       8.42035     -15.32841
Nuclear contribution   :     16.79156      -5.47215      17.54258
                        -----------------------------------------
Total Dipole Moment    :      2.27611       2.94820       2.21417
                        -----------------------------------------
Magnitude (a.u.)       :      4.33302
Magnitude (Debye)      :     11.01367

Rotational constants in cm-1:     0.014207     0.012373     0.007472
Rotational constants in MHz :   425.900436   370.942493   224.006604

                             ****ORCA TERMINATED NORMALLY****
TOTAL RUN TIME: 0 days 0 hours 1 minutes 52 seconds 805 msec
