                         Program Version 5.0.0 -  RELEASE  -
|  1> !wB97X-D3 RIJCOSX def2-TZVP def2/J TightSCF
|  2> *xyz 0 1
|  3> C          4.90646       -3.10282       -5.95484
|  4> C          3.51177       -2.80621       -6.49228
|  5> H          2.73604       -3.37345       -5.97374
|  6> H          3.44490       -3.04083       -7.55528
|  7> S          3.00462       -1.09621       -6.38926
|  8> F          4.12886       -0.32965       -6.95372
|  9> O          1.78128       -1.00078       -7.13640
| 10> C          5.02498       -3.02568       -4.43762
| 11> H          5.20153       -4.10021       -6.29691
| 12> H          5.60592       -2.39782       -6.41337
| 13> O          2.85155       -0.78368       -4.95679
| 14> H          4.73604       -2.05011       -4.10644
| 15> H          6.03776       -3.21492       -4.14890
| 16> H          4.38436       -3.75784       -3.99214
| 17> *
| 18>
| 19> %MaxCore 64000
| 20>
| 21> %pal nprocs 8
| 22> end
| 23>
| 24> %scf
| 25>   MaxIter 150
| 26> end
| 27>
| 28>
| 29>                          ****END OF INPUT****

CARTESIAN COORDINATES (ANGSTROEM)
---------------------------------
  C      4.906460   -3.102820   -5.954840
  C      3.511770   -2.806210   -6.492280
  H      2.736040   -3.373450   -5.973740
  H      3.444900   -3.040830   -7.555280
  S      3.004620   -1.096210   -6.389260
  F      4.128860   -0.329650   -6.953720
  O      1.781280   -1.000780   -7.136400
  C      5.024980   -3.025680   -4.437620
  H      5.201530   -4.100210   -6.296910
  H      5.605920   -2.397820   -6.413370
  O      2.851550   -0.783680   -4.956790
  H      4.736040   -2.050110   -4.106440
  H      6.037760   -3.214920   -4.148900
  H      4.384360   -3.757840   -3.992140

 Total Charge           Charge          ....    0
 Multiplicity           Mult            ....    1
 Number of Electrons    NEL             ....   66
 Basis Dimension        Dim             ....  265

ORBITAL ENERGIES
----------------

  NO   OCC          E(Eh)            E(eV)
   0   2.0000     -89.193387     -2427.0755
   1   2.0000     -24.892048      -677.3471
   2   2.0000     -19.244534      -523.6704
   3   2.0000     -19.232703      -523.3485
   4   2.0000     -10.336428      -281.2685
   5   2.0000     -10.306602      -280.4569
   6   2.0000     -10.268484      -279.4197
   7   2.0000      -8.256776      -224.6783
   8   2.0000      -6.214309      -169.1000
   9   2.0000      -6.207699      -168.9201
  10   2.0000      -6.207347      -168.9105
  11   2.0000      -1.475649       -40.1545
  12   2.0000      -1.224621       -33.3236
  13   2.0000      -1.125703       -30.6319
  14   2.0000      -0.954778       -25.9808
  15   2.0000      -0.867204       -23.5978
  16   2.0000      -0.809961       -22.0402
  17   2.0000      -0.744624       -20.2622
  18   2.0000      -0.689771       -18.7696
  19   2.0000      -0.674391       -18.3511
  20   2.0000      -0.647668       -17.6240
  21   2.0000      -0.592563       -16.1245
  22   2.0000      -0.588508       -16.0141
  23   2.0000      -0.557871       -15.1804
  24   2.0000      -0.542896       -14.7730
  25   2.0000      -0.534196       -14.5362
  26   2.0000      -0.488191       -13.2843
  27   2.0000      -0.479881       -13.0582
  28   2.0000      -0.471925       -12.8417
  29   2.0000      -0.459578       -12.5057
  30   2.0000      -0.430492       -11.7143
  31   2.0000      -0.416044       -11.3211
  32   2.0000      -0.404312       -11.0019
  33   0.0000       0.092915         2.5283
  34   0.0000       0.123675         3.3654
  35   0.0000       0.143933         3.9166
  36   0.0000       0.147382         4.0105
  37   0.0000       0.150920         4.1068

MULLIKEN ATOMIC CHARGES
-----------------------
   0 C :   -0.214453
   1 C :   -0.263128
   2 H :    0.166466
   3 H :    0.160504
   4 S :    0.878758
   5 F :   -0.122289
   6 O :   -0.414363
   7 C :   -0.341714
   8 H :    0.118208
   9 H :    0.116185
  10 O :   -0.456794
  11 H :    0.143741
  12 H :    0.119838
  13 H :    0.109041
Sum of atomic charges:   -0.0000000

LOEWDIN ATOMIC CHARGES
----------------------
   0 C :   -0.313507
   1 C :   -0.368739
   2 H :    0.153360
   3 H :    0.143283
   4 S :    0.551394
   5 F :    0.063631
   6 O :   -0.259659
   7 C :   -0.301168
   8 H :    0.141835
   9 H :    0.137016
  10 O :   -0.304764
  11 H :    0.121578
  12 H :    0.117741
  13 H :    0.117999

  Mayer bond orders larger than 0.100000
B(  0-C ,  1-C ) :   0.9622 B(  0-C ,  7-C ) :   0.9835 B(  0-C ,  8-H ) :   0.9643
B(  0-C ,  9-H ) :   0.9726 B(  1-C ,  2-H ) :   0.9413 B(  1-C ,  3-H ) :   0.9472
B(  1-C ,  4-S ) :   0.9134 B(  4-S ,  5-F ) :   1.1063 B(  4-S ,  6-O ) :   1.9536
B(  4-S , 10-O ) :   1.8705 B(  7-C , 11-H ) :   0.9648 B(  7-C , 12-H ) :   0.9777
B(  7-C , 13-H ) :   0.9760

Dispersion correction           -0.004478853
FINAL SINGLE POINT ENERGY      -767.068022702464

DIPOLE MOMENT
-------------
                                X             Y             Z
Electronic contribution:     -5.29401      10.22461      -5.33461
Nuclear contribution   :      6.51452     -11.35172       4.86721
                        -----------------------------------------
Total Dipole Moment    :      1.22051      -1.12711      -0.46740
                        -----------------------------------------
Magnitude (a.u.)       :      1.72583
Magnitude (Debye)      :      4.38672

Rotational constants in cm-1:     0.130386     0.053203     0.051661
Rotational constants in MHz :  3908.886819  1594.983443  1548.763987

                             ****ORCA TERMINATED NORMALLY****
TOTAL RUN TIME: 0 days 0 hours 0 minutes 31 seconds 647 msec
