                         Program Version 5.0.0 -  RELEASE  -
|  1> !wB97X-D3 RIJCOSX def2-TZVP def2/J TightSCF
|  2> *xyz 0 1
|  3> C          4.49059        1.15590       -2.46929
|  4> C          4.30539        1.22276       -3.90832
|  5> C          4.63192        2.24637       -4.67096
|  6> N          4.54169        2.14399       -5.98714
|  7> N          5.08409        3.39358       -4.11855
|  8> H          4.92067        3.57050       -3.13587
|  9> H          5.25465        4.19739       -4.70696
| 10> H          3.82453        0.44911       -4.35093
| 11> H          4.34337        1.24932       -6.41665
| 12> H          4.67671        2.95662       -6.57411
| 13> C          5.94213        0.93950       -2.03689
| 14> H          3.86431        0.32853       -2.13661
| 15> H          4.07623        2.04999       -1.98901
| 16> C          6.55996       -0.35629       -2.55909
| 17> H          5.96798        0.95257       -0.94244
| 18> H          6.54718        1.78833       -2.36885
| 19> H          6.53022       -0.35990       -3.62867
| 20> H          6.00654       -1.19175       -2.18407
| 21> H          7.57588       -0.42487       -2.23029
| 22> *
| 23>
| 24> %MaxCore 64000
| 25>
| 26> %pal nprocs 8
| 27> end
| 28>
| 29> %scf
| 30>   MaxIter 150
| 31> end
| 32>
| 33>
| 34>                          ****END OF INPUT****

CARTESIAN COORDINATES (ANGSTROEM)
---------------------------------
  C      4.490590    1.155900   -2.469290
  C      4.305390    1.222760   -3.908320
  C      4.631920    2.246370   -4.670960
  N      4.541690    2.143990   -5.987140
  N      5.084090    3.393580   -4.118550
  H      4.920670    3.570500   -3.135870
  H      5.254650    4.197390   -4.706960
  H      3.824530    0.449110   -4.350930
  H      4.343370    1.249320   -6.416650
  H      4.676710    2.956620   -6.574110
  C      5.942130    0.939500   -2.036890
  H      3.864310    0.328530   -2.136610
  H      4.076230    2.049990   -1.989010
  C      6.559960   -0.356290   -2.559090
  H      5.967980    0.952570   -0.942440
  H      6.547180    1.788330   -2.368850
  H      6.530220   -0.359900   -3.628670
  H      6.006540   -1.191750   -2.184070
  H      7.575880   -0.424870   -2.230290

 Total Charge           Charge          ....    0
 Multiplicity           Mult            ....    1
 Number of Electrons    NEL             ....   56
 Basis Dimension        Dim             ....  289

ORBITAL ENERGIES
----------------

  NO   OCC          E(Eh)            E(eV)
   0   2.0000     -14.419792      -392.3825
   1   2.0000     -14.417602      -392.3229
   2   2.0000     -10.317345      -280.7492
   3   2.0000     -10.246563      -278.8232
   4   2.0000     -10.244585      -278.7693
   5   2.0000     -10.234670      -278.4995
   6   2.0000     -10.189412      -277.2680
   7   2.0000      -1.076130       -29.2830
   8   2.0000      -0.983886       -26.7729
   9   2.0000      -0.898374       -24.4460
  10   2.0000      -0.833353       -22.6767
  11   2.0000      -0.768341       -20.9076
  12   2.0000      -0.701728       -19.0950
  13   2.0000      -0.673512       -18.3272
  14   2.0000      -0.642077       -17.4718
  15   2.0000      -0.605805       -16.4848
  16   2.0000      -0.571692       -15.5565
  17   2.0000      -0.541129       -14.7249
  18   2.0000      -0.530869       -14.4457
  19   2.0000      -0.509559       -13.8658
  20   2.0000      -0.485978       -13.2241
  21   2.0000      -0.462135       -12.5753
  22   2.0000      -0.451965       -12.2986
  23   2.0000      -0.419854       -11.4248
  24   2.0000      -0.402256       -10.9459
  25   2.0000      -0.398957       -10.8562
  26   2.0000      -0.357600        -9.7308
  27   2.0000      -0.244120        -6.6428
  28   0.0000       0.101773         2.7694
  29   0.0000       0.130136         3.5412
  30   0.0000       0.137720         3.7476
  31   0.0000       0.158616         4.3162
  32   0.0000       0.161096         4.3836

MULLIKEN ATOMIC CHARGES
-----------------------
   0 C :   -0.225344
   1 C :   -0.372653
   2 C :    0.376715
   3 N :   -0.512713
   4 N :   -0.526580
   5 H :    0.253698
   6 H :    0.223776
   7 H :    0.100743
   8 H :    0.256401
   9 H :    0.226905
  10 C :   -0.129166
  11 H :    0.095147
  12 H :    0.082840
  13 C :   -0.338918
  14 H :    0.080964
  15 H :    0.087385
  16 H :    0.117382
  17 H :    0.096197
  18 H :    0.107221
Sum of atomic charges:    0.0000000

LOEWDIN ATOMIC CHARGES
----------------------
   0 C :   -0.288338
   1 C :   -0.283716
   2 C :   -0.450710
   3 N :   -0.015252
   4 N :   -0.023820
   5 H :    0.174251
   6 H :    0.160922
   7 H :    0.119680
   8 H :    0.179783
   9 H :    0.162571
  10 C :   -0.291167
  11 H :    0.142049
  12 H :    0.125567
  13 C :   -0.304798
  14 H :    0.125103
  15 H :    0.128846
  16 H :    0.115574
  17 H :    0.111942
  18 H :    0.111513

  Mayer bond orders larger than 0.100000
B(  0-C ,  1-C ) :   0.9800 B(  0-C , 10-C ) :   0.9569 B(  0-C , 11-H ) :   0.9881
B(  0-C , 12-H ) :   0.9910 B(  1-C ,  2-C ) :   1.6657 B(  1-C ,  7-H ) :   1.0011
B(  2-C ,  3-N ) :   1.1435 B(  2-C ,  4-N ) :   1.1388 B(  3-N ,  8-H ) :   0.9184
B(  3-N ,  9-H ) :   0.9226 B(  4-N ,  5-H ) :   0.9099 B(  4-N ,  6-H ) :   0.9290
B( 10-C , 13-C ) :   0.9812 B( 10-C , 14-H ) :   0.9786 B( 10-C , 15-H ) :   0.9734
B( 13-C , 16-H ) :   0.9789 B( 13-C , 17-H ) :   0.9807 B( 13-C , 18-H ) :   0.9828

Dispersion correction           -0.005368181
FINAL SINGLE POINT ENERGY      -307.262336166723

DIPOLE MOMENT
-------------
                                X             Y             Z
Electronic contribution:     -2.31921       3.73054      -4.23435
Nuclear contribution   :      2.29046      -2.89565       3.47129
                        -----------------------------------------
Total Dipole Moment    :     -0.02875       0.83489      -0.76306
                        -----------------------------------------
Magnitude (a.u.)       :      1.13143
Magnitude (Debye)      :      2.87586

Rotational constants in cm-1:     0.154384     0.050352     0.046525
Rotational constants in MHz :  4628.320816  1509.522910  1394.780903

                             ****ORCA TERMINATED NORMALLY****
TOTAL RUN TIME: 0 days 0 hours 0 minutes 41 seconds 336 msec
