                         Program Version 5.0.0 -  RELEASE  -
|  1> !wB97X-D3 RIJCOSX def2-TZVP def2/J TightSCF
|  2> *xyz 0 1
|  3> C          4.90646       -3.10282       -5.95484
|  4> C          3.51177       -2.80621       -6.49228
|  5> H          2.73604       -3.37345       -5.97374
|  6> H          3.44490       -3.04083       -7.55528
|  7> S          3.00462       -1.09621       -6.38926
|  8> O          4.12886       -0.32965       -6.95372
|  9> F          1.78128       -1.00078       -7.13640
| 10> C          5.02498       -3.02568       -4.43762
| 11> H          5.20153       -4.10021       -6.29691
| 12> H          5.60592       -2.39782       -6.41337
| 13> O          2.85155       -0.78368       -4.95679
| 14> H          4.73604       -2.05011       -4.10644
| 15> H          6.03776       -3.21492       -4.14890
| 16> H          4.38436       -3.75784       -3.99214
| 17> *
| 18>
| 19> %MaxCore 64000
| 20>
| 21> %pal nprocs 8
| 22> end
| 23>
| 24> %scf
| 25>   MaxIter 150
| 26> end
| 27>
| 28>
| 29>                          ****END OF INPUT****

CARTESIAN COORDINATES (ANGSTROEM)
---------------------------------
  C      4.906460   -3.102820   -5.954840
  C      3.511770   -2.806210   -6.492280
  H      2.736040   -3.373450   -5.973740
  H      3.444900   -3.040830   -7.555280
  S      3.004620   -1.096210   -6.389260
  O      4.128860   -0.329650   -6.953720
  F      1.781280   -1.000780   -7.136400
  C      5.024980   -3.025680   -4.437620
  H      5.201530   -4.100210   -6.296910
  H      5.605920   -2.397820   -6.413370
  O      2.851550   -0.783680   -4.956790
  H      4.736040   -2.050110   -4.106440
  H      6.037760   -3.214920   -4.148900
  H      4.384360   -3.757840   -3.992140

 Total Charge           Charge          ....    0
 Multiplicity           Mult            ....    1
 Number of Electrons    NEL             ....   66
 Basis Dimension        Dim             ....  265

ORBITAL ENERGIES
----------------

  NO   OCC          E(Eh)            E(eV)
   0   2.0000     -89.195355     -2427.1290
   1   2.0000     -24.910930      -677.8609
   2   2.0000     -19.232813      -523.3514
   3   2.0000     -19.232793      -523.3509
   4   2.0000     -10.337131      -281.2876
   5   2.0000     -10.301496      -280.3179
   6   2.0000     -10.262982      -279.2699
   7   2.0000      -8.258756      -224.7322
   8   2.0000      -6.216034      -169.1469
   9   2.0000      -6.209667      -168.9736
  10   2.0000      -6.209457      -168.9679
  11   2.0000      -1.506286       -40.9881
  12   2.0000      -1.211293       -32.9610
  13   2.0000      -1.112190       -30.2642
  14   2.0000      -0.950309       -25.8592
  15   2.0000      -0.872778       -23.7495
  16   2.0000      -0.819015       -22.2865
  17   2.0000      -0.744764       -20.2661
  18   2.0000      -0.696856       -18.9624
  19   2.0000      -0.688660       -18.7394
  20   2.0000      -0.660382       -17.9699
  21   2.0000      -0.593125       -16.1398
  22   2.0000      -0.587323       -15.9819
  23   2.0000      -0.552229       -15.0269
  24   2.0000      -0.538550       -14.6547
  25   2.0000      -0.524752       -14.2792
  26   2.0000      -0.481413       -13.0999
  27   2.0000      -0.469296       -12.7702
  28   2.0000      -0.465887       -12.6774
  29   2.0000      -0.453647       -12.3444
  30   2.0000      -0.421001       -11.4560
  31   2.0000      -0.411942       -11.2095
  32   2.0000      -0.395603       -10.7649
  33   0.0000       0.105135         2.8609
  34   0.0000       0.113052         3.0763
  35   0.0000       0.141575         3.8524
  36   0.0000       0.147096         4.0027
  37   0.0000       0.157219         4.2782

MULLIKEN ATOMIC CHARGES
-----------------------
   0 C :   -0.208891
   1 C :   -0.252005
   2 H :    0.145770
   3 H :    0.150168
   4 S :    0.877364
   5 O :   -0.449252
   6 F :   -0.092949
   7 C :   -0.352622
   8 H :    0.114528
   9 H :    0.142538
  10 O :   -0.451578
  11 H :    0.153862
  12 H :    0.119836
  13 H :    0.103231
Sum of atomic charges:    0.0000000

LOEWDIN ATOMIC CHARGES
----------------------
   0 C :   -0.301205
   1 C :   -0.376126
   2 H :    0.140985
   3 H :    0.140095
   4 S :    0.545418
   5 O :   -0.301653
   6 F :    0.106957
   7 C :   -0.299103
   8 H :    0.142204
   9 H :    0.147361
  10 O :   -0.303295
  11 H :    0.124460
  12 H :    0.118309
  13 H :    0.115594

  Mayer bond orders larger than 0.100000
B(  0-C ,  1-C ) :   0.9732 B(  0-C ,  7-C ) :   0.9904 B(  0-C ,  8-H ) :   0.9608
B(  0-C ,  9-H ) :   0.9643 B(  1-C ,  2-H ) :   0.9388 B(  1-C ,  3-H ) :   0.9401
B(  1-C ,  4-S ) :   0.9217 B(  4-S ,  5-O ) :   1.8721 B(  4-S ,  6-F ) :   1.1558
B(  4-S , 10-O ) :   1.8758 B(  7-C , 11-H ) :   0.9656 B(  7-C , 12-H ) :   0.9783
B(  7-C , 13-H ) :   0.9765

Dispersion correction           -0.004510354
FINAL SINGLE POINT ENERGY      -767.053035317103

DIPOLE MOMENT
-------------
                                X             Y             Z
Electronic contribution:     -9.37398       9.09246      -5.66361
Nuclear contribution   :      9.03920     -10.62996       5.06367
                        -----------------------------------------
Total Dipole Moment    :     -0.33477      -1.53750      -0.59994
                        -----------------------------------------
Magnitude (a.u.)       :      1.68402
Magnitude (Debye)      :      4.28043

Rotational constants in cm-1:     0.135071     0.052485     0.050188
Rotational constants in MHz :  4049.321380  1573.451279  1504.609887

                             ****ORCA TERMINATED NORMALLY****
TOTAL RUN TIME: 0 days 0 hours 0 minutes 31 seconds 793 msec
