                         Program Version 5.0.0 -  RELEASE  -
|  1> !wB97X-D3 RIJCOSX def2-TZVP def2/J TightSCF
|  2> *xyz 0 1
|  3> C          4.49059        1.15590       -2.46929
|  4> N          4.30539        1.22276       -3.90832
|  5> C          4.63192        2.24637       -4.67096
|  6> C          4.54169        2.14399       -5.98714
|  7> N          5.08409        3.39358       -4.11855
|  8> H          4.92067        3.57050       -3.13587
|  9> H          5.25465        4.19739       -4.70696
| 10> H          3.82453        0.44911       -4.35093
| 11> H          4.34337        1.24932       -6.41665
| 12> H          4.67671        2.95662       -6.57411
| 13> C          5.94213        0.93950       -2.03689
| 14> H          3.86431        0.32853       -2.13661
| 15> H          4.07623        2.04999       -1.98901
| 16> C          6.55996       -0.35629       -2.55909
| 17> H          5.96798        0.95257       -0.94244
| 18> H          6.54718        1.78833       -2.36885
| 19> H          6.53022       -0.35990       -3.62867
| 20> H          6.00654       -1.19175       -2.18407
| 21> H          7.57588       -0.42487       -2.23029
| 22> *
| 23>
| 24> %MaxCore 64000
| 25>
| 26> %pal nprocs 8
| 27> end
| 28>
| 29> %scf
| 30>   MaxIter 150
| 31> end
| 32>
| 33>
| 34>                          ****END OF INPUT****

CARTESIAN COORDINATES (ANGSTROEM)
---------------------------------
  C      4.490590    1.155900   -2.469290
  N      4.305390    1.222760   -3.908320
  C      4.631920    2.246370   -4.670960
  C      4.541690    2.143990   -5.987140
  N      5.084090    3.393580   -4.118550
  H      4.920670    3.570500   -3.135870
  H      5.254650    4.197390   -4.706960
  H      3.824530    0.449110   -4.350930
  H      4.343370    1.249320   -6.416650
  H      4.676710    2.956620   -6.574110
  C      5.942130    0.939500   -2.036890
  H      3.864310    0.328530   -2.136610
  H      4.076230    2.049990   -1.989010
  C      6.559960   -0.356290   -2.559090
  H      5.967980    0.952570   -0.942440
  H      6.547180    1.788330   -2.368850
  H      6.530220   -0.359900   -3.628670
  H      6.006540   -1.191750   -2.184070
  H      7.575880   -0.424870   -2.230290

 Total Charge           Charge          ....    0
 Multiplicity           Mult            ....    1
 Number of Electrons    NEL             ....   56
 Basis Dimension        Dim             ....  289

ORBITAL ENERGIES
----------------

  NO   OCC          E(Eh)            E(eV)
   0   2.0000     -14.420343      -392.3975
   1   2.0000     -14.417908      -392.3312
   2   2.0000     -10.319948      -280.8201
   3   2.0000     -10.313071      -280.6329
   4   2.0000     -10.272033      -279.5162
   5   2.0000     -10.255318      -279.0614
   6   2.0000     -10.180151      -277.0160
   7   2.0000      -1.084974       -29.5236
   8   2.0000      -0.996416       -27.1139
   9   2.0000      -0.903389       -24.5825
  10   2.0000      -0.838163       -22.8076
  11   2.0000      -0.781350       -21.2616
  12   2.0000      -0.720232       -19.5985
  13   2.0000      -0.690980       -18.8025
  14   2.0000      -0.634974       -17.2785
  15   2.0000      -0.600790       -16.3483
  16   2.0000      -0.577493       -15.7144
  17   2.0000      -0.561052       -15.2670
  18   2.0000      -0.538825       -14.6622
  19   2.0000      -0.501356       -13.6426
  20   2.0000      -0.493290       -13.4231
  21   2.0000      -0.486074       -13.2267
  22   2.0000      -0.464664       -12.6441
  23   2.0000      -0.443877       -12.0785
  24   2.0000      -0.439087       -11.9482
  25   2.0000      -0.431135       -11.7318
  26   2.0000      -0.346083        -9.4174
  27   2.0000      -0.247962        -6.7474
  28   0.0000       0.102922         2.8006
  29   0.0000       0.124465         3.3869
  30   0.0000       0.135962         3.6997
  31   0.0000       0.149807         4.0765
  32   0.0000       0.165386         4.5004

MULLIKEN ATOMIC CHARGES
-----------------------
   0 C :   -0.201864
   1 N :   -0.348447
   2 C :    0.421549
   3 C :   -0.571596
   4 N :   -0.524698
   5 H :    0.233925
   6 H :    0.249044
   7 H :    0.239301
   8 H :    0.099911
   9 H :    0.093924
  10 C :   -0.116540
  11 H :    0.123925
  12 H :    0.116639
  13 C :   -0.361774
  14 H :    0.092133
  15 H :    0.106199
  16 H :    0.130166
  17 H :    0.099842
  18 H :    0.118360
Sum of atomic charges:    0.0000000

LOEWDIN ATOMIC CHARGES
----------------------
   0 C :   -0.296447
   1 N :    0.120543
   2 C :   -0.455975
   3 C :   -0.343041
   4 N :   -0.022015
   5 H :    0.160766
   6 H :    0.176159
   7 H :    0.196606
   8 H :    0.096090
   9 H :    0.095317
  10 C :   -0.297659
  11 H :    0.134692
  12 H :    0.123699
  13 C :   -0.303641
  14 H :    0.132412
  15 H :    0.134131
  16 H :    0.119047
  17 H :    0.112831
  18 H :    0.116486

  Mayer bond orders larger than 0.100000
B(  0-C ,  1-N ) :   0.9405 B(  0-C , 10-C ) :   0.9416 B(  0-C , 11-H ) :   0.9792
B(  0-C , 12-H ) :   0.9944 B(  1-N ,  2-C ) :   1.1882 B(  1-N ,  7-H ) :   0.9241
B(  2-C ,  3-C ) :   1.5897 B(  2-C ,  4-N ) :   1.1162 B(  3-C ,  8-H ) :   1.0214
B(  3-C ,  9-H ) :   1.0096 B(  4-N ,  5-H ) :   0.9164 B(  4-N ,  6-H ) :   0.9225
B( 10-C , 13-C ) :   0.9672 B( 10-C , 14-H ) :   0.9684 B( 10-C , 15-H ) :   0.9685
B( 13-C , 16-H ) :   0.9778 B( 13-C , 17-H ) :   0.9793 B( 13-C , 18-H ) :   0.9797

Dispersion correction           -0.005437208
FINAL SINGLE POINT ENERGY      -307.255903439776

DIPOLE MOMENT
-------------
                                X             Y             Z
Electronic contribution:     -2.45319       2.75511      -1.96122
Nuclear contribution   :      2.34222      -2.69386       3.01591
                        -----------------------------------------
Total Dipole Moment    :     -0.11097       0.06125       1.05470
                        -----------------------------------------
Magnitude (a.u.)       :      1.06228
Magnitude (Debye)      :      2.70011

Rotational constants in cm-1:     0.155143     0.051710     0.048050
Rotational constants in MHz :  4651.080391  1550.217078  1440.507386

                             ****ORCA TERMINATED NORMALLY****
TOTAL RUN TIME: 0 days 0 hours 0 minutes 40 seconds 122 msec
