                         Program Version 5.0.0 -  RELEASE  -
|  1> !wB97X-D3 RIJCOSX def2-TZVP def2/J TightSCF
|  2> *xyz 0 1
|  3> C          4.90646       -3.10282       -5.95484
|  4> C          3.51177       -2.80621       -6.49228
|  5> H          2.73604       -3.37345       -5.97374
|  6> H          3.44490       -3.04083       -7.55528
|  7> S          3.00462       -1.09621       -6.38926
|  8> O          4.12886       -0.32965       -6.95372
|  9> O          1.78128       -1.00078       -7.13640
| 10> C          5.02498       -3.02568       -4.43762
| 11> H          5.20153       -4.10021       -6.29691
| 12> H          5.60592       -2.39782       -6.41337
| 13> F          2.85155       -0.78368       -4.95679
| 14> H          4.73604       -2.05011       -4.10644
| 15> H          6.03776       -3.21492       -4.14890
| 16> H          4.38436       -3.75784       -3.99214
| 17> *
| 18>
| 19> %MaxCore 64000
| 20>
| 21> %pal nprocs 8
| 22> end
| 23>
| 24> %scf
| 25>   MaxIter 150
| 26> end
| 27>
| 28>
| 29>                          ****END OF INPUT****

CARTESIAN COORDINATES (ANGSTROEM)
---------------------------------
  C      4.906460   -3.102820   -5.954840
  C      3.511770   -2.806210   -6.492280
  H      2.736040   -3.373450   -5.973740
  H      3.444900   -3.040830   -7.555280
  S      3.004620   -1.096210   -6.389260
  O      4.128860   -0.329650   -6.953720
  O      1.781280   -1.000780   -7.136400
  C      5.024980   -3.025680   -4.437620
  H      5.201530   -4.100210   -6.296910
  H      5.605920   -2.397820   -6.413370
  F      2.851550   -0.783680   -4.956790
  H      4.736040   -2.050110   -4.106440
  H      6.037760   -3.214920   -4.148900
  H      4.384360   -3.757840   -3.992140

 Total Charge           Charge          ....    0
 Multiplicity           Mult            ....    1
 Number of Electrons    NEL             ....   66
 Basis Dimension        Dim             ....  265

ORBITAL ENERGIES
----------------

  NO   OCC          E(Eh)            E(eV)
   0   2.0000     -89.192839     -2427.0605
   1   2.0000     -24.891097      -677.3212
   2   2.0000     -19.244427      -523.6675
   3   2.0000     -19.232702      -523.3484
   4   2.0000     -10.336230      -281.2631
   5   2.0000     -10.303235      -280.3653
   6   2.0000     -10.278374      -279.6888
   7   2.0000      -8.256266      -224.6644
   8   2.0000      -6.213767      -169.0852
   9   2.0000      -6.207324      -168.9099
  10   2.0000      -6.206723      -168.8935
  11   2.0000      -1.474536       -40.1242
  12   2.0000      -1.224252       -33.3136
  13   2.0000      -1.126393       -30.6507
  14   2.0000      -0.954103       -25.9625
  15   2.0000      -0.869119       -23.6499
  16   2.0000      -0.811632       -22.0856
  17   2.0000      -0.748217       -20.3600
  18   2.0000      -0.682672       -18.5764
  19   2.0000      -0.672811       -18.3081
  20   2.0000      -0.652963       -17.7680
  21   2.0000      -0.594314       -16.1721
  22   2.0000      -0.585108       -15.9216
  23   2.0000      -0.562023       -15.2934
  24   2.0000      -0.549852       -14.9622
  25   2.0000      -0.532532       -14.4909
  26   2.0000      -0.493225       -13.4213
  27   2.0000      -0.482369       -13.1259
  28   2.0000      -0.463969       -12.6252
  29   2.0000      -0.459474       -12.5029
  30   2.0000      -0.429476       -11.6866
  31   2.0000      -0.420618       -11.4456
  32   2.0000      -0.407547       -11.0899
  33   0.0000       0.096057         2.6139
  34   0.0000       0.121981         3.3193
  35   0.0000       0.141112         3.8399
  36   0.0000       0.145976         3.9722
  37   0.0000       0.153510         4.1772

MULLIKEN ATOMIC CHARGES
-----------------------
   0 C :   -0.205017
   1 C :   -0.273660
   2 H :    0.148360
   3 H :    0.177309
   4 S :    0.881164
   5 O :   -0.456773
   6 O :   -0.416938
   7 C :   -0.351689
   8 H :    0.113801
   9 H :    0.146430
  10 F :   -0.121782
  11 H :    0.116077
  12 H :    0.129075
  13 H :    0.113644
Sum of atomic charges:    0.0000000

LOEWDIN ATOMIC CHARGES
----------------------
   0 C :   -0.310593
   1 C :   -0.370537
   2 H :    0.140416
   3 H :    0.154925
   4 S :    0.551063
   5 O :   -0.304283
   6 O :   -0.260466
   7 C :   -0.302744
   8 H :    0.141480
   9 H :    0.146624
  10 F :    0.061695
  11 H :    0.114090
  12 H :    0.121440
  13 H :    0.116890

  Mayer bond orders larger than 0.100000
B(  0-C ,  1-C ) :   0.9598 B(  0-C ,  7-C ) :   0.9824 B(  0-C ,  8-H ) :   0.9589
B(  0-C ,  9-H ) :   0.9628 B(  1-C ,  2-H ) :   0.9472 B(  1-C ,  3-H ) :   0.9412
B(  1-C ,  4-S ) :   0.9140 B(  4-S ,  5-O ) :   1.8660 B(  4-S ,  6-O ) :   1.9516
B(  4-S , 10-F ) :   1.1075 B(  7-C , 11-H ) :   0.9713 B(  7-C , 12-H ) :   0.9797
B(  7-C , 13-H ) :   0.9768

Dispersion correction           -0.004480590
FINAL SINGLE POINT ENERGY      -767.068592822396

DIPOLE MOMENT
-------------
                                X             Y             Z
Electronic contribution:     -7.47794       9.41163      -1.86926
Nuclear contribution   :      7.88819     -10.86344       2.71963
                        -----------------------------------------
Total Dipole Moment    :      0.41025      -1.45181       0.85036
                        -----------------------------------------
Magnitude (a.u.)       :      1.73181
Magnitude (Debye)      :      4.40192

Rotational constants in cm-1:     0.130261     0.054435     0.050898
Rotational constants in MHz :  3905.114465  1631.935083  1525.880669

                             ****ORCA TERMINATED NORMALLY****
TOTAL RUN TIME: 0 days 0 hours 0 minutes 31 seconds 599 msec
