                         Program Version 5.0.0 -  RELEASE  -
|  1> !wB97X-D3 RIJCOSX def2-TZVP def2/J TightSCF
|  2> *xyz 0 1
|  3> C          4.49059        1.15590       -2.46929
|  4> N          4.30539        1.22276       -3.90832
|  5> C          4.63192        2.24637       -4.67096
|  6> N          4.54169        2.14399       -5.98714
|  7> C          5.08409        3.39358       -4.11855
|  8> H          4.92067        3.57050       -3.13587
|  9> H          5.25465        4.19739       -4.70696
| 10> H          3.82453        0.44911       -4.35093
| 11> H          4.34337        1.24932       -6.41665
| 12> H          4.67671        2.95662       -6.57411
| 13> C          5.94213        0.93950       -2.03689
| 14> H          3.86431        0.32853       -2.13661
| 15> H          4.07623        2.04999       -1.98901
| 16> C          6.55996       -0.35629       -2.55909
| 17> H          5.96798        0.95257       -0.94244
| 18> H          6.54718        1.78833       -2.36885
| 19> H          6.53022       -0.35990       -3.62867
| 20> H          6.00654       -1.19175       -2.18407
| 21> H          7.57588       -0.42487       -2.23029
| 22> *
| 23>
| 24> %MaxCore 64000
| 25>
| 26> %pal nprocs 8
| 27> end
| 28>
| 29> %scf
| 30>   MaxIter 150
| 31> end
| 32>
| 33>
| 34>                          ****END OF INPUT****

CARTESIAN COORDINATES (ANGSTROEM)
---------------------------------
  C      4.490590    1.155900   -2.469290
  N      4.305390    1.222760   -3.908320
  C      4.631920    2.246370   -4.670960
  N      4.541690    2.143990   -5.987140
  C      5.084090    3.393580   -4.118550
  H      4.920670    3.570500   -3.135870
  H      5.254650    4.197390   -4.706960
  H      3.824530    0.449110   -4.350930
  H      4.343370    1.249320   -6.416650
  H      4.676710    2.956620   -6.574110
  C      5.942130    0.939500   -2.036890
  H      3.864310    0.328530   -2.136610
  H      4.076230    2.049990   -1.989010
  C      6.559960   -0.356290   -2.559090
  H      5.967980    0.952570   -0.942440
  H      6.547180    1.788330   -2.368850
  H      6.530220   -0.359900   -3.628670
  H      6.006540   -1.191750   -2.184070
  H      7.575880   -0.424870   -2.230290

 Total Charge           Charge          ....    0
 Multiplicity           Mult            ....    1
 Number of Electrons    NEL             ....   56
 Basis Dimension        Dim             ....  289

ORBITAL ENERGIES
----------------

  NO   OCC          E(Eh)            E(eV)
   0   2.0000     -14.424262      -392.5041
   1   2.0000     -14.420586      -392.4041
   2   2.0000     -10.322713      -280.8953
   3   2.0000     -10.304945      -280.4118
   4   2.0000     -10.261946      -279.2418
   5   2.0000     -10.250468      -278.9294
   6   2.0000     -10.180173      -277.0166
   7   2.0000      -1.089066       -29.6350
   8   2.0000      -1.003836       -27.3158
   9   2.0000      -0.890586       -24.2341
  10   2.0000      -0.823226       -22.4011
  11   2.0000      -0.799603       -21.7583
  12   2.0000      -0.714674       -19.4473
  13   2.0000      -0.660672       -17.9778
  14   2.0000      -0.652687       -17.7605
  15   2.0000      -0.622810       -16.9475
  16   2.0000      -0.574267       -15.6266
  17   2.0000      -0.550130       -14.9698
  18   2.0000      -0.526838       -14.3360
  19   2.0000      -0.498315       -13.5598
  20   2.0000      -0.490414       -13.3448
  21   2.0000      -0.480528       -13.0758
  22   2.0000      -0.462616       -12.5884
  23   2.0000      -0.440352       -11.9826
  24   2.0000      -0.431977       -11.7547
  25   2.0000      -0.422528       -11.4976
  26   2.0000      -0.341722        -9.2987
  27   2.0000      -0.248453        -6.7608
  28   0.0000       0.100686         2.7398
  29   0.0000       0.128180         3.4880
  30   0.0000       0.138795         3.7768
  31   0.0000       0.153779         4.1845
  32   0.0000       0.162244         4.4149

MULLIKEN ATOMIC CHARGES
-----------------------
   0 C :   -0.146926
   1 N :   -0.362409
   2 C :    0.402283
   3 N :   -0.519630
   4 C :   -0.559359
   5 H :    0.105457
   6 H :    0.080448
   7 H :    0.210736
   8 H :    0.228175
   9 H :    0.259659
  10 C :   -0.136264
  11 H :    0.117599
  12 H :    0.126154
  13 C :   -0.358956
  14 H :    0.091736
  15 H :    0.133928
  16 H :    0.112587
  17 H :    0.096571
  18 H :    0.118213
Sum of atomic charges:    0.0000000

LOEWDIN ATOMIC CHARGES
----------------------
   0 C :   -0.279259
   1 N :    0.118164
   2 C :   -0.463674
   3 N :   -0.010985
   4 C :   -0.356337
   5 H :    0.096186
   6 H :    0.091587
   7 H :    0.180274
   8 H :    0.163054
   9 H :    0.180537
  10 C :   -0.292632
  11 H :    0.131490
  12 H :    0.132864
  13 C :   -0.307103
  14 H :    0.132943
  15 H :    0.141896
  16 H :    0.113761
  17 H :    0.111179
  18 H :    0.116055

  Mayer bond orders larger than 0.100000
B(  0-C ,  1-N ) :   0.9388 B(  0-C , 10-C ) :   0.9599 B(  0-C , 11-H ) :   0.9787
B(  0-C , 12-H ) :   0.9830 B(  1-N ,  2-C ) :   1.1727 B(  1-N ,  7-H ) :   0.9276
B(  2-C ,  3-N ) :   1.1411 B(  2-C ,  4-C ) :   1.5963 B(  3-N ,  8-H ) :   0.9253
B(  3-N ,  9-H ) :   0.9160 B(  4-C ,  5-H ) :   1.0026 B(  4-C ,  6-H ) :   1.0069
B( 10-C , 13-C ) :   0.9658 B( 10-C , 14-H ) :   0.9719 B( 10-C , 15-H ) :   0.9668
B( 13-C , 16-H ) :   0.9799 B( 13-C , 17-H ) :   0.9803 B( 13-C , 18-H ) :   0.9815

Dispersion correction           -0.005377382
FINAL SINGLE POINT ENERGY      -307.254495085700

DIPOLE MOMENT
-------------
                                X             Y             Z
Electronic contribution:     -2.96442       1.49998      -3.92437
Nuclear contribution   :      2.46104      -2.42013       3.42523
                        -----------------------------------------
Total Dipole Moment    :     -0.50338      -0.92015      -0.49913
                        -----------------------------------------
Magnitude (a.u.)       :      1.16155
Magnitude (Debye)      :      2.95243

Rotational constants in cm-1:     0.157414     0.050835     0.047338
Rotational constants in MHz :  4719.163414  1524.007825  1419.164399

                             ****ORCA TERMINATED NORMALLY****
TOTAL RUN TIME: 0 days 0 hours 0 minutes 38 seconds 807 msec
