                         Program Version 5.0.0 -  RELEASE  -
|  1> !wB97X-D3 RIJCOSX def2-TZVP def2/J TightSCF xyzfile
|  2>
|  3> *xyzfile 0 1 D2.xyz
|  4>
|  5> %MaxCore 64000
|  6>
|  7> %pal nprocs 18
|  8> end
|  9>
| 10> %scf
| 11>   MaxIter 150
| 12> end
| 13>
| 14>
| 15>                          ****END OF INPUT****

CARTESIAN COORDINATES (ANGSTROEM)
---------------------------------
  C      4.490588    1.155899   -2.469290
  N      4.305394    1.222762   -3.908317
  C      4.906458   -3.102816   -5.954844
  C      3.511771   -2.806215   -6.492283
  H      2.736044   -3.373445   -5.973736
  H      3.444904   -3.040831   -7.555281
  S      3.004618   -1.096206   -6.389259
  C      4.631918    2.246365   -4.670958
  C      4.541686    2.143990   -5.987139
  N      5.084086    3.393584   -4.118545
  H      4.920675    3.570501   -3.135870
  H      5.254652    4.197390   -4.706956
  H      3.824530    0.449113   -4.350926
  H      4.343373    1.249318   -6.416646
  H      4.676712    2.956624   -6.574113
  F      4.128856   -0.329647   -6.953717
  O      1.781285   -1.000779   -7.136399
  C      5.942129    0.939500   -2.036893
  H      3.864305    0.328532   -2.136611
  H      4.076233    2.049994   -1.989010
  C      6.462677   -3.117775   -3.944671
  C      5.024977   -3.025679   -4.437625
  H      4.423321   -3.818693   -3.977648
  H      4.579350   -2.087131   -4.108727
  H      5.201533   -4.100207   -6.296905
  H      5.605922   -2.397822   -6.413368
  C      6.559957   -0.356290   -2.559086
  H      5.967976    0.952567   -0.942444
  H      6.547184    1.788331   -2.368849
  C      6.006283   -1.615917   -1.899301
  H      7.642360   -0.318000   -2.402059
  H      6.414855   -0.403433   -3.642587
  C      6.608718   -2.917014   -2.435655
  H      6.190324   -1.561115   -0.820948
  H      4.919250   -1.651245   -2.016586
  H      7.066975   -2.374258   -4.475514
  H      6.887808   -4.089747   -4.215332
  H      6.135197   -3.755573   -1.915159
  H      7.671142   -2.955503   -2.172291
  O      2.851546   -0.783683   -4.956789

 Total Charge           Charge          ....    0
 Multiplicity           Mult            ....    1
 Number of Electrons    NEL             ....  144
 Basis Dimension        Dim             ....  671

ORBITAL ENERGIES
----------------

  NO   OCC          E(Eh)            E(eV)
   0   2.0000     -89.206115     -2427.4218
   1   2.0000     -24.898390      -677.5196
   2   2.0000     -19.253549      -523.9157
   3   2.0000     -19.251396      -523.8571
   4   2.0000     -14.406298      -392.0153
   5   2.0000     -14.391808      -391.6210
   6   2.0000     -10.342875      -281.4439
   7   2.0000     -10.308027      -280.4957
   8   2.0000     -10.306267      -280.4478
   9   2.0000     -10.298390      -280.2335
  10   2.0000     -10.281201      -279.7657
  11   2.0000     -10.276702      -279.6433
  12   2.0000     -10.272565      -279.5307
  13   2.0000     -10.267564      -279.3946
  14   2.0000     -10.263679      -279.2889
  15   2.0000     -10.263439      -279.2824
  16   2.0000     -10.163869      -276.5729
  17   2.0000      -8.269538      -225.0256
  18   2.0000      -6.226972      -169.4445
  19   2.0000      -6.220596      -169.2710
  20   2.0000      -6.220088      -169.2572
  21   2.0000      -1.485767       -40.4298
  22   2.0000      -1.237986       -33.6873
  23   2.0000      -1.144056       -31.1314
  24   2.0000      -1.067828       -29.0571
  25   2.0000      -0.981662       -26.7124
  26   2.0000      -0.965763       -26.2798
  27   2.0000      -0.931486       -25.3470
  28   2.0000      -0.901083       -24.5197
  29   2.0000      -0.865002       -23.5379
  30   2.0000      -0.841067       -22.8866
  31   2.0000      -0.813543       -22.1376
  32   2.0000      -0.791931       -21.5495
  33   2.0000      -0.759648       -20.6711
  34   2.0000      -0.735745       -20.0206
  35   2.0000      -0.709840       -19.3157
  36   2.0000      -0.699516       -19.0348
  37   2.0000      -0.689318       -18.7573
  38   2.0000      -0.687069       -18.6961
  39   2.0000      -0.665066       -18.0974
  40   2.0000      -0.659610       -17.9489
  41   2.0000      -0.620357       -16.8808
  42   2.0000      -0.604469       -16.4484
  43   2.0000      -0.593522       -16.1506
  44   2.0000      -0.585124       -15.9220
  45   2.0000      -0.581792       -15.8314
  46   2.0000      -0.569007       -15.4835
  47   2.0000      -0.564992       -15.3742
  48   2.0000      -0.559308       -15.2195
  49   2.0000      -0.540760       -14.7148
  50   2.0000      -0.536416       -14.5966
  51   2.0000      -0.531099       -14.4519
  52   2.0000      -0.520680       -14.1684
  53   2.0000      -0.498214       -13.5571
  54   2.0000      -0.491250       -13.3676
  55   2.0000      -0.490843       -13.3565
  56   2.0000      -0.478432       -13.0188
  57   2.0000      -0.470327       -12.7983
  58   2.0000      -0.464770       -12.6470
  59   2.0000      -0.458306       -12.4711
  60   2.0000      -0.452750       -12.3200
  61   2.0000      -0.446156       -12.1405
  62   2.0000      -0.438000       -11.9186
  63   2.0000      -0.435542       -11.8517
  64   2.0000      -0.426979       -11.6187
  65   2.0000      -0.420843       -11.4517
  66   2.0000      -0.417416       -11.3585
  67   2.0000      -0.406541       -11.0625
  68   2.0000      -0.404442       -11.0054
  69   2.0000      -0.399899       -10.8818
  70   2.0000      -0.330073        -8.9817
  71   2.0000      -0.234981        -6.3941
  72   0.0000       0.087350         2.3769
  73   0.0000       0.112785         3.0690
  74   0.0000       0.113916         3.0998
  75   0.0000       0.121255         3.2995
  76   0.0000       0.123220         3.3530

MULLIKEN ATOMIC CHARGES
-----------------------
   0 C :   -0.269405
   1 N :   -0.315218
   2 C :   -0.219109
   3 C :   -0.243091
   4 H :    0.169351
   5 H :    0.172902
   6 S :    0.900275
   7 C :    0.459736
   8 C :   -0.616457
   9 N :   -0.530099
  10 H :    0.232277
  11 H :    0.244338
  12 H :    0.212095
  13 H :    0.089209
  14 H :    0.089734
  15 F :   -0.103046
  16 O :   -0.402545
  17 C :   -0.093660
  18 H :    0.144766
  19 H :    0.119463
  20 C :   -0.214494
  21 C :   -0.283261
  22 H :    0.106172
  23 H :    0.116893
  24 H :    0.127170
  25 H :    0.135088
  26 C :   -0.238359
  27 H :    0.088988
  28 H :    0.116071
  29 C :   -0.249425
  30 H :    0.105541
  31 H :    0.118609
  32 C :   -0.156952
  33 H :    0.105797
  34 H :    0.114928
  35 H :    0.121119
  36 H :    0.107490
  37 H :    0.103247
  38 H :    0.107505
  39 O :   -0.473641
Sum of atomic charges:   -0.0000000

LOEWDIN ATOMIC CHARGES
----------------------
   0 C :   -0.293811
   1 N :    0.118717
   2 C :   -0.284961
   3 C :   -0.358399
   4 H :    0.154594
   5 H :    0.145888
   6 S :    0.573930
   7 C :   -0.456917
   8 C :   -0.369293
   9 N :   -0.024089
  10 H :    0.159804
  11 H :    0.173625
  12 H :    0.163035
  13 H :    0.079727
  14 H :    0.092708
  15 F :    0.090056
  16 O :   -0.245413
  17 C :   -0.271244
  18 H :    0.135195
  19 H :    0.122720
  20 C :   -0.269807
  21 C :   -0.272737
  22 H :    0.138495
  23 H :    0.138114
  24 H :    0.146001
  25 H :    0.142639
  26 C :   -0.267198
  27 H :    0.134734
  28 H :    0.136330
  29 C :   -0.270655
  30 H :    0.136566
  31 H :    0.137540
  32 C :   -0.266047
  33 H :    0.136100
  34 H :    0.132208
  35 H :    0.136722
  36 H :    0.135175
  37 H :    0.135801
  38 H :    0.136922
  39 O :   -0.282775

  Mayer bond orders larger than 0.100000
B(  0-C ,  1-N ) :   0.9324 B(  0-C , 17-C ) :   0.9165 B(  0-C , 18-H ) :   0.9916
B(  0-C , 19-H ) :   0.9982 B(  1-N ,  7-C ) :   1.2079 B(  1-N , 12-H ) :   0.8834
B(  2-C ,  3-C ) :   0.9618 B(  2-C , 21-C ) :   0.9538 B(  2-C , 24-H ) :   0.9600
B(  2-C , 25-H ) :   0.9820 B(  3-C ,  4-H ) :   0.9428 B(  3-C ,  5-H ) :   0.9554
B(  3-C ,  6-S ) :   0.9185 B(  6-S , 15-F ) :   1.1056 B(  6-S , 16-O ) :   1.9857
B(  6-S , 39-O ) :   1.7497 B(  7-C ,  8-C ) :   1.5417 B(  7-C ,  9-N ) :   1.1177
B(  8-C , 13-H ) :   1.0443 B(  8-C , 14-H ) :   1.0070 B(  9-N , 10-H ) :   0.9176
B(  9-N , 11-H ) :   0.9243 B( 12-H , 39-O ) :   0.1051 B( 17-C , 26-C ) :   0.9731
B( 17-C , 27-H ) :   0.9757 B( 17-C , 28-H ) :   0.9692 B( 20-C , 21-C ) :   0.9613
B( 20-C , 32-C ) :   0.9719 B( 20-C , 35-H ) :   0.9861 B( 20-C , 36-H ) :   0.9739
B( 21-C , 22-H ) :   0.9653 B( 21-C , 23-H ) :   0.9810 B( 26-C , 29-C ) :   0.9480
B( 26-C , 30-H ) :   0.9720 B( 26-C , 31-H ) :   0.9728 B( 29-C , 32-C ) :   0.9723
B( 29-C , 33-H ) :   0.9703 B( 29-C , 34-H ) :   0.9886 B( 32-C , 37-H ) :   0.9843
B( 32-C , 38-H ) :   0.9807

Dispersion correction           -0.021930251
FINAL SINGLE POINT ENERGY     -1191.066112747993

DIPOLE MOMENT
-------------
                                X             Y             Z
Electronic contribution:    -16.37310       3.97157     -19.60750
Nuclear contribution   :     17.27667      -5.32157      20.03034
                        -----------------------------------------
Total Dipole Moment    :      0.90356      -1.35000       0.42284
                        -----------------------------------------
Magnitude (a.u.)       :      1.67861
Magnitude (Debye)      :      4.26668

Rotational constants in cm-1:     0.014355     0.012269     0.007481
Rotational constants in MHz :   430.360270   367.823451   224.273399

                             ****ORCA TERMINATED NORMALLY****
TOTAL RUN TIME: 0 days 0 hours 2 minutes 37 seconds 241 msec
