                         Program Version 5.0.0 -  RELEASE  -
|  1> !wB97X-D3 RIJCOSX def2-TZVP def2/J TightSCF xyzfile
|  2>
|  3> *xyzfile 0 1 D8.xyz
|  4>
|  5> %MaxCore 64000
|  6>
|  7> %pal nprocs 18
|  8> end
|  9>
| 10> %scf
| 11>   MaxIter 150
| 12> end
| 13>
| 14>
| 15>                          ****END OF INPUT****

CARTESIAN COORDINATES (ANGSTROEM)
---------------------------------
  C      4.490588    1.155899   -2.469290
  N      4.305394    1.222762   -3.908317
  C      4.906458   -3.102816   -5.954844
  C      3.511771   -2.806215   -6.492283
  H      2.736044   -3.373445   -5.973736
  H      3.444904   -3.040831   -7.555281
  S      3.004618   -1.096206   -6.389259
  C      4.631918    2.246365   -4.670958
  C      4.541686    2.143990   -5.987139
  N      5.084086    3.393584   -4.118545
  H      4.920675    3.570501   -3.135870
  H      5.254652    4.197390   -4.706956
  H      3.824530    0.449113   -4.350926
  H      4.343373    1.249318   -6.416646
  H      4.676712    2.956624   -6.574113
  O      4.128856   -0.329647   -6.953717
  O      1.781285   -1.000779   -7.136399
  C      5.942129    0.939500   -2.036893
  H      3.864305    0.328532   -2.136611
  H      4.076233    2.049994   -1.989010
  C      6.462677   -3.117775   -3.944671
  C      5.024977   -3.025679   -4.437625
  H      4.423321   -3.818693   -3.977648
  H      4.579350   -2.087131   -4.108727
  H      5.201533   -4.100207   -6.296905
  H      5.605922   -2.397822   -6.413368
  C      6.559957   -0.356290   -2.559086
  H      5.967976    0.952567   -0.942444
  H      6.547184    1.788331   -2.368849
  C      6.006283   -1.615917   -1.899301
  H      7.642360   -0.318000   -2.402059
  H      6.414855   -0.403433   -3.642587
  C      6.608718   -2.917014   -2.435655
  H      6.190324   -1.561115   -0.820948
  H      4.919250   -1.651245   -2.016586
  H      7.066975   -2.374258   -4.475514
  H      6.887808   -4.089747   -4.215332
  H      6.135197   -3.755573   -1.915159
  H      7.671142   -2.955503   -2.172291
  F      2.851546   -0.783683   -4.956789

 Total Charge           Charge          ....    0
 Multiplicity           Mult            ....    1
 Number of Electrons    NEL             ....  144
 Basis Dimension        Dim             ....  671

ORBITAL ENERGIES
----------------

  NO   OCC          E(Eh)            E(eV)
   0   2.0000     -89.200848     -2427.2785
   1   2.0000     -24.909996      -677.8354
   2   2.0000     -19.251190      -523.8515
   3   2.0000     -19.238461      -523.5051
   4   2.0000     -14.405097      -391.9826
   5   2.0000     -14.403513      -391.9395
   6   2.0000     -10.340895      -281.3901
   7   2.0000     -10.307222      -280.4738
   8   2.0000     -10.303706      -280.3781
   9   2.0000     -10.300840      -280.3001
  10   2.0000     -10.290202      -280.0106
  11   2.0000     -10.280539      -279.7477
  12   2.0000     -10.276800      -279.6459
  13   2.0000     -10.273321      -279.5513
  14   2.0000     -10.268251      -279.4133
  15   2.0000     -10.267490      -279.3926
  16   2.0000     -10.150723      -276.2152
  17   2.0000      -8.264684      -224.8935
  18   2.0000      -6.222366      -169.3192
  19   2.0000      -6.215477      -169.1317
  20   2.0000      -6.215030      -169.1196
  21   2.0000      -1.495872       -40.7048
  22   2.0000      -1.233045       -33.5529
  23   2.0000      -1.136058       -30.9137
  24   2.0000      -1.071898       -29.1678
  25   2.0000      -0.984578       -26.7917
  26   2.0000      -0.965264       -26.2662
  27   2.0000      -0.934513       -25.4294
  28   2.0000      -0.904937       -24.6246
  29   2.0000      -0.868526       -23.6338
  30   2.0000      -0.843471       -22.9520
  31   2.0000      -0.821819       -22.3628
  32   2.0000      -0.788740       -21.4627
  33   2.0000      -0.763993       -20.7893
  34   2.0000      -0.742010       -20.1911
  35   2.0000      -0.717300       -19.5187
  36   2.0000      -0.706814       -19.2334
  37   2.0000      -0.695262       -18.9190
  38   2.0000      -0.678653       -18.4671
  39   2.0000      -0.666278       -18.1304
  40   2.0000      -0.663068       -18.0430
  41   2.0000      -0.620363       -16.8809
  42   2.0000      -0.605922       -16.4880
  43   2.0000      -0.592477       -16.1221
  44   2.0000      -0.584630       -15.9086
  45   2.0000      -0.584011       -15.8917
  46   2.0000      -0.572750       -15.5853
  47   2.0000      -0.567486       -15.4421
  48   2.0000      -0.560864       -15.2619
  49   2.0000      -0.543866       -14.7993
  50   2.0000      -0.541328       -14.7303
  51   2.0000      -0.531410       -14.4604
  52   2.0000      -0.515419       -14.0253
  53   2.0000      -0.502442       -13.6721
  54   2.0000      -0.491063       -13.3625
  55   2.0000      -0.488141       -13.2830
  56   2.0000      -0.481852       -13.1119
  57   2.0000      -0.473875       -12.8948
  58   2.0000      -0.465768       -12.6742
  59   2.0000      -0.459860       -12.5134
  60   2.0000      -0.458303       -12.4710
  61   2.0000      -0.442451       -12.0397
  62   2.0000      -0.441010       -12.0005
  63   2.0000      -0.433816       -11.8047
  64   2.0000      -0.430015       -11.7013
  65   2.0000      -0.416215       -11.3258
  66   2.0000      -0.413429       -11.2500
  67   2.0000      -0.411369       -11.1939
  68   2.0000      -0.405052       -11.0220
  69   2.0000      -0.387836       -10.5536
  70   2.0000      -0.334202        -9.0941
  71   2.0000      -0.229449        -6.2436
  72   0.0000       0.087820         2.3897
  73   0.0000       0.106212         2.8902
  74   0.0000       0.109167         2.9706
  75   0.0000       0.119522         3.2523
  76   0.0000       0.122400         3.3307

MULLIKEN ATOMIC CHARGES
-----------------------
   0 C :   -0.270383
   1 N :   -0.323851
   2 C :   -0.184910
   3 C :   -0.259162
   4 H :    0.152287
   5 H :    0.185995
   6 S :    0.881800
   7 C :    0.441304
   8 C :   -0.619574
   9 N :   -0.532454
  10 H :    0.226710
  11 H :    0.246380
  12 H :    0.196580
  13 H :    0.155945
  14 H :    0.083555
  15 O :   -0.431924
  16 O :   -0.406763
  17 C :   -0.085839
  18 H :    0.132035
  19 H :    0.124734
  20 C :   -0.221697
  21 C :   -0.280936
  22 H :    0.111818
  23 H :    0.070137
  24 H :    0.122284
  25 H :    0.155680
  26 C :   -0.255222
  27 H :    0.089770
  28 H :    0.120942
  29 C :   -0.243961
  30 H :    0.108722
  31 H :    0.136302
  32 C :   -0.158112
  33 H :    0.108722
  34 H :    0.101960
  35 H :    0.130744
  36 H :    0.111644
  37 H :    0.103992
  38 H :    0.110271
  39 F :   -0.135524
Sum of atomic charges:    0.0000000

LOEWDIN ATOMIC CHARGES
----------------------
   0 C :   -0.297283
   1 N :    0.109156
   2 C :   -0.282224
   3 C :   -0.361399
   4 H :    0.141434
   5 H :    0.156662
   6 S :    0.561795
   7 C :   -0.465571
   8 C :   -0.340555
   9 N :   -0.029128
  10 H :    0.156871
  11 H :    0.174371
  12 H :    0.166124
  13 H :    0.085171
  14 H :    0.091963
  15 O :   -0.256481
  16 O :   -0.248603
  17 C :   -0.270184
  18 H :    0.130669
  19 H :    0.124260
  20 C :   -0.266895
  21 C :   -0.274326
  22 H :    0.138063
  23 H :    0.128145
  24 H :    0.145348
  25 H :    0.151052
  26 C :   -0.267220
  27 H :    0.135121
  28 H :    0.138244
  29 C :   -0.271661
  30 H :    0.137977
  31 H :    0.140190
  32 C :   -0.266026
  33 H :    0.136751
  34 H :    0.127976
  35 H :    0.139883
  36 H :    0.137141
  37 H :    0.135672
  38 H :    0.137999
  39 F :    0.069519

  Mayer bond orders larger than 0.100000
B(  0-C ,  1-N ) :   0.9363 B(  0-C , 17-C ) :   0.9148 B(  0-C , 18-H ) :   0.9935
B(  0-C , 19-H ) :   0.9991 B(  1-N ,  7-C ) :   1.1765 B(  1-N , 12-H ) :   0.9238
B(  2-C ,  3-C ) :   0.9534 B(  2-C , 21-C ) :   0.9784 B(  2-C , 24-H ) :   0.9562
B(  2-C , 25-H ) :   0.9642 B(  3-C ,  4-H ) :   0.9513 B(  3-C ,  5-H ) :   0.9456
B(  3-C ,  6-S ) :   0.9181 B(  6-S , 15-O ) :   1.8188 B(  6-S , 16-O ) :   1.9831
B(  6-S , 39-F ) :   1.0458 B(  7-C ,  8-C ) :   1.5762 B(  7-C ,  9-N ) :   1.1004
B(  8-C , 13-H ) :   1.0170 B(  8-C , 14-H ) :   1.0132 B(  9-N , 10-H ) :   0.9193
B(  9-N , 11-H ) :   0.9234 B( 17-C , 26-C ) :   0.9699 B( 17-C , 27-H ) :   0.9744
B( 17-C , 28-H ) :   0.9673 B( 20-C , 21-C ) :   0.9719 B( 20-C , 32-C ) :   0.9671
B( 20-C , 35-H ) :   0.9860 B( 20-C , 36-H ) :   0.9735 B( 21-C , 22-H ) :   0.9650
B( 21-C , 23-H ) :   0.9789 B( 26-C , 29-C ) :   0.9437 B( 26-C , 30-H ) :   0.9717
B( 26-C , 31-H ) :   0.9735 B( 29-C , 32-C ) :   0.9717 B( 29-C , 33-H ) :   0.9701
B( 29-C , 34-H ) :   0.9913 B( 32-C , 37-H ) :   0.9854 B( 32-C , 38-H ) :   0.9800

Dispersion correction           -0.021849202
FINAL SINGLE POINT ENERGY     -1191.052096613083

DIPOLE MOMENT
-------------
                                X             Y             Z
Electronic contribution:    -18.46644       3.18960     -16.16326
Nuclear contribution   :     18.77618      -4.78855      17.68602
                        -----------------------------------------
Total Dipole Moment    :      0.30974      -1.59894       1.52276
                        -----------------------------------------
Magnitude (a.u.)       :      2.22965
Magnitude (Debye)      :      5.66733

Rotational constants in cm-1:     0.014368     0.012319     0.007509
Rotational constants in MHz :   430.738566   369.302170   225.105103

                             ****ORCA TERMINATED NORMALLY****
TOTAL RUN TIME: 0 days 0 hours 2 minutes 42 seconds 89 msec
