                         Program Version 5.0.0 -  RELEASE  -
|  1> !B3LYP D3BJ RIJCOSX def2-TZVPD def2/J TightSCF
|  2> *xyz -1 1
|  3> C          4.90646       -3.10282       -5.95484
|  4> C          3.51177       -2.80621       -6.49228
|  5> H          2.73604       -3.37345       -5.97374
|  6> H          3.44490       -3.04083       -7.55528
|  7> S          3.00462       -1.09621       -6.38926
|  8> O          4.12886       -0.32965       -6.95372
|  9> O          1.78128       -1.00078       -7.13640
| 10> O          2.85155       -0.78368       -4.95679
| 11> H          5.62703       -2.52424       -6.49422
| 12> H          5.12164       -4.14387       -6.07654
| 13> H          4.95004       -2.84862       -4.91639
| 14> *
| 15>
| 16> %MaxCore 64000
| 17>
| 18> %pal nprocs 4
| 19> end
| 20>
| 21> %scf
| 22>   MaxIter 150
| 23> end
| 24>
| 25>
| 26>                          ****END OF INPUT****

CARTESIAN COORDINATES (ANGSTROEM)
---------------------------------
  C      4.906460   -3.102820   -5.954840
  C      3.511770   -2.806210   -6.492280
  H      2.736040   -3.373450   -5.973740
  H      3.444900   -3.040830   -7.555280
  S      3.004620   -1.096210   -6.389260
  O      4.128860   -0.329650   -6.953720
  O      1.781280   -1.000780   -7.136400
  O      2.851550   -0.783680   -4.956790
  H      5.627030   -2.524240   -6.494220
  H      5.121640   -4.143870   -6.076540
  H      4.950040   -2.848620   -4.916390

 Total Charge           Charge          ....   -1
 Multiplicity           Mult            ....    1
 Number of Electrons    NEL             ....   58
 Basis Dimension        Dim             ....  285

ORBITAL ENERGIES
----------------

  NO   OCC          E(Eh)            E(eV)
   0   2.0000     -88.837417     -2417.3890
   1   2.0000     -18.907702      -514.5047
   2   2.0000     -18.896317      -514.1949
   3   2.0000     -18.896024      -514.1870
   4   2.0000     -10.031883      -272.9814
   5   2.0000     -10.023392      -272.7504
   6   2.0000      -7.880956      -214.4517
   7   2.0000      -5.844336      -159.0325
   8   2.0000      -5.843531      -159.0106
   9   2.0000      -5.843285      -159.0039
  10   2.0000      -0.921101       -25.0644
  11   2.0000      -0.790485       -21.5102
  12   2.0000      -0.770509       -20.9666
  13   2.0000      -0.633746       -17.2451
  14   2.0000      -0.509463       -13.8632
  15   2.0000      -0.380739       -10.3604
  16   2.0000      -0.319580        -8.6962
  17   2.0000      -0.311907        -8.4874
  18   2.0000      -0.274370        -7.4660
  19   2.0000      -0.259597        -7.0640
  20   2.0000      -0.253224        -6.8906
  21   2.0000      -0.230305        -6.2669
  22   2.0000      -0.215370        -5.8605
  23   2.0000      -0.150044        -4.0829
  24   2.0000      -0.149206        -4.0601
  25   2.0000      -0.115240        -3.1358
  26   2.0000      -0.107361        -2.9214
  27   2.0000      -0.101520        -2.7625
  28   2.0000      -0.063319        -1.7230
  29   0.0000       0.121782         3.3139
  30   0.0000       0.144644         3.9360
  31   0.0000       0.151369         4.1190
  32   0.0000       0.162172         4.4129
  33   0.0000       0.177307         4.8248

MULLIKEN ATOMIC CHARGES
-----------------------
   0 C :   -1.118707
   1 C :   -0.272749
   2 H :    0.236844
   3 H :    0.232059
   4 S :    1.269367
   5 O :   -0.754653
   6 O :   -0.702008
   7 O :   -0.752664
   8 H :    0.284639
   9 H :    0.292149
  10 H :    0.285723
Sum of atomic charges:   -1.0000000

LOEWDIN ATOMIC CHARGES
----------------------
   0 C :   -0.141069
   1 C :   -0.332398
   2 H :    0.082378
   3 H :    0.079954
   4 S :    0.353574
   5 O :   -0.408270
   6 O :   -0.385505
   7 O :   -0.411395
   8 H :    0.056090
   9 H :    0.046732
  10 H :    0.059909

  Mayer bond orders larger than 0.100000
B(  0-C ,  1-C ) :   0.6867 B(  0-C ,  8-H ) :   0.9925 B(  0-C ,  9-H ) :   0.9362
B(  0-C , 10-H ) :   0.9794 B(  1-C ,  2-H ) :   0.9595 B(  1-C ,  3-H ) :   0.9683
B(  1-C ,  4-S ) :   0.8663 B(  1-C ,  5-O ) :   0.1126 B(  1-C ,  6-O ) :   0.1493
B(  1-C ,  7-O ) :   0.1272 B(  4-S ,  5-O ) :   1.4400 B(  4-S ,  6-O ) :   1.4752
B(  4-S ,  7-O ) :   1.4426

Dispersion correction           -0.016731904
FINAL SINGLE POINT ENERGY      -703.124572631249

DIPOLE MOMENT
-------------
                                X             Y             Z
Electronic contribution:     -4.35829       6.39549      -0.66069
Nuclear contribution   :      5.05690      -8.21735       0.57889
                        -----------------------------------------
Total Dipole Moment    :      0.69861      -1.82186      -0.08179
                        -----------------------------------------
Magnitude (a.u.)       :      1.95293
Magnitude (Debye)      :      4.96396

Rotational constants in cm-1:     0.162547     0.083494     0.081672
Rotational constants in MHz :  4873.033504  2503.090885  2448.458543

                             ****ORCA TERMINATED NORMALLY****
TOTAL RUN TIME: 0 days 0 hours 0 minutes 30 seconds 373 msec
