                         Program Version 5.0.0 -  RELEASE  -
|  1> !B3LYP D3BJ RIJCOSX def2-TZVPD def2/J TightSCF
|  2> *xyz 1 1
|  3> C          4.49059        1.15590       -2.46929
|  4> N          4.30539        1.22276       -3.90832
|  5> C          4.63192        2.24637       -4.67096
|  6> N          4.54169        2.14399       -5.98714
|  7> N          5.08409        3.39358       -4.11855
|  8> H          4.92067        3.57050       -3.13587
|  9> H          5.25465        4.19739       -4.70696
| 10> H          3.82453        0.44911       -4.35093
| 11> H          4.34337        1.24932       -6.41665
| 12> H          4.67671        2.95662       -6.57411
| 13> C          5.94213        0.93950       -2.03689
| 14> H          3.86431        0.32853       -2.13661
| 15> H          4.07623        2.04999       -1.98901
| 16> H          6.32982        0.06401       -2.51451
| 17> H          5.98308        0.81426       -0.97504
| 18> H          6.52865        1.78889       -2.31873
| 19> *
| 20>
| 21> %MaxCore 64000
| 22>
| 23> %pal nprocs 4
| 24> end
| 25>
| 26> %scf
| 27>   MaxIter 150
| 28> end
| 29>
| 30>
| 31>                          ****END OF INPUT****

CARTESIAN COORDINATES (ANGSTROEM)
---------------------------------
  C      4.490590    1.155900   -2.469290
  N      4.305390    1.222760   -3.908320
  C      4.631920    2.246370   -4.670960
  N      4.541690    2.143990   -5.987140
  N      5.084090    3.393580   -4.118550
  H      4.920670    3.570500   -3.135870
  H      5.254650    4.197390   -4.706960
  H      3.824530    0.449110   -4.350930
  H      4.343370    1.249320   -6.416650
  H      4.676710    2.956620   -6.574110
  C      5.942130    0.939500   -2.036890
  H      3.864310    0.328530   -2.136610
  H      4.076230    2.049990   -1.989010
  H      6.329820    0.064010   -2.514510
  H      5.983080    0.814260   -0.975040
  H      6.528650    1.788890   -2.318730

 Total Charge           Charge          ....    1
 Multiplicity           Mult            ....    1
 Number of Electrons    NEL             ....   48
 Basis Dimension        Dim             ....  312

ORBITAL ENERGIES
----------------

  NO   OCC          E(Eh)            E(eV)
   0   2.0000     -14.538640      -395.6165
   1   2.0000     -14.537957      -395.5979
   2   2.0000     -14.535664      -395.5355
   3   2.0000     -10.502547      -285.7888
   4   2.0000     -10.375672      -282.3364
   5   2.0000     -10.301565      -280.3198
   6   2.0000      -1.214530       -33.0490
   7   2.0000      -1.105780       -30.0898
   8   2.0000      -1.090561       -29.6757
   9   2.0000      -0.929465       -25.2920
  10   2.0000      -0.844931       -22.9917
  11   2.0000      -0.800539       -21.7838
  12   2.0000      -0.785180       -21.3658
  13   2.0000      -0.742869       -20.2145
  14   2.0000      -0.692007       -18.8305
  15   2.0000      -0.689951       -18.7745
  16   2.0000      -0.659013       -17.9326
  17   2.0000      -0.624321       -16.9886
  18   2.0000      -0.603160       -16.4128
  19   2.0000      -0.557679       -15.1752
  20   2.0000      -0.531729       -14.4691
  21   2.0000      -0.512490       -13.9456
  22   2.0000      -0.476299       -12.9608
  23   2.0000      -0.451055       -12.2738
  24   0.0000      -0.170840        -4.6488
  25   0.0000      -0.164753        -4.4832
  26   0.0000      -0.131870        -3.5884
  27   0.0000      -0.125587        -3.4174
  28   0.0000      -0.102274        -2.7830

MULLIKEN ATOMIC CHARGES
-----------------------
   0 C :   -0.451846
   1 N :   -0.143926
   2 C :    0.661140
   3 N :   -0.293988
   4 N :   -0.291751
   5 H :    0.210704
   6 H :    0.178216
   7 H :    0.207737
   8 H :    0.184806
   9 H :    0.186608
  10 C :   -1.029914
  11 H :    0.303225
  12 H :    0.304606
  13 H :    0.310851
  14 H :    0.325908
  15 H :    0.337622
Sum of atomic charges:    1.0000000

LOEWDIN ATOMIC CHARGES
----------------------
   0 C :   -0.203974
   1 N :    0.085986
   2 C :   -0.433682
   3 N :    0.211009
   4 N :    0.217819
   5 H :    0.121868
   6 H :    0.134992
   7 H :    0.169150
   8 H :    0.140247
   9 H :    0.138504
  10 C :   -0.053105
  11 H :    0.129251
  12 H :    0.119571
  13 H :    0.077940
  14 H :    0.081120
  15 H :    0.063305

  Mayer bond orders larger than 0.100000
B(  0-C ,  1-N ) :   0.8866 B(  0-C , 10-C ) :   0.6681 B(  0-C , 11-H ) :   0.9175
B(  0-C , 12-H ) :   0.8891 B(  1-N ,  2-C ) :   1.2245 B(  1-N ,  3-N ) :   0.1079
B(  1-N ,  7-H ) :   0.9892 B(  2-C ,  3-N ) :   1.0663 B(  2-C ,  4-N ) :   1.1511
B(  3-N ,  8-H ) :   0.9979 B(  3-N ,  9-H ) :   1.0136 B(  4-N ,  5-H ) :   0.9316
B(  4-N ,  6-H ) :   1.0258 B( 10-C , 13-H ) :   0.9863 B( 10-C , 14-H ) :   0.9609
B( 10-C , 15-H ) :   0.9385

Dispersion correction           -0.020389671
FINAL SINGLE POINT ENERGY      -284.356289632282

DIPOLE MOMENT
-------------
                                X             Y             Z
Electronic contribution:     -1.80023       1.57346      -4.44571
Nuclear contribution   :      1.34333      -1.11039       3.43667
                        -----------------------------------------
Total Dipole Moment    :     -0.45691       0.46307      -1.00904
                        -----------------------------------------
Magnitude (a.u.)       :      1.20057
Magnitude (Debye)      :      3.05160

Rotational constants in cm-1:     0.227161     0.075356     0.065003
Rotational constants in MHz :  6810.114531  2259.122204  1948.738523

                             ****ORCA TERMINATED NORMALLY****
TOTAL RUN TIME: 0 days 0 hours 0 minutes 44 seconds 355 msec
