                         Program Version 5.0.0 -  RELEASE  -
|  1> !B3LYP D3BJ RIJCOSX def2-TZVPD def2/J TightSCF xyzfile
|  2>
|  3> *xyzfile 0 1 B.xyz
|  4>
|  5> %MaxCore 64000
|  6>
|  7> %pal nprocs 4
|  8> end
|  9>
| 10> %scf
| 11>   MaxIter 150
| 12> end
| 13>
| 14>
| 15>                          ****END OF INPUT****

CARTESIAN COORDINATES (ANGSTROEM)
---------------------------------
  C      4.490588    1.155899   -2.469290
  N      4.305394    1.222762   -3.908317
  C      4.906458   -3.102816   -5.954844
  C      3.511771   -2.806215   -6.492283
  H      2.736044   -3.373445   -5.973736
  H      3.444904   -3.040831   -7.555281
  S      3.004618   -1.096206   -6.389259
  C      4.631918    2.246365   -4.670958
  N      4.541686    2.143990   -5.987139
  N      5.084086    3.393584   -4.118545
  H      4.920675    3.570501   -3.135870
  H      5.254652    4.197390   -4.706956
  H      3.824530    0.449113   -4.350926
  H      4.343373    1.249318   -6.416646
  H      4.676712    2.956624   -6.574113
  O      4.128856   -0.329647   -6.953717
  O      1.781285   -1.000779   -7.136399
  C      5.942129    0.939500   -2.036893
  H      3.864305    0.328532   -2.136611
  H      4.076233    2.049994   -1.989010
  C      6.462677   -3.117775   -3.944671
  C      5.024977   -3.025679   -4.437625
  H      4.423321   -3.818693   -3.977648
  H      4.579350   -2.087131   -4.108727
  H      5.201533   -4.100207   -6.296905
  H      5.605922   -2.397822   -6.413368
  C      6.559957   -0.356290   -2.559086
  H      5.967976    0.952567   -0.942444
  H      6.547184    1.788331   -2.368849
  C      6.006283   -1.615917   -1.899301
  H      7.642360   -0.318000   -2.402059
  H      6.414855   -0.403433   -3.642587
  C      6.608718   -2.917014   -2.435655
  H      6.190324   -1.561115   -0.820948
  H      4.919250   -1.651245   -2.016586
  H      7.066975   -2.374258   -4.475514
  H      6.887808   -4.089747   -4.215332
  H      6.135197   -3.755573   -1.915159
  H      7.671142   -2.955503   -2.172291
  O      2.851546   -0.783683   -4.956789

 Total Charge           Charge          ....    0
 Multiplicity           Mult            ....    1
 Number of Electrons    NEL             ....  144
 Basis Dimension        Dim             ....  854

ORBITAL ENERGIES
----------------

  NO   OCC          E(Eh)            E(eV)
   0   2.0000     -88.993562     -2421.6379
   1   2.0000     -19.064492      -518.7712
   2   2.0000     -19.063998      -518.7578
   3   2.0000     -19.051073      -518.4061
   4   2.0000     -14.390068      -391.5737
   5   2.0000     -14.359211      -390.7340
   6   2.0000     -14.356454      -390.6590
   7   2.0000     -10.338338      -281.3205
   8   2.0000     -10.234167      -278.4858
   9   2.0000     -10.188218      -277.2355
  10   2.0000     -10.171708      -276.7863
  11   2.0000     -10.164772      -276.5975
  12   2.0000     -10.159661      -276.4584
  13   2.0000     -10.159433      -276.4522
  14   2.0000     -10.152648      -276.2676
  15   2.0000     -10.150835      -276.2183
  16   2.0000     -10.143332      -276.0141
  17   2.0000      -8.037811      -218.7200
  18   2.0000      -6.001314      -163.3041
  19   2.0000      -6.000498      -163.2819
  20   2.0000      -5.999685      -163.2597
  21   2.0000      -1.082438       -29.4546
  22   2.0000      -1.051064       -28.6009
  23   2.0000      -0.949101       -25.8263
  24   2.0000      -0.947321       -25.7779
  25   2.0000      -0.939547       -25.5664
  26   2.0000      -0.927927       -25.2502
  27   2.0000      -0.822853       -22.3910
  28   2.0000      -0.797254       -21.6944
  29   2.0000      -0.770678       -20.9712
  30   2.0000      -0.734469       -19.9859
  31   2.0000      -0.699182       -19.0257
  32   2.0000      -0.675591       -18.3838
  33   2.0000      -0.646984       -17.6053
  34   2.0000      -0.626430       -17.0460
  35   2.0000      -0.615310       -16.7434
  36   2.0000      -0.593533       -16.1508
  37   2.0000      -0.576458       -15.6862
  38   2.0000      -0.550842       -14.9892
  39   2.0000      -0.544150       -14.8071
  40   2.0000      -0.538776       -14.6608
  41   2.0000      -0.513955       -13.9854
  42   2.0000      -0.503668       -13.7055
  43   2.0000      -0.484625       -13.1873
  44   2.0000      -0.477498       -12.9934
  45   2.0000      -0.463396       -12.6097
  46   2.0000      -0.458031       -12.4637
  47   2.0000      -0.448819       -12.2130
  48   2.0000      -0.433934       -11.8079
  49   2.0000      -0.430136       -11.7046
  50   2.0000      -0.423506       -11.5242
  51   2.0000      -0.415210       -11.2985
  52   2.0000      -0.405660       -11.0386
  53   2.0000      -0.398304       -10.8384
  54   2.0000      -0.388609       -10.5746
  55   2.0000      -0.380690       -10.3591
  56   2.0000      -0.365781        -9.9534
  57   2.0000      -0.357954        -9.7404
  58   2.0000      -0.348438        -9.4815
  59   2.0000      -0.335552        -9.1308
  60   2.0000      -0.326103        -8.8737
  61   2.0000      -0.322781        -8.7833
  62   2.0000      -0.316887        -8.6229
  63   2.0000      -0.313244        -8.5238
  64   2.0000      -0.310685        -8.4542
  65   2.0000      -0.307811        -8.3760
  66   2.0000      -0.302404        -8.2288
  67   2.0000      -0.287123        -7.8130
  68   2.0000      -0.271659        -7.3922
  69   2.0000      -0.263634        -7.1738
  70   2.0000      -0.256130        -6.9696
  71   2.0000      -0.228923        -6.2293
  72   0.0000      -0.036142        -0.9835
  73   0.0000      -0.016034        -0.4363
  74   0.0000      -0.004911        -0.1336
  75   0.0000       0.010402         0.2830
  76   0.0000       0.014209         0.3866

MULLIKEN ATOMIC CHARGES
-----------------------
   0 C :   -0.978293
   1 N :   -0.060654
   2 C :   -0.565178
   3 C :   -0.740261
   4 H :    0.274274
   5 H :    0.275673
   6 S :    1.480856
   7 C :    0.609318
   8 N :   -0.176961
   9 N :   -0.298188
  10 H :    0.196821
  11 H :    0.157782
  12 H :    0.302678
  13 H :    0.261971
  14 H :    0.155903
  15 O :   -0.978969
  16 O :   -0.701735
  17 C :   -0.369238
  18 H :    0.355551
  19 H :    0.310775
  20 C :   -0.409476
  21 C :   -0.260242
  22 H :    0.258392
  23 H :    0.222702
  24 H :    0.239805
  25 H :    0.243253
  26 C :   -0.268850
  27 H :    0.280098
  28 H :    0.301592
  29 C :   -0.466568
  30 H :    0.232850
  31 H :    0.141300
  32 C :   -0.692564
  33 H :    0.259238
  34 H :    0.286269
  35 H :    0.257231
  36 H :    0.267952
  37 H :    0.250393
  38 H :    0.245579
  39 O :   -0.901080
Sum of atomic charges:   -0.0000000

LOEWDIN ATOMIC CHARGES
----------------------
   0 C :   -0.161118
   1 N :    0.105537
   2 C :   -0.226557
   3 C :   -0.244437
   4 H :    0.103704
   5 H :    0.098630
   6 S :    0.459324
   7 C :   -0.434300
   8 N :    0.213005
   9 N :    0.185138
  10 H :    0.105835
  11 H :    0.117577
  12 H :    0.070319
  13 H :    0.043860
  14 H :    0.127057
  15 O :   -0.371914
  16 O :   -0.321737
  17 C :   -0.184023
  18 H :    0.124750
  19 H :    0.113397
  20 C :   -0.214826
  21 C :   -0.217603
  22 H :    0.126278
  23 H :    0.080186
  24 H :    0.112458
  25 H :    0.106932
  26 C :   -0.203857
  27 H :    0.113803
  28 H :    0.099592
  29 C :   -0.213494
  30 H :    0.117375
  31 H :    0.105022
  32 C :   -0.206391
  33 H :    0.112219
  34 H :    0.101225
  35 H :    0.105606
  36 H :    0.111469
  37 H :    0.108261
  38 H :    0.106413
  39 O :   -0.374713

  Mayer bond orders larger than 0.100000
B(  0-C ,  1-N ) :   1.0401 B(  0-C ,  7-C ) :  -0.1399 B(  0-C , 12-H ) :  -0.1969
B(  0-C , 17-C ) :   0.7058 B(  0-C , 18-H ) :   0.7686 B(  0-C , 19-H ) :   0.8365
B(  0-C , 29-C ) :   0.1441 B(  1-N ,  7-C ) :   1.2015 B(  1-N , 12-H ) :   0.8544
B(  1-N , 39-O ) :  -0.1271 B(  2-C ,  3-C ) :   0.9670 B(  2-C , 20-C ) :   0.3988
B(  2-C , 21-C ) :   0.4394 B(  2-C , 22-H ) :  -0.1270 B(  2-C , 24-H ) :   0.9930
B(  2-C , 25-H ) :   0.9058 B(  3-C ,  4-H ) :   0.9150 B(  3-C ,  5-H ) :   0.9777
B(  3-C ,  6-S ) :   0.8998 B(  3-C , 15-O ) :   0.1143 B(  3-C , 16-O ) :   0.1935
B(  3-C , 21-C ) :   0.1874 B(  6-S , 15-O ) :   1.1254 B(  6-S , 16-O ) :   1.2930
B(  6-S , 39-O ) :   1.4091 B(  7-C ,  8-N ) :   1.1392 B(  7-C ,  9-N ) :   1.1021
B(  7-C , 12-H ) :  -0.1854 B(  8-N , 13-H ) :   0.8351 B(  8-N , 14-H ) :   1.0146
B(  9-N , 10-H ) :   0.9489 B(  9-N , 11-H ) :   1.0230 B( 15-O , 39-O ) :   0.1111
B( 17-C , 26-C ) :   0.9822 B( 17-C , 27-H ) :   0.9613 B( 17-C , 28-H ) :   0.8782
B( 17-C , 29-C ) :   0.1734 B( 20-C , 21-C ) :   0.3785 B( 20-C , 23-H ) :  -0.1411
B( 20-C , 26-C ) :   0.1107 B( 20-C , 32-C ) :   0.9081 B( 20-C , 35-H ) :   0.9563
B( 20-C , 36-H ) :   0.9253 B( 21-C , 22-H ) :   0.8113 B( 21-C , 23-H ) :   1.5206
B( 21-C , 29-C ) :   0.1312 B( 21-C , 32-C ) :   0.1555 B( 21-C , 39-O ) :   0.1341
B( 22-H , 23-H ) :   0.1458 B( 23-H , 39-O ) :  -0.1964 B( 26-C , 29-C ) :   0.2853
B( 26-C , 30-H ) :   0.9361 B( 26-C , 31-H ) :   1.0712 B( 26-C , 32-C ) :   0.1639
B( 26-C , 33-H ) :  -0.1093 B( 26-C , 34-H ) :  -0.1298 B( 29-C , 32-C ) :   0.9500
B( 29-C , 33-H ) :   0.9359 B( 29-C , 34-H ) :   1.0087 B( 32-C , 37-H ) :   0.9519
B( 32-C , 38-H ) :   0.9790

Dispersion correction           -0.079499370
FINAL SINGLE POINT ENERGY     -1182.976447870297

DIPOLE MOMENT
-------------
                                X             Y             Z
Electronic contribution:    -14.52404       8.31339     -15.31898
Nuclear contribution   :     16.79156      -5.47215      17.54258
                        -----------------------------------------
Total Dipole Moment    :      2.26753       2.84124       2.22360
                        -----------------------------------------
Magnitude (a.u.)       :      4.26131
Magnitude (Debye)      :     10.83138

Rotational constants in cm-1:     0.014207     0.012373     0.007472
Rotational constants in MHz :   425.900436   370.942493   224.006604

                             ****ORCA TERMINATED NORMALLY****
TOTAL RUN TIME: 0 days 0 hours 10 minutes 32 seconds 832 msec
