                         Program Version 5.0.0 -  RELEASE  -
|  1> !B3LYP D3BJ RIJCOSX def2-TZVPD def2/J TightSCF
|  2> *xyz 0 1
|  3> C          4.90646       -3.10282       -5.95484
|  4> C          3.51177       -2.80621       -6.49228
|  5> H          2.73604       -3.37345       -5.97374
|  6> H          3.44490       -3.04083       -7.55528
|  7> S          3.00462       -1.09621       -6.38926
|  8> F          4.12886       -0.32965       -6.95372
|  9> O          1.78128       -1.00078       -7.13640
| 10> O          2.85155       -0.78368       -4.95679
| 11> H          5.62703       -2.52424       -6.49422
| 12> H          5.12164       -4.14387       -6.07654
| 13> H          4.95004       -2.84862       -4.91639
| 14> *
| 15>
| 16> %MaxCore 64000
| 17>
| 18> %pal nprocs 4
| 19> end
| 20>
| 21> %scf
| 22>   MaxIter 150
| 23> end
| 24>
| 25>
| 26>                          ****END OF INPUT****

CARTESIAN COORDINATES (ANGSTROEM)
---------------------------------
  C      4.906460   -3.102820   -5.954840
  C      3.511770   -2.806210   -6.492280
  H      2.736040   -3.373450   -5.973740
  H      3.444900   -3.040830   -7.555280
  S      3.004620   -1.096210   -6.389260
  F      4.128860   -0.329650   -6.953720
  O      1.781280   -1.000780   -7.136400
  O      2.851550   -0.783680   -4.956790
  H      5.627030   -2.524240   -6.494220
  H      5.121640   -4.143870   -6.076540
  H      4.950040   -2.848620   -4.916390

 Total Charge           Charge          ....    0
 Multiplicity           Mult            ....    1
 Number of Electrons    NEL             ....   58
 Basis Dimension        Dim             ....  285

ORBITAL ENERGIES
----------------

  NO   OCC          E(Eh)            E(eV)
   0   2.0000     -89.097554     -2424.4677
   1   2.0000     -24.788161      -674.5201
   2   2.0000     -19.141255      -520.8600
   3   2.0000     -19.129597      -520.5428
   4   2.0000     -10.233017      -278.4546
   5   2.0000     -10.191988      -277.3381
   6   2.0000      -8.141569      -221.5434
   7   2.0000      -6.108518      -166.2212
   8   2.0000      -6.101868      -166.0403
   9   2.0000      -6.101715      -166.0361
  10   2.0000      -1.360135       -37.0112
  11   2.0000      -1.109967       -30.2037
  12   2.0000      -1.012783       -27.5592
  13   2.0000      -0.828964       -22.5573
  14   2.0000      -0.727126       -19.7861
  15   2.0000      -0.677467       -18.4348
  16   2.0000      -0.585239       -15.9252
  17   2.0000      -0.569766       -15.5041
  18   2.0000      -0.547217       -14.8905
  19   2.0000      -0.497958       -13.5501
  20   2.0000      -0.478255       -13.0140
  21   2.0000      -0.455266       -12.3884
  22   2.0000      -0.439320       -11.9545
  23   2.0000      -0.414023       -11.2661
  24   2.0000      -0.402457       -10.9514
  25   2.0000      -0.383343       -10.4313
  26   2.0000      -0.339961        -9.2508
  27   2.0000      -0.328870        -8.9490
  28   2.0000      -0.313269        -8.5245
  29   0.0000      -0.015274        -0.4156
  30   0.0000       0.016131         0.4389
  31   0.0000       0.019773         0.5381
  32   0.0000       0.024106         0.6559
  33   0.0000       0.041348         1.1251

MULLIKEN ATOMIC CHARGES
-----------------------
   0 C :   -1.158455
   1 C :   -0.260127
   2 H :    0.292034
   3 H :    0.297555
   4 S :    1.202079
   5 F :   -0.180502
   6 O :   -0.557198
   7 O :   -0.601551
   8 H :    0.334407
   9 H :    0.301906
  10 H :    0.329853
Sum of atomic charges:   -0.0000000

LOEWDIN ATOMIC CHARGES
----------------------
   0 C :   -0.105886
   1 C :   -0.279536
   2 H :    0.111768
   3 H :    0.099439
   4 S :    0.600046
   5 F :   -0.075334
   6 O :   -0.270054
   7 O :   -0.294035
   8 H :    0.067473
   9 H :    0.072479
  10 H :    0.073641

  Mayer bond orders larger than 0.100000
B(  0-C ,  1-C ) :   0.6699 B(  0-C ,  8-H ) :   0.9269 B(  0-C ,  9-H ) :   0.9567
B(  0-C , 10-H ) :   0.9681 B(  1-C ,  2-H ) :   0.9212 B(  1-C ,  3-H ) :   0.9298
B(  1-C ,  4-S ) :   0.8520 B(  1-C ,  6-O ) :   0.1130 B(  4-S ,  5-F ) :   0.9774
B(  4-S ,  6-O ) :   1.6806 B(  4-S ,  7-O ) :   1.6440

Dispersion correction           -0.015893933
FINAL SINGLE POINT ENERGY      -727.654033131469

DIPOLE MOMENT
-------------
                                X             Y             Z
Electronic contribution:     -2.98576       8.18363      -1.74296
Nuclear contribution   :      4.18919      -9.36357       1.23251
                        -----------------------------------------
Total Dipole Moment    :      1.20343      -1.17994      -0.51045
                        -----------------------------------------
Magnitude (a.u.)       :      1.76098
Magnitude (Debye)      :      4.47605

Rotational constants in cm-1:     0.153152     0.082513     0.079874
Rotational constants in MHz :  4591.373714  2473.673397  2394.575279

                             ****ORCA TERMINATED NORMALLY****
TOTAL RUN TIME: 0 days 0 hours 0 minutes 33 seconds 24 msec
