                         Program Version 5.0.0 -  RELEASE  -
|  1> !B3LYP D3BJ RIJCOSX def2-TZVPD def2/J TightSCF
|  2> *xyz 0 1
|  3> C          4.49059        1.15590       -2.46929
|  4> C          4.30539        1.22276       -3.90832
|  5> C          4.63192        2.24637       -4.67096
|  6> N          4.54169        2.14399       -5.98714
|  7> N          5.08409        3.39358       -4.11855
|  8> H          4.92067        3.57050       -3.13587
|  9> H          5.25465        4.19739       -4.70696
| 10> H          3.82453        0.44911       -4.35093
| 11> H          4.34337        1.24932       -6.41665
| 12> H          4.67671        2.95662       -6.57411
| 13> C          5.94213        0.93950       -2.03689
| 14> H          3.86431        0.32853       -2.13661
| 15> H          4.07623        2.04999       -1.98901
| 16> H          6.32982        0.06401       -2.51451
| 17> H          5.98308        0.81426       -0.97504
| 18> H          6.52865        1.78889       -2.31873
| 19> *
| 20>
| 21> %MaxCore 64000
| 22>
| 23> %pal nprocs 4
| 24> end
| 25>
| 26> %scf
| 27>   MaxIter 150
| 28> end
| 29>
| 30>
| 31>                          ****END OF INPUT****

CARTESIAN COORDINATES (ANGSTROEM)
---------------------------------
  C      4.490590    1.155900   -2.469290
  C      4.305390    1.222760   -3.908320
  C      4.631920    2.246370   -4.670960
  N      4.541690    2.143990   -5.987140
  N      5.084090    3.393580   -4.118550
  H      4.920670    3.570500   -3.135870
  H      5.254650    4.197390   -4.706960
  H      3.824530    0.449110   -4.350930
  H      4.343370    1.249320   -6.416650
  H      4.676710    2.956620   -6.574110
  C      5.942130    0.939500   -2.036890
  H      3.864310    0.328530   -2.136610
  H      4.076230    2.049990   -1.989010
  H      6.329820    0.064010   -2.514510
  H      5.983080    0.814260   -0.975040
  H      6.528650    1.788890   -2.318730

 Total Charge           Charge          ....    0
 Multiplicity           Mult            ....    1
 Number of Electrons    NEL             ....   48
 Basis Dimension        Dim             ....  312

ORBITAL ENERGIES
----------------

  NO   OCC          E(Eh)            E(eV)
   0   2.0000     -14.316471      -389.5710
   1   2.0000     -14.314366      -389.5137
   2   2.0000     -10.210449      -277.8404
   3   2.0000     -10.141366      -275.9606
   4   2.0000     -10.129096      -275.6267
   5   2.0000     -10.089284      -274.5434
   6   2.0000      -0.959373       -26.1059
   7   2.0000      -0.870462       -23.6865
   8   2.0000      -0.770902       -20.9773
   9   2.0000      -0.693709       -18.8768
  10   2.0000      -0.617542       -16.8042
  11   2.0000      -0.576664       -15.6918
  12   2.0000      -0.541162       -14.7258
  13   2.0000      -0.508701       -13.8425
  14   2.0000      -0.475559       -12.9406
  15   2.0000      -0.436727       -11.8839
  16   2.0000      -0.419812       -11.4237
  17   2.0000      -0.391071       -10.6416
  18   2.0000      -0.382618       -10.4116
  19   2.0000      -0.349251        -9.5036
  20   2.0000      -0.328768        -8.9462
  21   2.0000      -0.317501        -8.6396
  22   2.0000      -0.264954        -7.2098
  23   2.0000      -0.160714        -4.3732
  24   0.0000      -0.004325        -0.1177
  25   0.0000       0.022038         0.5997
  26   0.0000       0.030248         0.8231
  27   0.0000       0.040674         1.1068
  28   0.0000       0.057099         1.5537

MULLIKEN ATOMIC CHARGES
-----------------------
   0 C :   -0.412219
   1 C :   -0.414377
   2 C :    0.360754
   3 N :   -0.352577
   4 N :   -0.321378
   5 H :    0.168776
   6 H :    0.119455
   7 H :    0.316448
   8 H :    0.147828
   9 H :    0.126371
  10 C :   -1.081876
  11 H :    0.200855
  12 H :    0.255076
  13 H :    0.308329
  14 H :    0.273594
  15 H :    0.304942
Sum of atomic charges:    0.0000000

LOEWDIN ATOMIC CHARGES
----------------------
   0 C :   -0.284975
   1 C :   -0.145565
   2 C :   -0.540756
   3 N :    0.111505
   4 N :    0.132858
   5 H :    0.095109
   6 H :    0.094808
   7 H :    0.064162
   8 H :    0.110582
   9 H :    0.096122
  10 C :   -0.102277
  11 H :    0.101274
  12 H :    0.094261
  13 H :    0.064315
  14 H :    0.054778
  15 H :    0.053798

  Mayer bond orders larger than 0.100000
B(  0-C ,  1-C ) :   0.8238 B(  0-C ,  2-C ) :   0.2539 B(  0-C , 10-C ) :   0.6102
B(  0-C , 11-H ) :   1.0764 B(  0-C , 12-H ) :   0.8853 B(  1-C ,  2-C ) :   1.2110
B(  1-C ,  7-H ) :   0.9479 B(  2-C ,  3-N ) :   0.9563 B(  2-C ,  4-N ) :   1.0087
B(  2-C ,  7-H ) :  -0.1404 B(  3-N ,  8-H ) :   1.0245 B(  3-N ,  9-H ) :   1.0612
B(  4-N ,  5-H ) :   0.9629 B(  4-N ,  6-H ) :   1.0670 B( 10-C , 13-H ) :   0.9806
B( 10-C , 14-H ) :   0.9796 B( 10-C , 15-H ) :   0.9681

Dispersion correction           -0.021319054
FINAL SINGLE POINT ENERGY      -267.872278441584

DIPOLE MOMENT
-------------
                                X             Y             Z
Electronic contribution:     -1.26527       1.95816      -4.11936
Nuclear contribution   :      1.23062      -1.24683       3.43056
                        -----------------------------------------
Total Dipole Moment    :     -0.03465       0.71133      -0.68879
                        -----------------------------------------
Magnitude (a.u.)       :      0.99077
Magnitude (Debye)      :      2.51833

Rotational constants in cm-1:     0.231477     0.075416     0.065327
Rotational constants in MHz :  6939.497385  2260.912204  1958.442932

                             ****ORCA TERMINATED NORMALLY****
TOTAL RUN TIME: 0 days 0 hours 0 minutes 51 seconds 347 msec
