                         Program Version 5.0.0 -  RELEASE  -
|  1> !B3LYP D3BJ RIJCOSX def2-TZVPD def2/J TightSCF
|  2> *xyz 0 1
|  3> C          4.90646       -3.10282       -5.95484
|  4> C          3.51177       -2.80621       -6.49228
|  5> H          2.73604       -3.37345       -5.97374
|  6> H          3.44490       -3.04083       -7.55528
|  7> S          3.00462       -1.09621       -6.38926
|  8> O          4.12886       -0.32965       -6.95372
|  9> F          1.78128       -1.00078       -7.13640
| 10> O          2.85155       -0.78368       -4.95679
| 11> H          5.62703       -2.52424       -6.49422
| 12> H          5.12164       -4.14387       -6.07654
| 13> H          4.95004       -2.84862       -4.91639
| 14> *
| 15>
| 16> %MaxCore 64000
| 17>
| 18> %pal nprocs 4
| 19> end
| 20>
| 21> %scf
| 22>   MaxIter 150
| 23> end
| 24>
| 25>
| 26>                          ****END OF INPUT****

CARTESIAN COORDINATES (ANGSTROEM)
---------------------------------
  C      4.906460   -3.102820   -5.954840
  C      3.511770   -2.806210   -6.492280
  H      2.736040   -3.373450   -5.973740
  H      3.444900   -3.040830   -7.555280
  S      3.004620   -1.096210   -6.389260
  O      4.128860   -0.329650   -6.953720
  F      1.781280   -1.000780   -7.136400
  O      2.851550   -0.783680   -4.956790
  H      5.627030   -2.524240   -6.494220
  H      5.121640   -4.143870   -6.076540
  H      4.950040   -2.848620   -4.916390

 Total Charge           Charge          ....    0
 Multiplicity           Mult            ....    1
 Number of Electrons    NEL             ....   58
 Basis Dimension        Dim             ....  285

ORBITAL ENERGIES
----------------

  NO   OCC          E(Eh)            E(eV)
   0   2.0000     -89.099645     -2424.5246
   1   2.0000     -24.806831      -675.0282
   2   2.0000     -19.129760      -520.5472
   3   2.0000     -19.129724      -520.5462
   4   2.0000     -10.233803      -278.4759
   5   2.0000     -10.187640      -277.2198
   6   2.0000      -8.143610      -221.5989
   7   2.0000      -6.110368      -166.2716
   8   2.0000      -6.103932      -166.0964
   9   2.0000      -6.103796      -166.0927
  10   2.0000      -1.390788       -37.8453
  11   2.0000      -1.096298       -29.8318
  12   2.0000      -0.999517       -27.1982
  13   2.0000      -0.826099       -22.4793
  14   2.0000      -0.741674       -20.1820
  15   2.0000      -0.679255       -18.4835
  16   2.0000      -0.592198       -16.1145
  17   2.0000      -0.590472       -16.0676
  18   2.0000      -0.557226       -15.1629
  19   2.0000      -0.498303       -13.5595
  20   2.0000      -0.480248       -13.0682
  21   2.0000      -0.441077       -12.0023
  22   2.0000      -0.433278       -11.7901
  23   2.0000      -0.411352       -11.1934
  24   2.0000      -0.392629       -10.6840
  25   2.0000      -0.379805       -10.3350
  26   2.0000      -0.328254        -8.9323
  27   2.0000      -0.326897        -8.8953
  28   2.0000      -0.302246        -8.2245
  29   0.0000      -0.011652        -0.3171
  30   0.0000       0.006687         0.1820
  31   0.0000       0.023446         0.6380
  32   0.0000       0.024752         0.6735
  33   0.0000       0.044976         1.2239

MULLIKEN ATOMIC CHARGES
-----------------------
   0 C :   -1.153874
   1 C :   -0.293096
   2 H :    0.305838
   3 H :    0.303330
   4 S :    1.198129
   5 O :   -0.599577
   6 F :   -0.124540
   7 O :   -0.595497
   8 H :    0.327285
   9 H :    0.303863
  10 H :    0.328138
Sum of atomic charges:    0.0000000

LOEWDIN ATOMIC CHARGES
----------------------
   0 C :   -0.094899
   1 C :   -0.289404
   2 H :    0.100703
   3 H :    0.097321
   4 S :    0.601511
   5 O :   -0.294621
   6 F :   -0.048571
   7 O :   -0.294940
   8 H :    0.072440
   9 H :    0.073998
  10 H :    0.076461

  Mayer bond orders larger than 0.100000
B(  0-C ,  1-C ) :   0.7480 B(  0-C ,  8-H ) :   0.9528 B(  0-C ,  9-H ) :   0.9391
B(  0-C , 10-H ) :   0.9412 B(  1-C ,  2-H ) :   0.9018 B(  1-C ,  3-H ) :   0.8940
B(  1-C ,  4-S ) :   0.8545 B(  4-S ,  5-O ) :   1.6476 B(  4-S ,  6-F ) :   1.0057
B(  4-S ,  7-O ) :   1.6470

Dispersion correction           -0.015988382
FINAL SINGLE POINT ENERGY      -727.639025424373

DIPOLE MOMENT
-------------
                                X             Y             Z
Electronic contribution:     -6.94691       7.06816      -2.04854
Nuclear contribution   :      6.63544      -8.66423       1.42287
                        -----------------------------------------
Total Dipole Moment    :     -0.31147      -1.59607      -0.62568
                        -----------------------------------------
Magnitude (a.u.)       :      1.74239
Magnitude (Debye)      :      4.42880

Rotational constants in cm-1:     0.158118     0.080978     0.078216
Rotational constants in MHz :  4740.271775  2427.649826  2344.849020

                             ****ORCA TERMINATED NORMALLY****
TOTAL RUN TIME: 0 days 0 hours 0 minutes 35 seconds 461 msec
