                         Program Version 5.0.0 -  RELEASE  -
|  1> !B3LYP D3BJ RIJCOSX def2-TZVPD def2/J TightSCF
|  2> *xyz 0 1
|  3> C          4.49059        1.15590       -2.46929
|  4> N          4.30539        1.22276       -3.90832
|  5> C          4.63192        2.24637       -4.67096
|  6> C          4.54169        2.14399       -5.98714
|  7> N          5.08409        3.39358       -4.11855
|  8> H          4.92067        3.57050       -3.13587
|  9> H          5.25465        4.19739       -4.70696
| 10> H          3.82453        0.44911       -4.35093
| 11> H          4.34337        1.24932       -6.41665
| 12> H          4.67671        2.95662       -6.57411
| 13> C          5.94213        0.93950       -2.03689
| 14> H          3.86431        0.32853       -2.13661
| 15> H          4.07623        2.04999       -1.98901
| 16> H          6.32982        0.06401       -2.51451
| 17> H          5.98308        0.81426       -0.97504
| 18> H          6.52865        1.78889       -2.31873
| 19> *
| 20>
| 21> %MaxCore 64000
| 22>
| 23> %pal nprocs 4
| 24> end
| 25>
| 26> %scf
| 27>   MaxIter 150
| 28> end
| 29>
| 30>
| 31>                          ****END OF INPUT****

CARTESIAN COORDINATES (ANGSTROEM)
---------------------------------
  C      4.490590    1.155900   -2.469290
  N      4.305390    1.222760   -3.908320
  C      4.631920    2.246370   -4.670960
  C      4.541690    2.143990   -5.987140
  N      5.084090    3.393580   -4.118550
  H      4.920670    3.570500   -3.135870
  H      5.254650    4.197390   -4.706960
  H      3.824530    0.449110   -4.350930
  H      4.343370    1.249320   -6.416650
  H      4.676710    2.956620   -6.574110
  C      5.942130    0.939500   -2.036890
  H      3.864310    0.328530   -2.136610
  H      4.076230    2.049990   -1.989010
  H      6.329820    0.064010   -2.514510
  H      5.983080    0.814260   -0.975040
  H      6.528650    1.788890   -2.318730

 Total Charge           Charge          ....    0
 Multiplicity           Mult            ....    1
 Number of Electrons    NEL             ....   48
 Basis Dimension        Dim             ....  312

ORBITAL ENERGIES
----------------

  NO   OCC          E(Eh)            E(eV)
   0   2.0000     -14.315222      -389.5370
   1   2.0000     -14.313878      -389.5004
   2   2.0000     -10.211961      -277.8816
   3   2.0000     -10.208925      -277.7990
   4   2.0000     -10.155031      -276.3324
   5   2.0000     -10.078307      -274.2447
   6   2.0000      -0.967169       -26.3180
   7   2.0000      -0.881300       -23.9814
   8   2.0000      -0.769751       -20.9460
   9   2.0000      -0.701295       -19.0832
  10   2.0000      -0.630389       -17.1538
  11   2.0000      -0.596885       -16.2421
  12   2.0000      -0.534823       -14.5533
  13   2.0000      -0.497298       -13.5322
  14   2.0000      -0.480511       -13.0754
  15   2.0000      -0.447353       -12.1731
  16   2.0000      -0.423492       -11.5238
  17   2.0000      -0.402632       -10.9562
  18   2.0000      -0.381992       -10.3945
  19   2.0000      -0.375099       -10.2070
  20   2.0000      -0.360016        -9.7965
  21   2.0000      -0.353102        -9.6084
  22   2.0000      -0.254680        -6.9302
  23   2.0000      -0.162045        -4.4095
  24   0.0000      -0.003013        -0.0820
  25   0.0000       0.022443         0.6107
  26   0.0000       0.025719         0.6999
  27   0.0000       0.031939         0.8691
  28   0.0000       0.059305         1.6138

MULLIKEN ATOMIC CHARGES
-----------------------
   0 C :   -0.402108
   1 N :   -0.154463
   2 C :    0.748562
   3 C :   -1.220157
   4 N :   -0.343336
   5 H :    0.156810
   6 H :    0.137212
   7 H :    0.166440
   8 H :    0.275675
   9 H :    0.223380
  10 C :   -1.045468
  11 H :    0.276733
  12 H :    0.271516
  13 H :    0.272668
  14 H :    0.309395
  15 H :    0.327141
Sum of atomic charges:   -0.0000000

LOEWDIN ATOMIC CHARGES
----------------------
   0 C :   -0.242883
   1 N :    0.016773
   2 C :   -0.561789
   3 C :    0.001002
   4 N :    0.125061
   5 H :    0.085626
   6 H :    0.106738
   7 H :    0.145877
   8 H :    0.005536
   9 H :    0.002318
  10 C :   -0.080826
  11 H :    0.110882
  12 H :    0.102006
  13 H :    0.066841
  14 H :    0.060648
  15 H :    0.056190

  Mayer bond orders larger than 0.100000
B(  0-C ,  1-N ) :   0.8576 B(  0-C , 10-C ) :   0.6500 B(  0-C , 11-H ) :   0.9533
B(  0-C , 12-H ) :   0.9122 B(  1-N ,  2-C ) :   1.0870 B(  1-N ,  7-H ) :   0.9911
B(  1-N , 10-C ) :   0.1003 B(  2-C ,  3-C ) :   1.0819 B(  2-C ,  4-N ) :   0.9780
B(  2-C ,  9-H ) :  -0.1225 B(  3-C ,  8-H ) :   0.9642 B(  3-C ,  9-H ) :   1.1318
B(  4-N ,  5-H ) :   0.9926 B(  4-N ,  6-H ) :   1.0329 B( 10-C , 13-H ) :   1.0141
B( 10-C , 14-H ) :   0.9634 B( 10-C , 15-H ) :   0.9634

Dispersion correction           -0.021071742
FINAL SINGLE POINT ENERGY      -267.864995591208

DIPOLE MOMENT
-------------
                                X             Y             Z
Electronic contribution:     -1.41514       1.07189      -1.93969
Nuclear contribution   :      1.28075      -1.05140       2.98955
                        -----------------------------------------
Total Dipole Moment    :     -0.13439       0.02049       1.04987
                        -----------------------------------------
Magnitude (a.u.)       :      1.05863
Magnitude (Debye)      :      2.69083

Rotational constants in cm-1:     0.229858     0.078444     0.067377
Rotational constants in MHz :  6890.979812  2351.691803  2019.910665

                             ****ORCA TERMINATED NORMALLY****
TOTAL RUN TIME: 0 days 0 hours 0 minutes 45 seconds 16 msec
