                         Program Version 5.0.0 -  RELEASE  -
|  1> !B3LYP D3BJ RIJCOSX def2-TZVPD def2/J TightSCF
|  2> *xyz 0 1
|  3> C          4.90646       -3.10282       -5.95484
|  4> C          3.51177       -2.80621       -6.49228
|  5> H          2.73604       -3.37345       -5.97374
|  6> H          3.44490       -3.04083       -7.55528
|  7> S          3.00462       -1.09621       -6.38926
|  8> O          4.12886       -0.32965       -6.95372
|  9> O          1.78128       -1.00078       -7.13640
| 10> F          2.85155       -0.78368       -4.95679
| 11> H          5.62703       -2.52424       -6.49422
| 12> H          5.12164       -4.14387       -6.07654
| 13> H          4.95004       -2.84862       -4.91639
| 14> *
| 15>
| 16> %MaxCore 64000
| 17>
| 18> %pal nprocs 4
| 19> end
| 20>
| 21> %scf
| 22>   MaxIter 150
| 23> end
| 24>
| 25>
| 26>                          ****END OF INPUT****

CARTESIAN COORDINATES (ANGSTROEM)
---------------------------------
  C      4.906460   -3.102820   -5.954840
  C      3.511770   -2.806210   -6.492280
  H      2.736040   -3.373450   -5.973740
  H      3.444900   -3.040830   -7.555280
  S      3.004620   -1.096210   -6.389260
  O      4.128860   -0.329650   -6.953720
  O      1.781280   -1.000780   -7.136400
  F      2.851550   -0.783680   -4.956790
  H      5.627030   -2.524240   -6.494220
  H      5.121640   -4.143870   -6.076540
  H      4.950040   -2.848620   -4.916390

 Total Charge           Charge          ....    0
 Multiplicity           Mult            ....    1
 Number of Electrons    NEL             ....   58
 Basis Dimension        Dim             ....  285

ORBITAL ENERGIES
----------------

  NO   OCC          E(Eh)            E(eV)
   0   2.0000     -89.097610     -2424.4692
   1   2.0000     -24.787900      -674.5130
   2   2.0000     -19.141450      -520.8653
   3   2.0000     -19.129869      -520.5502
   4   2.0000     -10.232881      -278.4509
   5   2.0000     -10.188965      -277.2558
   6   2.0000      -8.141620      -221.5447
   7   2.0000      -6.108524      -166.2214
   8   2.0000      -6.102038      -166.0449
   9   2.0000      -6.101692      -166.0355
  10   2.0000      -1.359239       -36.9868
  11   2.0000      -1.110133       -30.2083
  12   2.0000      -1.014375       -27.6026
  13   2.0000      -0.826693       -22.4955
  14   2.0000      -0.726512       -19.7694
  15   2.0000      -0.676338       -18.4041
  16   2.0000      -0.582522       -15.8512
  17   2.0000      -0.568766       -15.4769
  18   2.0000      -0.548952       -14.9378
  19   2.0000      -0.496514       -13.5108
  20   2.0000      -0.480647       -13.0791
  21   2.0000      -0.456438       -12.4203
  22   2.0000      -0.435343       -11.8463
  23   2.0000      -0.410081       -11.1589
  24   2.0000      -0.402747       -10.9593
  25   2.0000      -0.381208       -10.3732
  26   2.0000      -0.340051        -9.2533
  27   2.0000      -0.329461        -8.9651
  28   2.0000      -0.314798        -8.5661
  29   0.0000      -0.014741        -0.4011
  30   0.0000       0.014784         0.4023
  31   0.0000       0.021078         0.5736
  32   0.0000       0.022371         0.6088
  33   0.0000       0.040365         1.0984

MULLIKEN ATOMIC CHARGES
-----------------------
   0 C :   -1.130457
   1 C :   -0.285796
   2 H :    0.310395
   3 H :    0.285487
   4 S :    1.201557
   5 O :   -0.602435
   6 O :   -0.559676
   7 F :   -0.176214
   8 H :    0.324355
   9 H :    0.304753
  10 H :    0.328031
Sum of atomic charges:   -0.0000000

LOEWDIN ATOMIC CHARGES
----------------------
   0 C :   -0.105851
   1 C :   -0.280753
   2 H :    0.100792
   3 H :    0.108927
   4 S :    0.601911
   5 O :   -0.292646
   6 O :   -0.270339
   7 F :   -0.075437
   8 H :    0.070685
   9 H :    0.072114
  10 H :    0.070597

  Mayer bond orders larger than 0.100000
B(  0-C ,  1-C ) :   0.6942 B(  0-C ,  8-H ) :   0.9831 B(  0-C ,  9-H ) :   0.9524
B(  0-C , 10-H ) :   0.9208 B(  1-C ,  2-H ) :   0.9067 B(  1-C ,  3-H ) :   0.9286
B(  1-C ,  4-S ) :   0.8582 B(  1-C ,  6-O ) :   0.1178 B(  4-S ,  5-O ) :   1.6447
B(  4-S ,  6-O ) :   1.6787 B(  4-S ,  7-F ) :   0.9705

Dispersion correction           -0.015923725
FINAL SINGLE POINT ENERGY      -727.654347140487

DIPOLE MOMENT
-------------
                                X             Y             Z
Electronic contribution:     -5.14897       7.42830       1.63931
Nuclear contribution   :      5.52019      -8.89046      -0.84835
                        -----------------------------------------
Total Dipole Moment    :      0.37122      -1.46216       0.79096
                        -----------------------------------------
Magnitude (a.u.)       :      1.70333
Magnitude (Debye)      :      4.32952

Rotational constants in cm-1:     0.153332     0.082132     0.079755
Rotational constants in MHz :  4596.775407  2462.251277  2391.008596

                             ****ORCA TERMINATED NORMALLY****
TOTAL RUN TIME: 0 days 0 hours 0 minutes 33 seconds 589 msec
