                         Program Version 5.0.0 -  RELEASE  -
|  1> !B3LYP D3BJ RIJCOSX def2-TZVPD def2/J TightSCF
|  2> *xyz 0 1
|  3> C          4.49059        1.15590       -2.46929
|  4> N          4.30539        1.22276       -3.90832
|  5> C          4.63192        2.24637       -4.67096
|  6> N          4.54169        2.14399       -5.98714
|  7> C          5.08409        3.39358       -4.11855
|  8> H          4.92067        3.57050       -3.13587
|  9> H          5.25465        4.19739       -4.70696
| 10> H          3.82453        0.44911       -4.35093
| 11> H          4.34337        1.24932       -6.41665
| 12> H          4.67671        2.95662       -6.57411
| 13> C          5.94213        0.93950       -2.03689
| 14> H          3.86431        0.32853       -2.13661
| 15> H          4.07623        2.04999       -1.98901
| 16> H          6.32982        0.06401       -2.51451
| 17> H          5.98308        0.81426       -0.97504
| 18> H          6.52865        1.78889       -2.31873
| 19> *
| 20>
| 21> %MaxCore 64000
| 22>
| 23> %pal nprocs 4
| 24> end
| 25>
| 26> %scf
| 27>   MaxIter 150
| 28> end
| 29>
| 30>
| 31>                          ****END OF INPUT****

CARTESIAN COORDINATES (ANGSTROEM)
---------------------------------
  C      4.490590    1.155900   -2.469290
  N      4.305390    1.222760   -3.908320
  C      4.631920    2.246370   -4.670960
  N      4.541690    2.143990   -5.987140
  C      5.084090    3.393580   -4.118550
  H      4.920670    3.570500   -3.135870
  H      5.254650    4.197390   -4.706960
  H      3.824530    0.449110   -4.350930
  H      4.343370    1.249320   -6.416650
  H      4.676710    2.956620   -6.574110
  C      5.942130    0.939500   -2.036890
  H      3.864310    0.328530   -2.136610
  H      4.076230    2.049990   -1.989010
  H      6.329820    0.064010   -2.514510
  H      5.983080    0.814260   -0.975040
  H      6.528650    1.788890   -2.318730

 Total Charge           Charge          ....    0
 Multiplicity           Mult            ....    1
 Number of Electrons    NEL             ....   48
 Basis Dimension        Dim             ....  312

ORBITAL ENERGIES
----------------

  NO   OCC          E(Eh)            E(eV)
   0   2.0000     -14.319273      -389.6472
   1   2.0000     -14.316476      -389.5711
   2   2.0000     -10.214837      -277.9599
   3   2.0000     -10.201006      -277.5835
   4   2.0000     -10.145070      -276.0614
   5   2.0000     -10.079667      -274.2817
   6   2.0000      -0.971161       -26.4266
   7   2.0000      -0.888119       -24.1669
   8   2.0000      -0.751295       -20.4438
   9   2.0000      -0.706307       -19.2196
  10   2.0000      -0.639437       -17.4000
  11   2.0000      -0.562369       -15.3029
  12   2.0000      -0.551842       -15.0164
  13   2.0000      -0.521578       -14.1929
  14   2.0000      -0.469540       -12.7768
  15   2.0000      -0.438908       -11.9433
  16   2.0000      -0.412201       -11.2166
  17   2.0000      -0.396372       -10.7858
  18   2.0000      -0.381636       -10.3848
  19   2.0000      -0.365780        -9.9534
  20   2.0000      -0.360436        -9.8080
  21   2.0000      -0.346025        -9.4158
  22   2.0000      -0.250554        -6.8179
  23   2.0000      -0.163814        -4.4576
  24   0.0000      -0.002751        -0.0749
  25   0.0000       0.019218         0.5230
  26   0.0000       0.028505         0.7757
  27   0.0000       0.037169         1.0114
  28   0.0000       0.059607         1.6220

MULLIKEN ATOMIC CHARGES
-----------------------
   0 C :   -0.350650
   1 N :   -0.200314
   2 C :    0.785155
   3 N :   -0.321737
   4 C :   -1.254466
   5 H :    0.231986
   6 H :    0.273283
   7 H :    0.174600
   8 H :    0.136404
   9 H :    0.148616
  10 C :   -1.090703
  11 H :    0.283825
  12 H :    0.254120
  13 H :    0.275853
  14 H :    0.307807
  15 H :    0.346220
Sum of atomic charges:   -0.0000000

LOEWDIN ATOMIC CHARGES
----------------------
   0 C :   -0.239083
   1 N :    0.011855
   2 C :   -0.563868
   3 N :    0.117140
   4 C :    0.009912
   5 H :   -0.003211
   6 H :    0.001764
   7 H :    0.136739
   8 H :    0.099100
   9 H :    0.110226
  10 C :   -0.079809
  11 H :    0.109605
  12 H :    0.107797
  13 H :    0.064243
  14 H :    0.061722
  15 H :    0.055867

  Mayer bond orders larger than 0.100000
B(  0-C ,  1-N ) :   0.8712 B(  0-C , 10-C ) :   0.6559 B(  0-C , 11-H ) :   0.8968
B(  0-C , 12-H ) :   0.9307 B(  1-N ,  2-C ) :   1.0603 B(  1-N ,  7-H ) :   1.0081
B(  1-N , 10-C ) :   0.1034 B(  2-C ,  3-N ) :   0.9254 B(  2-C ,  4-C ) :   1.1177
B(  3-N ,  8-H ) :   1.0461 B(  3-N ,  9-H ) :   1.0218 B(  4-C ,  5-H ) :   1.0072
B(  4-C ,  6-H ) :   1.0427 B( 10-C , 13-H ) :   0.9952 B( 10-C , 14-H ) :   0.9453
B( 10-C , 15-H ) :   0.9780

Dispersion correction           -0.021235232
FINAL SINGLE POINT ENERGY      -267.864664108826

DIPOLE MOMENT
-------------
                                X             Y             Z
Electronic contribution:     -1.88357      -0.12294      -3.81346
Nuclear contribution   :      1.39581      -0.78630       3.38596
                        -----------------------------------------
Total Dipole Moment    :     -0.48775      -0.90925      -0.42749
                        -----------------------------------------
Magnitude (a.u.)       :      1.11686
Magnitude (Debye)      :      2.83884

Rotational constants in cm-1:     0.239249     0.075811     0.066261
Rotational constants in MHz :  7172.504830  2272.756282  1986.457543

                             ****ORCA TERMINATED NORMALLY****
TOTAL RUN TIME: 0 days 0 hours 0 minutes 45 seconds 626 msec
