                         Program Version 5.0.0 -  RELEASE  -
|  1> !B3LYP D3BJ RIJCOSX def2-TZVPD def2/J TightSCF xyzfile
|  2>
|  3> *xyzfile 0 1 D1.xyz
|  4>
|  5> %MaxCore 64000
|  6>
|  7> %pal nprocs 4
|  8> end
|  9>
| 10> %scf
| 11>   MaxIter 150
| 12> end
| 13>
| 14>
| 15>                          ****END OF INPUT****

CARTESIAN COORDINATES (ANGSTROEM)
---------------------------------
  C      4.490588    1.155899   -2.469290
  C      4.305394    1.222762   -3.908317
  C      4.906458   -3.102816   -5.954844
  C      3.511771   -2.806215   -6.492283
  H      2.736044   -3.373445   -5.973736
  H      3.444904   -3.040831   -7.555281
  S      3.004618   -1.096206   -6.389259
  C      4.631918    2.246365   -4.670958
  N      4.541686    2.143990   -5.987139
  N      5.084086    3.393584   -4.118545
  H      4.920675    3.570501   -3.135870
  H      5.254652    4.197390   -4.706956
  H      3.824530    0.449113   -4.350926
  H      4.343373    1.249318   -6.416646
  H      4.676712    2.956624   -6.574113
  F      4.128856   -0.329647   -6.953717
  O      1.781285   -1.000779   -7.136399
  C      5.942129    0.939500   -2.036893
  H      3.864305    0.328532   -2.136611
  H      4.076233    2.049994   -1.989010
  C      6.462677   -3.117775   -3.944671
  C      5.024977   -3.025679   -4.437625
  H      4.423321   -3.818693   -3.977648
  H      4.579350   -2.087131   -4.108727
  H      5.201533   -4.100207   -6.296905
  H      5.605922   -2.397822   -6.413368
  C      6.559957   -0.356290   -2.559086
  H      5.967976    0.952567   -0.942444
  H      6.547184    1.788331   -2.368849
  C      6.006283   -1.615917   -1.899301
  H      7.642360   -0.318000   -2.402059
  H      6.414855   -0.403433   -3.642587
  C      6.608718   -2.917014   -2.435655
  H      6.190324   -1.561115   -0.820948
  H      4.919250   -1.651245   -2.016586
  H      7.066975   -2.374258   -4.475514
  H      6.887808   -4.089747   -4.215332
  H      6.135197   -3.755573   -1.915159
  H      7.671142   -2.955503   -2.172291
  O      2.851546   -0.783683   -4.956789

 Total Charge           Charge          ....    0
 Multiplicity           Mult            ....    1
 Number of Electrons    NEL             ....  144
 Basis Dimension        Dim             ....  854

ORBITAL ENERGIES
----------------

  NO   OCC          E(Eh)            E(eV)
   0   2.0000     -89.105863     -2424.6938
   1   2.0000     -24.806943      -675.0312
   2   2.0000     -19.148894      -521.0679
   3   2.0000     -19.135476      -520.7028
   4   2.0000     -14.304287      -389.2394
   5   2.0000     -14.300303      -389.1310
   6   2.0000     -10.233804      -278.4760
   7   2.0000     -10.197911      -277.4993
   8   2.0000     -10.194940      -277.4184
   9   2.0000     -10.167408      -276.6692
  10   2.0000     -10.162914      -276.5470
  11   2.0000     -10.156520      -276.3730
  12   2.0000     -10.147483      -276.1271
  13   2.0000     -10.140776      -275.9446
  14   2.0000     -10.135775      -275.8085
  15   2.0000     -10.129239      -275.6306
  16   2.0000     -10.063079      -273.8303
  17   2.0000      -8.150408      -221.7839
  18   2.0000      -6.117491      -166.4654
  19   2.0000      -6.110542      -166.2763
  20   2.0000      -6.110373      -166.2717
  21   2.0000      -1.381984       -37.6057
  22   2.0000      -1.119906       -30.4742
  23   2.0000      -1.024244       -27.8711
  24   2.0000      -0.947275       -25.7767
  25   2.0000      -0.860065       -23.4036
  26   2.0000      -0.843167       -22.9437
  27   2.0000      -0.805011       -21.9055
  28   2.0000      -0.777356       -21.1529
  29   2.0000      -0.753038       -20.4912
  30   2.0000      -0.728132       -19.8135
  31   2.0000      -0.702551       -19.1174
  32   2.0000      -0.671692       -18.2777
  33   2.0000      -0.641122       -17.4458
  34   2.0000      -0.615990       -16.7619
  35   2.0000      -0.610079       -16.6011
  36   2.0000      -0.593858       -16.1597
  37   2.0000      -0.582930       -15.8623
  38   2.0000      -0.562720       -15.3124
  39   2.0000      -0.560290       -15.2463
  40   2.0000      -0.542037       -14.7496
  41   2.0000      -0.527680       -14.3589
  42   2.0000      -0.500101       -13.6085
  43   2.0000      -0.493688       -13.4339
  44   2.0000      -0.486575       -13.2404
  45   2.0000      -0.472934       -12.8692
  46   2.0000      -0.462739       -12.5918
  47   2.0000      -0.455295       -12.3892
  48   2.0000      -0.451069       -12.2742
  49   2.0000      -0.447961       -12.1896
  50   2.0000      -0.426669       -11.6103
  51   2.0000      -0.419679       -11.4200
  52   2.0000      -0.416395       -11.3307
  53   2.0000      -0.406339       -11.0571
  54   2.0000      -0.392838       -10.6897
  55   2.0000      -0.381691       -10.3864
  56   2.0000      -0.380790       -10.3618
  57   2.0000      -0.371130       -10.0990
  58   2.0000      -0.365672        -9.9504
  59   2.0000      -0.354380        -9.6432
  60   2.0000      -0.350589        -9.5400
  61   2.0000      -0.343677        -9.3519
  62   2.0000      -0.338833        -9.2201
  63   2.0000      -0.324981        -8.8432
  64   2.0000      -0.322653        -8.7798
  65   2.0000      -0.315638        -8.5889
  66   2.0000      -0.309271        -8.4157
  67   2.0000      -0.300800        -8.1852
  68   2.0000      -0.294003        -8.0002
  69   2.0000      -0.279162        -7.5964
  70   2.0000      -0.253600        -6.9008
  71   2.0000      -0.146427        -3.9845
  72   0.0000      -0.018291        -0.4977
  73   0.0000       0.002022         0.0550
  74   0.0000       0.009764         0.2657
  75   0.0000       0.011138         0.3031
  76   0.0000       0.018327         0.4987

MULLIKEN ATOMIC CHARGES
-----------------------
   0 C :   -0.928732
   1 C :   -1.323192
   2 C :   -0.639482
   3 C :   -0.648490
   4 H :    0.315881
   5 H :    0.278510
   6 S :    1.316739
   7 C :    0.321389
   8 N :   -0.287247
   9 N :   -0.305159
  10 H :    0.179737
  11 H :    0.108480
  12 H :    1.406043
  13 H :    0.211074
  14 H :    0.104393
  15 F :   -0.313734
  16 O :   -0.595132
  17 C :   -0.615914
  18 H :    0.241821
  19 H :    0.316372
  20 C :   -0.472830
  21 C :   -0.136788
  22 H :    0.250321
  23 H :    0.222800
  24 H :    0.256649
  25 H :    0.244907
  26 C :   -0.342881
  27 H :    0.229023
  28 H :    0.333410
  29 C :   -0.439630
  30 H :    0.230121
  31 H :    0.216800
  32 C :   -0.688860
  33 H :    0.267480
  34 H :    0.225462
  35 H :    0.303341
  36 H :    0.268233
  37 H :    0.246065
  38 H :    0.251343
  39 O :   -0.608324
Sum of atomic charges:    0.0000000

LOEWDIN ATOMIC CHARGES
----------------------
   0 C :   -0.216604
   1 C :   -0.137064
   2 C :   -0.218990
   3 C :   -0.216445
   4 H :    0.120341
   5 H :    0.104298
   6 S :    0.646005
   7 C :   -0.517100
   8 N :    0.123727
   9 N :    0.132394
  10 H :    0.093499
  11 H :    0.091654
  12 H :    0.004139
  13 H :    0.055571
  14 H :    0.100378
  15 F :   -0.086824
  16 O :   -0.249722
  17 C :   -0.202090
  18 H :    0.104485
  19 H :    0.100161
  20 C :   -0.213146
  21 C :   -0.213253
  22 H :    0.128997
  23 H :    0.086459
  24 H :    0.120394
  25 H :    0.111485
  26 C :   -0.209295
  27 H :    0.103489
  28 H :    0.100176
  29 C :   -0.212784
  30 H :    0.112552
  31 H :    0.099126
  32 C :   -0.206991
  33 H :    0.112459
  34 H :    0.100430
  35 H :    0.106824
  36 H :    0.110677
  37 H :    0.106363
  38 H :    0.107299
  39 O :   -0.283071

  Mayer bond orders larger than 0.100000
B(  0-C ,  1-C ) :   1.0594 B(  0-C ,  7-C ) :   0.1187 B(  0-C , 12-H ) :  -0.2311
B(  0-C , 17-C ) :   0.7051 B(  0-C , 18-H ) :   1.0445 B(  0-C , 19-H ) :   0.8228
B(  0-C , 29-C ) :   0.1096 B(  1-C ,  7-C ) :   0.4886 B(  1-C , 10-H ) :  -0.1105
B(  1-C , 12-H ) :  -1.2833 B(  1-C , 17-C ) :   0.1693 B(  1-C , 18-H ) :  -0.1224
B(  1-C , 39-O ) :   0.3617 B(  2-C ,  3-C ) :   0.9030 B(  2-C , 20-C ) :   0.3987
B(  2-C , 21-C ) :   0.3355 B(  2-C , 22-H ) :  -0.1323 B(  2-C , 24-H ) :   0.9917
B(  2-C , 25-H ) :   0.9497 B(  3-C ,  4-H ) :   0.8729 B(  3-C ,  5-H ) :   0.9980
B(  3-C ,  6-S ) :   0.9022 B(  3-C , 16-O ) :   0.1438 B(  3-C , 21-C ) :   0.1224
B(  6-S , 15-F ) :   0.8856 B(  6-S , 16-O ) :   1.4755 B(  6-S , 39-O ) :   1.6162
B(  7-C ,  8-N ) :   0.9910 B(  7-C ,  9-N ) :   1.1155 B(  7-C , 10-H ) :   0.1262
B(  7-C , 12-H ) :   0.5733 B(  8-N , 12-H ) :   0.1026 B(  8-N , 13-H ) :   0.9185
B(  8-N , 14-H ) :   1.0616 B(  9-N , 10-H ) :   0.9755 B(  9-N , 11-H ) :   1.0495
B(  9-N , 17-C ) :   0.1383 B( 12-H , 39-O ) :  -0.5222 B( 17-C , 26-C ) :   1.0079
B( 17-C , 27-H ) :   1.0001 B( 17-C , 28-H ) :   0.8657 B( 17-C , 29-C ) :   0.2071
B( 20-C , 21-C ) :   0.4150 B( 20-C , 26-C ) :   0.1323 B( 20-C , 32-C ) :   0.9319
B( 20-C , 35-H ) :   0.9299 B( 20-C , 36-H ) :   0.9226 B( 21-C , 22-H ) :   0.8227
B( 21-C , 23-H ) :   1.4428 B( 21-C , 29-C ) :   0.1198 B( 21-C , 32-C ) :   0.1551
B( 21-C , 39-O ) :   0.1356 B( 22-H , 23-H ) :   0.1598 B( 23-H , 39-O ) :  -0.1673
B( 26-C , 29-C ) :   0.2773 B( 26-C , 30-H ) :   0.9435 B( 26-C , 31-H ) :   1.0761
B( 26-C , 32-C ) :   0.1275 B( 26-C , 34-H ) :  -0.1399 B( 29-C , 32-C ) :   0.9154
B( 29-C , 33-H ) :   0.9247 B( 29-C , 34-H ) :   1.0567 B( 32-C , 37-H ) :   0.9576
B( 32-C , 38-H ) :   0.9751

Dispersion correction           -0.079637812
FINAL SINGLE POINT ENERGY     -1190.824296833624

DIPOLE MOMENT
-------------
                                X             Y             Z
Electronic contribution:    -16.33668       4.82763     -21.40637
Nuclear contribution   :     17.24138      -5.45913      20.34076
                        -----------------------------------------
Total Dipole Moment    :      0.90470      -0.63150      -1.06561
                        -----------------------------------------
Magnitude (a.u.)       :      1.53389
Magnitude (Debye)      :      3.89883

Rotational constants in cm-1:     0.014201     0.012275     0.007453
Rotational constants in MHz :   425.728191   368.008875   223.435232

                             ****ORCA TERMINATED NORMALLY****
TOTAL RUN TIME: 0 days 0 hours 12 minutes 30 seconds 487 msec
