                         Program Version 5.0.0 -  RELEASE  -
|  1> !B3LYP D3BJ RIJCOSX def2-TZVPD def2/J TightSCF xyzfile
|  2>
|  3> *xyzfile 0 1 D2.xyz
|  4>
|  5> %MaxCore 64000
|  6>
|  7> %pal nprocs 4
|  8> end
|  9>
| 10> %scf
| 11>   MaxIter 150
| 12> end
| 13>
| 14>
| 15>                          ****END OF INPUT****

CARTESIAN COORDINATES (ANGSTROEM)
---------------------------------
  C      4.490588    1.155899   -2.469290
  N      4.305394    1.222762   -3.908317
  C      4.906458   -3.102816   -5.954844
  C      3.511771   -2.806215   -6.492283
  H      2.736044   -3.373445   -5.973736
  H      3.444904   -3.040831   -7.555281
  S      3.004618   -1.096206   -6.389259
  C      4.631918    2.246365   -4.670958
  C      4.541686    2.143990   -5.987139
  N      5.084086    3.393584   -4.118545
  H      4.920675    3.570501   -3.135870
  H      5.254652    4.197390   -4.706956
  H      3.824530    0.449113   -4.350926
  H      4.343373    1.249318   -6.416646
  H      4.676712    2.956624   -6.574113
  F      4.128856   -0.329647   -6.953717
  O      1.781285   -1.000779   -7.136399
  C      5.942129    0.939500   -2.036893
  H      3.864305    0.328532   -2.136611
  H      4.076233    2.049994   -1.989010
  C      6.462677   -3.117775   -3.944671
  C      5.024977   -3.025679   -4.437625
  H      4.423321   -3.818693   -3.977648
  H      4.579350   -2.087131   -4.108727
  H      5.201533   -4.100207   -6.296905
  H      5.605922   -2.397822   -6.413368
  C      6.559957   -0.356290   -2.559086
  H      5.967976    0.952567   -0.942444
  H      6.547184    1.788331   -2.368849
  C      6.006283   -1.615917   -1.899301
  H      7.642360   -0.318000   -2.402059
  H      6.414855   -0.403433   -3.642587
  C      6.608718   -2.917014   -2.435655
  H      6.190324   -1.561115   -0.820948
  H      4.919250   -1.651245   -2.016586
  H      7.066975   -2.374258   -4.475514
  H      6.887808   -4.089747   -4.215332
  H      6.135197   -3.755573   -1.915159
  H      7.671142   -2.955503   -2.172291
  O      2.851546   -0.783683   -4.956789

 Total Charge           Charge          ....    0
 Multiplicity           Mult            ....    1
 Number of Electrons    NEL             ....  144
 Basis Dimension        Dim             ....  854

ORBITAL ENERGIES
----------------

  NO   OCC          E(Eh)            E(eV)
   0   2.0000     -89.108757     -2424.7725
   1   2.0000     -24.792782      -674.6459
   2   2.0000     -19.148778      -521.0647
   3   2.0000     -19.145828      -520.9845
   4   2.0000     -14.301979      -389.1766
   5   2.0000     -14.286421      -388.7533
   6   2.0000     -10.235283      -278.5162
   7   2.0000     -10.200857      -277.5794
   8   2.0000     -10.198660      -277.5196
   9   2.0000     -10.192078      -277.3405
  10   2.0000     -10.174378      -276.8589
  11   2.0000     -10.169935      -276.7380
  12   2.0000     -10.165835      -276.6264
  13   2.0000     -10.160961      -276.4938
  14   2.0000     -10.157272      -276.3934
  15   2.0000     -10.157018      -276.3865
  16   2.0000     -10.062761      -273.8217
  17   2.0000      -8.152886      -221.8513
  18   2.0000      -6.119735      -166.5265
  19   2.0000      -6.113410      -166.3543
  20   2.0000      -6.112909      -166.3407
  21   2.0000      -1.369245       -37.2590
  22   2.0000      -1.122241       -30.5377
  23   2.0000      -1.030377       -28.0380
  24   2.0000      -0.950262       -25.8579
  25   2.0000      -0.866749       -23.5854
  26   2.0000      -0.846571       -23.0364
  27   2.0000      -0.812697       -22.1146
  28   2.0000      -0.783851       -21.3297
  29   2.0000      -0.749722       -20.4010
  30   2.0000      -0.728194       -19.8152
  31   2.0000      -0.701686       -19.0938
  32   2.0000      -0.679126       -18.4800
  33   2.0000      -0.647968       -17.6321
  34   2.0000      -0.624325       -16.9887
  35   2.0000      -0.601746       -16.3743
  36   2.0000      -0.591835       -16.1046
  37   2.0000      -0.583478       -15.8772
  38   2.0000      -0.579875       -15.7792
  39   2.0000      -0.558248       -15.1907
  40   2.0000      -0.554435       -15.0869
  41   2.0000      -0.517551       -14.0833
  42   2.0000      -0.501406       -13.6439
  43   2.0000      -0.491337       -13.3700
  44   2.0000      -0.482855       -13.1392
  45   2.0000      -0.480309       -13.0699
  46   2.0000      -0.467706       -12.7269
  47   2.0000      -0.465720       -12.6729
  48   2.0000      -0.458950       -12.4887
  49   2.0000      -0.443121       -12.0579
  50   2.0000      -0.436455       -11.8766
  51   2.0000      -0.432116       -11.7585
  52   2.0000      -0.421506       -11.4698
  53   2.0000      -0.400755       -10.9051
  54   2.0000      -0.394645       -10.7388
  55   2.0000      -0.393286       -10.7019
  56   2.0000      -0.383399       -10.4328
  57   2.0000      -0.373969       -10.1762
  58   2.0000      -0.369788       -10.0624
  59   2.0000      -0.363741        -9.8979
  60   2.0000      -0.358341        -9.7510
  61   2.0000      -0.352132        -9.5820
  62   2.0000      -0.345513        -9.4019
  63   2.0000      -0.341601        -9.2954
  64   2.0000      -0.334978        -9.1152
  65   2.0000      -0.328693        -8.9442
  66   2.0000      -0.325765        -8.8645
  67   2.0000      -0.316106        -8.6017
  68   2.0000      -0.314334        -8.5535
  69   2.0000      -0.309927        -8.4335
  70   2.0000      -0.238356        -6.4860
  71   2.0000      -0.149855        -4.0778
  72   0.0000      -0.015231        -0.4145
  73   0.0000       0.006366         0.1732
  74   0.0000       0.007471         0.2033
  75   0.0000       0.008961         0.2438
  76   0.0000       0.019466         0.5297

MULLIKEN ATOMIC CHARGES
-----------------------
   0 C :   -0.912211
   1 N :   -0.140477
   2 C :   -0.621027
   3 C :   -0.676699
   4 H :    0.311644
   5 H :    0.296687
   6 S :    1.282196
   7 C :    1.173210
   8 C :   -1.998061
   9 N :   -0.350427
  10 H :    0.158003
  11 H :    0.149318
  12 H :    0.211533
  13 H :    0.762529
  14 H :    0.191341
  15 F :   -0.178580
  16 O :   -0.596775
  17 C :   -0.459211
  18 H :    0.309422
  19 H :    0.298478
  20 C :   -0.453644
  21 C :   -0.205251
  22 H :    0.268788
  23 H :    0.222629
  24 H :    0.262374
  25 H :    0.244796
  26 C :   -0.278339
  27 H :    0.285898
  28 H :    0.343212
  29 C :   -0.444288
  30 H :    0.227024
  31 H :    0.164935
  32 C :   -0.695641
  33 H :    0.265337
  34 H :    0.247450
  35 H :    0.291481
  36 H :    0.267720
  37 H :    0.248813
  38 H :    0.251943
  39 O :   -0.726129
Sum of atomic charges:   -0.0000000

LOEWDIN ATOMIC CHARGES
----------------------
   0 C :   -0.184016
   1 N :    0.034720
   2 C :   -0.217707
   3 C :   -0.215936
   4 H :    0.119495
   5 H :    0.106096
   6 S :    0.650556
   7 C :   -0.535894
   8 C :    0.010501
   9 N :    0.127245
  10 H :    0.085086
  11 H :    0.104633
  12 H :    0.059815
  13 H :   -0.031562
  14 H :    0.008985
  15 F :   -0.091745
  16 O :   -0.244875
  17 C :   -0.187603
  18 H :    0.113235
  19 H :    0.106884
  20 C :   -0.211860
  21 C :   -0.214784
  22 H :    0.129168
  23 H :    0.083068
  24 H :    0.121034
  25 H :    0.113357
  26 C :   -0.206290
  27 H :    0.108018
  28 H :    0.101275
  29 C :   -0.214631
  30 H :    0.115180
  31 H :    0.102173
  32 C :   -0.205332
  33 H :    0.113109
  34 H :    0.098859
  35 H :    0.107860
  36 H :    0.112119
  37 H :    0.107529
  38 H :    0.108541
  39 O :   -0.286308

  Mayer bond orders larger than 0.100000
B(  0-C ,  1-N ) :   1.0060 B(  0-C ,  7-C ) :  -0.1360 B(  0-C ,  9-N ) :   0.1012
B(  0-C , 12-H ) :  -0.1558 B(  0-C , 17-C ) :   0.7049 B(  0-C , 18-H ) :   0.8437
B(  0-C , 19-H ) :   0.8315 B(  0-C , 29-C ) :   0.1400 B(  1-N ,  7-C ) :   1.0180
B(  1-N , 12-H ) :   0.9197 B(  1-N , 17-C ) :   0.1183 B(  2-C ,  3-C ) :   0.9170
B(  2-C , 20-C ) :   0.3975 B(  2-C , 21-C ) :   0.3506 B(  2-C , 22-H ) :  -0.1238
B(  2-C , 24-H ) :   0.9799 B(  2-C , 25-H ) :   0.9608 B(  3-C ,  4-H ) :   0.8772
B(  3-C ,  5-H ) :   0.9877 B(  3-C ,  6-S ) :   0.9107 B(  3-C , 16-O ) :   0.1407
B(  3-C , 21-C ) :   0.1449 B(  6-S , 15-F ) :   0.9437 B(  6-S , 16-O ) :   1.4732
B(  6-S , 21-C ) :   0.1023 B(  6-S , 39-O ) :   1.6207 B(  7-C ,  8-C ) :   0.6399
B(  7-C ,  9-N ) :   0.9458 B(  7-C , 12-H ) :  -0.2341 B(  7-C , 14-H ) :  -0.1774
B(  8-C , 13-H ) :   0.3901 B(  8-C , 14-H ) :   1.1932 B(  8-C , 15-F ) :   0.1174
B(  9-N , 10-H ) :   1.0075 B(  9-N , 11-H ) :   1.0155 B( 13-H , 15-F ) :  -0.2045
B( 17-C , 26-C ) :   1.0026 B( 17-C , 27-H ) :   0.9683 B( 17-C , 28-H ) :   0.8672
B( 17-C , 29-C ) :   0.1923 B( 20-C , 21-C ) :   0.4008 B( 20-C , 26-C ) :   0.1168
B( 20-C , 32-C ) :   0.9417 B( 20-C , 35-H ) :   0.9378 B( 20-C , 36-H ) :   0.9196
B( 21-C , 22-H ) :   0.8185 B( 21-C , 23-H ) :   1.4861 B( 21-C , 29-C ) :   0.1087
B( 21-C , 32-C ) :   0.1757 B( 21-C , 39-O ) :   0.1392 B( 22-H , 23-H ) :   0.1432
B( 23-H , 39-O ) :  -0.1992 B( 26-C , 29-C ) :   0.2433 B( 26-C , 30-H ) :   0.9369
B( 26-C , 31-H ) :   1.0805 B( 26-C , 32-C ) :   0.1669 B( 26-C , 34-H ) :  -0.1322
B( 29-C , 32-C ) :   0.9258 B( 29-C , 33-H ) :   0.9266 B( 29-C , 34-H ) :   1.0400
B( 32-C , 37-H ) :   0.9519 B( 32-C , 38-H ) :   0.9713

Dispersion correction           -0.079177476
FINAL SINGLE POINT ENERGY     -1190.829790289024

DIPOLE MOMENT
-------------
                                X             Y             Z
Electronic contribution:    -16.39058       3.94552     -19.59559
Nuclear contribution   :     17.27667      -5.32157      20.03034
                        -----------------------------------------
Total Dipole Moment    :      0.88608      -1.37605       0.43474
                        -----------------------------------------
Magnitude (a.u.)       :      1.69342
Magnitude (Debye)      :      4.30432

Rotational constants in cm-1:     0.014355     0.012269     0.007481
Rotational constants in MHz :   430.360270   367.823451   224.273399

                             ****ORCA TERMINATED NORMALLY****
TOTAL RUN TIME: 0 days 0 hours 13 minutes 37 seconds 835 msec
