                         Program Version 5.0.0 -  RELEASE  -
|  1> !B3LYP D3BJ RIJCOSX def2-TZVPD def2/J TightSCF xyzfile
|  2>
|  3> *xyzfile 0 1 D3.xyz
|  4>
|  5> %MaxCore 64000
|  6>
|  7> %pal nprocs 4
|  8> end
|  9>
| 10> %scf
| 11>   MaxIter 150
| 12> end
| 13>
| 14>
| 15>                          ****END OF INPUT****

CARTESIAN COORDINATES (ANGSTROEM)
---------------------------------
  C      4.490588    1.155899   -2.469290
  N      4.305394    1.222762   -3.908317
  C      4.906458   -3.102816   -5.954844
  C      3.511771   -2.806215   -6.492283
  H      2.736044   -3.373445   -5.973736
  H      3.444904   -3.040831   -7.555281
  S      3.004618   -1.096206   -6.389259
  C      4.631918    2.246365   -4.670958
  N      4.541686    2.143990   -5.987139
  C      5.084086    3.393584   -4.118545
  H      4.920675    3.570501   -3.135870
  H      5.254652    4.197390   -4.706956
  H      3.824530    0.449113   -4.350926
  H      4.343373    1.249318   -6.416646
  H      4.676712    2.956624   -6.574113
  F      4.128856   -0.329647   -6.953717
  O      1.781285   -1.000779   -7.136399
  C      5.942129    0.939500   -2.036893
  H      3.864305    0.328532   -2.136611
  H      4.076233    2.049994   -1.989010
  C      6.462677   -3.117775   -3.944671
  C      5.024977   -3.025679   -4.437625
  H      4.423321   -3.818693   -3.977648
  H      4.579350   -2.087131   -4.108727
  H      5.201533   -4.100207   -6.296905
  H      5.605922   -2.397822   -6.413368
  C      6.559957   -0.356290   -2.559086
  H      5.967976    0.952567   -0.942444
  H      6.547184    1.788331   -2.368849
  C      6.006283   -1.615917   -1.899301
  H      7.642360   -0.318000   -2.402059
  H      6.414855   -0.403433   -3.642587
  C      6.608718   -2.917014   -2.435655
  H      6.190324   -1.561115   -0.820948
  H      4.919250   -1.651245   -2.016586
  H      7.066975   -2.374258   -4.475514
  H      6.887808   -4.089747   -4.215332
  H      6.135197   -3.755573   -1.915159
  H      7.671142   -2.955503   -2.172291
  O      2.851546   -0.783683   -4.956789

 Total Charge           Charge          ....    0
 Multiplicity           Mult            ....    1
 Number of Electrons    NEL             ....  144
 Basis Dimension        Dim             ....  854

ORBITAL ENERGIES
----------------

  NO   OCC          E(Eh)            E(eV)
   0   2.0000     -89.124244     -2425.1940
   1   2.0000     -24.821107      -675.4167
   2   2.0000     -19.164677      -521.4974
   3   2.0000     -19.160284      -521.3778
   4   2.0000     -14.300469      -389.1356
   5   2.0000     -14.288171      -388.8009
   6   2.0000     -10.247231      -278.8413
   7   2.0000     -10.209389      -277.8116
   8   2.0000     -10.198251      -277.5085
   9   2.0000     -10.183798      -277.1152
  10   2.0000     -10.179682      -277.0032
  11   2.0000     -10.172884      -276.8182
  12   2.0000     -10.166127      -276.6344
  13   2.0000     -10.158862      -276.4367
  14   2.0000     -10.152939      -276.2755
  15   2.0000     -10.147263      -276.1211
  16   2.0000     -10.064681      -273.8739
  17   2.0000      -8.168749      -222.2830
  18   2.0000      -6.135837      -166.9646
  19   2.0000      -6.129060      -166.7802
  20   2.0000      -6.128560      -166.7666
  21   2.0000      -1.396452       -37.9994
  22   2.0000      -1.138276       -30.9741
  23   2.0000      -1.045245       -28.4426
  24   2.0000      -0.953127       -25.9359
  25   2.0000      -0.872481       -23.7414
  26   2.0000      -0.856391       -23.3036
  27   2.0000      -0.815030       -22.1781
  28   2.0000      -0.782151       -21.2834
  29   2.0000      -0.757230       -20.6053
  30   2.0000      -0.728865       -19.8334
  31   2.0000      -0.700147       -19.0520
  32   2.0000      -0.688197       -18.7268
  33   2.0000      -0.657625       -17.8949
  34   2.0000      -0.631097       -17.1730
  35   2.0000      -0.618336       -16.8258
  36   2.0000      -0.608552       -16.5595
  37   2.0000      -0.594223       -16.1696
  38   2.0000      -0.581163       -15.8143
  39   2.0000      -0.561982       -15.2923
  40   2.0000      -0.541011       -14.7217
  41   2.0000      -0.527443       -14.3524
  42   2.0000      -0.518386       -14.1060
  43   2.0000      -0.502976       -13.6867
  44   2.0000      -0.496534       -13.5114
  45   2.0000      -0.482947       -13.1417
  46   2.0000      -0.475476       -12.9384
  47   2.0000      -0.467003       -12.7078
  48   2.0000      -0.456992       -12.4354
  49   2.0000      -0.446277       -12.1438
  50   2.0000      -0.436682       -11.8827
  51   2.0000      -0.433042       -11.7837
  52   2.0000      -0.421195       -11.4613
  53   2.0000      -0.409988       -11.1563
  54   2.0000      -0.395734       -10.7685
  55   2.0000      -0.390856       -10.6357
  56   2.0000      -0.386897       -10.5280
  57   2.0000      -0.379007       -10.3133
  58   2.0000      -0.369479       -10.0540
  59   2.0000      -0.367878       -10.0105
  60   2.0000      -0.360874        -9.8199
  61   2.0000      -0.353264        -9.6128
  62   2.0000      -0.351872        -9.5749
  63   2.0000      -0.345989        -9.4148
  64   2.0000      -0.337528        -9.1846
  65   2.0000      -0.334121        -9.0919
  66   2.0000      -0.330675        -8.9981
  67   2.0000      -0.314876        -8.5682
  68   2.0000      -0.313793        -8.5388
  69   2.0000      -0.304835        -8.2950
  70   2.0000      -0.232984        -6.3398
  71   2.0000      -0.148602        -4.0437
  72   0.0000      -0.027716        -0.7542
  73   0.0000      -0.000569        -0.0155
  74   0.0000       0.001466         0.0399
  75   0.0000       0.007667         0.2086
  76   0.0000       0.014659         0.3989

MULLIKEN ATOMIC CHARGES
-----------------------
   0 C :   -0.901181
   1 N :   -0.173855
   2 C :   -0.621467
   3 C :   -0.645495
   4 H :    0.320439
   5 H :    0.292883
   6 S :    1.256169
   7 C :    0.931724
   8 N :   -0.268349
   9 C :   -1.420360
  10 H :    0.261484
  11 H :    0.314735
  12 H :    0.307121
  13 H :    0.247124
  14 H :    0.109697
  15 F :   -0.324846
  16 O :   -0.584166
  17 C :   -0.529953
  18 H :    0.342924
  19 H :    0.281217
  20 C :   -0.453925
  21 C :   -0.234081
  22 H :    0.268129
  23 H :    0.250391
  24 H :    0.259930
  25 H :    0.247330
  26 C :   -0.251273
  27 H :    0.289542
  28 H :    0.360708
  29 C :   -0.425855
  30 H :    0.233893
  31 H :    0.105436
  32 C :   -0.709527
  33 H :    0.266847
  34 H :    0.234298
  35 H :    0.300633
  36 H :    0.269722
  37 H :    0.248381
  38 H :    0.253156
  39 O :   -0.709583
Sum of atomic charges:   -0.0000000

LOEWDIN ATOMIC CHARGES
----------------------
   0 C :   -0.180145
   1 N :    0.031458
   2 C :   -0.217709
   3 C :   -0.213669
   4 H :    0.121632
   5 H :    0.106797
   6 S :    0.651351
   7 C :   -0.546508
   8 N :    0.130643
   9 C :    0.008911
  10 H :   -0.005399
  11 H :   -0.002083
  12 H :    0.055086
  13 H :    0.048555
  14 H :    0.114491
  15 F :   -0.087098
  16 O :   -0.240749
  17 C :   -0.183198
  18 H :    0.111987
  19 H :    0.112404
  20 C :   -0.211966
  21 C :   -0.214657
  22 H :    0.129789
  23 H :    0.083178
  24 H :    0.122215
  25 H :    0.112403
  26 C :   -0.207708
  27 H :    0.109943
  28 H :    0.100973
  29 C :   -0.215066
  30 H :    0.115053
  31 H :    0.099060
  32 C :   -0.205449
  33 H :    0.113596
  34 H :    0.098235
  35 H :    0.107463
  36 H :    0.112101
  37 H :    0.107305
  38 H :    0.108859
  39 O :   -0.282086

  Mayer bond orders larger than 0.100000
B(  0-C ,  1-N ) :   1.0500 B(  0-C ,  9-C ) :   0.1127 B(  0-C , 12-H ) :  -0.2376
B(  0-C , 17-C ) :   0.7550 B(  0-C , 18-H ) :   0.7308 B(  0-C , 19-H ) :   0.8633
B(  0-C , 29-C ) :   0.1444 B(  1-N ,  7-C ) :   1.0041 B(  1-N , 12-H ) :   0.8815
B(  1-N , 17-C ) :   0.1559 B(  2-C ,  3-C ) :   0.9112 B(  2-C , 20-C ) :   0.3980
B(  2-C , 21-C ) :   0.3389 B(  2-C , 22-H ) :  -0.1270 B(  2-C , 24-H ) :   0.9838
B(  2-C , 25-H ) :   0.9553 B(  3-C ,  4-H ) :   0.8706 B(  3-C ,  5-H ) :   0.9865
B(  3-C ,  6-S ) :   0.8931 B(  3-C , 16-O ) :   0.1399 B(  3-C , 21-C ) :   0.1440
B(  6-S , 15-F ) :   0.9005 B(  6-S , 16-O ) :   1.5000 B(  6-S , 21-C ) :   0.1048
B(  6-S , 39-O ) :   1.6519 B(  7-C ,  8-N ) :   0.9038 B(  7-C ,  9-C ) :   0.9175
B(  7-C , 11-H ) :  -0.1072 B(  7-C , 12-H ) :  -0.2410 B(  8-N , 13-H ) :   0.8912
B(  8-N , 14-H ) :   1.0451 B(  9-C , 10-H ) :   1.0485 B(  9-C , 11-H ) :   1.0219
B( 17-C , 26-C ) :   0.9990 B( 17-C , 27-H ) :   0.9248 B( 17-C , 28-H ) :   0.8974
B( 17-C , 29-C ) :   0.1872 B( 20-C , 21-C ) :   0.4073 B( 20-C , 26-C ) :   0.1180
B( 20-C , 32-C ) :   0.9475 B( 20-C , 35-H ) :   0.9317 B( 20-C , 36-H ) :   0.9170
B( 21-C , 22-H ) :   0.8195 B( 21-C , 23-H ) :   1.4606 B( 21-C , 29-C ) :   0.1091
B( 21-C , 32-C ) :   0.1764 B( 21-C , 39-O ) :   0.1432 B( 22-H , 23-H ) :   0.1517
B( 23-H , 39-O ) :  -0.2056 B( 26-C , 29-C ) :   0.2585 B( 26-C , 30-H ) :   0.9310
B( 26-C , 31-H ) :   1.1063 B( 26-C , 32-C ) :   0.1620 B( 26-C , 34-H ) :  -0.1293
B( 29-C , 32-C ) :   0.9183 B( 29-C , 33-H ) :   0.9260 B( 29-C , 34-H ) :   1.0418
B( 32-C , 37-H ) :   0.9527 B( 32-C , 38-H ) :   0.9715

Dispersion correction           -0.079070962
FINAL SINGLE POINT ENERGY     -1190.831584143213

DIPOLE MOMENT
-------------
                                X             Y             Z
Electronic contribution:    -16.88670       2.68418     -21.29642
Nuclear contribution   :     17.35766      -5.13497      20.30937
                        -----------------------------------------
Total Dipole Moment    :      0.47096      -2.45078      -0.98705
                        -----------------------------------------
Magnitude (a.u.)       :      2.68373
Magnitude (Debye)      :      6.82151

Rotational constants in cm-1:     0.014431     0.012329     0.007535
Rotational constants in MHz :   432.628327   369.619539   225.898827

                             ****ORCA TERMINATED NORMALLY****
TOTAL RUN TIME: 0 days 0 hours 12 minutes 24 seconds 394 msec
