                         Program Version 5.0.0 -  RELEASE  -
|  1> !B3LYP D3BJ RIJCOSX def2-TZVPD def2/J TightSCF xyzfile
|  2>
|  3> *xyzfile 0 1 D4.xyz
|  4>
|  5> %MaxCore 64000
|  6>
|  7> %pal nprocs 4
|  8> end
|  9>
| 10> %scf
| 11>   MaxIter 150
| 12> end
| 13>
| 14>
| 15>                          ****END OF INPUT****

CARTESIAN COORDINATES (ANGSTROEM)
---------------------------------
  C      4.490588    1.155899   -2.469290
  C      4.305394    1.222762   -3.908317
  C      4.906458   -3.102816   -5.954844
  C      3.511771   -2.806215   -6.492283
  H      2.736044   -3.373445   -5.973736
  H      3.444904   -3.040831   -7.555281
  S      3.004618   -1.096206   -6.389259
  C      4.631918    2.246365   -4.670958
  N      4.541686    2.143990   -5.987139
  N      5.084086    3.393584   -4.118545
  H      4.920675    3.570501   -3.135870
  H      5.254652    4.197390   -4.706956
  H      3.824530    0.449113   -4.350926
  H      4.343373    1.249318   -6.416646
  H      4.676712    2.956624   -6.574113
  O      4.128856   -0.329647   -6.953717
  F      1.781285   -1.000779   -7.136399
  C      5.942129    0.939500   -2.036893
  H      3.864305    0.328532   -2.136611
  H      4.076233    2.049994   -1.989010
  C      6.462677   -3.117775   -3.944671
  C      5.024977   -3.025679   -4.437625
  H      4.423321   -3.818693   -3.977648
  H      4.579350   -2.087131   -4.108727
  H      5.201533   -4.100207   -6.296905
  H      5.605922   -2.397822   -6.413368
  C      6.559957   -0.356290   -2.559086
  H      5.967976    0.952567   -0.942444
  H      6.547184    1.788331   -2.368849
  C      6.006283   -1.615917   -1.899301
  H      7.642360   -0.318000   -2.402059
  H      6.414855   -0.403433   -3.642587
  C      6.608718   -2.917014   -2.435655
  H      6.190324   -1.561115   -0.820948
  H      4.919250   -1.651245   -2.016586
  H      7.066975   -2.374258   -4.475514
  H      6.887808   -4.089747   -4.215332
  H      6.135197   -3.755573   -1.915159
  H      7.671142   -2.955503   -2.172291
  O      2.851546   -0.783683   -4.956789

 Total Charge           Charge          ....    0
 Multiplicity           Mult            ....    1
 Number of Electrons    NEL             ....  144
 Basis Dimension        Dim             ....  854

ORBITAL ENERGIES
----------------

  NO   OCC          E(Eh)            E(eV)
   0   2.0000     -89.114330     -2424.9242
   1   2.0000     -24.817680      -675.3234
   2   2.0000     -19.149841      -521.0937
   3   2.0000     -19.140792      -520.8474
   4   2.0000     -14.292377      -388.9153
   5   2.0000     -14.273275      -388.3956
   6   2.0000     -10.237673      -278.5812
   7   2.0000     -10.195933      -277.4454
   8   2.0000     -10.180663      -277.0299
   9   2.0000     -10.164129      -276.5800
  10   2.0000     -10.158570      -276.4287
  11   2.0000     -10.152248      -276.2567
  12   2.0000     -10.142298      -275.9860
  13   2.0000     -10.133461      -275.7455
  14   2.0000     -10.127998      -275.5968
  15   2.0000     -10.120804      -275.4011
  16   2.0000     -10.050629      -273.4915
  17   2.0000      -8.158590      -222.0065
  18   2.0000      -6.125300      -166.6779
  19   2.0000      -6.119075      -166.5085
  20   2.0000      -6.118624      -166.4962
  21   2.0000      -1.401946       -38.1489
  22   2.0000      -1.116832       -30.3905
  23   2.0000      -1.020802       -27.7774
  24   2.0000      -0.929851       -25.3025
  25   2.0000      -0.843828       -22.9617
  26   2.0000      -0.839456       -22.8427
  27   2.0000      -0.801834       -21.8190
  28   2.0000      -0.773516       -21.0485
  29   2.0000      -0.753911       -20.5150
  30   2.0000      -0.724908       -19.7257
  31   2.0000      -0.698019       -18.9941
  32   2.0000      -0.664639       -18.0857
  33   2.0000      -0.636116       -17.3096
  34   2.0000      -0.613309       -16.6890
  35   2.0000      -0.605381       -16.4732
  36   2.0000      -0.591539       -16.0966
  37   2.0000      -0.584903       -15.9160
  38   2.0000      -0.569446       -15.4954
  39   2.0000      -0.550258       -14.9733
  40   2.0000      -0.534752       -14.5513
  41   2.0000      -0.517861       -14.0917
  42   2.0000      -0.502441       -13.6721
  43   2.0000      -0.496521       -13.5110
  44   2.0000      -0.479241       -13.0408
  45   2.0000      -0.467522       -12.7219
  46   2.0000      -0.465997       -12.6804
  47   2.0000      -0.451306       -12.2807
  48   2.0000      -0.445251       -12.1159
  49   2.0000      -0.432240       -11.7619
  50   2.0000      -0.424053       -11.5391
  51   2.0000      -0.411776       -11.2050
  52   2.0000      -0.410612       -11.1733
  53   2.0000      -0.404778       -11.0146
  54   2.0000      -0.383557       -10.4371
  55   2.0000      -0.378140       -10.2897
  56   2.0000      -0.373631       -10.1670
  57   2.0000      -0.366300        -9.9675
  58   2.0000      -0.352835        -9.6011
  59   2.0000      -0.349320        -9.5055
  60   2.0000      -0.344995        -9.3878
  61   2.0000      -0.336606        -9.1595
  62   2.0000      -0.330488        -8.9930
  63   2.0000      -0.322110        -8.7650
  64   2.0000      -0.318997        -8.6803
  65   2.0000      -0.316128        -8.6023
  66   2.0000      -0.303592        -8.2612
  67   2.0000      -0.294897        -8.0246
  68   2.0000      -0.286902        -7.8070
  69   2.0000      -0.272937        -7.4270
  70   2.0000      -0.236308        -6.4303
  71   2.0000      -0.132531        -3.6064
  72   0.0000      -0.017192        -0.4678
  73   0.0000       0.000450         0.0122
  74   0.0000       0.010493         0.2855
  75   0.0000       0.014179         0.3858
  76   0.0000       0.020708         0.5635

MULLIKEN ATOMIC CHARGES
-----------------------
   0 C :   -0.898370
   1 C :   -1.237104
   2 C :   -0.608838
   3 C :   -0.760776
   4 H :    0.337111
   5 H :    0.345069
   6 S :    1.363523
   7 C :    0.173713
   8 N :   -0.257970
   9 N :   -0.299975
  10 H :    0.177053
  11 H :    0.108909
  12 H :    1.437124
  13 H :    0.222000
  14 H :    0.101477
  15 O :   -0.808874
  16 F :   -0.115514
  17 C :   -0.621444
  18 H :    0.235603
  19 H :    0.307858
  20 C :   -0.493968
  21 C :   -0.170347
  22 H :    0.249342
  23 H :    0.197145
  24 H :    0.255138
  25 H :    0.260070
  26 C :   -0.346865
  27 H :    0.227710
  28 H :    0.334138
  29 C :   -0.432882
  30 H :    0.226760
  31 H :    0.228754
  32 C :   -0.682608
  33 H :    0.267373
  34 H :    0.222356
  35 H :    0.312376
  36 H :    0.271605
  37 H :    0.244108
  38 H :    0.251033
  39 O :   -0.621812
Sum of atomic charges:   -0.0000000

LOEWDIN ATOMIC CHARGES
----------------------
   0 C :   -0.221262
   1 C :   -0.137314
   2 C :   -0.208812
   3 C :   -0.224460
   4 H :    0.110384
   5 H :    0.102539
   6 S :    0.672630
   7 C :   -0.518501
   8 N :    0.121725
   9 N :    0.129297
  10 H :    0.090769
  11 H :    0.089890
  12 H :    0.006728
  13 H :    0.029787
  14 H :    0.095526
  15 O :   -0.281997
  16 F :   -0.030987
  17 C :   -0.203180
  18 H :    0.102412
  19 H :    0.097792
  20 C :   -0.211543
  21 C :   -0.210329
  22 H :    0.127282
  23 H :    0.088296
  24 H :    0.122616
  25 H :    0.116151
  26 C :   -0.208684
  27 H :    0.102068
  28 H :    0.100148
  29 C :   -0.213687
  30 H :    0.112063
  31 H :    0.101523
  32 C :   -0.207624
  33 H :    0.111762
  34 H :    0.099685
  35 H :    0.108827
  36 H :    0.110303
  37 H :    0.105461
  38 H :    0.107092
  39 O :   -0.284376

  Mayer bond orders larger than 0.100000
B(  0-C ,  1-C ) :   0.9663 B(  0-C ,  7-C ) :   0.1276 B(  0-C , 12-H ) :  -0.2177
B(  0-C , 17-C ) :   0.7029 B(  0-C , 18-H ) :   1.0465 B(  0-C , 19-H ) :   0.8366
B(  0-C , 29-C ) :   0.1116 B(  1-C ,  7-C ) :   0.8316 B(  1-C , 10-H ) :  -0.1121
B(  1-C , 12-H ) :  -1.2078 B(  1-C , 17-C ) :   0.1576 B(  1-C , 18-H ) :  -0.1201
B(  1-C , 39-O ) :   0.3388 B(  2-C ,  3-C ) :   1.0010 B(  2-C , 20-C ) :   0.4089
B(  2-C , 21-C ) :   0.4131 B(  2-C , 22-H ) :  -0.1364 B(  2-C , 24-H ) :   0.9819
B(  2-C , 25-H ) :   0.9029 B(  3-C ,  4-H ) :   0.8655 B(  3-C ,  5-H ) :   0.8816
B(  3-C ,  6-S ) :   0.8774 B(  3-C , 15-O ) :   0.1149 B(  3-C , 16-F ) :   0.1155
B(  3-C , 21-C ) :   0.1591 B(  3-C , 39-O ) :   0.1035 B(  6-S , 15-O ) :   1.4693
B(  6-S , 16-F ) :   0.8530 B(  6-S , 39-O ) :   1.6531 B(  7-C ,  8-N ) :   1.0170
B(  7-C ,  9-N ) :   1.1223 B(  7-C , 10-H ) :   0.1287 B(  7-C , 12-H ) :   0.4446
B(  8-N , 13-H ) :   0.9044 B(  8-N , 14-H ) :   1.0574 B(  9-N , 10-H ) :   0.9759
B(  9-N , 11-H ) :   1.0477 B(  9-N , 17-C ) :   0.1392 B( 12-H , 39-O ) :  -0.5678
B( 15-O , 39-O ) :   0.1331 B( 17-C , 26-C ) :   1.0066 B( 17-C , 27-H ) :   1.0031
B( 17-C , 28-H ) :   0.8629 B( 17-C , 29-C ) :   0.2118 B( 20-C , 21-C ) :   0.4247
B( 20-C , 26-C ) :   0.1354 B( 20-C , 32-C ) :   0.9300 B( 20-C , 35-H ) :   0.9245
B( 20-C , 36-H ) :   0.9195 B( 21-C , 22-H ) :   0.8256 B( 21-C , 23-H ) :   1.4351
B( 21-C , 29-C ) :   0.1180 B( 21-C , 32-C ) :   0.1522 B( 21-C , 39-O ) :   0.1426
B( 22-H , 23-H ) :   0.1501 B( 23-H , 39-O ) :  -0.1540 B( 26-C , 29-C ) :   0.2622
B( 26-C , 30-H ) :   0.9437 B( 26-C , 31-H ) :   1.0711 B( 26-C , 32-C ) :   0.1278
B( 26-C , 34-H ) :  -0.1399 B( 29-C , 32-C ) :   0.9104 B( 29-C , 33-H ) :   0.9258
B( 29-C , 34-H ) :   1.0570 B( 32-C , 37-H ) :   0.9591 B( 32-C , 38-H ) :   0.9751

Dispersion correction           -0.080146369
FINAL SINGLE POINT ENERGY     -1190.820518914775

DIPOLE MOMENT
-------------
                                X             Y             Z
Electronic contribution:    -20.58483       3.48987     -21.97632
Nuclear contribution   :     19.99734      -4.67125      20.55522
                        -----------------------------------------
Total Dipole Moment    :     -0.58749      -1.18138      -1.42110
                        -----------------------------------------
Magnitude (a.u.)       :      1.93916
Magnitude (Debye)      :      4.92895

Rotational constants in cm-1:     0.014213     0.012058     0.007367
Rotational constants in MHz :   426.102180   361.491761   220.844824

                             ****ORCA TERMINATED NORMALLY****
TOTAL RUN TIME: 0 days 0 hours 10 minutes 51 seconds 609 msec
