                         Program Version 5.0.0 -  RELEASE  -
|  1> !B3LYP D3BJ RIJCOSX def2-TZVPD def2/J TightSCF xyzfile
|  2>
|  3> *xyzfile 0 1 D5.xyz
|  4>
|  5> %MaxCore 64000
|  6>
|  7> %pal nprocs 4
|  8> end
|  9>
| 10> %scf
| 11>   MaxIter 150
| 12> end
| 13>
| 14>
| 15>                          ****END OF INPUT****

CARTESIAN COORDINATES (ANGSTROEM)
---------------------------------
  C      4.490588    1.155899   -2.469290
  N      4.305394    1.222762   -3.908317
  C      4.906458   -3.102816   -5.954844
  C      3.511771   -2.806215   -6.492283
  H      2.736044   -3.373445   -5.973736
  H      3.444904   -3.040831   -7.555281
  S      3.004618   -1.096206   -6.389259
  C      4.631918    2.246365   -4.670958
  C      4.541686    2.143990   -5.987139
  N      5.084086    3.393584   -4.118545
  H      4.920675    3.570501   -3.135870
  H      5.254652    4.197390   -4.706956
  H      3.824530    0.449113   -4.350926
  H      4.343373    1.249318   -6.416646
  H      4.676712    2.956624   -6.574113
  O      4.128856   -0.329647   -6.953717
  F      1.781285   -1.000779   -7.136399
  C      5.942129    0.939500   -2.036893
  H      3.864305    0.328532   -2.136611
  H      4.076233    2.049994   -1.989010
  C      6.462677   -3.117775   -3.944671
  C      5.024977   -3.025679   -4.437625
  H      4.423321   -3.818693   -3.977648
  H      4.579350   -2.087131   -4.108727
  H      5.201533   -4.100207   -6.296905
  H      5.605922   -2.397822   -6.413368
  C      6.559957   -0.356290   -2.559086
  H      5.967976    0.952567   -0.942444
  H      6.547184    1.788331   -2.368849
  C      6.006283   -1.615917   -1.899301
  H      7.642360   -0.318000   -2.402059
  H      6.414855   -0.403433   -3.642587
  C      6.608718   -2.917014   -2.435655
  H      6.190324   -1.561115   -0.820948
  H      4.919250   -1.651245   -2.016586
  H      7.066975   -2.374258   -4.475514
  H      6.887808   -4.089747   -4.215332
  H      6.135197   -3.755573   -1.915159
  H      7.671142   -2.955503   -2.172291
  O      2.851546   -0.783683   -4.956789

 Total Charge           Charge          ....    0
 Multiplicity           Mult            ....    1
 Number of Electrons    NEL             ....  144
 Basis Dimension        Dim             ....  854

ORBITAL ENERGIES
----------------

  NO   OCC          E(Eh)            E(eV)
   0   2.0000     -89.113501     -2424.9016
   1   2.0000     -24.816360      -675.2875
   2   2.0000     -19.148569      -521.0591
   3   2.0000     -19.138474      -520.7843
   4   2.0000     -14.288795      -388.8179
   5   2.0000     -14.274706      -388.4345
   6   2.0000     -10.237947      -278.5887
   7   2.0000     -10.198273      -277.5091
   8   2.0000     -10.183914      -277.1184
   9   2.0000     -10.181402      -277.0500
  10   2.0000     -10.170664      -276.7578
  11   2.0000     -10.165378      -276.6140
  12   2.0000     -10.161469      -276.5076
  13   2.0000     -10.155776      -276.3527
  14   2.0000     -10.150017      -276.1960
  15   2.0000     -10.149479      -276.1814
  16   2.0000     -10.039345      -273.1845
  17   2.0000      -8.157694      -221.9822
  18   2.0000      -6.124405      -166.6535
  19   2.0000      -6.118173      -166.4840
  20   2.0000      -6.117743      -166.4723
  21   2.0000      -1.400382       -38.1063
  22   2.0000      -1.115519       -30.3548
  23   2.0000      -1.019309       -27.7368
  24   2.0000      -0.937198       -25.5024
  25   2.0000      -0.854613       -23.2552
  26   2.0000      -0.844058       -22.9680
  27   2.0000      -0.808814       -22.0090
  28   2.0000      -0.780737       -21.2449
  29   2.0000      -0.752198       -20.4684
  30   2.0000      -0.727095       -19.7853
  31   2.0000      -0.699493       -19.0342
  32   2.0000      -0.669905       -18.2291
  33   2.0000      -0.643165       -17.5014
  34   2.0000      -0.621045       -16.8995
  35   2.0000      -0.604304       -16.4440
  36   2.0000      -0.592003       -16.1092
  37   2.0000      -0.590949       -16.0805
  38   2.0000      -0.577386       -15.7115
  39   2.0000      -0.559773       -15.2322
  40   2.0000      -0.547947       -14.9104
  41   2.0000      -0.514016       -13.9871
  42   2.0000      -0.503926       -13.7125
  43   2.0000      -0.490480       -13.3466
  44   2.0000      -0.477658       -12.9977
  45   2.0000      -0.472734       -12.8637
  46   2.0000      -0.463205       -12.6044
  47   2.0000      -0.461418       -12.5558
  48   2.0000      -0.449148       -12.2219
  49   2.0000      -0.442288       -12.0353
  50   2.0000      -0.430438       -11.7128
  51   2.0000      -0.424432       -11.5494
  52   2.0000      -0.414533       -11.2800
  53   2.0000      -0.397812       -10.8250
  54   2.0000      -0.389129       -10.5887
  55   2.0000      -0.386149       -10.5076
  56   2.0000      -0.377486       -10.2719
  57   2.0000      -0.371751       -10.1158
  58   2.0000      -0.359666        -9.7870
  59   2.0000      -0.356165        -9.6917
  60   2.0000      -0.354420        -9.6443
  61   2.0000      -0.345634        -9.4052
  62   2.0000      -0.338837        -9.2202
  63   2.0000      -0.332360        -9.0440
  64   2.0000      -0.326413        -8.8821
  65   2.0000      -0.319658        -8.6983
  66   2.0000      -0.311435        -8.4746
  67   2.0000      -0.310070        -8.4374
  68   2.0000      -0.303854        -8.2683
  69   2.0000      -0.292490        -7.9590
  70   2.0000      -0.226369        -6.1598
  71   2.0000      -0.132397        -3.6027
  72   0.0000      -0.016307        -0.4437
  73   0.0000      -0.000577        -0.0157
  74   0.0000       0.009757         0.2655
  75   0.0000       0.013454         0.3661
  76   0.0000       0.018433         0.5016

MULLIKEN ATOMIC CHARGES
-----------------------
   0 C :   -0.898005
   1 N :   -0.153138
   2 C :   -0.602844
   3 C :   -0.784688
   4 H :    0.334600
   5 H :    0.356520
   6 S :    1.301091
   7 C :    1.083130
   8 C :   -1.946449
   9 N :   -0.350343
  10 H :    0.153152
  11 H :    0.148656
  12 H :    0.265528
  13 H :    0.828041
  14 H :    0.179566
  15 O :   -0.661165
  16 F :   -0.113278
  17 C :   -0.472182
  18 H :    0.299735
  19 H :    0.297215
  20 C :   -0.472769
  21 C :   -0.237308
  22 H :    0.264239
  23 H :    0.201473
  24 H :    0.260242
  25 H :    0.262725
  26 C :   -0.292008
  27 H :    0.286122
  28 H :    0.349030
  29 C :   -0.435842
  30 H :    0.224881
  31 H :    0.178647
  32 C :   -0.691415
  33 H :    0.266141
  34 H :    0.242588
  35 H :    0.297991
  36 H :    0.271705
  37 H :    0.247814
  38 H :    0.251122
  39 O :   -0.740518
Sum of atomic charges:    0.0000000

LOEWDIN ATOMIC CHARGES
----------------------
   0 C :   -0.187392
   1 N :    0.035832
   2 C :   -0.207976
   3 C :   -0.225635
   4 H :    0.108722
   5 H :    0.103999
   6 S :    0.671765
   7 C :   -0.539319
   8 C :    0.009823
   9 N :    0.120516
  10 H :    0.081431
  11 H :    0.102250
  12 H :    0.063052
  13 H :   -0.049993
  14 H :    0.006667
  15 O :   -0.281729
  16 F :   -0.027869
  17 C :   -0.188332
  18 H :    0.111375
  19 H :    0.105126
  20 C :   -0.210384
  21 C :   -0.211882
  22 H :    0.127445
  23 H :    0.085002
  24 H :    0.123156
  25 H :    0.117561
  26 C :   -0.205673
  27 H :    0.106703
  28 H :    0.101250
  29 C :   -0.215518
  30 H :    0.114726
  31 H :    0.104421
  32 C :   -0.205981
  33 H :    0.112412
  34 H :    0.098146
  35 H :    0.109730
  36 H :    0.111723
  37 H :    0.106644
  38 H :    0.108301
  39 O :   -0.290094

  Mayer bond orders larger than 0.100000
B(  0-C ,  1-N ) :   0.9948 B(  0-C ,  7-C ) :  -0.1400 B(  0-C ,  9-N ) :   0.1029
B(  0-C , 12-H ) :  -0.1523 B(  0-C , 17-C ) :   0.7099 B(  0-C , 18-H ) :   0.8499
B(  0-C , 19-H ) :   0.8362 B(  0-C , 29-C ) :   0.1390 B(  1-N ,  7-C ) :   1.0301
B(  1-N , 12-H ) :   0.8987 B(  1-N , 17-C ) :   0.1225 B(  2-C ,  3-C ) :   1.0123
B(  2-C , 20-C ) :   0.4087 B(  2-C , 21-C ) :   0.4298 B(  2-C , 22-H ) :  -0.1300
B(  2-C , 24-H ) :   0.9728 B(  2-C , 25-H ) :   0.9111 B(  3-C ,  4-H ) :   0.8646
B(  3-C ,  5-H ) :   0.8807 B(  3-C ,  6-S ) :   0.8772 B(  3-C , 15-O ) :   0.1126
B(  3-C , 16-F ) :   0.1061 B(  3-C , 21-C ) :   0.1787 B(  3-C , 39-O ) :   0.1124
B(  6-S , 15-O ) :   1.5651 B(  6-S , 16-F ) :   0.8622 B(  6-S , 39-O ) :   1.6410
B(  7-C ,  8-C ) :   0.6658 B(  7-C ,  9-N ) :   0.9393 B(  7-C , 12-H ) :  -0.2216
B(  7-C , 14-H ) :  -0.2133 B(  8-C , 13-H ) :   0.4078 B(  8-C , 14-H ) :   1.2526
B(  8-C , 15-O ) :   0.1189 B(  9-N , 10-H ) :   1.0124 B(  9-N , 11-H ) :   1.0178
B( 13-H , 15-O ) :  -0.3008 B( 15-O , 39-O ) :   0.1564 B( 17-C , 26-C ) :   1.0028
B( 17-C , 27-H ) :   0.9726 B( 17-C , 28-H ) :   0.8648 B( 17-C , 29-C ) :   0.1969
B( 20-C , 21-C ) :   0.4076 B( 20-C , 26-C ) :   0.1197 B( 20-C , 32-C ) :   0.9424
B( 20-C , 35-H ) :   0.9357 B( 20-C , 36-H ) :   0.9149 B( 21-C , 22-H ) :   0.8227
B( 21-C , 23-H ) :   1.4805 B( 21-C , 29-C ) :   0.1072 B( 21-C , 32-C ) :   0.1731
B( 21-C , 39-O ) :   0.1568 B( 22-H , 23-H ) :   0.1343 B( 23-H , 39-O ) :  -0.1928
B( 26-C , 29-C ) :   0.2301 B( 26-C , 30-H ) :   0.9364 B( 26-C , 31-H ) :   1.0731
B( 26-C , 32-C ) :   0.1681 B( 26-C , 34-H ) :  -0.1330 B( 29-C , 32-C ) :   0.9203
B( 29-C , 33-H ) :   0.9269 B( 29-C , 34-H ) :   1.0417 B( 32-C , 37-H ) :   0.9527
B( 32-C , 38-H ) :   0.9720

Dispersion correction           -0.079691154
FINAL SINGLE POINT ENERGY     -1190.812283046855

DIPOLE MOMENT
-------------
                                X             Y             Z
Electronic contribution:    -20.61100       2.63788     -20.18256
Nuclear contribution   :     20.03262      -4.53368      20.24480
                        -----------------------------------------
Total Dipole Moment    :     -0.57837      -1.89580       0.06224
                        -----------------------------------------
Magnitude (a.u.)       :      1.98304
Magnitude (Debye)      :      5.04050

Rotational constants in cm-1:     0.014367     0.012055     0.007393
Rotational constants in MHz :   430.711297   361.391195   221.649333

                             ****ORCA TERMINATED NORMALLY****
TOTAL RUN TIME: 0 days 0 hours 12 minutes 42 seconds 821 msec
