                         Program Version 5.0.0 -  RELEASE  -
|  1> !B3LYP D3BJ RIJCOSX def2-TZVPD def2/J TightSCF xyzfile
|  2>
|  3> *xyzfile 0 1 D6.xyz
|  4>
|  5> %MaxCore 64000
|  6>
|  7> %pal nprocs 4
|  8> end
|  9>
| 10> %scf
| 11>   MaxIter 150
| 12> end
| 13>
| 14>
| 15>                          ****END OF INPUT****

CARTESIAN COORDINATES (ANGSTROEM)
---------------------------------
  C      4.490588    1.155899   -2.469290
  N      4.305394    1.222762   -3.908317
  C      4.906458   -3.102816   -5.954844
  C      3.511771   -2.806215   -6.492283
  H      2.736044   -3.373445   -5.973736
  H      3.444904   -3.040831   -7.555281
  S      3.004618   -1.096206   -6.389259
  C      4.631918    2.246365   -4.670958
  N      4.541686    2.143990   -5.987139
  C      5.084086    3.393584   -4.118545
  H      4.920675    3.570501   -3.135870
  H      5.254652    4.197390   -4.706956
  H      3.824530    0.449113   -4.350926
  H      4.343373    1.249318   -6.416646
  H      4.676712    2.956624   -6.574113
  O      4.128856   -0.329647   -6.953717
  F      1.781285   -1.000779   -7.136399
  C      5.942129    0.939500   -2.036893
  H      3.864305    0.328532   -2.136611
  H      4.076233    2.049994   -1.989010
  C      6.462677   -3.117775   -3.944671
  C      5.024977   -3.025679   -4.437625
  H      4.423321   -3.818693   -3.977648
  H      4.579350   -2.087131   -4.108727
  H      5.201533   -4.100207   -6.296905
  H      5.605922   -2.397822   -6.413368
  C      6.559957   -0.356290   -2.559086
  H      5.967976    0.952567   -0.942444
  H      6.547184    1.788331   -2.368849
  C      6.006283   -1.615917   -1.899301
  H      7.642360   -0.318000   -2.402059
  H      6.414855   -0.403433   -3.642587
  C      6.608718   -2.917014   -2.435655
  H      6.190324   -1.561115   -0.820948
  H      4.919250   -1.651245   -2.016586
  H      7.066975   -2.374258   -4.475514
  H      6.887808   -4.089747   -4.215332
  H      6.135197   -3.755573   -1.915159
  H      7.671142   -2.955503   -2.172291
  O      2.851546   -0.783683   -4.956789

 Total Charge           Charge          ....    0
 Multiplicity           Mult            ....    1
 Number of Electrons    NEL             ....  144
 Basis Dimension        Dim             ....  854

ORBITAL ENERGIES
----------------

  NO   OCC          E(Eh)            E(eV)
   0   2.0000     -89.132772     -2425.4260
   1   2.0000     -24.833126      -675.7437
   2   2.0000     -19.164792      -521.5005
   3   2.0000     -19.164370      -521.4890
   4   2.0000     -14.277132      -388.5005
   5   2.0000     -14.272692      -388.3797
   6   2.0000     -10.251599      -278.9602
   7   2.0000     -10.207866      -277.7702
   8   2.0000     -10.183246      -277.1002
   9   2.0000     -10.176756      -276.9236
  10   2.0000     -10.175895      -276.9002
  11   2.0000     -10.168843      -276.7083
  12   2.0000     -10.162133      -276.5257
  13   2.0000     -10.154004      -276.3045
  14   2.0000     -10.145979      -276.0861
  15   2.0000     -10.139856      -275.9195
  16   2.0000     -10.050876      -273.4983
  17   2.0000      -8.177012      -222.5078
  18   2.0000      -6.143650      -167.1772
  19   2.0000      -6.137678      -167.0147
  20   2.0000      -6.136945      -166.9948
  21   2.0000      -1.417242       -38.5651
  22   2.0000      -1.135799       -30.9067
  23   2.0000      -1.040332       -28.3089
  24   2.0000      -0.936561       -25.4851
  25   2.0000      -0.856249       -23.2997
  26   2.0000      -0.853713       -23.2307
  27   2.0000      -0.812537       -22.1102
  28   2.0000      -0.782319       -21.2880
  29   2.0000      -0.756484       -20.5850
  30   2.0000      -0.727894       -19.8070
  31   2.0000      -0.691877       -18.8269
  32   2.0000      -0.677455       -18.4345
  33   2.0000      -0.654725       -17.8160
  34   2.0000      -0.628851       -17.1119
  35   2.0000      -0.621157       -16.9025
  36   2.0000      -0.605656       -16.4807
  37   2.0000      -0.591975       -16.1084
  38   2.0000      -0.586091       -15.9483
  39   2.0000      -0.555413       -15.1136
  40   2.0000      -0.535342       -14.5674
  41   2.0000      -0.524211       -14.2645
  42   2.0000      -0.516055       -14.0426
  43   2.0000      -0.502415       -13.6714
  44   2.0000      -0.494210       -13.4481
  45   2.0000      -0.478342       -13.0163
  46   2.0000      -0.472495       -12.8572
  47   2.0000      -0.461123       -12.5478
  48   2.0000      -0.451800       -12.2941
  49   2.0000      -0.437140       -11.8952
  50   2.0000      -0.430571       -11.7164
  51   2.0000      -0.427251       -11.6261
  52   2.0000      -0.418433       -11.3861
  53   2.0000      -0.405103       -11.0234
  54   2.0000      -0.391081       -10.6418
  55   2.0000      -0.386190       -10.5088
  56   2.0000      -0.382730       -10.4146
  57   2.0000      -0.371241       -10.1020
  58   2.0000      -0.366107        -9.9623
  59   2.0000      -0.357672        -9.7327
  60   2.0000      -0.351732        -9.5711
  61   2.0000      -0.348539        -9.4842
  62   2.0000      -0.342957        -9.3323
  63   2.0000      -0.338297        -9.2055
  64   2.0000      -0.333279        -9.0690
  65   2.0000      -0.329025        -8.9532
  66   2.0000      -0.323445        -8.8014
  67   2.0000      -0.308919        -8.4061
  68   2.0000      -0.307553        -8.3689
  69   2.0000      -0.298517        -8.1231
  70   2.0000      -0.216297        -5.8857
  71   2.0000      -0.134613        -3.6630
  72   0.0000      -0.027147        -0.7387
  73   0.0000      -0.010408        -0.2832
  74   0.0000       0.004572         0.1244
  75   0.0000       0.009657         0.2628
  76   0.0000       0.019975         0.5435

MULLIKEN ATOMIC CHARGES
-----------------------
   0 C :   -0.891737
   1 N :   -0.184895
   2 C :   -0.595846
   3 C :   -0.762220
   4 H :    0.342543
   5 H :    0.355862
   6 S :    1.317159
   7 C :    0.869813
   8 N :   -0.247439
   9 C :   -1.420518
  10 H :    0.258334
  11 H :    0.316242
  12 H :    0.359344
  13 H :    0.261693
  14 H :    0.106840
  15 O :   -0.798911
  16 F :   -0.115401
  17 C :   -0.542048
  18 H :    0.331139
  19 H :    0.283827
  20 C :   -0.477170
  21 C :   -0.270458
  22 H :    0.269926
  23 H :    0.225101
  24 H :    0.258556
  25 H :    0.266444
  26 C :   -0.261323
  27 H :    0.288424
  28 H :    0.367908
  29 C :   -0.419446
  30 H :    0.229258
  31 H :    0.116668
  32 C :   -0.700005
  33 H :    0.267257
  34 H :    0.229518
  35 H :    0.309499
  36 H :    0.271404
  37 H :    0.246407
  38 H :    0.252914
  39 O :   -0.714663
Sum of atomic charges:   -0.0000000

LOEWDIN ATOMIC CHARGES
----------------------
   0 C :   -0.183216
   1 N :    0.034313
   2 C :   -0.207186
   3 C :   -0.221415
   4 H :    0.111669
   5 H :    0.105103
   6 S :    0.678135
   7 C :   -0.548453
   8 N :    0.128163
   9 C :    0.001568
  10 H :   -0.009922
  11 H :   -0.005044
  12 H :    0.058425
  13 H :    0.023667
  14 H :    0.110113
  15 O :   -0.280335
  16 F :   -0.024480
  17 C :   -0.183890
  18 H :    0.110073
  19 H :    0.110756
  20 C :   -0.210340
  21 C :   -0.211596
  22 H :    0.128131
  23 H :    0.085155
  24 H :    0.124602
  25 H :    0.117127
  26 C :   -0.206867
  27 H :    0.108779
  28 H :    0.100803
  29 C :   -0.215951
  30 H :    0.114692
  31 H :    0.101569
  32 C :   -0.206027
  33 H :    0.112956
  34 H :    0.097482
  35 H :    0.109472
  36 H :    0.111760
  37 H :    0.106438
  38 H :    0.108698
  39 O :   -0.284925

  Mayer bond orders larger than 0.100000
B(  0-C ,  1-N ) :   1.0322 B(  0-C ,  9-C ) :   0.1210 B(  0-C , 12-H ) :  -0.2319
B(  0-C , 17-C ) :   0.7614 B(  0-C , 18-H ) :   0.7401 B(  0-C , 19-H ) :   0.8638
B(  0-C , 29-C ) :   0.1427 B(  1-N ,  7-C ) :   1.0200 B(  1-N , 12-H ) :   0.8571
B(  1-N , 17-C ) :   0.1666 B(  2-C ,  3-C ) :   1.0123 B(  2-C , 20-C ) :   0.4079
B(  2-C , 21-C ) :   0.4155 B(  2-C , 22-H ) :  -0.1300 B(  2-C , 24-H ) :   0.9742
B(  2-C , 25-H ) :   0.9078 B(  3-C ,  4-H ) :   0.8611 B(  3-C ,  5-H ) :   0.8765
B(  3-C ,  6-S ) :   0.8705 B(  3-C , 15-O ) :   0.1179 B(  3-C , 16-F ) :   0.1120
B(  3-C , 21-C ) :   0.1816 B(  3-C , 39-O ) :   0.1111 B(  6-S , 15-O ) :   1.4861
B(  6-S , 16-F ) :   0.8718 B(  6-S , 39-O ) :   1.6714 B(  7-C ,  8-N ) :   0.9423
B(  7-C ,  9-C ) :   0.9311 B(  7-C , 12-H ) :  -0.2169 B(  8-N , 13-H ) :   0.8795
B(  8-N , 14-H ) :   1.0452 B(  9-C , 10-H ) :   1.0585 B(  9-C , 11-H ) :   1.0184
B( 15-O , 39-O ) :   0.1282 B( 17-C , 26-C ) :   0.9994 B( 17-C , 27-H ) :   0.9277
B( 17-C , 28-H ) :   0.8974 B( 17-C , 29-C ) :   0.1918 B( 20-C , 21-C ) :   0.4175
B( 20-C , 26-C ) :   0.1203 B( 20-C , 32-C ) :   0.9437 B( 20-C , 35-H ) :   0.9274
B( 20-C , 36-H ) :   0.9155 B( 21-C , 22-H ) :   0.8203 B( 21-C , 23-H ) :   1.4596
B( 21-C , 29-C ) :   0.1078 B( 21-C , 32-C ) :   0.1743 B( 21-C , 39-O ) :   0.1545
B( 22-H , 23-H ) :   0.1410 B( 23-H , 39-O ) :  -0.1923 B( 26-C , 29-C ) :   0.2434
B( 26-C , 30-H ) :   0.9330 B( 26-C , 31-H ) :   1.1017 B( 26-C , 32-C ) :   0.1634
B( 26-C , 34-H ) :  -0.1297 B( 29-C , 32-C ) :   0.9128 B( 29-C , 33-H ) :   0.9270
B( 29-C , 34-H ) :   1.0444 B( 32-C , 37-H ) :   0.9548 B( 32-C , 38-H ) :   0.9713

Dispersion correction           -0.079568648
FINAL SINGLE POINT ENERGY     -1190.826600432216

DIPOLE MOMENT
-------------
                                X             Y             Z
Electronic contribution:    -21.13245       1.30195     -21.86182
Nuclear contribution   :     20.11362      -4.34709      20.52383
                        -----------------------------------------
Total Dipole Moment    :     -1.01883      -3.04514      -1.33800
                        -----------------------------------------
Magnitude (a.u.)       :      3.47866
Magnitude (Debye)      :      8.84206

Rotational constants in cm-1:     0.014449     0.012108     0.007447
Rotational constants in MHz :   433.168496   362.988632   223.260798

                             ****ORCA TERMINATED NORMALLY****
TOTAL RUN TIME: 0 days 0 hours 11 minutes 54 seconds 269 msec
