                         Program Version 5.0.0 -  RELEASE  -
|  1> !B3LYP D3BJ RIJCOSX def2-TZVPD def2/J TightSCF xyzfile
|  2>
|  3> *xyzfile 0 1 D7.xyz
|  4>
|  5> %MaxCore 64000
|  6>
|  7> %pal nprocs 4
|  8> end
|  9>
| 10> %scf
| 11>   MaxIter 150
| 12> end
| 13>
| 14>
| 15>                          ****END OF INPUT****

CARTESIAN COORDINATES (ANGSTROEM)
---------------------------------
  C      4.490588    1.155899   -2.469290
  C      4.305394    1.222762   -3.908317
  C      4.906458   -3.102816   -5.954844
  C      3.511771   -2.806215   -6.492283
  H      2.736044   -3.373445   -5.973736
  H      3.444904   -3.040831   -7.555281
  S      3.004618   -1.096206   -6.389259
  C      4.631918    2.246365   -4.670958
  N      4.541686    2.143990   -5.987139
  N      5.084086    3.393584   -4.118545
  H      4.920675    3.570501   -3.135870
  H      5.254652    4.197390   -4.706956
  H      3.824530    0.449113   -4.350926
  H      4.343373    1.249318   -6.416646
  H      4.676712    2.956624   -6.574113
  O      4.128856   -0.329647   -6.953717
  O      1.781285   -1.000779   -7.136399
  C      5.942129    0.939500   -2.036893
  H      3.864305    0.328532   -2.136611
  H      4.076233    2.049994   -1.989010
  C      6.462677   -3.117775   -3.944671
  C      5.024977   -3.025679   -4.437625
  H      4.423321   -3.818693   -3.977648
  H      4.579350   -2.087131   -4.108727
  H      5.201533   -4.100207   -6.296905
  H      5.605922   -2.397822   -6.413368
  C      6.559957   -0.356290   -2.559086
  H      5.967976    0.952567   -0.942444
  H      6.547184    1.788331   -2.368849
  C      6.006283   -1.615917   -1.899301
  H      7.642360   -0.318000   -2.402059
  H      6.414855   -0.403433   -3.642587
  C      6.608718   -2.917014   -2.435655
  H      6.190324   -1.561115   -0.820948
  H      4.919250   -1.651245   -2.016586
  H      7.066975   -2.374258   -4.475514
  H      6.887808   -4.089747   -4.215332
  H      6.135197   -3.755573   -1.915159
  H      7.671142   -2.955503   -2.172291
  F      2.851546   -0.783683   -4.956789

 Total Charge           Charge          ....    0
 Multiplicity           Mult            ....    1
 Number of Electrons    NEL             ....  144
 Basis Dimension        Dim             ....  854

ORBITAL ENERGIES
----------------

  NO   OCC          E(Eh)            E(eV)
   0   2.0000     -89.108664     -2424.7700
   1   2.0000     -24.792784      -674.6460
   2   2.0000     -19.150056      -521.0995
   3   2.0000     -19.145970      -520.9883
   4   2.0000     -14.305018      -389.2593
   5   2.0000     -14.283053      -388.6616
   6   2.0000     -10.234286      -278.4891
   7   2.0000     -10.197358      -277.4842
   8   2.0000     -10.194860      -277.4163
   9   2.0000     -10.176266      -276.9103
  10   2.0000     -10.166665      -276.6490
  11   2.0000     -10.160368      -276.4777
  12   2.0000     -10.152484      -276.2631
  13   2.0000     -10.143814      -276.0272
  14   2.0000     -10.139255      -275.9032
  15   2.0000     -10.135936      -275.8128
  16   2.0000     -10.072748      -274.0934
  17   2.0000      -8.152905      -221.8518
  18   2.0000      -6.119735      -166.5265
  19   2.0000      -6.113422      -166.3547
  20   2.0000      -6.112908      -166.3407
  21   2.0000      -1.369162       -37.2568
  22   2.0000      -1.122953       -30.5571
  23   2.0000      -1.031399       -28.0658
  24   2.0000      -0.942488       -25.6464
  25   2.0000      -0.852900       -23.2086
  26   2.0000      -0.843330       -22.9482
  27   2.0000      -0.808337       -21.9960
  28   2.0000      -0.780590       -21.2409
  29   2.0000      -0.755879       -20.5685
  30   2.0000      -0.721742       -19.6396
  31   2.0000      -0.707165       -19.2429
  32   2.0000      -0.670589       -18.2476
  33   2.0000      -0.643620       -17.5138
  34   2.0000      -0.622275       -16.9330
  35   2.0000      -0.594177       -16.1684
  36   2.0000      -0.587894       -15.9974
  37   2.0000      -0.578876       -15.7520
  38   2.0000      -0.573953       -15.6181
  39   2.0000      -0.554157       -15.0794
  40   2.0000      -0.545101       -14.8330
  41   2.0000      -0.524951       -14.2847
  42   2.0000      -0.499413       -13.5897
  43   2.0000      -0.489285       -13.3141
  44   2.0000      -0.484917       -13.1953
  45   2.0000      -0.478351       -13.0166
  46   2.0000      -0.475495       -12.9389
  47   2.0000      -0.458138       -12.4666
  48   2.0000      -0.450633       -12.2624
  49   2.0000      -0.441806       -12.0222
  50   2.0000      -0.429075       -11.6757
  51   2.0000      -0.423428       -11.5221
  52   2.0000      -0.420761       -11.4495
  53   2.0000      -0.404993       -11.0204
  54   2.0000      -0.396010       -10.7760
  55   2.0000      -0.383173       -10.4267
  56   2.0000      -0.376970       -10.2579
  57   2.0000      -0.372513       -10.1366
  58   2.0000      -0.364838        -9.9277
  59   2.0000      -0.356563        -9.7026
  60   2.0000      -0.348301        -9.4778
  61   2.0000      -0.344967        -9.3870
  62   2.0000      -0.339458        -9.2371
  63   2.0000      -0.332100        -9.0369
  64   2.0000      -0.329693        -8.9714
  65   2.0000      -0.327257        -8.9051
  66   2.0000      -0.320734        -8.7276
  67   2.0000      -0.305807        -8.3214
  68   2.0000      -0.300074        -8.1654
  69   2.0000      -0.295112        -8.0304
  70   2.0000      -0.247227        -6.7274
  71   2.0000      -0.148951        -4.0532
  72   0.0000      -0.012561        -0.3418
  73   0.0000       0.005492         0.1494
  74   0.0000       0.007934         0.2159
  75   0.0000       0.009391         0.2555
  76   0.0000       0.020035         0.5452

MULLIKEN ATOMIC CHARGES
-----------------------
   0 C :   -0.912161
   1 C :   -1.181179
   2 C :   -0.525571
   3 C :   -0.704708
   4 H :    0.300078
   5 H :    0.304008
   6 S :    1.425494
   7 C :    0.265200
   8 N :   -0.261016
   9 N :   -0.295701
  10 H :    0.179170
  11 H :    0.115583
  12 H :    1.211098
  13 H :    0.231345
  14 H :    0.107822
  15 O :   -0.808098
  16 O :   -0.594934
  17 C :   -0.617879
  18 H :    0.270051
  19 H :    0.308303
  20 C :   -0.515638
  21 C :   -0.176238
  22 H :    0.258885
  23 H :    0.147900
  24 H :    0.267161
  25 H :    0.258713
  26 C :   -0.348359
  27 H :    0.232763
  28 H :    0.339212
  29 C :   -0.435180
  30 H :    0.226926
  31 H :    0.235167
  32 C :   -0.676435
  33 H :    0.263633
  34 H :    0.222104
  35 H :    0.308905
  36 H :    0.270516
  37 H :    0.245915
  38 H :    0.252723
  39 F :   -0.195575
Sum of atomic charges:   -0.0000000

LOEWDIN ATOMIC CHARGES
----------------------
   0 C :   -0.224261
   1 C :   -0.140355
   2 C :   -0.218688
   3 C :   -0.217221
   4 H :    0.110734
   5 H :    0.113904
   6 S :    0.651424
   7 C :   -0.514528
   8 N :    0.127073
   9 N :    0.135310
  10 H :    0.093095
  11 H :    0.094293
  12 H :    0.023169
  13 H :    0.031128
  14 H :    0.100569
  15 O :   -0.281774
  16 O :   -0.248459
  17 C :   -0.201965
  18 H :    0.100840
  19 H :    0.099513
  20 C :   -0.209740
  21 C :   -0.214376
  22 H :    0.127353
  23 H :    0.086256
  24 H :    0.121462
  25 H :    0.114608
  26 C :   -0.208676
  27 H :    0.103582
  28 H :    0.101378
  29 C :   -0.214776
  30 H :    0.113545
  31 H :    0.100983
  32 C :   -0.206851
  33 H :    0.112688
  34 H :    0.097039
  35 H :    0.109662
  36 H :    0.112574
  37 H :    0.106210
  38 H :    0.108189
  39 F :   -0.094910

  Mayer bond orders larger than 0.100000
B(  0-C ,  1-C ) :   0.7899 B(  0-C ,  7-C ) :   0.1682 B(  0-C , 12-H ) :  -0.1546
B(  0-C , 17-C ) :   0.7194 B(  0-C , 18-H ) :   1.0145 B(  0-C , 19-H ) :   0.8593
B(  0-C , 29-C ) :   0.1115 B(  1-C ,  7-C ) :   0.8113 B(  1-C , 10-H ) :  -0.1091
B(  1-C , 12-H ) :  -0.9653 B(  1-C , 17-C ) :   0.1685 B(  1-C , 18-H ) :  -0.1219
B(  1-C , 39-F ) :   0.4028 B(  2-C ,  3-C ) :   0.9085 B(  2-C , 20-C ) :   0.4202
B(  2-C , 21-C ) :   0.3741 B(  2-C , 22-H ) :  -0.1375 B(  2-C , 24-H ) :   0.9721
B(  2-C , 25-H ) :   0.9310 B(  3-C ,  4-H ) :   0.9100 B(  3-C ,  5-H ) :   0.9312
B(  3-C ,  6-S ) :   0.9017 B(  3-C , 16-O ) :   0.1614 B(  3-C , 21-C ) :   0.1939
B(  6-S , 15-O ) :   1.3892 B(  6-S , 16-O ) :   1.3980 B(  6-S , 39-F ) :   1.0283
B(  7-C ,  8-N ) :   0.9735 B(  7-C ,  9-N ) :   1.1388 B(  7-C , 10-H ) :   0.1214
B(  7-C , 12-H ) :   0.4686 B(  8-N , 12-H ) :   0.1269 B(  8-N , 13-H ) :   0.9029
B(  8-N , 14-H ) :   1.0457 B(  9-N , 10-H ) :   0.9736 B(  9-N , 11-H ) :   1.0426
B(  9-N , 17-C ) :   0.1339 B( 12-H , 15-O ) :   0.1318 B( 12-H , 39-F ) :  -0.5533
B( 17-C , 26-C ) :   1.0132 B( 17-C , 27-H ) :   0.9962 B( 17-C , 28-H ) :   0.8589
B( 17-C , 29-C ) :   0.2073 B( 20-C , 21-C ) :   0.4796 B( 20-C , 26-C ) :   0.1303
B( 20-C , 32-C ) :   0.9317 B( 20-C , 35-H ) :   0.9249 B( 20-C , 36-H ) :   0.9185
B( 21-C , 22-H ) :   0.8280 B( 21-C , 23-H ) :   1.3969 B( 21-C , 29-C ) :   0.1211
B( 21-C , 32-C ) :   0.1532 B( 21-C , 39-F ) :   0.1253 B( 22-H , 23-H ) :   0.1452
B( 23-H , 39-F ) :  -0.1182 B( 26-C , 29-C ) :   0.2473 B( 26-C , 30-H ) :   0.9398
B( 26-C , 31-H ) :   1.0753 B( 26-C , 32-C ) :   0.1303 B( 26-C , 34-H ) :  -0.1437
B( 29-C , 31-H ) :  -0.1026 B( 29-C , 32-C ) :   0.9198 B( 29-C , 33-H ) :   0.9307
B( 29-C , 34-H ) :   1.0549 B( 32-C , 37-H ) :   0.9604 B( 32-C , 38-H ) :   0.9719

Dispersion correction           -0.079476616
FINAL SINGLE POINT ENERGY     -1190.838137416904

DIPOLE MOMENT
-------------
                                X             Y             Z
Electronic contribution:    -18.42422       4.02204     -18.02104
Nuclear contribution   :     18.74089      -4.92611      17.99644
                        -----------------------------------------
Total Dipole Moment    :      0.31668      -0.90407      -0.02460
                        -----------------------------------------
Magnitude (a.u.)       :      0.95824
Magnitude (Debye)      :      2.43566

Rotational constants in cm-1:     0.014210     0.012324     0.007480
Rotational constants in MHz :   425.991442   369.455467   224.259162

                             ****ORCA TERMINATED NORMALLY****
TOTAL RUN TIME: 0 days 0 hours 11 minutes 7 seconds 413 msec
