                         Program Version 5.0.0 -  RELEASE  -
|  1> !B3LYP D3BJ RIJCOSX def2-TZVPD def2/J TightSCF xyzfile
|  2>
|  3> *xyzfile 0 1 D8.xyz
|  4>
|  5> %MaxCore 64000
|  6>
|  7> %pal nprocs 4
|  8> end
|  9>
| 10> %scf
| 11>   MaxIter 150
| 12> end
| 13>
| 14>
| 15>                          ****END OF INPUT****

CARTESIAN COORDINATES (ANGSTROEM)
---------------------------------
  C      4.490588    1.155899   -2.469290
  N      4.305394    1.222762   -3.908317
  C      4.906458   -3.102816   -5.954844
  C      3.511771   -2.806215   -6.492283
  H      2.736044   -3.373445   -5.973736
  H      3.444904   -3.040831   -7.555281
  S      3.004618   -1.096206   -6.389259
  C      4.631918    2.246365   -4.670958
  C      4.541686    2.143990   -5.987139
  N      5.084086    3.393584   -4.118545
  H      4.920675    3.570501   -3.135870
  H      5.254652    4.197390   -4.706956
  H      3.824530    0.449113   -4.350926
  H      4.343373    1.249318   -6.416646
  H      4.676712    2.956624   -6.574113
  O      4.128856   -0.329647   -6.953717
  O      1.781285   -1.000779   -7.136399
  C      5.942129    0.939500   -2.036893
  H      3.864305    0.328532   -2.136611
  H      4.076233    2.049994   -1.989010
  C      6.462677   -3.117775   -3.944671
  C      5.024977   -3.025679   -4.437625
  H      4.423321   -3.818693   -3.977648
  H      4.579350   -2.087131   -4.108727
  H      5.201533   -4.100207   -6.296905
  H      5.605922   -2.397822   -6.413368
  C      6.559957   -0.356290   -2.559086
  H      5.967976    0.952567   -0.942444
  H      6.547184    1.788331   -2.368849
  C      6.006283   -1.615917   -1.899301
  H      7.642360   -0.318000   -2.402059
  H      6.414855   -0.403433   -3.642587
  C      6.608718   -2.917014   -2.435655
  H      6.190324   -1.561115   -0.820948
  H      4.919250   -1.651245   -2.016586
  H      7.066975   -2.374258   -4.475514
  H      6.887808   -4.089747   -4.215332
  H      6.135197   -3.755573   -1.915159
  H      7.671142   -2.955503   -2.172291
  F      2.851546   -0.783683   -4.956789

 Total Charge           Charge          ....    0
 Multiplicity           Mult            ....    1
 Number of Electrons    NEL             ....  144
 Basis Dimension        Dim             ....  854

ORBITAL ENERGIES
----------------

  NO   OCC          E(Eh)            E(eV)
   0   2.0000     -89.103426     -2424.6275
   1   2.0000     -24.804070      -674.9530
   2   2.0000     -19.146449      -521.0014
   3   2.0000     -19.133350      -520.6449
   4   2.0000     -14.299554      -389.1106
   5   2.0000     -14.299416      -389.1069
   6   2.0000     -10.233342      -278.4634
   7   2.0000     -10.200550      -277.5711
   8   2.0000     -10.196701      -277.4664
   9   2.0000     -10.193703      -277.3848
  10   2.0000     -10.183183      -277.0985
  11   2.0000     -10.173755      -276.8420
  12   2.0000     -10.169966      -276.7388
  13   2.0000     -10.166546      -276.6458
  14   2.0000     -10.161673      -276.5132
  15   2.0000     -10.160997      -276.4948
  16   2.0000     -10.049751      -273.4676
  17   2.0000      -8.147998      -221.7183
  18   2.0000      -6.115081      -166.3998
  19   2.0000      -6.108161      -166.2115
  20   2.0000      -6.107918      -166.2049
  21   2.0000      -1.379177       -37.5293
  22   2.0000      -1.117323       -30.4039
  23   2.0000      -1.022517       -27.8241
  24   2.0000      -0.954325       -25.9685
  25   2.0000      -0.869664       -23.6648
  26   2.0000      -0.845941       -23.0192
  27   2.0000      -0.815739       -22.1974
  28   2.0000      -0.787703       -21.4345
  29   2.0000      -0.753525       -20.5045
  30   2.0000      -0.731241       -19.8981
  31   2.0000      -0.708899       -19.2901
  32   2.0000      -0.676175       -18.3997
  33   2.0000      -0.652145       -17.7458
  34   2.0000      -0.630792       -17.1647
  35   2.0000      -0.610196       -16.6043
  36   2.0000      -0.598030       -16.2732
  37   2.0000      -0.588083       -16.0026
  38   2.0000      -0.572128       -15.5684
  39   2.0000      -0.561292       -15.2735
  40   2.0000      -0.556789       -15.1510
  41   2.0000      -0.517633       -14.0855
  42   2.0000      -0.501875       -13.6567
  43   2.0000      -0.489642       -13.3238
  44   2.0000      -0.483136       -13.1468
  45   2.0000      -0.481965       -13.1149
  46   2.0000      -0.471885       -12.8407
  47   2.0000      -0.467445       -12.7198
  48   2.0000      -0.461891       -12.5687
  49   2.0000      -0.445025       -12.1097
  50   2.0000      -0.441690       -12.0190
  51   2.0000      -0.432504       -11.7690
  52   2.0000      -0.417498       -11.3607
  53   2.0000      -0.403748       -10.9865
  54   2.0000      -0.394137       -10.7250
  55   2.0000      -0.392121       -10.6702
  56   2.0000      -0.386252       -10.5104
  57   2.0000      -0.377761       -10.2794
  58   2.0000      -0.370527       -10.0825
  59   2.0000      -0.365013        -9.9325
  60   2.0000      -0.364243        -9.9116
  61   2.0000      -0.349240        -9.5033
  62   2.0000      -0.347094        -9.4449
  63   2.0000      -0.342204        -9.3119
  64   2.0000      -0.337824        -9.1927
  65   2.0000      -0.322770        -8.7830
  66   2.0000      -0.322113        -8.7652
  67   2.0000      -0.320926        -8.7328
  68   2.0000      -0.314923        -8.5695
  69   2.0000      -0.296778        -8.0757
  70   2.0000      -0.242275        -6.5926
  71   2.0000      -0.144555        -3.9335
  72   0.0000      -0.015320        -0.4169
  73   0.0000       0.001155         0.0314
  74   0.0000       0.003781         0.1029
  75   0.0000       0.008671         0.2359
  76   0.0000       0.017155         0.4668

MULLIKEN ATOMIC CHARGES
-----------------------
   0 C :   -0.905456
   1 N :   -0.178493
   2 C :   -0.493182
   3 C :   -0.725886
   4 H :    0.296324
   5 H :    0.307661
   6 S :    1.316475
   7 C :    1.121503
   8 C :   -2.030586
   9 N :   -0.351929
  10 H :    0.153743
  11 H :    0.152723
  12 H :    0.249834
  13 H :    0.884555
  14 H :    0.180593
  15 O :   -0.653645
  16 O :   -0.591806
  17 C :   -0.477383
  18 H :    0.321443
  19 H :    0.297894
  20 C :   -0.503229
  21 C :   -0.229555
  22 H :    0.278956
  23 H :    0.112872
  24 H :    0.271036
  25 H :    0.260449
  26 C :   -0.287149
  27 H :    0.289282
  28 H :    0.353300
  29 C :   -0.432913
  30 H :    0.224991
  31 H :    0.185037
  32 C :   -0.685295
  33 H :    0.263491
  34 H :    0.239003
  35 H :    0.296997
  36 H :    0.271796
  37 H :    0.251521
  38 H :    0.252240
  39 F :   -0.287213
Sum of atomic charges:    0.0000000

LOEWDIN ATOMIC CHARGES
----------------------
   0 C :   -0.187740
   1 N :    0.033054
   2 C :   -0.218262
   3 C :   -0.219487
   4 H :    0.108723
   5 H :    0.114729
   6 S :    0.644136
   7 C :   -0.538262
   8 C :    0.017982
   9 N :    0.122232
  10 H :    0.082424
  11 H :    0.104989
  12 H :    0.084798
  13 H :   -0.047161
  14 H :    0.012679
  15 O :   -0.282530
  16 O :   -0.247296
  17 C :   -0.186635
  18 H :    0.109995
  19 H :    0.107306
  20 C :   -0.208499
  21 C :   -0.215824
  22 H :    0.127583
  23 H :    0.082933
  24 H :    0.121859
  25 H :    0.115881
  26 C :   -0.205554
  27 H :    0.108423
  28 H :    0.102801
  29 C :   -0.216720
  30 H :    0.116361
  31 H :    0.103868
  32 C :   -0.205156
  33 H :    0.113387
  34 H :    0.095300
  35 H :    0.110593
  36 H :    0.114102
  37 H :    0.107443
  38 H :    0.109452
  39 F :   -0.093908

  Mayer bond orders larger than 0.100000
B(  0-C ,  1-N ) :   0.9839 B(  0-C ,  7-C ) :  -0.1452 B(  0-C ,  9-N ) :   0.1096
B(  0-C , 12-H ) :  -0.1407 B(  0-C , 17-C ) :   0.7296 B(  0-C , 18-H ) :   0.8199
B(  0-C , 19-H ) :   0.8443 B(  0-C , 29-C ) :   0.1431 B(  1-N ,  7-C ) :   1.0664
B(  1-N , 12-H ) :   0.8985 B(  1-N , 17-C ) :   0.1280 B(  2-C ,  3-C ) :   0.9031
B(  2-C , 20-C ) :   0.4229 B(  2-C , 21-C ) :   0.3858 B(  2-C , 22-H ) :  -0.1284
B(  2-C , 24-H ) :   0.9623 B(  2-C , 25-H ) :   0.9343 B(  3-C ,  4-H ) :   0.9121
B(  3-C ,  5-H ) :   0.9326 B(  3-C ,  6-S ) :   0.9219 B(  3-C , 16-O ) :   0.1463
B(  3-C , 21-C ) :   0.2192 B(  6-S , 15-O ) :   1.4902 B(  6-S , 16-O ) :   1.4189
B(  6-S , 21-C ) :   0.1072 B(  6-S , 39-F ) :   1.0369 B(  7-C ,  8-C ) :   0.5220
B(  7-C ,  9-N ) :   0.9366 B(  7-C , 12-H ) :  -0.1991 B(  7-C , 14-H ) :  -0.2253
B(  8-C , 13-H ) :   0.3517 B(  8-C , 14-H ) :   1.2549 B(  8-C , 15-O ) :   0.1325
B(  9-N , 10-H ) :   1.0117 B(  9-N , 11-H ) :   1.0143 B( 13-H , 15-O ) :  -0.3276
B( 17-C , 26-C ) :   1.0116 B( 17-C , 27-H ) :   0.9697 B( 17-C , 28-H ) :   0.8638
B( 17-C , 29-C ) :   0.1923 B( 20-C , 21-C ) :   0.4636 B( 20-C , 26-C ) :   0.1168
B( 20-C , 32-C ) :   0.9450 B( 20-C , 35-H ) :   0.9327 B( 20-C , 36-H ) :   0.9137
B( 21-C , 22-H ) :   0.8283 B( 21-C , 23-H ) :   1.4537 B( 21-C , 29-C ) :   0.1091
B( 21-C , 32-C ) :   0.1735 B( 21-C , 39-F ) :   0.1196 B( 22-H , 23-H ) :   0.1213
B( 23-H , 39-F ) :  -0.1257 B( 26-C , 29-C ) :   0.2077 B( 26-C , 30-H ) :   0.9314
B( 26-C , 31-H ) :   1.0815 B( 26-C , 32-C ) :   0.1713 B( 26-C , 34-H ) :  -0.1390
B( 29-C , 32-C ) :   0.9291 B( 29-C , 33-H ) :   0.9301 B( 29-C , 34-H ) :   1.0447
B( 32-C , 37-H ) :   0.9521 B( 32-C , 38-H ) :   0.9688

Dispersion correction           -0.079032039
FINAL SINGLE POINT ENERGY     -1190.816063562079

DIPOLE MOMENT
-------------
                                X             Y             Z
Electronic contribution:    -18.44704       3.17021     -16.19828
Nuclear contribution   :     18.77618      -4.78855      17.68602
                        -----------------------------------------
Total Dipole Moment    :      0.32914      -1.61833       1.48774
                        -----------------------------------------
Magnitude (a.u.)       :      2.22277
Magnitude (Debye)      :      5.64983

Rotational constants in cm-1:     0.014368     0.012319     0.007509
Rotational constants in MHz :   430.738566   369.302170   225.105103

                             ****ORCA TERMINATED NORMALLY****
TOTAL RUN TIME: 0 days 0 hours 11 minutes 50 seconds 417 msec
