                         Program Version 5.0.0 -  RELEASE  -
|  1> !B3LYP D3BJ RIJCOSX def2-TZVPD def2/J TightSCF xyzfile
|  2>
|  3> *xyzfile 0 1 D9.xyz
|  4>
|  5> %MaxCore 64000
|  6>
|  7> %pal nprocs 4
|  8> end
|  9>
| 10> %scf
| 11>   MaxIter 150
| 12> end
| 13>
| 14>
| 15>                          ****END OF INPUT****

CARTESIAN COORDINATES (ANGSTROEM)
---------------------------------
  C      4.490588    1.155899   -2.469290
  N      4.305394    1.222762   -3.908317
  C      4.906458   -3.102816   -5.954844
  C      3.511771   -2.806215   -6.492283
  H      2.736044   -3.373445   -5.973736
  H      3.444904   -3.040831   -7.555281
  S      3.004618   -1.096206   -6.389259
  C      4.631918    2.246365   -4.670958
  N      4.541686    2.143990   -5.987139
  C      5.084086    3.393584   -4.118545
  H      4.920675    3.570501   -3.135870
  H      5.254652    4.197390   -4.706956
  H      3.824530    0.449113   -4.350926
  H      4.343373    1.249318   -6.416646
  H      4.676712    2.956624   -6.574113
  O      4.128856   -0.329647   -6.953717
  O      1.781285   -1.000779   -7.136399
  C      5.942129    0.939500   -2.036893
  H      3.864305    0.328532   -2.136611
  H      4.076233    2.049994   -1.989010
  C      6.462677   -3.117775   -3.944671
  C      5.024977   -3.025679   -4.437625
  H      4.423321   -3.818693   -3.977648
  H      4.579350   -2.087131   -4.108727
  H      5.201533   -4.100207   -6.296905
  H      5.605922   -2.397822   -6.413368
  C      6.559957   -0.356290   -2.559086
  H      5.967976    0.952567   -0.942444
  H      6.547184    1.788331   -2.368849
  C      6.006283   -1.615917   -1.899301
  H      7.642360   -0.318000   -2.402059
  H      6.414855   -0.403433   -3.642587
  C      6.608718   -2.917014   -2.435655
  H      6.190324   -1.561115   -0.820948
  H      4.919250   -1.651245   -2.016586
  H      7.066975   -2.374258   -4.475514
  H      6.887808   -4.089747   -4.215332
  H      6.135197   -3.755573   -1.915159
  H      7.671142   -2.955503   -2.172291
  F      2.851546   -0.783683   -4.956789

 Total Charge           Charge          ....    0
 Multiplicity           Mult            ....    1
 Number of Electrons    NEL             ....  144
 Basis Dimension        Dim             ....  854

ORBITAL ENERGIES
----------------

  NO   OCC          E(Eh)            E(eV)
   0   2.0000     -89.123107     -2425.1630
   1   2.0000     -24.818567      -675.3475
   2   2.0000     -19.163810      -521.4738
   3   2.0000     -19.159897      -521.3673
   4   2.0000     -14.302889      -389.2014
   5   2.0000     -14.281255      -388.6127
   6   2.0000     -10.246661      -278.8258
   7   2.0000     -10.206080      -277.7216
   8   2.0000     -10.196970      -277.4737
   9   2.0000     -10.192998      -277.3656
  10   2.0000     -10.189026      -277.2575
  11   2.0000     -10.177099      -276.9329
  12   2.0000     -10.170624      -276.7567
  13   2.0000     -10.164835      -276.5992
  14   2.0000     -10.157199      -276.3914
  15   2.0000     -10.152441      -276.2620
  16   2.0000     -10.063543      -273.8429
  17   2.0000      -8.167645      -222.2529
  18   2.0000      -6.134688      -166.9333
  19   2.0000      -6.127987      -166.7510
  20   2.0000      -6.127460      -166.7367
  21   2.0000      -1.393934       -37.9309
  22   2.0000      -1.137409       -30.9505
  23   2.0000      -1.045160       -28.4403
  24   2.0000      -0.954121       -25.9630
  25   2.0000      -0.868556       -23.6346
  26   2.0000      -0.856006       -23.2931
  27   2.0000      -0.818431       -22.2707
  28   2.0000      -0.786497       -21.4017
  29   2.0000      -0.756418       -20.5832
  30   2.0000      -0.734268       -19.9804
  31   2.0000      -0.700960       -19.0741
  32   2.0000      -0.688175       -18.7262
  33   2.0000      -0.662590       -18.0300
  34   2.0000      -0.638883       -17.3849
  35   2.0000      -0.614786       -16.7292
  36   2.0000      -0.604521       -16.4499
  37   2.0000      -0.596446       -16.2301
  38   2.0000      -0.580769       -15.8035
  39   2.0000      -0.565195       -15.3797
  40   2.0000      -0.538108       -14.6427
  41   2.0000      -0.526137       -14.3169
  42   2.0000      -0.514285       -13.9944
  43   2.0000      -0.508685       -13.8420
  44   2.0000      -0.494316       -13.4510
  45   2.0000      -0.490193       -13.3388
  46   2.0000      -0.476037       -12.9536
  47   2.0000      -0.471759       -12.8372
  48   2.0000      -0.455056       -12.3827
  49   2.0000      -0.450491       -12.2585
  50   2.0000      -0.438516       -11.9326
  51   2.0000      -0.437161       -11.8958
  52   2.0000      -0.419123       -11.4049
  53   2.0000      -0.411749       -11.2043
  54   2.0000      -0.398435       -10.8420
  55   2.0000      -0.393527       -10.7084
  56   2.0000      -0.386332       -10.5126
  57   2.0000      -0.377771       -10.2797
  58   2.0000      -0.371477       -10.1084
  59   2.0000      -0.365386        -9.9427
  60   2.0000      -0.361021        -9.8239
  61   2.0000      -0.357863        -9.7379
  62   2.0000      -0.352184        -9.5834
  63   2.0000      -0.345772        -9.4089
  64   2.0000      -0.344797        -9.3824
  65   2.0000      -0.338692        -9.2163
  66   2.0000      -0.335762        -9.1366
  67   2.0000      -0.320457        -8.7201
  68   2.0000      -0.319426        -8.6920
  69   2.0000      -0.310488        -8.4488
  70   2.0000      -0.231871        -6.3095
  71   2.0000      -0.147664        -4.0181
  72   0.0000      -0.024310        -0.6615
  73   0.0000      -0.003273        -0.0891
  74   0.0000       0.000231         0.0063
  75   0.0000       0.007869         0.2141
  76   0.0000       0.019217         0.5229

MULLIKEN ATOMIC CHARGES
-----------------------
   0 C :   -0.888118
   1 N :   -0.202612
   2 C :   -0.500700
   3 C :   -0.705391
   4 H :    0.305379
   5 H :    0.312604
   6 S :    1.338395
   7 C :    0.877217
   8 N :   -0.238974
   9 C :   -1.423054
  10 H :    0.262422
  11 H :    0.316310
  12 H :    0.341852
  13 H :    0.260402
  14 H :    0.114036
  15 O :   -0.801566
  16 O :   -0.583690
  17 C :   -0.542082
  18 H :    0.343408
  19 H :    0.285914
  20 C :   -0.504062
  21 C :   -0.251235
  22 H :    0.283301
  23 H :    0.131871
  24 H :    0.269238
  25 H :    0.264718
  26 C :   -0.259419
  27 H :    0.289823
  28 H :    0.368983
  29 C :   -0.418194
  30 H :    0.231621
  31 H :    0.122932
  32 C :   -0.694305
  33 H :    0.264691
  34 H :    0.227573
  35 H :    0.307814
  36 H :    0.272461
  37 H :    0.249454
  38 H :    0.254088
  39 F :   -0.283106
Sum of atomic charges:   -0.0000000

LOEWDIN ATOMIC CHARGES
----------------------
   0 C :   -0.183406
   1 N :    0.032077
   2 C :   -0.217573
   3 C :   -0.215472
   4 H :    0.111590
   5 H :    0.115968
   6 S :    0.651078
   7 C :   -0.547008
   8 N :    0.131417
   9 C :    0.007821
  10 H :   -0.007310
  11 H :   -0.000234
  12 H :    0.079557
  13 H :    0.024685
  14 H :    0.113720
  15 O :   -0.280720
  16 O :   -0.241503
  17 C :   -0.182127
  18 H :    0.108835
  19 H :    0.112871
  20 C :   -0.208509
  21 C :   -0.215649
  22 H :    0.128255
  23 H :    0.082934
  24 H :    0.123210
  25 H :    0.115448
  26 C :   -0.206625
  27 H :    0.110469
  28 H :    0.102482
  29 C :   -0.217096
  30 H :    0.116344
  31 H :    0.101113
  32 C :   -0.205179
  33 H :    0.113916
  34 H :    0.094723
  35 H :    0.110322
  36 H :    0.114127
  37 H :    0.107251
  38 H :    0.109827
  39 F :   -0.091630

  Mayer bond orders larger than 0.100000
B(  0-C ,  1-N ) :   1.0222 B(  0-C ,  9-C ) :   0.1230 B(  0-C , 12-H ) :  -0.2165
B(  0-C , 17-C ) :   0.7871 B(  0-C , 18-H ) :   0.7192 B(  0-C , 19-H ) :   0.8675
B(  0-C , 29-C ) :   0.1476 B(  1-N ,  7-C ) :   1.0388 B(  1-N , 12-H ) :   0.8655
B(  1-N , 17-C ) :   0.1657 B(  2-C ,  3-C ) :   0.9126 B(  2-C , 20-C ) :   0.4213
B(  2-C , 21-C ) :   0.3713 B(  2-C , 22-H ) :  -0.1296 B(  2-C , 24-H ) :   0.9648
B(  2-C , 25-H ) :   0.9311 B(  3-C ,  4-H ) :   0.9073 B(  3-C ,  5-H ) :   0.9260
B(  3-C ,  6-S ) :   0.9018 B(  3-C , 16-O ) :   0.1518 B(  3-C , 21-C ) :   0.2157
B(  6-S , 15-O ) :   1.4343 B(  6-S , 16-O ) :   1.4416 B(  6-S , 21-C ) :   0.1086
B(  6-S , 39-F ) :   1.0571 B(  7-C ,  8-N ) :   0.9277 B(  7-C ,  9-C ) :   0.9405
B(  7-C , 11-H ) :  -0.1018 B(  7-C , 12-H ) :  -0.2011 B(  8-N , 13-H ) :   0.8828
B(  8-N , 14-H ) :   1.0344 B(  9-C , 10-H ) :   1.0534 B(  9-C , 11-H ) :   1.0148
B( 17-C , 26-C ) :   1.0080 B( 17-C , 27-H ) :   0.9242 B( 17-C , 28-H ) :   0.8992
B( 17-C , 29-C ) :   0.1867 B( 20-C , 21-C ) :   0.4757 B( 20-C , 26-C ) :   0.1154
B( 20-C , 32-C ) :   0.9483 B( 20-C , 35-H ) :   0.9242 B( 20-C , 36-H ) :   0.9132
B( 21-C , 22-H ) :   0.8252 B( 21-C , 23-H ) :   1.4345 B( 21-C , 29-C ) :   0.1097
B( 21-C , 32-C ) :   0.1732 B( 21-C , 39-F ) :   0.1138 B( 22-H , 23-H ) :   0.1293
B( 23-H , 39-F ) :  -0.1252 B( 26-C , 29-C ) :   0.2225 B( 26-C , 30-H ) :   0.9266
B( 26-C , 31-H ) :   1.1126 B( 26-C , 32-C ) :   0.1668 B( 26-C , 34-H ) :  -0.1352
B( 29-C , 31-H ) :  -0.1064 B( 29-C , 32-C ) :   0.9210 B( 29-C , 33-H ) :   0.9304
B( 29-C , 34-H ) :   1.0453 B( 32-C , 37-H ) :   0.9547 B( 32-C , 38-H ) :   0.9680

Dispersion correction           -0.078916921
FINAL SINGLE POINT ENERGY     -1190.832612003140

DIPOLE MOMENT
-------------
                                X             Y             Z
Electronic contribution:    -18.95520       1.85734     -17.84107
Nuclear contribution   :     18.85717      -4.60195      17.96505
                        -----------------------------------------
Total Dipole Moment    :     -0.09803      -2.74461       0.12398
                        -----------------------------------------
Magnitude (a.u.)       :      2.74916
Magnitude (Debye)      :      6.98780

Rotational constants in cm-1:     0.014436     0.012382     0.007563
Rotational constants in MHz :   432.785702   371.214592   226.743759

                             ****ORCA TERMINATED NORMALLY****
TOTAL RUN TIME: 0 days 0 hours 12 minutes 27 seconds 934 msec
