                         Program Version 5.0.0 -  RELEASE  -
|  1> !LC-BLYP RIJCOSX def2-SVP def2/J TightSCF
|  2> *xyz -1 1
|  3> C          3.80351        1.37472       -3.26081
|  4> C          3.93993        0.32036       -4.36773
|  5> H          4.10504       -0.65508       -3.90773
|  6> H          3.02280        0.28052       -4.95712
|  7> C          5.10585        0.66802       -5.30546
|  8> O          4.80913        1.15019       -6.41436
|  9> O          6.26737        0.56500       -4.81948
| 10> H          3.64113        2.33595       -3.70189
| 11> H          4.69995        1.39701       -2.67703
| 12> H          2.97435        1.12625       -2.63180
| 13> *
| 14>
| 15> %MaxCore 64000
| 16>
| 17> %pal nprocs 4
| 18> end
| 19>
| 20> %scf
| 21>   MaxIter 150
| 22> end
| 23>
| 24>
| 25>                          ****END OF INPUT****

CARTESIAN COORDINATES (ANGSTROEM)
---------------------------------
  C      3.803510    1.374720   -3.260810
  C      3.939930    0.320360   -4.367730
  H      4.105040   -0.655080   -3.907730
  H      3.022800    0.280520   -4.957120
  C      5.105850    0.668020   -5.305460
  O      4.809130    1.150190   -6.414360
  O      6.267370    0.565000   -4.819480
  H      3.641130    2.335950   -3.701890
  H      4.699950    1.397010   -2.677030
  H      2.974350    1.126250   -2.631800

 Total Charge           Charge          ....   -1
 Multiplicity           Mult            ....    1
 Number of Electrons    NEL             ....   40
 Basis Dimension        Dim             ....   95

ORBITAL ENERGIES
----------------

  NO   OCC          E(Eh)            E(eV)
   0   2.0000     -18.647127      -507.4141
   1   2.0000     -18.643306      -507.3101
   2   2.0000      -9.934309      -270.3263
   3   2.0000      -9.913587      -269.7624
   4   2.0000      -9.890018      -269.1211
   5   2.0000      -0.864161       -23.5150
   6   2.0000      -0.768526       -20.9127
   7   2.0000      -0.692751       -18.8507
   8   2.0000      -0.557460       -15.1693
   9   2.0000      -0.404040       -10.9945
  10   2.0000      -0.382578       -10.4105
  11   2.0000      -0.335417        -9.1272
  12   2.0000      -0.310556        -8.4507
  13   2.0000      -0.290455        -7.9037
  14   2.0000      -0.281319        -7.6551
  15   2.0000      -0.245523        -6.6810
  16   2.0000      -0.239603        -6.5199
  17   2.0000      -0.105609        -2.8738
  18   2.0000      -0.100597        -2.7374
  19   2.0000      -0.087100        -2.3701
  20   0.0000       0.289722         7.8837
  21   0.0000       0.341585         9.2950
  22   0.0000       0.356057         9.6888
  23   0.0000       0.357435         9.7263
  24   0.0000       0.377460        10.2712

MULLIKEN ATOMIC CHARGES
-----------------------
   0 C :    0.020094
   1 C :    0.049712
   2 H :   -0.060066
   3 H :   -0.067314
   4 C :   -0.114300
   5 O :   -0.355600
   6 O :   -0.389568
   7 H :   -0.017352
   8 H :   -0.012641
   9 H :   -0.052965
Sum of atomic charges:   -1.0000000

LOEWDIN ATOMIC CHARGES
----------------------
   0 C :   -0.071538
   1 C :   -0.097644
   2 H :   -0.000451
   3 H :   -0.004023
   4 C :   -0.090326
   5 O :   -0.365461
   6 O :   -0.393895
   7 H :    0.013850
   8 H :    0.013500
   9 H :   -0.004012

  Mayer bond orders larger than 0.100000
B(  0-C ,  1-C ) :   1.1101 B(  0-C ,  7-H ) :   0.9678 B(  0-C ,  8-H ) :   0.9619
B(  0-C ,  9-H ) :   0.9659 B(  1-C ,  2-H ) :   0.9284 B(  1-C ,  3-H ) :   0.9286
B(  1-C ,  4-C ) :   0.9185 B(  4-C ,  5-O ) :   1.9383 B(  4-C ,  6-O ) :   1.8842
B(  5-O ,  6-O ) :   0.1236

FINAL SINGLE POINT ENERGY      -267.005711636221

DIPOLE MOMENT
-------------
                                X             Y             Z
Electronic contribution:      3.89045      -0.43773      -4.62907
Nuclear contribution   :     -5.15232       0.33441       5.87398
                        -----------------------------------------
Total Dipole Moment    :     -1.26188      -0.10332       1.24491
                        -----------------------------------------
Magnitude (a.u.)       :      1.77561
Magnitude (Debye)      :      4.51325

Rotational constants in cm-1:     0.295355     0.137164     0.110193
Rotational constants in MHz :  8854.523706  4112.077980  3303.490503

                             ****ORCA TERMINATED NORMALLY****
TOTAL RUN TIME: 0 days 0 hours 0 minutes 11 seconds 943 msec
