                         Program Version 5.0.0 -  RELEASE  -
|  1> !LC-BLYP RIJCOSX def2-SVP def2/J TightSCF
|  2> *xyz 1 1
|  3> C          3.90595        2.81985       -3.75292
|  4> N          5.29562        3.13151       -4.10533
|  5> C          3.80351        1.37472       -3.26081
|  6> C          5.70862        3.46889       -5.32419
|  7> N          6.90470        3.03895       -5.71708
|  8> N          4.98188        4.29357       -6.09746
|  9> H          5.00055        4.10131       -7.08776
| 10> H          4.08469        4.59690       -5.73965
| 11> H          5.96336        2.52611       -3.64239
| 12> H          7.04716        2.06686       -5.47360
| 13> H          7.19815        3.30799       -6.64523
| 14> H          3.28202        2.94919       -4.64026
| 15> H          3.56525        3.51457       -2.98252
| 16> H          4.14157        0.71142       -4.02935
| 17> H          2.78528        1.15146       -3.01944
| 18> H          4.41205        1.25066       -2.38949
| 19> *
| 20>
| 21> %MaxCore 64000
| 22>
| 23> %pal nprocs 4
| 24> end
| 25>
| 26> %scf
| 27>   MaxIter 150
| 28> end
| 29>
| 30>
| 31>                          ****END OF INPUT****

CARTESIAN COORDINATES (ANGSTROEM)
---------------------------------
  C      3.905950    2.819850   -3.752920
  N      5.295620    3.131510   -4.105330
  C      3.803510    1.374720   -3.260810
  C      5.708620    3.468890   -5.324190
  N      6.904700    3.038950   -5.717080
  N      4.981880    4.293570   -6.097460
  H      5.000550    4.101310   -7.087760
  H      4.084690    4.596900   -5.739650
  H      5.963360    2.526110   -3.642390
  H      7.047160    2.066860   -5.473600
  H      7.198150    3.307990   -6.645230
  H      3.282020    2.949190   -4.640260
  H      3.565250    3.514570   -2.982520
  H      4.141570    0.711420   -4.029350
  H      2.785280    1.151460   -3.019440
  H      4.412050    1.250660   -2.389490

 Total Charge           Charge          ....    1
 Multiplicity           Mult            ....    1
 Number of Electrons    NEL             ....   48
 Basis Dimension        Dim             ....  134

ORBITAL ENERGIES
----------------

  NO   OCC          E(Eh)            E(eV)
   0   2.0000     -14.412514      -392.1844
   1   2.0000     -14.411205      -392.1488
   2   2.0000     -14.410111      -392.1190
   3   2.0000     -10.421956      -283.5959
   4   2.0000     -10.293272      -280.0942
   5   2.0000     -10.228511      -278.3319
   6   2.0000      -1.313584       -35.7444
   7   2.0000      -1.200708       -32.6729
   8   2.0000      -1.191160       -32.4131
   9   2.0000      -1.035897       -28.1882
  10   2.0000      -0.933726       -25.4080
  11   2.0000      -0.911438       -24.8015
  12   2.0000      -0.880972       -23.9725
  13   2.0000      -0.846875       -23.0446
  14   2.0000      -0.804680       -21.8965
  15   2.0000      -0.788276       -21.4501
  16   2.0000      -0.755063       -20.5463
  17   2.0000      -0.728635       -19.8272
  18   2.0000      -0.699442       -19.0328
  19   2.0000      -0.659832       -17.9549
  20   2.0000      -0.634335       -17.2611
  21   2.0000      -0.618191       -16.8218
  22   2.0000      -0.584743       -15.9117
  23   2.0000      -0.552643       -15.0382
  24   0.0000      -0.101818        -2.7706
  25   0.0000      -0.066723        -1.8156
  26   0.0000      -0.032111        -0.8738
  27   0.0000      -0.016164        -0.4398
  28   0.0000       0.004359         0.1186

MULLIKEN ATOMIC CHARGES
-----------------------
   0 C :    0.017914
   1 N :   -0.035367
   2 C :   -0.034288
   3 C :   -0.126942
   4 N :    0.029014
   5 N :    0.021230
   6 H :    0.174452
   7 H :    0.170702
   8 H :    0.152023
   9 H :    0.174901
  10 H :    0.166754
  11 H :    0.042539
  12 H :    0.083199
  13 H :    0.031753
  14 H :    0.074845
  15 H :    0.057272
Sum of atomic charges:    1.0000000

LOEWDIN ATOMIC CHARGES
----------------------
   0 C :    0.028437
   1 N :    0.041731
   2 C :   -0.058396
   3 C :    0.122933
   4 N :    0.051972
   5 N :    0.051662
   6 H :    0.111277
   7 H :    0.110576
   8 H :    0.103570
   9 H :    0.111340
  10 H :    0.111657
  11 H :    0.032612
  12 H :    0.048937
  13 H :    0.032216
  14 H :    0.057987
  15 H :    0.041487

  Mayer bond orders larger than 0.100000
B(  0-C ,  1-N ) :   0.9422 B(  0-C ,  2-C ) :   1.1116 B(  0-C , 11-H ) :   0.9476
B(  0-C , 12-H ) :   0.9459 B(  1-N ,  3-C ) :   1.4146 B(  1-N ,  8-H ) :   0.9085
B(  2-C , 13-H ) :   0.9709 B(  2-C , 14-H ) :   0.9575 B(  2-C , 15-H ) :   0.9662
B(  3-C ,  4-N ) :   1.3904 B(  3-C ,  5-N ) :   1.3968 B(  4-N ,  9-H ) :   0.9270
B(  4-N , 10-H ) :   0.9258 B(  5-N ,  6-H ) :   0.9257 B(  5-N ,  7-H ) :   0.9208

FINAL SINGLE POINT ENERGY      -283.442809035063

DIPOLE MOMENT
-------------
                                X             Y             Z
Electronic contribution:      3.56055       3.40296      -2.74306
Nuclear contribution   :     -3.31456      -3.64300       1.57303
                        -----------------------------------------
Total Dipole Moment    :      0.24599      -0.24004      -1.17003
                        -----------------------------------------
Magnitude (a.u.)       :      1.21946
Magnitude (Debye)      :      3.09963

Rotational constants in cm-1:     0.229487     0.071000     0.059428
Rotational constants in MHz :  6879.840828  2128.520047  1781.605314

                             ****ORCA TERMINATED NORMALLY****
TOTAL RUN TIME: 0 days 0 hours 0 minutes 18 seconds 777 msec
