                         Program Version 5.0.0 -  RELEASE  -
|  1> !LC-BLYP RIJCOSX def2-SVP def2/J TightSCF
|  2> *xyz 0 1
|  3> C          3.80351        1.37472       -3.26081
|  4> C          3.93993        0.32036       -4.36773
|  5> H          4.10504       -0.65508       -3.90773
|  6> H          3.02280        0.28052       -4.95712
|  7> C          5.10585        0.66802       -5.30546
|  8> F          4.80913        1.15019       -6.41436
|  9> O          6.26737        0.56500       -4.81948
| 10> H          3.64113        2.33595       -3.70189
| 11> H          4.69995        1.39701       -2.67703
| 12> H          2.97435        1.12625       -2.63180
| 13> *
| 14>
| 15> %MaxCore 64000
| 16>
| 17> %pal nprocs 4
| 18> end
| 19>
| 20> %scf
| 21>   MaxIter 150
| 22> end
| 23>
| 24>
| 25>                          ****END OF INPUT****

CARTESIAN COORDINATES (ANGSTROEM)
---------------------------------
  C      3.803510    1.374720   -3.260810
  C      3.939930    0.320360   -4.367730
  H      4.105040   -0.655080   -3.907730
  H      3.022800    0.280520   -4.957120
  C      5.105850    0.668020   -5.305460
  F      4.809130    1.150190   -6.414360
  O      6.267370    0.565000   -4.819480
  H      3.641130    2.335950   -3.701890
  H      4.699950    1.397010   -2.677030
  H      2.974350    1.126250   -2.631800

 Total Charge           Charge          ....    0
 Multiplicity           Mult            ....    1
 Number of Electrons    NEL             ....   40
 Basis Dimension        Dim             ....   95

ORBITAL ENERGIES
----------------

  NO   OCC          E(Eh)            E(eV)
   0   2.0000     -24.530172      -667.4999
   1   2.0000     -18.947253      -515.5810
   2   2.0000     -10.254954      -279.0515
   3   2.0000     -10.110394      -275.1178
   4   2.0000     -10.089941      -274.5613
   5   2.0000      -1.379165       -37.5290
   6   2.0000      -1.099940       -29.9309
   7   2.0000      -0.898981       -24.4625
   8   2.0000      -0.781745       -21.2724
   9   2.0000      -0.734781       -19.9944
  10   2.0000      -0.651213       -17.7204
  11   2.0000      -0.633088       -17.2272
  12   2.0000      -0.598688       -16.2911
  13   2.0000      -0.563761       -15.3407
  14   2.0000      -0.528503       -14.3813
  15   2.0000      -0.495015       -13.4700
  16   2.0000      -0.471729       -12.8364
  17   2.0000      -0.466442       -12.6925
  18   2.0000      -0.437587       -11.9074
  19   2.0000      -0.378404       -10.2969
  20   0.0000       0.066120         1.7992
  21   0.0000       0.132656         3.6098
  22   0.0000       0.179566         4.8862
  23   0.0000       0.184270         5.0143
  24   0.0000       0.206151         5.6096

MULLIKEN ATOMIC CHARGES
-----------------------
   0 C :   -0.001772
   1 C :   -0.037885
   2 H :    0.050959
   3 H :    0.016439
   4 C :    0.106229
   5 F :   -0.011493
   6 O :   -0.207349
   7 H :    0.019206
   8 H :    0.039612
   9 H :    0.026053
Sum of atomic charges:   -0.0000000

LOEWDIN ATOMIC CHARGES
----------------------
   0 C :   -0.051172
   1 C :   -0.078308
   2 H :    0.049790
   3 H :    0.029447
   4 C :    0.063386
   5 F :    0.076450
   6 O :   -0.184836
   7 H :    0.028502
   8 H :    0.034622
   9 H :    0.032118

  Mayer bond orders larger than 0.100000
B(  0-C ,  1-C ) :   1.0972 B(  0-C ,  7-H ) :   0.9738 B(  0-C ,  8-H ) :   0.9703
B(  0-C ,  9-H ) :   0.9696 B(  1-C ,  2-H ) :   0.9379 B(  1-C ,  3-H ) :   0.9355
B(  1-C ,  4-C ) :   0.9940 B(  4-C ,  5-F ) :   1.2731 B(  4-C ,  6-O ) :   2.1227

FINAL SINGLE POINT ENERGY      -291.546630798707

DIPOLE MOMENT
-------------
                                X             Y             Z
Electronic contribution:      4.09409      -0.00300      -7.48568
Nuclear contribution   :     -5.17129      -0.01923       7.59895
                        -----------------------------------------
Total Dipole Moment    :     -1.07720      -0.02224       0.11327
                        -----------------------------------------
Magnitude (a.u.)       :      1.08337
Magnitude (Debye)      :      2.75371

Rotational constants in cm-1:     0.282073     0.131822     0.105134
Rotational constants in MHz :  8456.328792  3951.925810  3151.840112

                             ****ORCA TERMINATED NORMALLY****
TOTAL RUN TIME: 0 days 0 hours 0 minutes 12 seconds 199 msec
