                         Program Version 5.0.0 -  RELEASE  -
|  1> !LC-BLYP RIJCOSX def2-SVP def2/J TightSCF
|  2> *xyz 0 1
|  3> C          3.90595        2.81985       -3.75292
|  4> C          5.29562        3.13151       -4.10533
|  5> C          3.80351        1.37472       -3.26081
|  6> C          5.70862        3.46889       -5.32419
|  7> N          6.90470        3.03895       -5.71708
|  8> N          4.98188        4.29357       -6.09746
|  9> H          5.00055        4.10131       -7.08776
| 10> H          4.08469        4.59690       -5.73965
| 11> H          5.96336        2.52611       -3.64239
| 12> H          7.04716        2.06686       -5.47360
| 13> H          7.19815        3.30799       -6.64523
| 14> H          3.28202        2.94919       -4.64026
| 15> H          3.56525        3.51457       -2.98252
| 16> H          4.14157        0.71142       -4.02935
| 17> H          2.78528        1.15146       -3.01944
| 18> H          4.41205        1.25066       -2.38949
| 19> *
| 20>
| 21> %MaxCore 64000
| 22>
| 23> %pal nprocs 4
| 24> end
| 25>
| 26> %scf
| 27>   MaxIter 150
| 28> end
| 29>
| 30>
| 31>                          ****END OF INPUT****

CARTESIAN COORDINATES (ANGSTROEM)
---------------------------------
  C      3.905950    2.819850   -3.752920
  C      5.295620    3.131510   -4.105330
  C      3.803510    1.374720   -3.260810
  C      5.708620    3.468890   -5.324190
  N      6.904700    3.038950   -5.717080
  N      4.981880    4.293570   -6.097460
  H      5.000550    4.101310   -7.087760
  H      4.084690    4.596900   -5.739650
  H      5.963360    2.526110   -3.642390
  H      7.047160    2.066860   -5.473600
  H      7.198150    3.307990   -6.645230
  H      3.282020    2.949190   -4.640260
  H      3.565250    3.514570   -2.982520
  H      4.141570    0.711420   -4.029350
  H      2.785280    1.151460   -3.019440
  H      4.412050    1.250660   -2.389490

 Total Charge           Charge          ....    0
 Multiplicity           Mult            ....    1
 Number of Electrons    NEL             ....   48
 Basis Dimension        Dim             ....  134

ORBITAL ENERGIES
----------------

  NO   OCC          E(Eh)            E(eV)
   0   2.0000     -14.182302      -385.9201
   1   2.0000     -14.177857      -385.7991
   2   2.0000     -10.120999      -275.4064
   3   2.0000     -10.056964      -273.6639
   4   2.0000     -10.052472      -273.5417
   5   2.0000     -10.000905      -272.1385
   6   2.0000      -1.049774       -28.5658
   7   2.0000      -0.960092       -26.1254
   8   2.0000      -0.872600       -23.7447
   9   2.0000      -0.789087       -21.4722
  10   2.0000      -0.708477       -19.2786
  11   2.0000      -0.672746       -18.3063
  12   2.0000      -0.631846       -17.1934
  13   2.0000      -0.605682       -16.4814
  14   2.0000      -0.571626       -15.5547
  15   2.0000      -0.545058       -14.8318
  16   2.0000      -0.517842       -14.0912
  17   2.0000      -0.484550       -13.1853
  18   2.0000      -0.464817       -12.6483
  19   2.0000      -0.444656       -12.0997
  20   2.0000      -0.418102       -11.3771
  21   2.0000      -0.414506       -11.2793
  22   2.0000      -0.362704        -9.8697
  23   2.0000      -0.251524        -6.8443
  24   0.0000       0.113770         3.0958
  25   0.0000       0.149166         4.0590
  26   0.0000       0.155629         4.2349
  27   0.0000       0.167663         4.5623
  28   0.0000       0.182353         4.9621

MULLIKEN ATOMIC CHARGES
-----------------------
   0 C :    0.036799
   1 C :   -0.063367
   2 C :    0.010138
   3 C :   -0.213870
   4 N :   -0.020764
   5 N :   -0.013998
   6 H :    0.094433
   7 H :    0.113018
   8 H :   -0.109351
   9 H :    0.126955
  10 H :    0.088004
  11 H :   -0.038252
  12 H :   -0.009209
  13 H :   -0.006915
  14 H :   -0.003956
  15 H :    0.010335
Sum of atomic charges:   -0.0000000

LOEWDIN ATOMIC CHARGES
----------------------
   0 C :   -0.048272
   1 C :   -0.211137
   2 C :   -0.062457
   3 C :    0.001634
   4 N :   -0.016100
   5 N :   -0.021583
   6 H :    0.060464
   7 H :    0.079266
   8 H :   -0.009321
   9 H :    0.081234
  10 H :    0.062430
  11 H :    0.006451
  12 H :    0.016615
  13 H :    0.017573
  14 H :    0.019674
  15 H :    0.023528

  Mayer bond orders larger than 0.100000
B(  0-C ,  1-C ) :   1.0614 B(  0-C ,  2-C ) :   1.1020 B(  0-C , 11-H ) :   0.9403
B(  0-C , 12-H ) :   0.9263 B(  1-C ,  3-C ) :   1.7464 B(  1-C ,  8-H ) :   0.9081
B(  2-C , 13-H ) :   0.9705 B(  2-C , 14-H ) :   0.9634 B(  2-C , 15-H ) :   0.9722
B(  3-C ,  4-N ) :   1.2137 B(  3-C ,  5-N ) :   1.2465 B(  4-N ,  9-H ) :   0.9493
B(  4-N , 10-H ) :   0.9530 B(  5-N ,  6-H ) :   0.9423 B(  5-N ,  7-H ) :   0.9432

FINAL SINGLE POINT ENERGY      -266.975263919500

DIPOLE MOMENT
-------------
                                X             Y             Z
Electronic contribution:      3.22775       3.29915      -2.97756
Nuclear contribution   :     -3.27358      -3.61654       1.70633
                        -----------------------------------------
Total Dipole Moment    :     -0.04582      -0.31739      -1.27123
                        -----------------------------------------
Magnitude (a.u.)       :      1.31106
Magnitude (Debye)      :      3.33244

Rotational constants in cm-1:     0.231961     0.071249     0.059473
Rotational constants in MHz :  6954.024434  2135.976855  1782.962814

                             ****ORCA TERMINATED NORMALLY****
TOTAL RUN TIME: 0 days 0 hours 0 minutes 20 seconds 592 msec
