                         Program Version 5.0.0 -  RELEASE  -
|  1> !LC-BLYP RIJCOSX def2-SVP def2/J TightSCF
|  2> *xyz 0 1
|  3> C          3.80351        1.37472       -3.26081
|  4> C          3.93993        0.32036       -4.36773
|  5> H          4.10504       -0.65508       -3.90773
|  6> H          3.02280        0.28052       -4.95712
|  7> C          5.10585        0.66802       -5.30546
|  8> O          4.80913        1.15019       -6.41436
|  9> F          6.26737        0.56500       -4.81948
| 10> H          3.64113        2.33595       -3.70189
| 11> H          4.69995        1.39701       -2.67703
| 12> H          2.97435        1.12625       -2.63180
| 13> *
| 14>
| 15> %MaxCore 64000
| 16>
| 17> %pal nprocs 4
| 18> end
| 19>
| 20> %scf
| 21>   MaxIter 150
| 22> end
| 23>
| 24>
| 25>                          ****END OF INPUT****

CARTESIAN COORDINATES (ANGSTROEM)
---------------------------------
  C      3.803510    1.374720   -3.260810
  C      3.939930    0.320360   -4.367730
  H      4.105040   -0.655080   -3.907730
  H      3.022800    0.280520   -4.957120
  C      5.105850    0.668020   -5.305460
  O      4.809130    1.150190   -6.414360
  F      6.267370    0.565000   -4.819480
  H      3.641130    2.335950   -3.701890
  H      4.699950    1.397010   -2.677030
  H      2.974350    1.126250   -2.631800

 Total Charge           Charge          ....    0
 Multiplicity           Mult            ....    1
 Number of Electrons    NEL             ....   40
 Basis Dimension        Dim             ....   95

ORBITAL ENERGIES
----------------

  NO   OCC          E(Eh)            E(eV)
   0   2.0000     -24.523689      -667.3235
   1   2.0000     -18.950059      -515.6573
   2   2.0000     -10.253189      -279.0035
   3   2.0000     -10.109704      -275.0990
   4   2.0000     -10.092743      -274.6375
   5   2.0000      -1.365757       -37.1641
   6   2.0000      -1.110359       -30.2144
   7   2.0000      -0.901064       -24.5192
   8   2.0000      -0.777216       -21.1491
   9   2.0000      -0.732072       -19.9207
  10   2.0000      -0.646253       -17.5854
  11   2.0000      -0.629298       -17.1241
  12   2.0000      -0.595259       -16.1978
  13   2.0000      -0.562320       -15.3015
  14   2.0000      -0.530150       -14.4261
  15   2.0000      -0.498140       -13.5551
  16   2.0000      -0.477273       -12.9873
  17   2.0000      -0.467151       -12.7118
  18   2.0000      -0.446188       -12.1414
  19   2.0000      -0.379165       -10.3176
  20   0.0000       0.070837         1.9276
  21   0.0000       0.130234         3.5438
  22   0.0000       0.177728         4.8362
  23   0.0000       0.185633         5.0513
  24   0.0000       0.209633         5.7044

MULLIKEN ATOMIC CHARGES
-----------------------
   0 C :   -0.016133
   1 C :   -0.032908
   2 H :    0.029373
   3 H :    0.043789
   4 C :    0.106782
   5 O :   -0.180128
   6 F :   -0.038398
   7 H :    0.032996
   8 H :    0.024343
   9 H :    0.030284
Sum of atomic charges:   -0.0000000

LOEWDIN ATOMIC CHARGES
----------------------
   0 C :   -0.056279
   1 C :   -0.076065
   2 H :    0.036733
   3 H :    0.045845
   4 C :    0.065363
   5 O :   -0.162470
   6 F :    0.052342
   7 H :    0.032505
   8 H :    0.028034
   9 H :    0.033993

  Mayer bond orders larger than 0.100000
B(  0-C ,  1-C ) :   1.0875 B(  0-C ,  7-H ) :   0.9730 B(  0-C ,  8-H ) :   0.9733
B(  0-C ,  9-H ) :   0.9693 B(  1-C ,  2-H ) :   0.9325 B(  1-C ,  3-H ) :   0.9465
B(  1-C ,  4-C ) :   1.0009 B(  4-C ,  5-O ) :   2.1631 B(  4-C ,  6-F ) :   1.2384

FINAL SINGLE POINT ENERGY      -291.551808312903

DIPOLE MOMENT
-------------
                                X             Y             Z
Electronic contribution:      6.47587      -0.96020      -4.86034
Nuclear contribution   :     -6.76123       0.61881       5.86003
                        -----------------------------------------
Total Dipole Moment    :     -0.28536      -0.34140       0.99969
                        -----------------------------------------
Magnitude (a.u.)       :      1.09424
Magnitude (Debye)      :      2.78133

Rotational constants in cm-1:     0.275298     0.134631     0.105723
Rotational constants in MHz :  8253.224169  4036.137572  3169.487264

                             ****ORCA TERMINATED NORMALLY****
TOTAL RUN TIME: 0 days 0 hours 0 minutes 12 seconds 255 msec
