                         Program Version 5.0.0 -  RELEASE  -
|  1> !LC-BLYP RIJCOSX def2-SVP def2/J TightSCF
|  2> *xyz 0 1
|  3> C          3.90595        2.81985       -3.75292
|  4> N          5.29562        3.13151       -4.10533
|  5> C          3.80351        1.37472       -3.26081
|  6> C          5.70862        3.46889       -5.32419
|  7> C          6.90470        3.03895       -5.71708
|  8> N          4.98188        4.29357       -6.09746
|  9> H          5.00055        4.10131       -7.08776
| 10> H          4.08469        4.59690       -5.73965
| 11> H          5.96336        2.52611       -3.64239
| 12> H          7.04716        2.06686       -5.47360
| 13> H          7.19815        3.30799       -6.64523
| 14> H          3.28202        2.94919       -4.64026
| 15> H          3.56525        3.51457       -2.98252
| 16> H          4.14157        0.71142       -4.02935
| 17> H          2.78528        1.15146       -3.01944
| 18> H          4.41205        1.25066       -2.38949
| 19> *
| 20>
| 21> %MaxCore 64000
| 22>
| 23> %pal nprocs 4
| 24> end
| 25>
| 26> %scf
| 27>   MaxIter 150
| 28> end
| 29>
| 30>
| 31>                          ****END OF INPUT****

CARTESIAN COORDINATES (ANGSTROEM)
---------------------------------
  C      3.905950    2.819850   -3.752920
  N      5.295620    3.131510   -4.105330
  C      3.803510    1.374720   -3.260810
  C      5.708620    3.468890   -5.324190
  C      6.904700    3.038950   -5.717080
  N      4.981880    4.293570   -6.097460
  H      5.000550    4.101310   -7.087760
  H      4.084690    4.596900   -5.739650
  H      5.963360    2.526110   -3.642390
  H      7.047160    2.066860   -5.473600
  H      7.198150    3.307990   -6.645230
  H      3.282020    2.949190   -4.640260
  H      3.565250    3.514570   -2.982520
  H      4.141570    0.711420   -4.029350
  H      2.785280    1.151460   -3.019440
  H      4.412050    1.250660   -2.389490

 Total Charge           Charge          ....    0
 Multiplicity           Mult            ....    1
 Number of Electrons    NEL             ....   48
 Basis Dimension        Dim             ....  134

ORBITAL ENERGIES
----------------

  NO   OCC          E(Eh)            E(eV)
   0   2.0000     -14.182361      -385.9217
   1   2.0000     -14.179356      -385.8399
   2   2.0000     -10.126090      -275.5449
   3   2.0000     -10.122115      -275.4368
   4   2.0000     -10.084208      -274.4053
   5   2.0000      -9.990079      -271.8439
   6   2.0000      -1.056746       -28.7555
   7   2.0000      -0.974265       -26.5111
   8   2.0000      -0.872226       -23.7345
   9   2.0000      -0.801176       -21.8011
  10   2.0000      -0.728297       -19.8180
  11   2.0000      -0.694034       -18.8856
  12   2.0000      -0.632125       -17.2010
  13   2.0000      -0.591516       -16.0960
  14   2.0000      -0.586991       -15.9728
  15   2.0000      -0.549621       -14.9560
  16   2.0000      -0.520493       -14.1633
  17   2.0000      -0.499162       -13.5829
  18   2.0000      -0.477148       -12.9839
  19   2.0000      -0.467817       -12.7299
  20   2.0000      -0.467273       -12.7152
  21   2.0000      -0.431079       -11.7303
  22   2.0000      -0.350035        -9.5249
  23   2.0000      -0.257554        -7.0084
  24   0.0000       0.116730         3.1764
  25   0.0000       0.138993         3.7822
  26   0.0000       0.154208         4.1962
  27   0.0000       0.163088         4.4378
  28   0.0000       0.180356         4.9077

MULLIKEN ATOMIC CHARGES
-----------------------
   0 C :    0.060391
   1 N :   -0.068854
   2 C :   -0.022349
   3 C :   -0.149325
   4 C :   -0.057043
   5 N :   -0.037064
   6 H :    0.125379
   7 H :    0.095255
   8 H :    0.105852
   9 H :   -0.054322
  10 H :   -0.080543
  11 H :   -0.000630
  12 H :    0.018030
  13 H :    0.024111
  14 H :    0.017997
  15 H :    0.023116
Sum of atomic charges:   -0.0000000

LOEWDIN ATOMIC CHARGES
----------------------
   0 C :    0.016098
   1 N :   -0.021296
   2 C :   -0.071699
   3 C :    0.025585
   4 C :   -0.265839
   5 N :   -0.015282
   6 H :    0.080951
   7 H :    0.063197
   8 H :    0.081494
   9 H :   -0.006724
  10 H :   -0.010822
  11 H :    0.016599
  12 H :    0.019398
  13 H :    0.029170
  14 H :    0.031663
  15 H :    0.027507

  Mayer bond orders larger than 0.100000
B(  0-C ,  1-N ) :   1.0123 B(  0-C ,  2-C ) :   1.1148 B(  0-C , 11-H ) :   0.9430
B(  0-C , 12-H ) :   0.9517 B(  1-N ,  3-C ) :   1.2389 B(  1-N ,  8-H ) :   0.9303
B(  2-C , 13-H ) :   0.9720 B(  2-C , 14-H ) :   0.9618 B(  2-C , 15-H ) :   0.9688
B(  3-C ,  4-C ) :   1.7522 B(  3-C ,  5-N ) :   1.2187 B(  4-C ,  9-H ) :   0.9373
B(  4-C , 10-H ) :   0.9368 B(  5-N ,  6-H ) :   0.9506 B(  5-N ,  7-H ) :   0.9521

FINAL SINGLE POINT ENERGY      -266.965399266743

DIPOLE MOMENT
-------------
                                X             Y             Z
Electronic contribution:      1.49225       3.27412      -1.29067
Nuclear contribution   :     -2.93222      -3.63618       1.36440
                        -----------------------------------------
Total Dipole Moment    :     -1.43997      -0.36206       0.07373
                        -----------------------------------------
Magnitude (a.u.)       :      1.48662
Magnitude (Debye)      :      3.77869

Rotational constants in cm-1:     0.237993     0.072843     0.061284
Rotational constants in MHz :  7134.860770  2183.763760  1837.240960

                             ****ORCA TERMINATED NORMALLY****
TOTAL RUN TIME: 0 days 0 hours 0 minutes 19 seconds 479 msec
