                         Program Version 5.0.0 -  RELEASE  -
|  1> !LC-BLYP RIJCOSX def2-SVP def2/J TightSCF
|  2> *xyz 0 1
|  3> C          3.90595        2.81985       -3.75292
|  4> N          5.29562        3.13151       -4.10533
|  5> C          3.80351        1.37472       -3.26081
|  6> C          5.70862        3.46889       -5.32419
|  7> N          6.90470        3.03895       -5.71708
|  8> C          4.98188        4.29357       -6.09746
|  9> H          5.00055        4.10131       -7.08776
| 10> H          4.08469        4.59690       -5.73965
| 11> H          5.96336        2.52611       -3.64239
| 12> H          7.04716        2.06686       -5.47360
| 13> H          7.19815        3.30799       -6.64523
| 14> H          3.28202        2.94919       -4.64026
| 15> H          3.56525        3.51457       -2.98252
| 16> H          4.14157        0.71142       -4.02935
| 17> H          2.78528        1.15146       -3.01944
| 18> H          4.41205        1.25066       -2.38949
| 19> *
| 20>
| 21> %MaxCore 64000
| 22>
| 23> %pal nprocs 4
| 24> end
| 25>
| 26> %scf
| 27>   MaxIter 150
| 28> end
| 29>
| 30>
| 31>                          ****END OF INPUT****

CARTESIAN COORDINATES (ANGSTROEM)
---------------------------------
  C      3.905950    2.819850   -3.752920
  N      5.295620    3.131510   -4.105330
  C      3.803510    1.374720   -3.260810
  C      5.708620    3.468890   -5.324190
  N      6.904700    3.038950   -5.717080
  C      4.981880    4.293570   -6.097460
  H      5.000550    4.101310   -7.087760
  H      4.084690    4.596900   -5.739650
  H      5.963360    2.526110   -3.642390
  H      7.047160    2.066860   -5.473600
  H      7.198150    3.307990   -6.645230
  H      3.282020    2.949190   -4.640260
  H      3.565250    3.514570   -2.982520
  H      4.141570    0.711420   -4.029350
  H      2.785280    1.151460   -3.019440
  H      4.412050    1.250660   -2.389490

 Total Charge           Charge          ....    0
 Multiplicity           Mult            ....    1
 Number of Electrons    NEL             ....   48
 Basis Dimension        Dim             ....  134

ORBITAL ENERGIES
----------------

  NO   OCC          E(Eh)            E(eV)
   0   2.0000     -14.181700      -385.9037
   1   2.0000     -14.181346      -385.8940
   2   2.0000     -10.125557      -275.5304
   3   2.0000     -10.114640      -275.2333
   4   2.0000     -10.081672      -274.3362
   5   2.0000      -9.995587      -271.9937
   6   2.0000      -1.061391       -28.8819
   7   2.0000      -0.976734       -26.5783
   8   2.0000      -0.860732       -23.4217
   9   2.0000      -0.801550       -21.8113
  10   2.0000      -0.742839       -20.2137
  11   2.0000      -0.663588       -18.0571
  12   2.0000      -0.634917       -17.2770
  13   2.0000      -0.612728       -16.6732
  14   2.0000      -0.574513       -15.6333
  15   2.0000      -0.555583       -15.1182
  16   2.0000      -0.502867       -13.6837
  17   2.0000      -0.499368       -13.5885
  18   2.0000      -0.487485       -13.2651
  19   2.0000      -0.467226       -12.7139
  20   2.0000      -0.458279       -12.4704
  21   2.0000      -0.432427       -11.7669
  22   2.0000      -0.347379        -9.4527
  23   2.0000      -0.260957        -7.1010
  24   0.0000       0.113686         3.0936
  25   0.0000       0.144973         3.9449
  26   0.0000       0.156453         4.2573
  27   0.0000       0.166549         4.5320
  28   0.0000       0.179579         4.8866

MULLIKEN ATOMIC CHARGES
-----------------------
   0 C :    0.083150
   1 N :   -0.083491
   2 C :   -0.027016
   3 C :   -0.141494
   4 N :   -0.021657
   5 C :   -0.069154
   6 H :   -0.059057
   7 H :   -0.062804
   8 H :    0.082247
   9 H :    0.094999
  10 H :    0.112045
  11 H :    0.024787
  12 H :    0.017989
  13 H :    0.012279
  14 H :    0.020143
  15 H :    0.017033
Sum of atomic charges:   -0.0000000

LOEWDIN ATOMIC CHARGES
----------------------
   0 C :    0.029482
   1 N :   -0.018499
   2 C :   -0.074633
   3 C :    0.017557
   4 N :   -0.018004
   5 C :   -0.255812
   6 H :   -0.007647
   7 H :   -0.008166
   8 H :    0.060555
   9 H :    0.060651
  10 H :    0.082305
  11 H :    0.029307
  12 H :    0.021649
  13 H :    0.024033
  14 H :    0.033084
  15 H :    0.024137

  Mayer bond orders larger than 0.100000
B(  0-C ,  1-N ) :   1.0105 B(  0-C ,  2-C ) :   1.1144 B(  0-C , 11-H ) :   0.9389
B(  0-C , 12-H ) :   0.9542 B(  1-N ,  3-C ) :   1.2108 B(  1-N ,  8-H ) :   0.9355
B(  2-C , 13-H ) :   0.9715 B(  2-C , 14-H ) :   0.9613 B(  2-C , 15-H ) :   0.9682
B(  3-C ,  4-N ) :   1.2334 B(  3-C ,  5-C ) :   1.7498 B(  4-N ,  9-H ) :   0.9471
B(  4-N , 10-H ) :   0.9460 B(  5-C ,  6-H ) :   0.9337 B(  5-C ,  7-H ) :   0.9325

FINAL SINGLE POINT ENERGY      -266.969551486181

DIPOLE MOMENT
-------------
                                X             Y             Z
Electronic contribution:      3.49870       2.02779      -0.99700
Nuclear contribution   :     -3.34013      -3.37002       1.28371
                        -----------------------------------------
Total Dipole Moment    :      0.15857      -1.34223       0.28671
                        -----------------------------------------
Magnitude (a.u.)       :      1.38164
Magnitude (Debye)      :      3.51185

Rotational constants in cm-1:     0.239537     0.072280     0.060961
Rotational constants in MHz :  7181.153552  2166.902802  1827.551447

                             ****ORCA TERMINATED NORMALLY****
TOTAL RUN TIME: 0 days 0 hours 0 minutes 19 seconds 512 msec
