                         Program Version 5.0.0 -  RELEASE  -
|  1> !LC-BLYP RIJCOSX def2-TZVP def2/J TightSCF xyzfile
|  2>
|  3> *xyzfile 0 1 D1.xyz
|  4>
|  5> %MaxCore 64000
|  6>
|  7> %pal nprocs 18
|  8> end
|  9>
| 10> %scf
| 11>   MaxIter 150
| 12> end
| 13>
| 14>
| 15>                          ****END OF INPUT****

CARTESIAN COORDINATES (ANGSTROEM)
---------------------------------
  C      3.905947    2.819855   -3.752920
  C      5.295615    3.131515   -4.105334
  C      3.803511    1.374716   -3.260807
  C      3.939934    0.320362   -4.367729
  H      4.105043   -0.655085   -3.907733
  H      3.022801    0.280517   -4.957117
  C      5.105846    0.668022   -5.305463
  C      5.708619    3.468885   -5.324190
  N      6.904696    3.038954   -5.717084
  N      4.981884    4.293570   -6.097457
  H      5.000546    4.101311   -7.087761
  H      4.084693    4.596899   -5.739652
  H      5.963358    2.526112   -3.642391
  H      7.047164    2.066861   -5.473604
  H      7.198145    3.307994   -6.645225
  H      3.282025    2.949187   -4.640259
  H      3.565254    3.514574   -2.982523
  H      4.574833    1.215157   -2.500443
  H      2.843514    1.260845   -2.751465
  F      4.809132    1.150187   -6.414361
  O      6.267366    0.564999   -4.819481

 Total Charge           Charge          ....    0
 Multiplicity           Mult            ....    1
 Number of Electrons    NEL             ....   78
 Basis Dimension        Dim             ....  376

ORBITAL ENERGIES
----------------

  NO   OCC          E(Eh)            E(eV)
   0   2.0000     -24.534770      -667.6250
   1   2.0000     -18.948593      -515.6174
   2   2.0000     -14.170593      -385.6014
   3   2.0000     -14.148966      -385.0129
   4   2.0000     -10.258416      -279.1457
   5   2.0000     -10.110248      -275.1138
   6   2.0000     -10.097453      -274.7657
   7   2.0000     -10.075116      -274.1578
   8   2.0000     -10.056892      -273.6619
   9   2.0000      -9.992916      -271.9211
  10   2.0000      -1.414082       -38.4791
  11   2.0000      -1.134359       -30.8675
  12   2.0000      -1.061027       -28.8720
  13   2.0000      -0.970432       -26.4068
  14   2.0000      -0.928608       -25.2687
  15   2.0000      -0.860263       -23.4090
  16   2.0000      -0.801991       -21.8233
  17   2.0000      -0.766594       -20.8601
  18   2.0000      -0.716856       -19.5066
  19   2.0000      -0.686565       -18.6824
  20   2.0000      -0.668596       -18.1934
  21   2.0000      -0.649308       -17.6686
  22   2.0000      -0.638675       -17.3792
  23   2.0000      -0.624992       -17.0069
  24   2.0000      -0.605223       -16.4689
  25   2.0000      -0.570487       -15.5237
  26   2.0000      -0.565054       -15.3759
  27   2.0000      -0.544105       -14.8058
  28   2.0000      -0.534363       -14.5408
  29   2.0000      -0.499728       -13.5983
  30   2.0000      -0.491921       -13.3859
  31   2.0000      -0.468017       -12.7354
  32   2.0000      -0.466089       -12.6829
  33   2.0000      -0.446357       -12.1460
  34   2.0000      -0.433036       -11.7835
  35   2.0000      -0.420283       -11.4365
  36   2.0000      -0.400202       -10.8901
  37   2.0000      -0.363378        -9.8880
  38   2.0000      -0.262674        -7.1477
  39   0.0000       0.044803         1.2191
  40   0.0000       0.087611         2.3840
  41   0.0000       0.108353         2.9484
  42   0.0000       0.123487         3.3602
  43   0.0000       0.133336         3.6283

MULLIKEN ATOMIC CHARGES
-----------------------
   0 C :   -0.244014
   1 C :   -0.388104
   2 C :   -0.266589
   3 C :   -0.287957
   4 H :    0.158045
   5 H :    0.141398
   6 C :    0.339898
   7 C :    0.114440
   8 N :   -0.355600
   9 N :   -0.406778
  10 H :    0.208579
  11 H :    0.234854
  12 H :    0.143400
  13 H :    0.248006
  14 H :    0.201345
  15 H :    0.090819
  16 H :    0.137736
  17 H :    0.155762
  18 H :    0.131705
  19 F :   -0.048045
  20 O :   -0.308903
Sum of atomic charges:   -0.0000000

LOEWDIN ATOMIC CHARGES
----------------------
   0 C :   -0.294310
   1 C :   -0.272414
   2 C :   -0.258212
   3 C :   -0.235701
   4 H :    0.159000
   5 H :    0.145800
   6 C :   -0.520368
   7 C :   -0.493977
   8 N :   -0.006326
   9 N :   -0.017494
  10 H :    0.157729
  11 H :    0.173772
  12 H :    0.134519
  13 H :    0.164786
  14 H :    0.159334
  15 H :    0.134708
  16 H :    0.140346
  17 H :    0.151001
  18 H :    0.141848
  19 F :    0.370728
  20 O :    0.065232

  Mayer bond orders larger than 0.100000
B(  0-C ,  1-C ) :   0.8973 B(  0-C ,  2-C ) :   0.9153 B(  0-C , 15-H ) :   0.9771
B(  0-C , 16-H ) :   0.9810 B(  1-C ,  7-C ) :   1.5622 B(  1-C , 12-H ) :   1.0539
B(  2-C ,  3-C ) :   0.9207 B(  2-C , 17-H ) :   0.9743 B(  2-C , 18-H ) :   0.9835
B(  3-C ,  4-H ) :   0.9620 B(  3-C ,  5-H ) :   0.9628 B(  3-C ,  6-C ) :   0.9631
B(  6-C , 19-F ) :   1.2222 B(  6-C , 20-O ) :   1.9996 B(  7-C ,  8-N ) :   1.1995
B(  7-C ,  9-N ) :   1.1588 B(  8-N , 13-H ) :   0.8703 B(  8-N , 14-H ) :   0.9336
B(  9-N , 10-H ) :   0.9222 B(  9-N , 11-H ) :   0.9316

FINAL SINGLE POINT ENERGY      -518.811071523351

DIPOLE MOMENT
-------------
                                X             Y             Z
Electronic contribution:      3.38521      -3.66794      -6.51256
Nuclear contribution   :     -4.60158       3.22721       5.56005
                        -----------------------------------------
Total Dipole Moment    :     -1.21638      -0.44073      -0.95251
                        -----------------------------------------
Magnitude (a.u.)       :      1.60657
Magnitude (Debye)      :      4.08359

Rotational constants in cm-1:     0.061224     0.042534     0.033552
Rotational constants in MHz :  1835.464095  1275.135177  1005.856966

                             ****ORCA TERMINATED NORMALLY****
TOTAL RUN TIME: 0 days 0 hours 0 minutes 33 seconds 739 msec
