                         Program Version 5.0.0 -  RELEASE  -
|  1> !LC-BLYP RIJCOSX def2-TZVP def2/J TightSCF xyzfile
|  2>
|  3> *xyzfile 0 1 D5.xyz
|  4>
|  5> %MaxCore 64000
|  6>
|  7> %pal nprocs 18
|  8> end
|  9>
| 10> %scf
| 11>   MaxIter 150
| 12> end
| 13>
| 14>
| 15>                          ****END OF INPUT****

CARTESIAN COORDINATES (ANGSTROEM)
---------------------------------
  C      3.905947    2.819855   -3.752920
  N      5.295615    3.131515   -4.105334
  C      3.803511    1.374716   -3.260807
  C      3.939934    0.320362   -4.367729
  H      4.105043   -0.655085   -3.907733
  H      3.022801    0.280517   -4.957117
  C      5.105846    0.668022   -5.305463
  C      5.708619    3.468885   -5.324190
  C      6.904696    3.038954   -5.717084
  N      4.981884    4.293570   -6.097457
  H      5.000546    4.101311   -7.087761
  H      4.084693    4.596899   -5.739652
  H      5.963358    2.526112   -3.642391
  H      7.047164    2.066861   -5.473604
  H      7.198145    3.307994   -6.645225
  H      3.282025    2.949187   -4.640259
  H      3.565254    3.514574   -2.982523
  H      4.574833    1.215157   -2.500443
  H      2.843514    1.260845   -2.751465
  O      4.809132    1.150187   -6.414361
  F      6.267366    0.564999   -4.819481

 Total Charge           Charge          ....    0
 Multiplicity           Mult            ....    1
 Number of Electrons    NEL             ....   78
 Basis Dimension        Dim             ....  376

ORBITAL ENERGIES
----------------

  NO   OCC          E(Eh)            E(eV)
   0   2.0000     -24.527074      -667.4156
   1   2.0000     -18.948773      -515.6223
   2   2.0000     -14.175672      -385.7397
   3   2.0000     -14.164110      -385.4250
   4   2.0000     -10.253434      -279.0101
   5   2.0000     -10.116537      -275.2850
   6   2.0000     -10.109881      -275.1038
   7   2.0000     -10.107670      -275.0437
   8   2.0000     -10.101482      -274.8753
   9   2.0000      -9.966717      -271.2082
  10   2.0000      -1.402952       -38.1763
  11   2.0000      -1.138019       -30.9671
  12   2.0000      -1.073193       -29.2031
  13   2.0000      -0.991036       -26.9675
  14   2.0000      -0.930172       -25.3113
  15   2.0000      -0.853227       -23.2175
  16   2.0000      -0.809154       -22.0182
  17   2.0000      -0.765396       -20.8275
  18   2.0000      -0.731814       -19.9137
  19   2.0000      -0.706628       -19.2283
  20   2.0000      -0.666829       -18.1453
  21   2.0000      -0.661204       -17.9923
  22   2.0000      -0.626493       -17.0477
  23   2.0000      -0.612339       -16.6626
  24   2.0000      -0.604219       -16.4416
  25   2.0000      -0.593400       -16.1472
  26   2.0000      -0.569221       -15.4893
  27   2.0000      -0.544397       -14.8138
  28   2.0000      -0.524788       -14.2802
  29   2.0000      -0.508959       -13.8495
  30   2.0000      -0.495031       -13.4705
  31   2.0000      -0.487138       -13.2557
  32   2.0000      -0.474454       -12.9106
  33   2.0000      -0.464919       -12.6511
  34   2.0000      -0.460070       -12.5191
  35   2.0000      -0.424959       -11.5637
  36   2.0000      -0.394274       -10.7287
  37   2.0000      -0.359582        -9.7847
  38   2.0000      -0.260094        -7.0775
  39   0.0000       0.049672         1.3516
  40   0.0000       0.083596         2.2748
  41   0.0000       0.102041         2.7767
  42   0.0000       0.117731         3.2036
  43   0.0000       0.129891         3.5345

MULLIKEN ATOMIC CHARGES
-----------------------
   0 C :   -0.177568
   1 N :   -0.227081
   2 C :   -0.345744
   3 C :   -0.260522
   4 H :    0.155639
   5 H :    0.161658
   6 C :    0.270684
   7 C :    0.169835
   8 C :   -0.419983
   9 N :   -0.431268
  10 H :    0.250731
  11 H :    0.209267
  12 H :    0.217811
  13 H :    0.068454
  14 H :    0.069820
  15 H :    0.141277
  16 H :    0.149488
  17 H :    0.164376
  18 H :    0.144600
  19 O :   -0.229669
  20 F :   -0.081804
Sum of atomic charges:   -0.0000000

LOEWDIN ATOMIC CHARGES
----------------------
   0 C :   -0.294254
   1 N :    0.124281
   2 C :   -0.276283
   3 C :   -0.237534
   4 H :    0.151825
   5 H :    0.158279
   6 C :   -0.530729
   7 C :   -0.491983
   8 C :   -0.347724
   9 N :   -0.006292
  10 H :    0.178961
  11 H :    0.159716
  12 H :    0.194372
  13 H :    0.097650
  14 H :    0.098962
  15 H :    0.139944
  16 H :    0.133841
  17 H :    0.146052
  18 H :    0.148544
  19 O :    0.115422
  20 F :    0.336947

  Mayer bond orders larger than 0.100000
B(  0-C ,  1-N ) :   0.9109 B(  0-C ,  2-C ) :   0.9076 B(  0-C , 15-H ) :   0.9778
B(  0-C , 16-H ) :   0.9764 B(  1-N ,  7-C ) :   1.1709 B(  1-N , 12-H ) :   0.9275
B(  2-C ,  3-C ) :   0.9008 B(  2-C , 17-H ) :   0.9768 B(  2-C , 18-H ) :   0.9766
B(  3-C ,  4-H ) :   0.9640 B(  3-C ,  5-H ) :   0.9740 B(  3-C ,  6-C ) :   0.9559
B(  6-C , 19-O ) :   2.1391 B(  6-C , 20-F ) :   1.1662 B(  7-C ,  8-C ) :   1.6821
B(  7-C ,  9-N ) :   1.0871 B(  8-C , 13-H ) :   0.9818 B(  8-C , 14-H ) :   1.0279
B(  9-N , 10-H ) :   0.9252 B(  9-N , 11-H ) :   0.9439

FINAL SINGLE POINT ENERGY      -518.788510319220

DIPOLE MOMENT
-------------
                                X             Y             Z
Electronic contribution:      4.36705      -4.68130      -2.60491
Nuclear contribution   :     -6.05797       3.87976       3.55209
                        -----------------------------------------
Total Dipole Moment    :     -1.69092      -0.80154       0.94718
                        -----------------------------------------
Magnitude (a.u.)       :      2.09734
Magnitude (Debye)      :      5.33101

Rotational constants in cm-1:     0.061282     0.043164     0.033679
Rotational constants in MHz :  1837.191639  1294.028651  1009.659886

                             ****ORCA TERMINATED NORMALLY****
TOTAL RUN TIME: 0 days 0 hours 0 minutes 35 seconds 96 msec
