                         Program Version 5.0.0 -  RELEASE  -
|  1> !BLYP D3BJ RIJCOSX def2-SVPD def2/J TightSCF
|  2> *xyz -1 1
|  3> C         -0.50835        1.72268       -4.12430
|  4> S         -1.32861        0.14674       -4.43578
|  5> O         -2.57135        0.47573       -5.06834
|  6> O         -1.51496       -0.40051       -3.06342
|  7> O         -0.37793       -0.62756       -5.20114
|  8> H         -0.31967        2.21655       -5.05456
|  9> H          0.41835        1.54859       -3.61852
| 10> H         -1.13714        2.33776       -3.51504
| 11> *
| 12> %MaxCore 64000
| 13>
| 14> %pal nprocs 4
| 15> end
| 16>
| 17> %scf
| 18>   MaxIter 150
| 19> end
| 20>
| 21>
| 22>                          ****END OF INPUT****

CARTESIAN COORDINATES (ANGSTROEM)
---------------------------------
  C     -0.508350    1.722680   -4.124300
  S     -1.328610    0.146740   -4.435780
  O     -2.571350    0.475730   -5.068340
  O     -1.514960   -0.400510   -3.063420
  O     -0.377930   -0.627560   -5.201140
  H     -0.319670    2.216550   -5.054560
  H      0.418350    1.548590   -3.618520
  H     -1.137140    2.337760   -3.515040

 Total Charge           Charge          ....   -1
 Multiplicity           Mult            ....    1
 Number of Electrons    NEL             ....   50
 Basis Dimension        Dim             ....  140

ORBITAL ENERGIES
----------------

  NO   OCC          E(Eh)            E(eV)
   0   2.0000     -88.128799     -2398.1065
   1   2.0000     -18.573083      -505.3993
   2   2.0000     -18.570330      -505.3244
   3   2.0000     -18.555690      -504.9260
   4   2.0000      -9.769703      -265.8471
   5   2.0000      -7.665392      -208.5859
   6   2.0000      -5.700486      -155.1181
   7   2.0000      -5.700284      -155.1126
   8   2.0000      -5.699839      -155.1005
   9   2.0000      -0.835264       -22.7287
  10   2.0000      -0.704424       -19.1684
  11   2.0000      -0.674654       -18.3583
  12   2.0000      -0.498849       -13.5744
  13   2.0000      -0.320583        -8.7235
  14   2.0000      -0.243980        -6.6390
  15   2.0000      -0.233061        -6.3419
  16   2.0000      -0.232471        -6.3259
  17   2.0000      -0.194140        -5.2828
  18   2.0000      -0.191703        -5.2165
  19   2.0000      -0.100627        -2.7382
  20   2.0000      -0.099328        -2.7028
  21   2.0000      -0.069218        -1.8835
  22   2.0000      -0.065224        -1.7748
  23   2.0000      -0.049632        -1.3506
  24   2.0000      -0.016070        -0.4373
  25   0.0000       0.137087         3.7303
  26   0.0000       0.174898         4.7592
  27   0.0000       0.175814         4.7842
  28   0.0000       0.177566         4.8318
  29   0.0000       0.200257         5.4493

MULLIKEN ATOMIC CHARGES
-----------------------
   0 C :    0.907483
   1 S :    0.917585
   2 O :   -0.685230
   3 O :   -0.755521
   4 O :   -0.701324
   5 H :   -0.238865
   6 H :   -0.220987
   7 H :   -0.223141
Sum of atomic charges:   -1.0000000

LOEWDIN ATOMIC CHARGES
----------------------
   0 C :    0.063781
   1 S :    0.789765
   2 O :   -0.557059
   3 O :   -0.587286
   4 O :   -0.562920
   5 H :   -0.051108
   6 H :   -0.047316
   7 H :   -0.047857

  Mayer bond orders larger than 0.100000
B(  0-C ,  1-S ) :   0.9046 B(  0-C ,  5-H ) :   0.8455 B(  0-C ,  6-H ) :   0.8503
B(  0-C ,  7-H ) :   0.8495 B(  1-S ,  2-O ) :   1.3934 B(  1-S ,  3-O ) :   1.3376
B(  1-S ,  4-O ) :   1.3803 B(  1-S ,  5-H ) :   0.1347 B(  1-S ,  6-H ) :   0.1446
B(  1-S ,  7-H ) :   0.1429

Dispersion correction           -0.013643567
FINAL SINGLE POINT ENERGY      -663.443513553204

DIPOLE MOMENT
-------------
                                X             Y             Z
Electronic contribution:     -2.02486      -3.81235      -0.91025
Nuclear contribution   :      2.60425       5.03732       0.91691
                        -----------------------------------------
Total Dipole Moment    :      0.57939       1.22496       0.00666
                        -----------------------------------------
Magnitude (a.u.)       :      1.35509
Magnitude (Debye)      :      3.44436

Rotational constants in cm-1:     0.171343     0.157827     0.155747
Rotational constants in MHz :  5136.740483  4731.521814  4669.189064

                             ****ORCA TERMINATED NORMALLY****
TOTAL RUN TIME: 0 days 0 hours 0 minutes 4 seconds 599 msec
