                         Program Version 5.0.0 -  RELEASE  -
|  1> !BLYP D3BJ RIJCOSX def2-SVPD def2/J TightSCF
|  2> *xyz 1 1
|  3> C          1.36401        0.46874       -2.81376
|  4> N          0.42884        0.32140       -1.65531
|  5> H          0.74858       -0.40054       -1.00134
|  6> H         -0.46105        0.02333       -2.07773
|  7> H          0.31026        1.20137       -1.13495
|  8> H          0.99872        1.22859       -3.47261
|  9> H          1.42772       -0.46011       -3.34109
| 10> H          2.33442        0.74312       -2.45611
| 11> *
| 12> %MaxCore 64000
| 13>
| 14> %pal nprocs 4
| 15> end
| 16>
| 17> %scf
| 18>   MaxIter 150
| 19> end
| 20>
| 21>
| 22>                          ****END OF INPUT****

CARTESIAN COORDINATES (ANGSTROEM)
---------------------------------
  C      1.364010    0.468740   -2.813760
  N      0.428840    0.321400   -1.655310
  H      0.748580   -0.400540   -1.001340
  H     -0.461050    0.023330   -2.077730
  H      0.310260    1.201370   -1.134950
  H      0.998720    1.228590   -3.472610
  H      1.427720   -0.460110   -3.341090
  H      2.334420    0.743120   -2.456110

 Total Charge           Charge          ....    1
 Multiplicity           Mult            ....    1
 Number of Electrons    NEL             ....   18
 Basis Dimension        Dim             ....   88

ORBITAL ENERGIES
----------------

  NO   OCC          E(Eh)            E(eV)
   0   2.0000     -14.372513      -391.0960
   1   2.0000     -10.182811      -277.0884
   2   2.0000      -1.131560       -30.7913
   3   2.0000      -0.862418       -23.4676
   4   2.0000      -0.758891       -20.6505
   5   2.0000      -0.754295       -20.5254
   6   2.0000      -0.662822       -18.0363
   7   2.0000      -0.581123       -15.8132
   8   2.0000      -0.579154       -15.7596
   9   0.0000      -0.232224        -6.3191
  10   0.0000      -0.167521        -4.5585
  11   0.0000      -0.164540        -4.4774
  12   0.0000      -0.154464        -4.2032
  13   0.0000      -0.111966        -3.0467

MULLIKEN ATOMIC CHARGES
-----------------------
   0 C :    1.313020
   1 N :   -0.640006
   2 H :    0.299694
   3 H :    0.338964
   4 H :    0.303618
   5 H :   -0.196656
   6 H :   -0.191949
   7 H :   -0.226684
Sum of atomic charges:    1.0000000

LOEWDIN ATOMIC CHARGES
----------------------
   0 C :    0.291625
   1 N :    0.332099
   2 H :    0.103381
   3 H :    0.103214
   4 H :    0.108156
   5 H :    0.021277
   6 H :    0.021514
   7 H :    0.018734

  Mayer bond orders larger than 0.100000
B(  0-C ,  1-N ) :   0.8694 B(  0-C ,  5-H ) :   0.8118 B(  0-C ,  6-H ) :   0.8095
B(  0-C ,  7-H ) :   0.8335 B(  1-N ,  2-H ) :   0.8243 B(  1-N ,  3-H ) :   0.7778
B(  1-N ,  4-H ) :   0.8186 B(  1-N ,  5-H ) :   0.1171 B(  1-N ,  6-H ) :   0.1171
B(  1-N ,  7-H ) :   0.1010

Dispersion correction           -0.006807373
FINAL SINGLE POINT ENERGY       -96.098299003114

DIPOLE MOMENT
-------------
                                X             Y             Z
Electronic contribution:     -0.67645      -0.09370       0.87845
Nuclear contribution   :      0.14628      -0.00095      -0.25828
                        -----------------------------------------
Total Dipole Moment    :     -0.53017      -0.09465       0.62018
                        -----------------------------------------
Magnitude (a.u.)       :      0.82138
Magnitude (Debye)      :      2.08778

Rotational constants in cm-1:     2.853706     0.682028     0.680630
Rotational constants in MHz : 85551.942317 20446.672693 20404.761959

                             ****ORCA TERMINATED NORMALLY****
TOTAL RUN TIME: 0 days 0 hours 0 minutes 2 seconds 708 msec
