                         Program Version 5.0.0 -  RELEASE  -
|  1> !BLYP D3BJ RIJCOSX def2-SVPD def2/J TightSCF
|  2> *xyz 0 1
|  3> C         -0.50835        1.72268       -4.12430
|  4> S         -1.32861        0.14674       -4.43578
|  5> F         -2.57135        0.47573       -5.06834
|  6> O         -1.51496       -0.40051       -3.06342
|  7> O         -0.37793       -0.62756       -5.20114
|  8> H         -0.31967        2.21655       -5.05456
|  9> H          0.41835        1.54859       -3.61852
| 10> H         -1.13714        2.33776       -3.51504
| 11> *
| 12> %MaxCore 64000
| 13>
| 14> %pal nprocs 4
| 15> end
| 16>
| 17> %scf
| 18>   MaxIter 150
| 19> end
| 20>
| 21>
| 22>                          ****END OF INPUT****

CARTESIAN COORDINATES (ANGSTROEM)
---------------------------------
  C     -0.508350    1.722680   -4.124300
  S     -1.328610    0.146740   -4.435780
  F     -2.571350    0.475730   -5.068340
  O     -1.514960   -0.400510   -3.063420
  O     -0.377930   -0.627560   -5.201140
  H     -0.319670    2.216550   -5.054560
  H      0.418350    1.548590   -3.618520
  H     -1.137140    2.337760   -3.515040

 Total Charge           Charge          ....    0
 Multiplicity           Mult            ....    1
 Number of Electrons    NEL             ....   50
 Basis Dimension        Dim             ....  140

ORBITAL ENERGIES
----------------

  NO   OCC          E(Eh)            E(eV)
   0   2.0000     -88.391029     -2405.2422
   1   2.0000     -24.427578      -664.7082
   2   2.0000     -18.807710      -511.7838
   3   2.0000     -18.792546      -511.3712
   4   2.0000      -9.978935      -271.5406
   5   2.0000      -7.928367      -215.7418
   6   2.0000      -5.967809      -162.3923
   7   2.0000      -5.961053      -162.2085
   8   2.0000      -5.959762      -162.1734
   9   2.0000      -1.277996       -34.7760
  10   2.0000      -1.014629       -27.6095
  11   2.0000      -0.912941       -24.8424
  12   2.0000      -0.721450       -19.6317
  13   2.0000      -0.654246       -17.8029
  14   2.0000      -0.545728       -14.8500
  15   2.0000      -0.529234       -14.4012
  16   2.0000      -0.496918       -13.5218
  17   2.0000      -0.425528       -11.5792
  18   2.0000      -0.424159       -11.5420
  19   2.0000      -0.415332       -11.3018
  20   2.0000      -0.388495       -10.5715
  21   2.0000      -0.337675        -9.1886
  22   2.0000      -0.293526        -7.9873
  23   2.0000      -0.277944        -7.5632
  24   2.0000      -0.259729        -7.0676
  25   0.0000      -0.035357        -0.9621
  26   0.0000       0.005202         0.1416
  27   0.0000       0.007419         0.2019
  28   0.0000       0.030337         0.8255
  29   0.0000       0.031662         0.8616

MULLIKEN ATOMIC CHARGES
-----------------------
   0 C :    0.879062
   1 S :    1.096962
   2 F :   -0.325256
   3 O :   -0.602523
   4 O :   -0.554057
   5 H :   -0.171896
   6 H :   -0.163634
   7 H :   -0.158658
Sum of atomic charges:   -0.0000000

LOEWDIN ATOMIC CHARGES
----------------------
   0 C :    0.131184
   1 S :    1.063401
   2 F :   -0.239706
   3 O :   -0.464601
   4 O :   -0.442327
   5 H :   -0.022419
   6 H :   -0.005702
   7 H :   -0.019831

  Mayer bond orders larger than 0.100000
B(  0-C ,  1-S ) :   0.9656 B(  0-C ,  5-H ) :   0.8503 B(  0-C ,  6-H ) :   0.8501
B(  0-C ,  7-H ) :   0.8544 B(  1-S ,  2-F ) :   0.7784 B(  1-S ,  3-O ) :   1.5372
B(  1-S ,  4-O ) :   1.5788 B(  1-S ,  5-H ) :   0.1071 B(  1-S ,  6-H ) :   0.1427
B(  1-S ,  7-H ) :   0.1142 B(  3-O ,  4-O ) :   0.1022

Dispersion correction           -0.012783699
FINAL SINGLE POINT ENERGY      -687.930569626707

DIPOLE MOMENT
-------------
                                X             Y             Z
Electronic contribution:     -4.04224      -3.23909      -1.97541
Nuclear contribution   :      3.90013       4.80063       1.59574
                        -----------------------------------------
Total Dipole Moment    :     -0.14211       1.56154      -0.37968
                        -----------------------------------------
Magnitude (a.u.)       :      1.61331
Magnitude (Debye)      :      4.10070

Rotational constants in cm-1:     0.163395     0.155047     0.147447
Rotational constants in MHz :  4898.460101  4648.206837  4420.340547

                             ****ORCA TERMINATED NORMALLY****
TOTAL RUN TIME: 0 days 0 hours 0 minutes 4 seconds 470 msec
