                         Program Version 5.0.0 -  RELEASE  -
|  1> !BLYP D3BJ RIJCOSX def2-SVPD def2/J TightSCF
|  2> *xyz 0 1
|  3> C          1.36401        0.46874       -2.81376
|  4> C          0.42884        0.32140       -1.65531
|  5> H          0.74858       -0.40054       -1.00134
|  6> H         -0.46105        0.02333       -2.07773
|  7> H          0.31026        1.20137       -1.13495
|  8> H          0.99872        1.22859       -3.47261
|  9> H          1.42772       -0.46011       -3.34109
| 10> H          2.33442        0.74312       -2.45611
| 11> *
| 12> %MaxCore 64000
| 13>
| 14> %pal nprocs 4
| 15> end
| 16>
| 17> %scf
| 18>   MaxIter 150
| 19> end
| 20>
| 21>
| 22>                          ****END OF INPUT****

CARTESIAN COORDINATES (ANGSTROEM)
---------------------------------
  C      1.364010    0.468740   -2.813760
  C      0.428840    0.321400   -1.655310
  H      0.748580   -0.400540   -1.001340
  H     -0.461050    0.023330   -2.077730
  H      0.310260    1.201370   -1.134950
  H      0.998720    1.228590   -3.472610
  H      1.427720   -0.460110   -3.341090
  H      2.334420    0.743120   -2.456110

 Total Charge           Charge          ....    0
 Multiplicity           Mult            ....    1
 Number of Electrons    NEL             ....   18
 Basis Dimension        Dim             ....   88

ORBITAL ENERGIES
----------------

  NO   OCC          E(Eh)            E(eV)
   0   2.0000      -9.901687      -269.4386
   1   2.0000      -9.889830      -269.1160
   2   2.0000      -0.684355       -18.6222
   3   2.0000      -0.547465       -14.8973
   4   2.0000      -0.398704       -10.8493
   5   2.0000      -0.395087       -10.7509
   6   2.0000      -0.320572        -8.7232
   7   2.0000      -0.302380        -8.2282
   8   2.0000      -0.298458        -8.1215
   9   0.0000       0.009766         0.2657
  10   0.0000       0.042523         1.1571
  11   0.0000       0.080331         2.1859
  12   0.0000       0.081005         2.2043
  13   0.0000       0.100822         2.7435

MULLIKEN ATOMIC CHARGES
-----------------------
   0 C :    0.603105
   1 C :    0.968732
   2 H :   -0.335899
   3 H :   -0.284061
   4 H :   -0.329721
   5 H :   -0.201891
   6 H :   -0.198186
   7 H :   -0.222079
Sum of atomic charges:    0.0000000

LOEWDIN ATOMIC CHARGES
----------------------
   0 C :    0.090792
   1 C :    0.098980
   2 H :   -0.041413
   3 H :   -0.039868
   4 H :   -0.037526
   5 H :   -0.022589
   6 H :   -0.022167
   7 H :   -0.026210

  Mayer bond orders larger than 0.100000
B(  0-C ,  1-C ) :   1.4257 B(  0-C ,  2-H ) :   0.2160 B(  0-C ,  3-H ) :   0.2691
B(  0-C ,  4-H ) :   0.2087 B(  0-C ,  5-H ) :   0.7661 B(  0-C ,  6-H ) :   0.7633
B(  0-C ,  7-H ) :   0.8042 B(  1-C ,  2-H ) :   0.6425 B(  1-C ,  3-H ) :   0.6494
B(  1-C ,  4-H ) :   0.6595 B(  1-C ,  5-H ) :   0.2040 B(  1-C ,  6-H ) :   0.2073
B(  1-C ,  7-H ) :   0.1901

Dispersion correction           -0.006852698
FINAL SINGLE POINT ENERGY       -79.699223357326

DIPOLE MOMENT
-------------
                                X             Y             Z
Electronic contribution:     -0.00157       0.01907       0.07126
Nuclear contribution   :     -0.01491      -0.02598      -0.05743
                        -----------------------------------------
Total Dipole Moment    :     -0.01649      -0.00691       0.01384
                        -----------------------------------------
Magnitude (a.u.)       :      0.02261
Magnitude (Debye)      :      0.05746

Rotational constants in cm-1:     2.853707     0.712330     0.710805
Rotational constants in MHz : 85551.986377 21355.123158 21309.410122

                             ****ORCA TERMINATED NORMALLY****
TOTAL RUN TIME: 0 days 0 hours 0 minutes 2 seconds 652 msec
