                         Program Version 5.0.0 -  RELEASE  -
|  1> !BLYP D3BJ RIJCOSX def2-SVPD def2/J TightSCF
|  2> *xyz 0 1
|  3> C         -0.50835        1.72268       -4.12430
|  4> S         -1.32861        0.14674       -4.43578
|  5> O         -2.57135        0.47573       -5.06834
|  6> F         -1.51496       -0.40051       -3.06342
|  7> O         -0.37793       -0.62756       -5.20114
|  8> H         -0.31967        2.21655       -5.05456
|  9> H          0.41835        1.54859       -3.61852
| 10> H         -1.13714        2.33776       -3.51504
| 11> *
| 12> %MaxCore 64000
| 13>
| 14> %pal nprocs 4
| 15> end
| 16>
| 17> %scf
| 18>   MaxIter 150
| 19> end
| 20>
| 21>
| 22>                          ****END OF INPUT****

CARTESIAN COORDINATES (ANGSTROEM)
---------------------------------
  C     -0.508350    1.722680   -4.124300
  S     -1.328610    0.146740   -4.435780
  O     -2.571350    0.475730   -5.068340
  F     -1.514960   -0.400510   -3.063420
  O     -0.377930   -0.627560   -5.201140
  H     -0.319670    2.216550   -5.054560
  H      0.418350    1.548590   -3.618520
  H     -1.137140    2.337760   -3.515040

 Total Charge           Charge          ....    0
 Multiplicity           Mult            ....    1
 Number of Electrons    NEL             ....   50
 Basis Dimension        Dim             ....  140

ORBITAL ENERGIES
----------------

  NO   OCC          E(Eh)            E(eV)
   0   2.0000     -88.387825     -2405.1550
   1   2.0000     -24.400491      -663.9711
   2   2.0000     -18.809866      -511.8425
   3   2.0000     -18.806939      -511.7628
   4   2.0000      -9.977843      -271.5109
   5   2.0000      -7.925209      -215.6559
   6   2.0000      -5.964271      -162.2961
   7   2.0000      -5.958242      -162.1320
   8   2.0000      -5.956876      -162.0948
   9   2.0000      -1.231859       -33.5206
  10   2.0000      -1.028460       -27.9858
  11   2.0000      -0.938217       -25.5302
  12   2.0000      -0.719095       -19.5676
  13   2.0000      -0.632234       -17.2040
  14   2.0000      -0.526442       -14.3252
  15   2.0000      -0.498072       -13.5532
  16   2.0000      -0.490477       -13.3465
  17   2.0000      -0.426935       -11.6175
  18   2.0000      -0.424522       -11.5518
  19   2.0000      -0.411552       -11.1989
  20   2.0000      -0.395420       -10.7599
  21   2.0000      -0.346586        -9.4311
  22   2.0000      -0.299640        -8.1536
  23   2.0000      -0.295309        -8.0358
  24   2.0000      -0.277635        -7.5548
  25   0.0000      -0.032105        -0.8736
  26   0.0000       0.005592         0.1522
  27   0.0000       0.009251         0.2517
  28   0.0000       0.032438         0.8827
  29   0.0000       0.033629         0.9151

MULLIKEN ATOMIC CHARGES
-----------------------
   0 C :    0.876919
   1 S :    1.103015
   2 O :   -0.555374
   3 F :   -0.358454
   4 O :   -0.568645
   5 H :   -0.177960
   6 H :   -0.158704
   7 H :   -0.160797
Sum of atomic charges:   -0.0000000

LOEWDIN ATOMIC CHARGES
----------------------
   0 C :    0.132110
   1 S :    1.060441
   2 O :   -0.437880
   3 F :   -0.264019
   4 O :   -0.442919
   5 H :   -0.008161
   6 H :   -0.019545
   7 H :   -0.020028

  Mayer bond orders larger than 0.100000
B(  0-C ,  1-S ) :   0.9623 B(  0-C ,  5-H ) :   0.8442 B(  0-C ,  6-H ) :   0.8562
B(  0-C ,  7-H ) :   0.8553 B(  1-S ,  2-O ) :   1.5873 B(  1-S ,  3-F ) :   0.7087
B(  1-S ,  4-O ) :   1.5754 B(  1-S ,  5-H ) :   0.1353 B(  1-S ,  6-H ) :   0.1183
B(  1-S ,  7-H ) :   0.1167 B(  2-O ,  4-O ) :   0.1251

Dispersion correction           -0.012780479
FINAL SINGLE POINT ENERGY      -687.953877195922

DIPOLE MOMENT
-------------
                                X             Y             Z
Electronic contribution:     -2.32019      -4.67948       1.32567
Nuclear contribution   :      2.84473       5.67605      -0.40731
                        -----------------------------------------
Total Dipole Moment    :      0.52454       0.99658       0.91836
                        -----------------------------------------
Magnitude (a.u.)       :      1.45317
Magnitude (Debye)      :      3.69365

Rotational constants in cm-1:     0.162669     0.154016     0.148818
Rotational constants in MHz :  4876.699308  4617.284822  4461.441982

                             ****ORCA TERMINATED NORMALLY****
TOTAL RUN TIME: 0 days 0 hours 0 minutes 4 seconds 386 msec
