                         Program Version 5.0.0 -  RELEASE  -
|  1> !BLYP D3BJ RIJCOSX def2-SVPD def2/J TightSCF
|  2> *xyz 0 1
|  3> C         -0.50835        1.72268       -4.12430
|  4> S         -1.32861        0.14674       -4.43578
|  5> O         -2.57135        0.47573       -5.06834
|  6> O         -1.51496       -0.40051       -3.06342
|  7> F         -0.37793       -0.62756       -5.20114
|  8> H         -0.31967        2.21655       -5.05456
|  9> H          0.41835        1.54859       -3.61852
| 10> H         -1.13714        2.33776       -3.51504
| 11> *
| 12> %MaxCore 64000
| 13>
| 14> %pal nprocs 4
| 15> end
| 16>
| 17> %scf
| 18>   MaxIter 150
| 19> end
| 20>
| 21>
| 22>                          ****END OF INPUT****

CARTESIAN COORDINATES (ANGSTROEM)
---------------------------------
  C     -0.508350    1.722680   -4.124300
  S     -1.328610    0.146740   -4.435780
  O     -2.571350    0.475730   -5.068340
  O     -1.514960   -0.400510   -3.063420
  F     -0.377930   -0.627560   -5.201140
  H     -0.319670    2.216550   -5.054560
  H      0.418350    1.548590   -3.618520
  H     -1.137140    2.337760   -3.515040

 Total Charge           Charge          ....    0
 Multiplicity           Mult            ....    1
 Number of Electrons    NEL             ....   50
 Basis Dimension        Dim             ....  140

ORBITAL ENERGIES
----------------

  NO   OCC          E(Eh)            E(eV)
   0   2.0000     -88.390174     -2405.2189
   1   2.0000     -24.422346      -664.5658
   2   2.0000     -18.810458      -511.8586
   3   2.0000     -18.792371      -511.3664
   4   2.0000      -9.978837      -271.5380
   5   2.0000      -7.927570      -215.7202
   6   2.0000      -5.966916      -162.3680
   7   2.0000      -5.960341      -162.1891
   8   2.0000      -5.959015      -162.1531
   9   2.0000      -1.267851       -34.5000
  10   2.0000      -1.020200       -27.7611
  11   2.0000      -0.915584       -24.9143
  12   2.0000      -0.720919       -19.6172
  13   2.0000      -0.649921       -17.6852
  14   2.0000      -0.540935       -14.7196
  15   2.0000      -0.522505       -14.2181
  16   2.0000      -0.495694       -13.4885
  17   2.0000      -0.425761       -11.5855
  18   2.0000      -0.425181       -11.5698
  19   2.0000      -0.415006       -11.2929
  20   2.0000      -0.389960       -10.6114
  21   2.0000      -0.340881        -9.2758
  22   2.0000      -0.297238        -8.0883
  23   2.0000      -0.278210        -7.5705
  24   2.0000      -0.261488        -7.1154
  25   0.0000      -0.035610        -0.9690
  26   0.0000       0.005575         0.1517
  27   0.0000       0.006856         0.1866
  28   0.0000       0.030635         0.8336
  29   0.0000       0.032082         0.8730

MULLIKEN ATOMIC CHARGES
-----------------------
   0 C :    0.878799
   1 S :    1.096792
   2 O :   -0.542521
   3 O :   -0.604154
   4 F :   -0.334309
   5 H :   -0.171983
   6 H :   -0.157459
   7 H :   -0.165163
Sum of atomic charges:   -0.0000000

LOEWDIN ATOMIC CHARGES
----------------------
   0 C :    0.131506
   1 S :    1.063003
   2 O :   -0.437275
   3 O :   -0.464531
   4 F :   -0.244834
   5 H :   -0.022364
   6 H :   -0.019473
   7 H :   -0.006032

  Mayer bond orders larger than 0.100000
B(  0-C ,  1-S ) :   0.9650 B(  0-C ,  5-H ) :   0.8506 B(  0-C ,  6-H ) :   0.8553
B(  0-C ,  7-H ) :   0.8494 B(  1-S ,  2-O ) :   1.5902 B(  1-S ,  3-O ) :   1.5368
B(  1-S ,  4-F ) :   0.7629 B(  1-S ,  5-H ) :   0.1075 B(  1-S ,  6-H ) :   0.1161
B(  1-S ,  7-H ) :   0.1413 B(  2-O ,  3-O ) :   0.1045

Dispersion correction           -0.012783535
FINAL SINGLE POINT ENERGY      -687.934799903269

DIPOLE MOMENT
-------------
                                X             Y             Z
Electronic contribution:     -0.45926      -5.04116      -2.19305
Nuclear contribution   :      1.70876       5.90289       1.72841
                        -----------------------------------------
Total Dipole Moment    :      1.24950       0.86174      -0.46464
                        -----------------------------------------
Magnitude (a.u.)       :      1.58737
Magnitude (Debye)      :      4.03477

Rotational constants in cm-1:     0.163253     0.155214     0.147311
Rotational constants in MHz :  4894.200006  4653.189727  4416.272537

                             ****ORCA TERMINATED NORMALLY****
TOTAL RUN TIME: 0 days 0 hours 0 minutes 4 seconds 430 msec
