                         Program Version 5.0.0 -  RELEASE  -
|  1> !BLYP D3BJ RIJCOSX def2-SVPD def2/J TightSCF xyzfile
|  2>
|  3> *xyzfile 0 1 D1.xyz
|  4>
|  5> %MaxCore 64000
|  6>
|  7> %pal nprocs 4
|  8> end
|  9>
| 10> %scf
| 11>   MaxIter 150
| 12> end
| 13>
| 14>
| 15>                          ****END OF INPUT****

CARTESIAN COORDINATES (ANGSTROEM)
---------------------------------
  C      1.364014    0.468742   -2.813764
  C      0.428844    0.321402   -1.655312
  C      0.968045    1.630639   -3.715749
  C     -0.508347    1.722679   -4.124300
  S     -1.328608    0.146737   -4.435781
  H     -0.591511    2.294958   -5.047219
  H     -1.114114    2.235610   -3.374362
  H      0.748578   -0.400542   -1.001345
  H     -0.461053    0.023332   -2.077731
  H      0.310258    1.201375   -1.134948
  F     -2.571347    0.475733   -5.068341
  O     -1.514963   -0.400512   -3.063420
  H      1.294847   -0.468742   -3.364684
  H      2.376216    0.597400   -2.431495
  H      1.578688    1.520652   -4.612733
  H      1.266653    2.575988   -3.250448
  O     -0.377928   -0.627558   -5.201141

 Total Charge           Charge          ....    0
 Multiplicity           Mult            ....    1
 Number of Electrons    NEL             ....   74
 Basis Dimension        Dim             ....  248

ORBITAL ENERGIES
----------------

  NO   OCC          E(Eh)            E(eV)
   0   2.0000     -88.389382     -2405.1974
   1   2.0000     -24.426594      -664.6814
   2   2.0000     -18.807890      -511.7887
   3   2.0000     -18.795452      -511.4503
   4   2.0000      -9.981233      -271.6032
   5   2.0000      -9.944042      -270.5911
   6   2.0000      -9.909199      -269.6430
   7   2.0000      -9.855342      -268.1775
   8   2.0000      -7.926750      -215.6978
   9   2.0000      -5.966151      -162.3472
  10   2.0000      -5.959839      -162.1755
  11   2.0000      -5.957717      -162.1177
  12   2.0000      -1.276489       -34.7350
  13   2.0000      -1.018691       -27.7200
  14   2.0000      -0.921352       -25.0713
  15   2.0000      -0.747050       -20.3283
  16   2.0000      -0.695938       -18.9374
  17   2.0000      -0.649989       -17.6871
  18   2.0000      -0.606148       -16.4941
  19   2.0000      -0.543560       -14.7910
  20   2.0000      -0.530309       -14.4305
  21   2.0000      -0.512494       -13.9457
  22   2.0000      -0.485406       -13.2086
  23   2.0000      -0.451547       -12.2872
  24   2.0000      -0.441843       -12.0232
  25   2.0000      -0.408923       -11.1274
  26   2.0000      -0.405420       -11.0320
  27   2.0000      -0.374734       -10.1970
  28   2.0000      -0.358359        -9.7515
  29   2.0000      -0.353006        -9.6058
  30   2.0000      -0.335844        -9.1388
  31   2.0000      -0.310167        -8.4401
  32   2.0000      -0.301313        -8.1991
  33   2.0000      -0.281419        -7.6578
  34   2.0000      -0.277795        -7.5592
  35   2.0000      -0.266249        -7.2450
  36   2.0000      -0.235258        -6.4017
  37   0.0000      -0.030547        -0.8312
  38   0.0000      -0.008942        -0.2433
  39   0.0000       0.012326         0.3354
  40   0.0000       0.020026         0.5449
  41   0.0000       0.025104         0.6831

MULLIKEN ATOMIC CHARGES
-----------------------
   0 C :   -0.065388
   1 C :    2.645512
   2 C :    0.563291
   3 C :    0.395905
   4 S :    1.443480
   5 H :   -0.405670
   6 H :    0.103870
   7 H :   -0.282749
   8 H :   -1.512439
   9 H :   -0.270842
  10 F :   -0.437475
  11 O :   -0.770755
  12 H :   -0.020873
  13 H :   -0.508514
  14 H :   -0.114550
  15 H :   -0.158525
  16 O :   -0.604278
Sum of atomic charges:    0.0000000

LOEWDIN ATOMIC CHARGES
----------------------
   0 C :   -0.036953
   1 C :    0.153316
   2 C :   -0.008711
   3 C :   -0.032043
   4 S :    1.131324
   5 H :    0.008392
   6 H :    0.022101
   7 H :   -0.026675
   8 H :   -0.179081
   9 H :   -0.026428
  10 F :   -0.233735
  11 O :   -0.427987
  12 H :    0.013288
  13 H :    0.018279
  14 H :    0.022452
  15 H :    0.032419
  16 O :   -0.429957

  Mayer bond orders larger than 0.100000
B(  0-C ,  1-C ) :   0.8841 B(  0-C ,  2-C ) :   1.1960 B(  0-C ,  3-C ) :   0.1077
B(  0-C ,  7-H ) :   0.3273 B(  0-C ,  8-H ) :   0.6997 B(  0-C ,  9-H ) :   0.3632
B(  0-C , 12-H ) :   0.7407 B(  0-C , 13-H ) :   0.7832 B(  0-C , 14-H ) :   0.1887
B(  0-C , 15-H ) :   0.2136 B(  1-C ,  3-C ) :  -0.1105 B(  1-C ,  4-S ) :   0.1171
B(  1-C ,  7-H ) :   0.1812 B(  1-C ,  8-H ) :  -1.6295 B(  1-C , 11-O ) :  -0.2252
B(  1-C , 12-H ) :   0.1917 B(  2-C ,  3-C ) :   1.2533 B(  2-C ,  5-H ) :   0.2510
B(  2-C ,  6-H ) :   0.1380 B(  2-C , 12-H ) :   0.1929 B(  2-C , 14-H ) :   0.7318
B(  2-C , 15-H ) :   0.6437 B(  3-C ,  4-S ) :   0.9075 B(  3-C ,  5-H ) :   0.6989
B(  3-C ,  6-H ) :   0.8202 B(  3-C ,  8-H ) :   0.1835 B(  3-C , 11-O ) :   0.1613
B(  3-C , 14-H ) :   0.1728 B(  3-C , 15-H ) :   0.1386 B(  4-S ,  5-H ) :   0.1052
B(  4-S ,  8-H ) :  -0.1835 B(  4-S , 10-F ) :   0.7303 B(  4-S , 11-O ) :   1.3755
B(  4-S , 16-O ) :   1.5160 B(  5-H ,  8-H ) :  -0.1144 B(  7-H ,  8-H ) :   0.4004
B(  7-H ,  9-H ) :  -0.2718 B(  7-H , 14-H ) :   0.1024 B(  8-H ,  9-H ) :   0.6756
B(  8-H , 11-O ) :   0.4057 B(  9-H , 13-H ) :   0.1033 B( 12-H , 13-H ) :  -0.1564
B( 14-H , 15-H ) :  -0.1026

Dispersion correction           -0.036994389
FINAL SINGLE POINT ENERGY      -805.684034750126

DIPOLE MOMENT
-------------
                                X             Y             Z
Electronic contribution:    -12.43048      -4.09753      -9.68234
Nuclear contribution   :     12.25227       5.48563       9.26621
                        -----------------------------------------
Total Dipole Moment    :     -0.17821       1.38810      -0.41613
                        -----------------------------------------
Magnitude (a.u.)       :      1.46005
Magnitude (Debye)      :      3.71116

Rotational constants in cm-1:     0.103176     0.044975     0.040960
Rotational constants in MHz :  3093.138469  1348.317425  1227.945122

                             ****ORCA TERMINATED NORMALLY****
TOTAL RUN TIME: 0 days 0 hours 0 minutes 14 seconds 696 msec
