                         Program Version 5.0.0 -  RELEASE  -
|  1> !wB97X-D3 RIJCOSX def2-SVPD def2/J TightSCF CPCM(Water)
|  2> *xyz -1 1
|  3> C          4.12921        0.89839       -3.41895
|  4> C          5.01734        1.31521       -2.22130
|  5> O          4.73706        0.85411       -1.12283
|  6> O          5.92815        2.16811       -2.49136
|  7> H          4.48610        1.37210       -4.30953
|  8> H          3.11885        1.19903       -3.23540
|  9> H          4.16886       -0.16404       -3.53966
| 10> *
| 11> %MaxCore 64000
| 12>
| 13> %pal nprocs 18
| 14> end
| 15>
| 16> %scf
| 17>   MaxIter 150
| 18> end
| 19>
| 20>
| 21>                          ****END OF INPUT****

CARTESIAN COORDINATES (ANGSTROEM)
---------------------------------
  C      4.129210    0.898390   -3.418950
  C      5.017340    1.315210   -2.221300
  O      4.737060    0.854110   -1.122830
  O      5.928150    2.168110   -2.491360
  H      4.486100    1.372100   -4.309530
  H      3.118850    1.199030   -3.235400
  H      4.168860   -0.164040   -3.539660

 Total Charge           Charge          ....   -1
 Multiplicity           Mult            ....    1
 Number of Electrons    NEL             ....   32
 Basis Dimension        Dim             ....  110

ORBITAL ENERGIES
----------------

  NO   OCC          E(Eh)            E(eV)
   0   2.0000     -19.183420      -522.0074
   1   2.0000     -19.174779      -521.7723
   2   2.0000     -10.369720      -282.1744
   3   2.0000     -10.258944      -279.1601
   4   2.0000      -1.129786       -30.7430
   5   2.0000      -1.031545       -28.0698
   6   2.0000      -0.812356       -22.1053
   7   2.0000      -0.587501       -15.9867
   8   2.0000      -0.530868       -14.4457
   9   2.0000      -0.523891       -14.2558
  10   2.0000      -0.519890       -14.1469
  11   2.0000      -0.471737       -12.8366
  12   2.0000      -0.451308       -12.2807
  13   2.0000      -0.346053        -9.4166
  14   2.0000      -0.331003        -9.0070
  15   2.0000      -0.324793        -8.8381
  16   0.0000       0.096554         2.6274
  17   0.0000       0.133710         3.6384
  18   0.0000       0.134411         3.6575
  19   0.0000       0.149850         4.0776
  20   0.0000       0.173136         4.7113

MULLIKEN ATOMIC CHARGES
-----------------------
   0 C :    0.398759
   1 C :    0.019460
   2 O :   -0.630134
   3 O :   -0.719253
   4 H :   -0.058987
   5 H :   -0.004687
   6 H :   -0.005159
Sum of atomic charges:   -1.0000000

LOEWDIN ATOMIC CHARGES
----------------------
   0 C :    0.158083
   1 C :   -0.351872
   2 O :   -0.342587
   3 O :   -0.395590
   4 H :   -0.031442
   5 H :   -0.017297
   6 H :   -0.019295

  Mayer bond orders larger than 0.100000
B(  0-C ,  1-C ) :   1.2124 B(  0-C ,  4-H ) :   0.8950 B(  0-C ,  5-H ) :   0.8384
B(  0-C ,  6-H ) :   0.8303 B(  1-C ,  2-O ) :   1.5550 B(  1-C ,  3-O ) :   1.4646
B(  1-C ,  4-H ) :   0.2040 B(  1-C ,  5-H ) :   0.1323 B(  1-C ,  6-H ) :   0.1396
B(  2-O ,  3-O ) :   0.1058

Dispersion correction           -0.000905406
FINAL SINGLE POINT ENERGY      -228.413999068357

DIPOLE MOMENT
-------------
                                X             Y             Z
Electronic contribution:      1.67048       0.73144       2.46756
Nuclear contribution   :     -2.87913      -1.42371      -3.86600
                        -----------------------------------------
Total Dipole Moment    :     -1.20865      -0.69227      -1.39844
                        -----------------------------------------
Magnitude (a.u.)       :      1.97376
Magnitude (Debye)      :      5.01689

Rotational constants in cm-1:     0.390018     0.334370     0.186171
Rotational constants in MHz : 11692.450907 10024.149143  5581.251544

                             ****ORCA TERMINATED NORMALLY****
TOTAL RUN TIME: 0 days 0 hours 0 minutes 5 seconds 658 msec
