                         Program Version 5.0.0 -  RELEASE  -
|  1> !wB97X-D3 RIJCOSX def2-SVPD def2/J TightSCF CPCM(Water)
|  2> *xyz 1 1
|  3> C          3.34350        3.35457       -3.59200
|  4> C          4.25587        3.70385       -4.72605
|  5> N          3.73403        4.29378       -5.80077
|  6> N          5.51504        3.40725       -4.63718
|  7> H          6.14919        3.60120       -5.39905
|  8> H          5.81358        2.89950       -3.80879
|  9> H          2.74138        4.51311       -5.82470
| 10> H          4.28755        4.52126       -6.61434
| 11> H          2.34726        3.66659       -3.82664
| 12> H          3.67283        3.85124       -2.70331
| 13> H          3.35820        2.29620       -3.43538
| 14> *
| 15> %MaxCore 64000
| 16>
| 17> %pal nprocs 18
| 18> end
| 19>
| 20> %scf
| 21>   MaxIter 150
| 22> end
| 23>
| 24>
| 25>                          ****END OF INPUT****

CARTESIAN COORDINATES (ANGSTROEM)
---------------------------------
  C      3.343500    3.354570   -3.592000
  C      4.255870    3.703850   -4.726050
  N      3.734030    4.293780   -5.800770
  N      5.515040    3.407250   -4.637180
  H      6.149190    3.601200   -5.399050
  H      5.813580    2.899500   -3.808790
  H      2.741380    4.513110   -5.824700
  H      4.287550    4.521260   -6.614340
  H      2.347260    3.666590   -3.826640
  H      3.672830    3.851240   -2.703310
  H      3.358200    2.296200   -3.435380

 Total Charge           Charge          ....    1
 Multiplicity           Mult            ....    1
 Number of Electrons    NEL             ....   32
 Basis Dimension        Dim             ....  136

ORBITAL ENERGIES
----------------

  NO   OCC          E(Eh)            E(eV)
   0   2.0000     -14.499899      -394.5623
   1   2.0000     -14.497108      -394.4864
   2   2.0000     -10.438261      -284.0395
   3   2.0000     -10.310014      -280.5498
   4   2.0000      -1.131699       -30.7951
   5   2.0000      -1.032951       -28.1080
   6   2.0000      -0.883010       -24.0279
   7   2.0000      -0.759164       -20.6579
   8   2.0000      -0.697806       -18.9883
   9   2.0000      -0.685575       -18.6554
  10   2.0000      -0.616133       -16.7658
  11   2.0000      -0.583525       -15.8785
  12   2.0000      -0.532354       -14.4861
  13   2.0000      -0.521161       -14.1815
  14   2.0000      -0.493725       -13.4349
  15   2.0000      -0.404896       -11.0178
  16   0.0000       0.052963         1.4412
  17   0.0000       0.088846         2.4176
  18   0.0000       0.129127         3.5137
  19   0.0000       0.136795         3.7224
  20   0.0000       0.157006         4.2724

MULLIKEN ATOMIC CHARGES
-----------------------
   0 C :    0.444464
   1 C :    0.297830
   2 N :   -0.123728
   3 N :    0.081035
   4 H :   -0.086923
   5 H :    0.120515
   6 H :    0.122276
   7 H :   -0.065898
   8 H :    0.078352
   9 H :    0.069722
  10 H :    0.062355
Sum of atomic charges:    1.0000000

LOEWDIN ATOMIC CHARGES
----------------------
   0 C :    0.220958
   1 C :   -0.060072
   2 N :    0.276337
   3 N :    0.280050
   4 H :    0.062126
   5 H :    0.069332
   6 H :    0.054651
   7 H :    0.052486
   8 H :    0.004475
   9 H :    0.019540
  10 H :    0.020116

  Mayer bond orders larger than 0.100000
B(  0-C ,  1-C ) :   1.2698 B(  0-C ,  8-H ) :   0.7980 B(  0-C ,  9-H ) :   0.7822
B(  0-C , 10-H ) :   0.8052 B(  1-C ,  2-N ) :   0.9683 B(  1-C ,  3-N ) :   1.2524
B(  1-C ,  4-H ) :  -0.1326 B(  1-C ,  7-H ) :  -0.2234 B(  1-C ,  8-H ) :   0.2293
B(  1-C ,  9-H ) :   0.1644 B(  1-C , 10-H ) :   0.1420 B(  2-N ,  3-N ) :   0.1399
B(  2-N ,  6-H ) :   1.0349 B(  2-N ,  7-H ) :   1.3439 B(  3-N ,  4-H ) :   1.2520
B(  3-N ,  5-H ) :   1.0499 B(  4-H ,  5-H ) :  -0.1438 B(  6-H ,  7-H ) :  -0.1715
B(  8-H ,  9-H ) :   0.1005

Dispersion correction           -0.001665635
FINAL SINGLE POINT ENERGY      -189.642771504119

DIPOLE MOMENT
-------------
                                X             Y             Z
Electronic contribution:      1.54580       0.52536      -1.74120
Nuclear contribution   :     -1.09951      -0.46604       1.22975
                        -----------------------------------------
Total Dipole Moment    :      0.44629       0.05932      -0.51145
                        -----------------------------------------
Magnitude (a.u.)       :      0.68138
Magnitude (Debye)      :      1.73193

Rotational constants in cm-1:     0.329035     0.303839     0.162676
Rotational constants in MHz :  9864.215808  9108.853745  4876.907929

                             ****ORCA TERMINATED NORMALLY****
TOTAL RUN TIME: 0 days 0 hours 0 minutes 7 seconds 193 msec
