                         Program Version 5.0.0 -  RELEASE  -
|  1> !wB97X-D3 RIJCOSX def2-SVPD def2/J TightSCF CPCM(Water)
|  2> *xyz 0 1
|  3> C          4.12921        0.89839       -3.41895
|  4> C          5.01734        1.31521       -2.22130
|  5> F          4.73706        0.85411       -1.12283
|  6> O          5.92815        2.16811       -2.49136
|  7> H          4.48610        1.37210       -4.30953
|  8> H          3.11885        1.19903       -3.23540
|  9> H          4.16886       -0.16404       -3.53966
| 10> *
| 11> %MaxCore 64000
| 12>
| 13> %pal nprocs 18
| 14> end
| 15>
| 16> %scf
| 17>   MaxIter 150
| 18> end
| 19>
| 20>
| 21>                          ****END OF INPUT****

CARTESIAN COORDINATES (ANGSTROEM)
---------------------------------
  C      4.129210    0.898390   -3.418950
  C      5.017340    1.315210   -2.221300
  F      4.737060    0.854110   -1.122830
  O      5.928150    2.168110   -2.491360
  H      4.486100    1.372100   -4.309530
  H      3.118850    1.199030   -3.235400
  H      4.168860   -0.164040   -3.539660

 Total Charge           Charge          ....    0
 Multiplicity           Mult            ....    1
 Number of Electrons    NEL             ....   32
 Basis Dimension        Dim             ....  110

ORBITAL ENERGIES
----------------

  NO   OCC          E(Eh)            E(eV)
   0   2.0000     -24.889469      -677.2769
   1   2.0000     -19.260476      -524.1042
   2   2.0000     -10.487548      -285.3807
   3   2.0000     -10.300791      -280.2988
   4   2.0000      -1.451425       -39.4953
   5   2.0000      -1.139336       -31.0029
   6   2.0000      -0.869031       -23.6475
   7   2.0000      -0.780624       -21.2419
   8   2.0000      -0.673051       -18.3146
   9   2.0000      -0.663168       -18.0457
  10   2.0000      -0.611325       -16.6350
  11   2.0000      -0.529295       -14.4028
  12   2.0000      -0.521303       -14.1854
  13   2.0000      -0.499278       -13.5861
  14   2.0000      -0.455494       -12.3946
  15   2.0000      -0.396821       -10.7980
  16   0.0000       0.052626         1.4320
  17   0.0000       0.089771         2.4428
  18   0.0000       0.131017         3.5652
  19   0.0000       0.154069         4.1924
  20   0.0000       0.161867         4.4046

MULLIKEN ATOMIC CHARGES
-----------------------
   0 C :    0.241259
   1 C :    0.457254
   2 F :   -0.332138
   3 O :   -0.546661
   4 H :   -0.003992
   5 H :    0.094195
   6 H :    0.090082
Sum of atomic charges:   -0.0000000

LOEWDIN ATOMIC CHARGES
----------------------
   0 C :    0.221012
   1 C :   -0.017926
   2 F :   -0.006101
   3 O :   -0.209831
   4 H :   -0.001496
   5 H :    0.008370
   6 H :    0.005972

  Mayer bond orders larger than 0.100000
B(  0-C ,  1-C ) :   1.2442 B(  0-C ,  4-H ) :   0.9234 B(  0-C ,  5-H ) :   0.8305
B(  0-C ,  6-H ) :   0.8274 B(  1-C ,  2-F ) :   0.8171 B(  1-C ,  3-O ) :   1.7806
B(  1-C ,  4-H ) :   0.1725 B(  1-C ,  5-H ) :   0.1002 B(  1-C ,  6-H ) :   0.1044

Dispersion correction           -0.000899171
FINAL SINGLE POINT ENERGY      -252.836529120873

DIPOLE MOMENT
-------------
                                X             Y             Z
Electronic contribution:      1.43177      -0.01803       4.81723
Nuclear contribution   :     -2.65749      -0.95231      -5.09883
                        -----------------------------------------
Total Dipole Moment    :     -1.22572      -0.97034      -0.28160
                        -----------------------------------------
Magnitude (a.u.)       :      1.58847
Magnitude (Debye)      :      4.03758

Rotational constants in cm-1:     0.365278     0.322469     0.176821
Rotational constants in MHz : 10950.755781  9667.377070  5300.957073

                             ****ORCA TERMINATED NORMALLY****
TOTAL RUN TIME: 0 days 0 hours 0 minutes 6 seconds 626 msec
