                         Program Version 5.0.0 -  RELEASE  -
|  1> !wB97X-D3 RIJCOSX def2-SVPD def2/J TightSCF CPCM(Water)
|  2> *xyz 0 1
|  3> C          3.34350        3.35457       -3.59200
|  4> C          4.25587        3.70385       -4.72605
|  5> C          3.73403        4.29378       -5.80077
|  6> N          5.51504        3.40725       -4.63718
|  7> H          6.14919        3.60120       -5.39905
|  8> H          5.81358        2.89950       -3.80879
|  9> H          2.74138        4.51311       -5.82470
| 10> H          4.28755        4.52126       -6.61434
| 11> H          2.34726        3.66659       -3.82664
| 12> H          3.67283        3.85124       -2.70331
| 13> H          3.35820        2.29620       -3.43538
| 14> *
| 15> %MaxCore 64000
| 16>
| 17> %pal nprocs 18
| 18> end
| 19>
| 20> %scf
| 21>   MaxIter 150
| 22> end
| 23>
| 24>
| 25>                          ****END OF INPUT****

CARTESIAN COORDINATES (ANGSTROEM)
---------------------------------
  C      3.343500    3.354570   -3.592000
  C      4.255870    3.703850   -4.726050
  C      3.734030    4.293780   -5.800770
  N      5.515040    3.407250   -4.637180
  H      6.149190    3.601200   -5.399050
  H      5.813580    2.899500   -3.808790
  H      2.741380    4.513110   -5.824700
  H      4.287550    4.521260   -6.614340
  H      2.347260    3.666590   -3.826640
  H      3.672830    3.851240   -2.703310
  H      3.358200    2.296200   -3.435380

 Total Charge           Charge          ....    0
 Multiplicity           Mult            ....    1
 Number of Electrons    NEL             ....   32
 Basis Dimension        Dim             ....  136

ORBITAL ENERGIES
----------------

  NO   OCC          E(Eh)            E(eV)
   0   2.0000     -14.434128      -392.7726
   1   2.0000     -10.317542      -280.7546
   2   2.0000     -10.274713      -279.5892
   3   2.0000     -10.223499      -278.1956
   4   2.0000      -1.042975       -28.3808
   5   2.0000      -0.864106       -23.5135
   6   2.0000      -0.795108       -21.6360
   7   2.0000      -0.674848       -18.3636
   8   2.0000      -0.628591       -17.1048
   9   2.0000      -0.576515       -15.6878
  10   2.0000      -0.532907       -14.5011
  11   2.0000      -0.492688       -13.4067
  12   2.0000      -0.488383       -13.2896
  13   2.0000      -0.446520       -12.1504
  14   2.0000      -0.435516       -11.8510
  15   2.0000      -0.281238        -7.6529
  16   0.0000       0.096685         2.6309
  17   0.0000       0.124155         3.3784
  18   0.0000       0.131699         3.5837
  19   0.0000       0.138746         3.7755
  20   0.0000       0.168663         4.5896

MULLIKEN ATOMIC CHARGES
-----------------------
   0 C :    0.726081
   1 C :   -0.676051
   2 C :    0.412438
   3 N :    0.259958
   4 H :   -0.137668
   5 H :   -0.061313
   6 H :   -0.118334
   7 H :   -0.436309
   8 H :    0.046439
   9 H :   -0.007422
  10 H :   -0.007818
Sum of atomic charges:    0.0000000

LOEWDIN ATOMIC CHARGES
----------------------
   0 C :    0.161144
   1 C :   -0.309380
   2 C :    0.140633
   3 N :    0.168701
   4 H :    0.026177
   5 H :    0.026239
   6 H :   -0.095269
   7 H :   -0.096347
   8 H :   -0.013208
   9 H :   -0.004855
  10 H :   -0.003835

  Mayer bond orders larger than 0.100000
B(  0-C ,  1-C ) :   1.3059 B(  0-C ,  8-H ) :   0.7947 B(  0-C ,  9-H ) :   0.6908
B(  0-C , 10-H ) :   0.7097 B(  1-C ,  2-C ) :   1.7710 B(  1-C ,  3-N ) :   1.3017
B(  1-C ,  7-H ) :   0.1355 B(  1-C ,  8-H ) :   0.2218 B(  1-C ,  9-H ) :   0.2621
B(  1-C , 10-H ) :   0.2465 B(  2-C ,  3-N ) :   0.2073 B(  2-C ,  6-H ) :   0.9520
B(  2-C ,  7-H ) :   0.8361 B(  3-N ,  4-H ) :   1.1970 B(  3-N ,  5-H ) :   1.0992
B(  4-H ,  5-H ) :  -0.1165 B(  8-H , 10-H ) :   0.1018

Dispersion correction           -0.001676388
FINAL SINGLE POINT ENERGY      -173.094358892890

DIPOLE MOMENT
-------------
                                X             Y             Z
Electronic contribution:      1.99088      -0.20818      -0.34700
Nuclear contribution   :     -1.20871      -0.33119       0.98382
                        -----------------------------------------
Total Dipole Moment    :      0.78218      -0.53938       0.63682
                        -----------------------------------------
Magnitude (a.u.)       :      1.14379
Magnitude (Debye)      :      2.90729

Rotational constants in cm-1:     0.348453     0.308655     0.168735
Rotational constants in MHz : 10446.369928  9253.232733  5058.539653

                             ****ORCA TERMINATED NORMALLY****
TOTAL RUN TIME: 0 days 0 hours 0 minutes 7 seconds 514 msec
