                         Program Version 5.0.0 -  RELEASE  -
|  1> !wB97X-D3 RIJCOSX def2-SVPD def2/J TightSCF CPCM(Water)
|  2> *xyz 0 1
|  3> C          4.12921        0.89839       -3.41895
|  4> C          5.01734        1.31521       -2.22130
|  5> O          4.73706        0.85411       -1.12283
|  6> F          5.92815        2.16811       -2.49136
|  7> H          4.48610        1.37210       -4.30953
|  8> H          3.11885        1.19903       -3.23540
|  9> H          4.16886       -0.16404       -3.53966
| 10> *
| 11> %MaxCore 64000
| 12>
| 13> %pal nprocs 18
| 14> end
| 15>
| 16> %scf
| 17>   MaxIter 150
| 18> end
| 19>
| 20>
| 21>                          ****END OF INPUT****

CARTESIAN COORDINATES (ANGSTROEM)
---------------------------------
  C      4.129210    0.898390   -3.418950
  C      5.017340    1.315210   -2.221300
  O      4.737060    0.854110   -1.122830
  F      5.928150    2.168110   -2.491360
  H      4.486100    1.372100   -4.309530
  H      3.118850    1.199030   -3.235400
  H      4.168860   -0.164040   -3.539660

 Total Charge           Charge          ....    0
 Multiplicity           Mult            ....    1
 Number of Electrons    NEL             ....   32
 Basis Dimension        Dim             ....  110

ORBITAL ENERGIES
----------------

  NO   OCC          E(Eh)            E(eV)
   0   2.0000     -24.869838      -676.7427
   1   2.0000     -19.268719      -524.3285
   2   2.0000     -10.482408      -285.2408
   3   2.0000     -10.300446      -280.2894
   4   2.0000      -1.411966       -38.4215
   5   2.0000      -1.171304       -31.8728
   6   2.0000      -0.866840       -23.5879
   7   2.0000      -0.760402       -20.6916
   8   2.0000      -0.650330       -17.6964
   9   2.0000      -0.644383       -17.5345
  10   2.0000      -0.615099       -16.7377
  11   2.0000      -0.531985       -14.4761
  12   2.0000      -0.526149       -14.3172
  13   2.0000      -0.502021       -13.6607
  14   2.0000      -0.469177       -12.7670
  15   2.0000      -0.407573       -11.0906
  16   0.0000       0.056060         1.5255
  17   0.0000       0.091143         2.4801
  18   0.0000       0.131126         3.5681
  19   0.0000       0.152262         4.1432
  20   0.0000       0.160955         4.3798

MULLIKEN ATOMIC CHARGES
-----------------------
   0 C :    0.224285
   1 C :    0.429949
   2 O :   -0.479481
   3 F :   -0.375262
   4 H :    0.029152
   5 H :    0.088430
   6 H :    0.082926
Sum of atomic charges:   -0.0000000

LOEWDIN ATOMIC CHARGES
----------------------
   0 C :    0.222462
   1 C :   -0.016400
   2 O :   -0.163751
   3 F :   -0.054316
   4 H :   -0.006475
   5 H :    0.009999
   6 H :    0.008482

  Mayer bond orders larger than 0.100000
B(  0-C ,  1-C ) :   1.2537 B(  0-C ,  4-H ) :   0.9085 B(  0-C ,  5-H ) :   0.8385
B(  0-C ,  6-H ) :   0.8323 B(  1-C ,  2-O ) :   1.8299 B(  1-C ,  3-F ) :   0.7764
B(  1-C ,  4-H ) :   0.1311 B(  1-C ,  5-H ) :   0.1087 B(  1-C ,  6-H ) :   0.1183

Dispersion correction           -0.000910782
FINAL SINGLE POINT ENERGY      -252.850810703060

DIPOLE MOMENT
-------------
                                X             Y             Z
Electronic contribution:      3.61984       2.39002       2.31951
Nuclear contribution   :     -3.88824      -2.31007      -3.68473
                        -----------------------------------------
Total Dipole Moment    :     -0.26840       0.07995      -1.36521
                        -----------------------------------------
Magnitude (a.u.)       :      1.39364
Magnitude (Debye)      :      3.54236

Rotational constants in cm-1:     0.367620     0.319924     0.176595
Rotational constants in MHz : 11020.955969  9591.092757  5294.190719

                             ****ORCA TERMINATED NORMALLY****
TOTAL RUN TIME: 0 days 0 hours 0 minutes 5 seconds 793 msec
