                         Program Version 5.0.0 -  RELEASE  -
|  1> !wB97X-D3 RIJCOSX def2-SVPD def2/J TightSCF CPCM(Water)
|  2> *xyz 0 1
|  3> C          3.34350        3.35457       -3.59200
|  4> C          4.25587        3.70385       -4.72605
|  5> N          3.73403        4.29378       -5.80077
|  6> C          5.51504        3.40725       -4.63718
|  7> H          6.14919        3.60120       -5.39905
|  8> H          5.81358        2.89950       -3.80879
|  9> H          2.74138        4.51311       -5.82470
| 10> H          4.28755        4.52126       -6.61434
| 11> H          2.34726        3.66659       -3.82664
| 12> H          3.67283        3.85124       -2.70331
| 13> H          3.35820        2.29620       -3.43538
| 14> *
| 15> %MaxCore 64000
| 16>
| 17> %pal nprocs 18
| 18> end
| 19>
| 20> %scf
| 21>   MaxIter 150
| 22> end
| 23>
| 24>
| 25>                          ****END OF INPUT****

CARTESIAN COORDINATES (ANGSTROEM)
---------------------------------
  C      3.343500    3.354570   -3.592000
  C      4.255870    3.703850   -4.726050
  N      3.734030    4.293780   -5.800770
  C      5.515040    3.407250   -4.637180
  H      6.149190    3.601200   -5.399050
  H      5.813580    2.899500   -3.808790
  H      2.741380    4.513110   -5.824700
  H      4.287550    4.521260   -6.614340
  H      2.347260    3.666590   -3.826640
  H      3.672830    3.851240   -2.703310
  H      3.358200    2.296200   -3.435380

 Total Charge           Charge          ....    0
 Multiplicity           Mult            ....    1
 Number of Electrons    NEL             ....   32
 Basis Dimension        Dim             ....  136

ORBITAL ENERGIES
----------------

  NO   OCC          E(Eh)            E(eV)
   0   2.0000     -14.431888      -392.7116
   1   2.0000     -10.314259      -280.6653
   2   2.0000     -10.274210      -279.5755
   3   2.0000     -10.220295      -278.1084
   4   2.0000      -1.029521       -28.0147
   5   2.0000      -0.868973       -23.6460
   6   2.0000      -0.798169       -21.7193
   7   2.0000      -0.670476       -18.2446
   8   2.0000      -0.618863       -16.8401
   9   2.0000      -0.577889       -15.7252
  10   2.0000      -0.530044       -14.4232
  11   2.0000      -0.494738       -13.4625
  12   2.0000      -0.486322       -13.2335
  13   2.0000      -0.449987       -12.2448
  14   2.0000      -0.431675       -11.7465
  15   2.0000      -0.284370        -7.7381
  16   0.0000       0.097418         2.6509
  17   0.0000       0.122436         3.3317
  18   0.0000       0.132202         3.5974
  19   0.0000       0.137994         3.7550
  20   0.0000       0.169350         4.6083

MULLIKEN ATOMIC CHARGES
-----------------------
   0 C :    0.678968
   1 C :   -0.423315
   2 N :    0.041234
   3 C :    0.328331
   4 H :   -0.338125
   5 H :   -0.126357
   6 H :   -0.026459
   7 H :   -0.122318
   8 H :   -0.079777
   9 H :    0.037250
  10 H :    0.030567
Sum of atomic charges:   -0.0000000

LOEWDIN ATOMIC CHARGES
----------------------
   0 C :    0.161717
   1 C :   -0.298478
   2 N :    0.167469
   3 C :    0.128182
   4 H :   -0.085106
   5 H :   -0.076663
   6 H :    0.010722
   7 H :    0.015391
   8 H :   -0.018592
   9 H :   -0.002561
  10 H :   -0.002081

  Mayer bond orders larger than 0.100000
B(  0-C ,  1-C ) :   1.1258 B(  0-C ,  3-C ) :   0.1104 B(  0-C ,  8-H ) :   0.7580
B(  0-C ,  9-H ) :   0.7539 B(  0-C , 10-H ) :   0.7647 B(  1-C ,  2-N ) :   1.0477
B(  1-C ,  3-C ) :   1.9184 B(  1-C ,  4-H ) :   0.2173 B(  1-C ,  5-H ) :   0.1404
B(  1-C ,  7-H ) :  -0.1362 B(  1-C ,  8-H ) :   0.2586 B(  1-C ,  9-H ) :   0.1768
B(  1-C , 10-H ) :   0.1625 B(  2-N ,  3-C ) :   0.2180 B(  2-N ,  6-H ) :   1.0911
B(  2-N ,  7-H ) :   1.2967 B(  3-C ,  4-H ) :   0.7934 B(  3-C ,  5-H ) :   0.7915
B(  6-H ,  7-H ) :  -0.1574

Dispersion correction           -0.001663070
FINAL SINGLE POINT ENERGY      -173.092731692438

DIPOLE MOMENT
-------------
                                X             Y             Z
Electronic contribution:     -0.06625       0.82313      -1.66276
Nuclear contribution   :     -0.80929      -0.53001       1.24477
                        -----------------------------------------
Total Dipole Moment    :     -0.87554       0.29312      -0.41799
                        -----------------------------------------
Magnitude (a.u.)       :      1.01351
Magnitude (Debye)      :      2.57613

Rotational constants in cm-1:     0.352070     0.305406     0.168593
Rotational constants in MHz : 10554.792117  9155.853997  5054.288053

                             ****ORCA TERMINATED NORMALLY****
TOTAL RUN TIME: 0 days 0 hours 0 minutes 7 seconds 416 msec
