                         Program Version 5.0.0 -  RELEASE  -
|  1> !wB97X-D3 RIJCOSX def2-SVPD def2/J TightSCF CPCM(Water) xyzfile
|  2>
|  3> *xyzfile 0 1 D1.xyz
|  4>
|  5> %MaxCore 64000
|  6>
|  7> %pal nprocs 18
|  8> end
|  9>
| 10> %scf
| 11>   MaxIter 150
| 12> end
| 13>
| 14>
| 15>                          ****END OF INPUT****

CARTESIAN COORDINATES (ANGSTROEM)
---------------------------------
  C      3.343500    3.354571   -3.591998
  C      2.952633    1.863077   -3.574849
  C      4.129209    0.898394   -3.418950
  H      3.733687   -0.100605   -3.237633
  H      4.719095    0.862556   -4.339005
  C      5.017344    1.315212   -2.221305
  C      4.255868    3.703851   -4.726054
  C      3.734032    4.293783   -5.800770
  N      5.515039    3.407255   -4.637185
  H      6.149187    3.601203   -5.399053
  H      5.813584    2.899504   -3.808785
  H      2.741380    4.513109   -5.824701
  H      4.287548    4.521260   -6.614341
  H      2.278938    1.735250   -2.725496
  H      2.377466    1.625787   -4.475869
  F      4.737055    0.854112   -1.122825
  O      5.928146    2.168108   -2.491365
  H      3.861246    3.597252   -2.662979
  H      2.446493    3.973461   -3.656556

 Total Charge           Charge          ....    0
 Multiplicity           Mult            ....    1
 Number of Electrons    NEL             ....   70
 Basis Dimension        Dim             ....  266

ORBITAL ENERGIES
----------------

  NO   OCC          E(Eh)            E(eV)
   0   2.0000     -24.899775      -677.5573
   1   2.0000     -19.274801      -524.4940
   2   2.0000     -14.408179      -392.0665
   3   2.0000     -10.500225      -285.7256
   4   2.0000     -10.315433      -280.6972
   5   2.0000     -10.310439      -280.5613
   6   2.0000     -10.302249      -280.3384
   7   2.0000     -10.287803      -279.9453
   8   2.0000     -10.218789      -278.0674
   9   2.0000      -1.460311       -39.7371
  10   2.0000      -1.163902       -31.6714
  11   2.0000      -1.032147       -28.0861
  12   2.0000      -0.924748       -25.1637
  13   2.0000      -0.858429       -23.3590
  14   2.0000      -0.817227       -22.2379
  15   2.0000      -0.783636       -21.3238
  16   2.0000      -0.733136       -19.9497
  17   2.0000      -0.685257       -18.6468
  18   2.0000      -0.679152       -18.4807
  19   2.0000      -0.652010       -17.7421
  20   2.0000      -0.647207       -17.6114
  21   2.0000      -0.606985       -16.5169
  22   2.0000      -0.584027       -15.8922
  23   2.0000      -0.554914       -15.1000
  24   2.0000      -0.541753       -14.7418
  25   2.0000      -0.527719       -14.3600
  26   2.0000      -0.491797       -13.3825
  27   2.0000      -0.477065       -12.9816
  28   2.0000      -0.472172       -12.8484
  29   2.0000      -0.469033       -12.7630
  30   2.0000      -0.447262       -12.1706
  31   2.0000      -0.426611       -11.6087
  32   2.0000      -0.417571       -11.3627
  33   2.0000      -0.399882       -10.8814
  34   2.0000      -0.272893        -7.4258
  35   0.0000       0.034217         0.9311
  36   0.0000       0.088497         2.4081
  37   0.0000       0.109602         2.9824
  38   0.0000       0.114211         3.1078
  39   0.0000       0.123911         3.3718

MULLIKEN ATOMIC CHARGES
-----------------------
   0 C :    0.315789
   1 C :   -0.086651
   2 C :    0.025281
   3 H :   -0.049911
   4 H :    0.182876
   5 C :    0.903108
   6 C :   -0.193548
   7 C :    0.306380
   8 N :    0.590103
   9 H :   -0.152130
  10 H :   -0.473462
  11 H :   -0.125842
  12 H :   -0.364684
  13 H :    0.088995
  14 H :   -0.111982
  15 F :   -0.374868
  16 O :   -0.563384
  17 H :    0.081835
  18 H :    0.002095
Sum of atomic charges:    0.0000000

LOEWDIN ATOMIC CHARGES
----------------------
   0 C :    0.018452
   1 C :    0.006947
   2 C :    0.071558
   3 H :    0.036766
   4 H :    0.038516
   5 C :    0.071711
   6 C :   -0.258465
   7 C :    0.142360
   8 N :    0.199738
   9 H :    0.028446
  10 H :   -0.145453
  11 H :   -0.096894
  12 H :   -0.098064
  13 H :    0.032228
  14 H :    0.035805
  15 F :    0.021575
  16 O :   -0.155741
  17 H :    0.021228
  18 H :    0.029287

  Mayer bond orders larger than 0.100000
B(  0-C ,  1-C ) :   1.1795 B(  0-C ,  6-C ) :   1.1681 B(  0-C , 13-H ) :   0.1039
B(  0-C , 14-H ) :   0.1406 B(  0-C , 17-H ) :   0.6719 B(  0-C , 18-H ) :   0.8435
B(  1-C ,  2-C ) :   1.2711 B(  1-C ,  3-H ) :   0.1771 B(  1-C ,  4-H ) :   0.1467
B(  1-C , 13-H ) :   0.8508 B(  1-C , 14-H ) :   0.9837 B(  1-C , 17-H ) :   0.1447
B(  1-C , 18-H ) :   0.1502 B(  2-C ,  3-H ) :   0.8740 B(  2-C ,  4-H ) :   0.8369
B(  2-C ,  5-C ) :   1.0891 B(  2-C , 13-H ) :   0.1134 B(  2-C , 15-F ) :   0.1019
B(  5-C , 15-F ) :   0.7129 B(  5-C , 16-O ) :   1.5704 B(  6-C ,  7-C ) :   1.7377
B(  6-C ,  8-N ) :   1.1778 B(  6-C ,  9-H ) :  -0.1007 B(  6-C , 12-H ) :   0.1536
B(  6-C , 17-H ) :   0.1914 B(  6-C , 18-H ) :   0.1354 B(  7-C ,  8-N ) :   0.1768
B(  7-C , 11-H ) :   0.9315 B(  7-C , 12-H ) :   0.7211 B(  8-N ,  9-H ) :   1.2324
B(  8-N , 10-H ) :   0.9129 B(  8-N , 16-O ) :  -0.1071 B(  9-H , 10-H ) :  -0.2143
B( 10-H , 16-O ) :   0.2230

Dispersion correction           -0.006923573
FINAL SINGLE POINT ENERGY      -464.005239938573

DIPOLE MOMENT
-------------
                                X             Y             Z
Electronic contribution:      5.39626      -6.42325      10.75371
Nuclear contribution   :     -5.86483       4.68058     -10.07545
                        -----------------------------------------
Total Dipole Moment    :     -0.46857      -1.74267       0.67826
                        -----------------------------------------
Magnitude (a.u.)       :      1.92782
Magnitude (Debye)      :      4.90013

Rotational constants in cm-1:     0.107256     0.035474     0.030113
Rotational constants in MHz :  3215.453922  1063.481574   902.777619

                             ****ORCA TERMINATED NORMALLY****
TOTAL RUN TIME: 0 days 0 hours 0 minutes 25 seconds 984 msec
