                         Program Version 5.0.0 -  RELEASE  -
|  1> !wB97X-D3 RIJCOSX def2-SVPD def2/J TightSCF CPCM(Water) xyzfile
|  2>
|  3> *xyzfile 0 1 D2.xyz
|  4>
|  5> %MaxCore 64000
|  6>
|  7> %pal nprocs 18
|  8> end
|  9>
| 10> %scf
| 11>   MaxIter 150
| 12> end
| 13>
| 14>
| 15>                          ****END OF INPUT****

CARTESIAN COORDINATES (ANGSTROEM)
---------------------------------
  C      3.343500    3.354571   -3.591998
  C      2.952633    1.863077   -3.574849
  C      4.129209    0.898394   -3.418950
  H      3.733687   -0.100605   -3.237633
  H      4.719095    0.862556   -4.339005
  C      5.017344    1.315212   -2.221305
  C      4.255868    3.703851   -4.726054
  N      3.734032    4.293783   -5.800770
  C      5.515039    3.407255   -4.637185
  H      6.149187    3.601203   -5.399053
  H      5.813584    2.899504   -3.808785
  H      2.741380    4.513109   -5.824701
  H      4.287548    4.521260   -6.614341
  H      2.278938    1.735250   -2.725496
  H      2.377466    1.625787   -4.475869
  F      4.737055    0.854112   -1.122825
  O      5.928146    2.168108   -2.491365
  H      3.861246    3.597252   -2.662979
  H      2.446493    3.973461   -3.656556

 Total Charge           Charge          ....    0
 Multiplicity           Mult            ....    1
 Number of Electrons    NEL             ....   70
 Basis Dimension        Dim             ....  266

ORBITAL ENERGIES
----------------

  NO   OCC          E(Eh)            E(eV)
   0   2.0000     -24.891696      -677.3375
   1   2.0000     -19.258835      -524.0595
   2   2.0000     -14.425208      -392.5299
   3   2.0000     -10.488208      -285.3986
   4   2.0000     -10.309554      -280.5372
   5   2.0000     -10.301635      -280.3217
   6   2.0000     -10.299552      -280.2651
   7   2.0000     -10.285225      -279.8752
   8   2.0000     -10.194002      -277.3929
   9   2.0000      -1.452673       -39.5292
  10   2.0000      -1.149343       -31.2752
  11   2.0000      -1.023601       -27.8536
  12   2.0000      -0.921921       -25.0867
  13   2.0000      -0.857091       -23.3226
  14   2.0000      -0.810478       -22.0542
  15   2.0000      -0.785655       -21.3788
  16   2.0000      -0.724317       -19.7097
  17   2.0000      -0.680750       -18.5241
  18   2.0000      -0.669984       -18.2312
  19   2.0000      -0.648574       -17.6486
  20   2.0000      -0.633742       -17.2450
  21   2.0000      -0.598625       -16.2894
  22   2.0000      -0.579206       -15.7610
  23   2.0000      -0.560913       -15.2632
  24   2.0000      -0.549535       -14.9536
  25   2.0000      -0.515834       -14.0365
  26   2.0000      -0.489895       -13.3307
  27   2.0000      -0.483713       -13.1625
  28   2.0000      -0.461342       -12.5537
  29   2.0000      -0.453488       -12.3400
  30   2.0000      -0.440085       -11.9753
  31   2.0000      -0.421418       -11.4674
  32   2.0000      -0.412428       -11.2227
  33   2.0000      -0.370740       -10.0884
  34   2.0000      -0.274198        -7.4613
  35   0.0000       0.043188         1.1752
  36   0.0000       0.089150         2.4259
  37   0.0000       0.111918         3.0454
  38   0.0000       0.115436         3.1412
  39   0.0000       0.121598         3.3089

MULLIKEN ATOMIC CHARGES
-----------------------
   0 C :    0.188814
   1 C :   -0.059535
   2 C :   -0.010297
   3 H :   -0.098710
   4 H :    0.223110
   5 C :    0.908130
   6 C :    0.036741
   7 N :   -0.031724
   8 C :    0.872102
   9 H :   -0.636463
  10 H :   -0.290402
  11 H :   -0.055339
  12 H :   -0.126327
  13 H :    0.067692
  14 H :   -0.097487
  15 F :   -0.388171
  16 O :   -0.558608
  17 H :    0.235534
  18 H :   -0.179060
Sum of atomic charges:    0.0000000

LOEWDIN ATOMIC CHARGES
----------------------
   0 C :    0.020367
   1 C :    0.005276
   2 C :    0.069966
   3 H :    0.034021
   4 H :    0.033442
   5 C :    0.063844
   6 C :   -0.243911
   7 N :    0.164471
   8 C :    0.169240
   9 H :   -0.078566
  10 H :   -0.204067
  11 H :    0.007805
  12 H :    0.011484
  13 H :    0.030784
  14 H :    0.035984
  15 F :    0.010651
  16 O :   -0.177752
  17 H :    0.021931
  18 H :    0.025029

  Mayer bond orders larger than 0.100000
B(  0-C ,  1-C ) :   1.1995 B(  0-C ,  6-C ) :   1.0854 B(  0-C ,  7-N ) :   0.1064
B(  0-C ,  8-C ) :   0.2002 B(  0-C , 13-H ) :   0.1098 B(  0-C , 14-H ) :   0.1295
B(  0-C , 17-H ) :   0.7358 B(  0-C , 18-H ) :   0.9257 B(  1-C ,  2-C ) :   1.2599
B(  1-C ,  3-H ) :   0.1759 B(  1-C ,  4-H ) :   0.1347 B(  1-C , 13-H ) :   0.8257
B(  1-C , 14-H ) :   0.9662 B(  1-C , 17-H ) :   0.1394 B(  1-C , 18-H ) :   0.1636
B(  2-C ,  3-H ) :   0.9111 B(  2-C ,  4-H ) :   0.8223 B(  2-C ,  5-C ) :   1.0833
B(  2-C , 13-H ) :   0.1221 B(  2-C , 15-F ) :   0.1053 B(  5-C , 15-F ) :   0.7062
B(  5-C , 16-O ) :   1.5915 B(  6-C ,  7-N ) :   1.0128 B(  6-C ,  8-C ) :   1.9568
B(  6-C ,  9-H ) :   0.2578 B(  6-C , 10-H ) :   0.3356 B(  6-C , 12-H ) :  -0.1107
B(  6-C , 18-H ) :   0.1154 B(  7-N ,  8-C ) :   0.2577 B(  7-N , 11-H ) :   1.1537
B(  7-N , 12-H ) :   1.3127 B(  8-C ,  9-H ) :   0.7514 B(  8-C , 10-H ) :   0.4953
B(  9-H , 10-H ) :  -0.2130 B( 10-H , 16-O ) :   0.1956 B( 11-H , 12-H ) :  -0.1536
B( 15-F , 16-O ) :   0.1021

Dispersion correction           -0.006784691
FINAL SINGLE POINT ENERGY      -463.981533082647

DIPOLE MOMENT
-------------
                                X             Y             Z
Electronic contribution:      3.65469      -5.40781       9.46903
Nuclear contribution   :     -5.64491       4.57111      -9.93176
                        -----------------------------------------
Total Dipole Moment    :     -1.99021      -0.83670      -0.46273
                        -----------------------------------------
Magnitude (a.u.)       :      2.20797
Magnitude (Debye)      :      5.61222

Rotational constants in cm-1:     0.109825     0.034347     0.029470
Rotational constants in MHz :  3292.465653  1029.684117   883.494260

                             ****ORCA TERMINATED NORMALLY****
TOTAL RUN TIME: 0 days 0 hours 0 minutes 24 seconds 695 msec
