                         Program Version 5.0.0 -  RELEASE  -
|  1> !wB97X-D3 RIJCOSX def2-SVPD def2/J TightSCF CPCM(Water) xyzfile
|  2>
|  3> *xyzfile 0 1 D3.xyz
|  4>
|  5> %MaxCore 64000
|  6>
|  7> %pal nprocs 18
|  8> end
|  9>
| 10> %scf
| 11>   MaxIter 150
| 12> end
| 13>
| 14>
| 15>                          ****END OF INPUT****

CARTESIAN COORDINATES (ANGSTROEM)
---------------------------------
  C      3.343500    3.354571   -3.591998
  C      2.952633    1.863077   -3.574849
  C      4.129209    0.898394   -3.418950
  H      3.733687   -0.100605   -3.237633
  H      4.719095    0.862556   -4.339005
  C      5.017344    1.315212   -2.221305
  C      4.255868    3.703851   -4.726054
  C      3.734032    4.293783   -5.800770
  N      5.515039    3.407255   -4.637185
  H      6.149187    3.601203   -5.399053
  H      5.813584    2.899504   -3.808785
  H      2.741380    4.513109   -5.824701
  H      4.287548    4.521260   -6.614341
  H      2.278938    1.735250   -2.725496
  H      2.377466    1.625787   -4.475869
  O      4.737055    0.854112   -1.122825
  F      5.928146    2.168108   -2.491365
  H      3.861246    3.597252   -2.662979
  H      2.446493    3.973461   -3.656556

 Total Charge           Charge          ....    0
 Multiplicity           Mult            ....    1
 Number of Electrons    NEL             ....   70
 Basis Dimension        Dim             ....  266

ORBITAL ENERGIES
----------------

  NO   OCC          E(Eh)            E(eV)
   0   2.0000     -24.892471      -677.3586
   1   2.0000     -19.279085      -524.6106
   2   2.0000     -14.423795      -392.4914
   3   2.0000     -10.490369      -285.4574
   4   2.0000     -10.315537      -280.7000
   5   2.0000     -10.314559      -280.6734
   6   2.0000     -10.302415      -280.3430
   7   2.0000     -10.292386      -280.0701
   8   2.0000     -10.223390      -278.1926
   9   2.0000      -1.439480       -39.1702
  10   2.0000      -1.180868       -32.1330
  11   2.0000      -1.043633       -28.3987
  12   2.0000      -0.926033       -25.1986
  13   2.0000      -0.862061       -23.4579
  14   2.0000      -0.822192       -22.3730
  15   2.0000      -0.783688       -21.3252
  16   2.0000      -0.739978       -20.1358
  17   2.0000      -0.688639       -18.7388
  18   2.0000      -0.672528       -18.3004
  19   2.0000      -0.651793       -17.7362
  20   2.0000      -0.625633       -17.0243
  21   2.0000      -0.610385       -16.6094
  22   2.0000      -0.585540       -15.9333
  23   2.0000      -0.562596       -15.3090
  24   2.0000      -0.543221       -14.7818
  25   2.0000      -0.523644       -14.2491
  26   2.0000      -0.495024       -13.4703
  27   2.0000      -0.493789       -13.4367
  28   2.0000      -0.480617       -13.0782
  29   2.0000      -0.473815       -12.8932
  30   2.0000      -0.447579       -12.1792
  31   2.0000      -0.429226       -11.6798
  32   2.0000      -0.423333       -11.5195
  33   2.0000      -0.406812       -11.0699
  34   2.0000      -0.279074        -7.5940
  35   0.0000       0.043882         1.1941
  36   0.0000       0.088312         2.4031
  37   0.0000       0.109325         2.9749
  38   0.0000       0.111699         3.0395
  39   0.0000       0.124071         3.3761

MULLIKEN ATOMIC CHARGES
-----------------------
   0 C :    0.267920
   1 C :   -0.054549
   2 C :    0.034777
   3 H :   -0.073448
   4 H :    0.207750
   5 C :    0.796410
   6 C :   -0.145618
   7 C :    0.300507
   8 N :    0.558307
   9 H :   -0.145046
  10 H :   -0.367383
  11 H :   -0.112520
  12 H :   -0.361662
  13 H :    0.084173
  14 H :   -0.112549
  15 O :   -0.466187
  16 F :   -0.483926
  17 H :    0.066526
  18 H :    0.006521
Sum of atomic charges:    0.0000000

LOEWDIN ATOMIC CHARGES
----------------------
   0 C :    0.019654
   1 C :    0.005308
   2 C :    0.064501
   3 H :    0.039492
   4 H :    0.032859
   5 C :    0.028987
   6 C :   -0.257078
   7 C :    0.150631
   8 N :    0.205321
   9 H :    0.034744
  10 H :   -0.091063
  11 H :   -0.092083
  12 H :   -0.093928
  13 H :    0.032758
  14 H :    0.035452
  15 O :   -0.128926
  16 F :   -0.043555
  17 H :    0.025503
  18 H :    0.031424

  Mayer bond orders larger than 0.100000
B(  0-C ,  1-C ) :   1.1876 B(  0-C ,  6-C ) :   1.1678 B(  0-C ,  8-N ) :   0.1039
B(  0-C , 13-H ) :   0.1039 B(  0-C , 14-H ) :   0.1458 B(  0-C , 17-H ) :   0.6819
B(  0-C , 18-H ) :   0.8509 B(  1-C ,  2-C ) :   1.2711 B(  1-C ,  3-H ) :   0.1740
B(  1-C ,  4-H ) :   0.1397 B(  1-C , 13-H ) :   0.8589 B(  1-C , 14-H ) :   0.9770
B(  1-C , 17-H ) :   0.1434 B(  1-C , 18-H ) :   0.1458 B(  2-C ,  3-H ) :   0.8846
B(  2-C ,  4-H ) :   0.8195 B(  2-C ,  5-C ) :   1.0789 B(  2-C , 13-H ) :   0.1142
B(  2-C , 16-F ) :   0.1392 B(  3-H ,  5-C ) :   0.1244 B(  5-C , 15-O ) :   1.8235
B(  5-C , 16-F ) :   0.5816 B(  6-C ,  7-C ) :   1.7318 B(  6-C ,  8-N ) :   1.1505
B(  6-C ,  9-H ) :  -0.1143 B(  6-C , 12-H ) :   0.1533 B(  6-C , 17-H ) :   0.1772
B(  6-C , 18-H ) :   0.1430 B(  7-C ,  8-N ) :   0.1852 B(  7-C , 11-H ) :   0.9446
B(  7-C , 12-H ) :   0.7191 B(  8-N ,  9-H ) :   1.2522 B(  8-N , 10-H ) :   0.9346
B(  9-H , 10-H ) :  -0.2144 B( 10-H , 16-F ) :   0.1087 B( 15-O , 16-F ) :   0.1098

Dispersion correction           -0.006980446
FINAL SINGLE POINT ENERGY      -464.011447994319

DIPOLE MOMENT
-------------
                                X             Y             Z
Electronic contribution:      7.60929      -3.76104       7.96216
Nuclear contribution   :     -7.21688       3.18902      -8.52197
                        -----------------------------------------
Total Dipole Moment    :      0.39241      -0.57201      -0.55981
                        -----------------------------------------
Magnitude (a.u.)       :      0.89139
Magnitude (Debye)      :      2.26573

Rotational constants in cm-1:     0.103917     0.036987     0.030872
Rotational constants in MHz :  3115.342573  1108.839114   925.506342

                             ****ORCA TERMINATED NORMALLY****
TOTAL RUN TIME: 0 days 0 hours 0 minutes 24 seconds 415 msec
