                         Program Version 5.0.0 -  RELEASE  -
|  1> !CAM-B3LYP RIJCOSX def2-TZVPD def2/J TightSCF
|  2> *xyz -1 1
|  3> C          3.76678       -2.26611       -6.51175
|  4> C          2.49670       -1.84416       -5.73570
|  5> H          1.62642       -2.21743       -6.30895
|  6> H          2.48182       -2.45607       -4.79341
|  7> O          2.45973       -0.50920       -5.50576
|  8> H          3.82914       -1.70941       -7.42340
|  9> H          3.71764       -3.31144       -6.73483
| 10> H          4.63199       -2.06931       -5.91377
| 11> *
| 12>
| 13> %MaxCore 64000
| 14>
| 15> %pal nprocs 4
| 16> end
| 17>
| 18> %scf
| 19>   MaxIter 150
| 20> end
| 21>
| 22>
| 23>                          ****END OF INPUT****

CARTESIAN COORDINATES (ANGSTROEM)
---------------------------------
  C      3.766780   -2.266110   -6.511750
  C      2.496700   -1.844160   -5.735700
  H      1.626420   -2.217430   -6.308950
  H      2.481820   -2.456070   -4.793410
  O      2.459730   -0.509200   -5.505760
  H      3.829140   -1.709410   -7.423400
  H      3.717640   -3.311440   -6.734830
  H      4.631990   -2.069310   -5.913770

 Total Charge           Charge          ....   -1
 Multiplicity           Mult            ....    1
 Number of Electrons    NEL             ....   26
 Basis Dimension        Dim             ....  159

ORBITAL ENERGIES
----------------

  NO   OCC          E(Eh)            E(eV)
   0   2.0000     -18.865433      -513.3545
   1   2.0000     -10.058763      -273.7129
   2   2.0000     -10.032339      -272.9938
   3   2.0000      -0.767018       -20.8716
   4   2.0000      -0.605540       -16.4776
   5   2.0000      -0.448654       -12.2085
   6   2.0000      -0.319754        -8.7009
   7   2.0000      -0.296025        -8.0553
   8   2.0000      -0.239758        -6.5241
   9   2.0000      -0.223282        -6.0758
  10   2.0000      -0.182367        -4.9625
  11   2.0000      -0.034074        -0.9272
  12   2.0000      -0.032972        -0.8972
  13   0.0000       0.179763         4.8916
  14   0.0000       0.201803         5.4913
  15   0.0000       0.230117         6.2618
  16   0.0000       0.231906         6.3105
  17   0.0000       0.254597         6.9279

MULLIKEN ATOMIC CHARGES
-----------------------
   0 C :   -0.948574
   1 C :   -0.312076
   2 H :    0.198092
   3 H :    0.188923
   4 O :   -0.919561
   5 H :    0.236616
   6 H :    0.328691
   7 H :    0.227891
Sum of atomic charges:   -1.0000000

LOEWDIN ATOMIC CHARGES
----------------------
   0 C :   -0.170250
   1 C :   -0.634181
   2 H :    0.054042
   3 H :    0.059997
   4 O :   -0.411748
   5 H :    0.038514
   6 H :    0.026172
   7 H :    0.037456

  Mayer bond orders larger than 0.100000
B(  0-C ,  1-C ) :   0.7384 B(  0-C ,  4-O ) :   0.2620 B(  0-C ,  5-H ) :   1.0007
B(  0-C ,  6-H ) :   0.9524 B(  0-C ,  7-H ) :   1.0012 B(  1-C ,  2-H ) :   1.0546
B(  1-C ,  3-H ) :   1.0471 B(  1-C ,  4-O ) :   0.9764

FINAL SINGLE POINT ENERGY      -154.416859222281

DIPOLE MOMENT
-------------
                                X             Y             Z
Electronic contribution:     -1.07111       2.48027       0.94620
Nuclear contribution   :      1.63615      -3.79938      -1.48621
                        -----------------------------------------
Total Dipole Moment    :      0.56505      -1.31911      -0.54001
                        -----------------------------------------
Magnitude (a.u.)       :      1.53328
Magnitude (Debye)      :      3.89728

Rotational constants in cm-1:     1.265582     0.329289     0.289024
Rotational constants in MHz : 37941.194363  9871.829581  8664.719106

                             ****ORCA TERMINATED NORMALLY****
TOTAL RUN TIME: 0 days 0 hours 0 minutes 21 seconds 661 msec
