                         Program Version 5.0.0 -  RELEASE  -
|  1> !CAM-B3LYP RIJCOSX def2-TZVPD def2/J TightSCF
|  2> *xyz 1 1
|  3> C          4.99986       -1.59613       -5.92488
|  4> N          5.28156       -1.97413       -4.53576
|  5> C          3.76678       -2.26611       -6.51175
|  6> C          4.79250       -1.36132       -3.45730
|  7> N          3.93990       -0.37492       -3.55736
|  8> N          5.25986       -1.75422       -2.23913
|  9> H          5.92282       -2.52145       -2.18672
| 10> H          4.65468       -1.64040       -1.44202
| 11> H          5.70914       -2.87560       -4.38702
| 12> H          3.33010       -0.31764       -4.36125
| 13> H          3.69849        0.11447       -2.70833
| 14> H          4.84333       -0.51793       -5.94302
| 15> H          5.90170       -1.82250       -6.49647
| 16> H          3.63046       -1.94025       -7.52177
| 17> H          2.90710       -2.00116       -5.93240
| 18> H          3.89538       -3.32820       -6.49392
| 19> *
| 20>
| 21> %MaxCore 64000
| 22>
| 23> %pal nprocs 4
| 24> end
| 25>
| 26> %scf
| 27>   MaxIter 150
| 28> end
| 29>
| 30>
| 31>                          ****END OF INPUT****

CARTESIAN COORDINATES (ANGSTROEM)
---------------------------------
  C      4.999860   -1.596130   -5.924880
  N      5.281560   -1.974130   -4.535760
  C      3.766780   -2.266110   -6.511750
  C      4.792500   -1.361320   -3.457300
  N      3.939900   -0.374920   -3.557360
  N      5.259860   -1.754220   -2.239130
  H      5.922820   -2.521450   -2.186720
  H      4.654680   -1.640400   -1.442020
  H      5.709140   -2.875600   -4.387020
  H      3.330100   -0.317640   -4.361250
  H      3.698490    0.114470   -2.708330
  H      4.843330   -0.517930   -5.943020
  H      5.901700   -1.822500   -6.496470
  H      3.630460   -1.940250   -7.521770
  H      2.907100   -2.001160   -5.932400
  H      3.895380   -3.328200   -6.493920

 Total Charge           Charge          ....    1
 Multiplicity           Mult            ....    1
 Number of Electrons    NEL             ....   48
 Basis Dimension        Dim             ....  312

ORBITAL ENERGIES
----------------

  NO   OCC          E(Eh)            E(eV)
   0   2.0000     -14.618082      -397.7782
   1   2.0000     -14.613478      -397.6530
   2   2.0000     -14.608209      -397.5096
   3   2.0000     -10.584557      -288.0204
   4   2.0000     -10.449895      -284.3561
   5   2.0000     -10.381792      -282.5029
   6   2.0000      -1.300779       -35.3960
   7   2.0000      -1.189210       -32.3600
   8   2.0000      -1.173635       -31.9362
   9   2.0000      -1.013720       -27.5847
  10   2.0000      -0.919223       -25.0133
  11   2.0000      -0.880245       -23.9527
  12   2.0000      -0.862277       -23.4638
  13   2.0000      -0.812619       -22.1125
  14   2.0000      -0.766390       -20.8545
  15   2.0000      -0.762486       -20.7483
  16   2.0000      -0.711174       -19.3520
  17   2.0000      -0.702768       -19.1233
  18   2.0000      -0.676999       -18.4221
  19   2.0000      -0.629886       -17.1401
  20   2.0000      -0.601345       -16.3634
  21   2.0000      -0.581687       -15.8285
  22   2.0000      -0.546460       -14.8699
  23   2.0000      -0.515455       -14.0263
  24   0.0000      -0.137169        -3.7326
  25   0.0000      -0.123248        -3.3537
  26   0.0000      -0.097798        -2.6612
  27   0.0000      -0.088201        -2.4001
  28   0.0000      -0.065684        -1.7874

MULLIKEN ATOMIC CHARGES
-----------------------
   0 C :   -0.609478
   1 N :   -0.133393
   2 C :   -0.972845
   3 C :    0.557683
   4 N :   -0.272988
   5 N :   -0.366752
   6 H :    0.220142
   7 H :    0.231901
   8 H :    0.217036
   9 H :    0.233527
  10 H :    0.211634
  11 H :    0.383617
  12 H :    0.311345
  13 H :    0.338444
  14 H :    0.325785
  15 H :    0.324343
Sum of atomic charges:    1.0000000

LOEWDIN ATOMIC CHARGES
----------------------
   0 C :   -0.204880
   1 N :    0.087659
   2 C :   -0.063705
   3 C :   -0.429714
   4 N :    0.228585
   5 N :    0.194814
   6 H :    0.133379
   7 H :    0.127482
   8 H :    0.163494
   9 H :    0.133041
  10 H :    0.145294
  11 H :    0.120236
  12 H :    0.132527
  13 H :    0.085657
  14 H :    0.066629
  15 H :    0.079501

  Mayer bond orders larger than 0.100000
B(  0-C ,  1-N ) :   0.8389 B(  0-C ,  2-C ) :   0.5964 B(  0-C ,  3-C ) :  -0.1016
B(  0-C , 11-H ) :   0.8803 B(  0-C , 12-H ) :   0.9353 B(  1-N ,  3-C ) :   1.2446
B(  1-N ,  8-H ) :   0.9750 B(  2-C , 13-H ) :   0.9828 B(  2-C , 14-H ) :   0.9197
B(  2-C , 15-H ) :   0.9695 B(  3-C ,  4-N ) :   1.2368 B(  3-C ,  5-N ) :   1.1014
B(  4-N ,  9-H ) :   0.9293 B(  4-N , 10-H ) :   0.9829 B(  5-N ,  6-H ) :   0.9527
B(  5-N ,  7-H ) :   0.9692

FINAL SINGLE POINT ENERGY      -284.363149418691

DIPOLE MOMENT
-------------
                                X             Y             Z
Electronic contribution:      1.74565       1.09575       4.72104
Nuclear contribution   :     -1.95709      -1.20097      -3.70214
                        -----------------------------------------
Total Dipole Moment    :     -0.21144      -0.10522       1.01891
                        -----------------------------------------
Magnitude (a.u.)       :      1.04592
Magnitude (Debye)      :      2.65851

Rotational constants in cm-1:     0.241661     0.071598     0.061743
Rotational constants in MHz :  7244.800091  2146.442409  1851.001864

                             ****ORCA TERMINATED NORMALLY****
TOTAL RUN TIME: 0 days 0 hours 1 minutes 24 seconds 543 msec
