                         Program Version 5.0.0 -  RELEASE  -
|  1> !CAM-B3LYP RIJCOSX def2-TZVPD def2/J TightSCF xyzfile
|  2>
|  3> *xyzfile 0 1 B.xyz
|  4>
|  5> %MaxCore 64000
|  6>
|  7> %pal nprocs 4
|  8> end
|  9>
| 10> %scf
| 11>   MaxIter 150
| 12> end
| 13>
| 14>
| 15>                          ****END OF INPUT****

CARTESIAN COORDINATES (ANGSTROEM)
---------------------------------
  C      4.999862   -1.596133   -5.924876
  N      5.281560   -1.974132   -4.535764
  C      3.766779   -2.266110   -6.511752
  C      2.496702   -1.844161   -5.735704
  H      1.626416   -2.217434   -6.308950
  H      2.481824   -2.456069   -4.793414
  O      2.459729   -0.509204   -5.505757
  C      4.792500   -1.361316   -3.457295
  N      3.939898   -0.374925   -3.557359
  N      5.259860   -1.754224   -2.239133
  H      5.922824   -2.521451   -2.186720
  H      4.654678   -1.640404   -1.442016
  H      5.709139   -2.875599   -4.387021
  H      3.330101   -0.317639   -4.361247
  H      3.698494    0.114468   -2.708333
  H      4.843333   -0.517930   -5.943019
  H      5.901695   -1.822503   -6.496467
  H      3.886191   -3.357076   -6.533604
  H      3.685602   -1.922168   -7.547128

 Total Charge           Charge          ....    0
 Multiplicity           Mult            ....    1
 Number of Electrons    NEL             ....   64
 Basis Dimension        Dim             ....  398

ORBITAL ENERGIES
----------------

  NO   OCC          E(Eh)            E(eV)
   0   2.0000     -19.050827      -518.3994
   1   2.0000     -14.454788      -393.3348
   2   2.0000     -14.446638      -393.1130
   3   2.0000     -14.404288      -391.9606
   4   2.0000     -10.408565      -283.2315
   5   2.0000     -10.277440      -279.6634
   6   2.0000     -10.226599      -278.2799
   7   2.0000     -10.212269      -277.8900
   8   2.0000      -1.127642       -30.6847
   9   2.0000      -1.019301       -27.7366
  10   2.0000      -1.002235       -27.2722
  11   2.0000      -0.962287       -26.1852
  12   2.0000      -0.838790       -22.8246
  13   2.0000      -0.755711       -20.5639
  14   2.0000      -0.709971       -19.3193
  15   2.0000      -0.686334       -18.6761
  16   2.0000      -0.659873       -17.9560
  17   2.0000      -0.616915       -16.7871
  18   2.0000      -0.592491       -16.1225
  19   2.0000      -0.576838       -15.6966
  20   2.0000      -0.540127       -14.6976
  21   2.0000      -0.531638       -14.4666
  22   2.0000      -0.505659       -13.7597
  23   2.0000      -0.474604       -12.9146
  24   2.0000      -0.429632       -11.6909
  25   2.0000      -0.409168       -11.1340
  26   2.0000      -0.397510       -10.8168
  27   2.0000      -0.375064       -10.2060
  28   2.0000      -0.363688        -9.8965
  29   2.0000      -0.341340        -9.2883
  30   2.0000      -0.229919        -6.2564
  31   2.0000      -0.225491        -6.1359
  32   0.0000      -0.003872        -0.1054
  33   0.0000       0.031115         0.8467
  34   0.0000       0.036065         0.9814
  35   0.0000       0.046540         1.2664
  36   0.0000       0.064733         1.7615

MULLIKEN ATOMIC CHARGES
-----------------------
   0 C :   -0.607002
   1 N :   -0.167351
   2 C :   -0.309588
   3 C :   -0.500449
   4 H :    0.302739
   5 H :    0.209234
   6 O :   -0.913868
   7 C :    0.442387
   8 N :   -0.233897
   9 N :   -0.402108
  10 H :    0.183269
  11 H :    0.201078
  12 H :    0.200558
  13 H :    0.286571
  14 H :    0.158809
  15 H :    0.335298
  16 H :    0.297272
  17 H :    0.261055
  18 H :    0.255994
Sum of atomic charges:   -0.0000000

LOEWDIN ATOMIC CHARGES
----------------------
   0 C :   -0.180352
   1 N :    0.081322
   2 C :   -0.186973
   3 C :   -0.454902
   4 H :    0.097081
   5 H :    0.092379
   6 O :   -0.299422
   7 C :   -0.452736
   8 N :    0.219644
   9 N :    0.155027
  10 H :    0.111211
  11 H :    0.110302
  12 H :    0.148212
  13 H :   -0.019758
  14 H :    0.130206
  15 H :    0.121597
  16 H :    0.116158
  17 H :    0.101693
  18 H :    0.109312

  Mayer bond orders larger than 0.100000
B(  0-C ,  1-N ) :   0.8482 B(  0-C ,  2-C ) :   0.8197 B(  0-C , 15-H ) :   0.8851
B(  0-C , 16-H ) :   0.9147 B(  1-N ,  7-C ) :   1.2145 B(  1-N , 12-H ) :   0.9697
B(  2-C ,  3-C ) :   0.8168 B(  2-C , 17-H ) :   0.9956 B(  2-C , 18-H ) :   0.9359
B(  3-C ,  4-H ) :   0.9916 B(  3-C ,  5-H ) :   1.0041 B(  3-C ,  6-O ) :   1.0520
B(  6-O ,  8-N ) :  -0.1103 B(  6-O , 13-H ) :   0.2383 B(  7-C ,  8-N ) :   1.3417
B(  7-C ,  9-N ) :   1.0051 B(  8-N , 13-H ) :   0.7001 B(  8-N , 14-H ) :   1.0224
B(  9-N , 10-H ) :   0.9817 B(  9-N , 11-H ) :   0.9888

FINAL SINGLE POINT ENERGY      -398.466196435351

DIPOLE MOMENT
-------------
                                X             Y             Z
Electronic contribution:      1.91986       1.93424       3.69045
Nuclear contribution   :      0.51577      -3.31768      -1.36804
                        -----------------------------------------
Total Dipole Moment    :      2.43562      -1.38344       2.32241
                        -----------------------------------------
Magnitude (a.u.)       :      3.63865
Magnitude (Debye)      :      9.24871

Rotational constants in cm-1:     0.111492     0.050787     0.040163
Rotational constants in MHz :  3342.457536  1522.560798  1204.057148

                             ****ORCA TERMINATED NORMALLY****
TOTAL RUN TIME: 0 days 0 hours 2 minutes 36 seconds 502 msec
