                         Program Version 5.0.0 -  RELEASE  -
|  1> !CAM-B3LYP RIJCOSX def2-TZVPD def2/J TightSCF
|  2> *xyz 0 1
|  3> C          3.76678       -2.26611       -6.51175
|  4> C          2.49670       -1.84416       -5.73570
|  5> H          1.62642       -2.21743       -6.30895
|  6> H          2.48182       -2.45607       -4.79341
|  7> F          2.45973       -0.50920       -5.50576
|  8> H          3.82914       -1.70941       -7.42340
|  9> H          3.71764       -3.31144       -6.73483
| 10> H          4.63199       -2.06931       -5.91377
| 11> *
| 12>
| 13> %MaxCore 64000
| 14>
| 15> %pal nprocs 4
| 16> end
| 17>
| 18> %scf
| 19>   MaxIter 150
| 20> end
| 21>
| 22>
| 23>                          ****END OF INPUT****

CARTESIAN COORDINATES (ANGSTROEM)
---------------------------------
  C      3.766780   -2.266110   -6.511750
  C      2.496700   -1.844160   -5.735700
  H      1.626420   -2.217430   -6.308950
  H      2.481820   -2.456070   -4.793410
  F      2.459730   -0.509200   -5.505760
  H      3.829140   -1.709410   -7.423400
  H      3.717640   -3.311440   -6.734830
  H      4.631990   -2.069310   -5.913770

 Total Charge           Charge          ....    0
 Multiplicity           Mult            ....    1
 Number of Electrons    NEL             ....   26
 Basis Dimension        Dim             ....  159

ORBITAL ENERGIES
----------------

  NO   OCC          E(Eh)            E(eV)
   0   2.0000     -24.747731      -673.4200
   1   2.0000     -10.324793      -280.9519
   2   2.0000     -10.237596      -278.5792
   3   2.0000      -1.289107       -35.0784
   4   2.0000      -0.845284       -23.0013
   5   2.0000      -0.711450       -19.3595
   6   2.0000      -0.585966       -15.9449
   7   2.0000      -0.572022       -15.5655
   8   2.0000      -0.535156       -14.5623
   9   2.0000      -0.476839       -12.9755
  10   2.0000      -0.469662       -12.7802
  11   2.0000      -0.402396       -10.9498
  12   2.0000      -0.397636       -10.8202
  13   0.0000       0.036018         0.9801
  14   0.0000       0.060417         1.6440
  15   0.0000       0.080811         2.1990
  16   0.0000       0.083553         2.2736
  17   0.0000       0.112587         3.0636

MULLIKEN ATOMIC CHARGES
-----------------------
   0 C :   -0.944547
   1 C :   -0.123739
   2 H :    0.238899
   3 H :    0.228953
   4 F :   -0.291971
   5 H :    0.288040
   6 H :    0.324283
   7 H :    0.280083
Sum of atomic charges:   -0.0000000

LOEWDIN ATOMIC CHARGES
----------------------
   0 C :   -0.084401
   1 C :   -0.303106
   2 H :    0.110333
   3 H :    0.118157
   4 F :   -0.034717
   5 H :    0.064468
   6 H :    0.065749
   7 H :    0.063517

  Mayer bond orders larger than 0.100000
B(  0-C ,  1-C ) :   0.7419 B(  0-C ,  5-H ) :   0.9554 B(  0-C ,  6-H ) :   0.9357
B(  0-C ,  7-H ) :   0.9609 B(  1-C ,  2-H ) :   0.9792 B(  1-C ,  3-H ) :   0.9789
B(  1-C ,  4-F ) :   0.8187

FINAL SINGLE POINT ENERGY      -179.062244215343

DIPOLE MOMENT
-------------
                                X             Y             Z
Electronic contribution:     -2.07846       4.32036       1.80889
Nuclear contribution   :      2.16248      -5.01128      -1.96962
                        -----------------------------------------
Total Dipole Moment    :      0.08401      -0.69092      -0.16073
                        -----------------------------------------
Magnitude (a.u.)       :      0.71433
Magnitude (Debye)      :      1.81569

Rotational constants in cm-1:     1.244010     0.306580     0.270375
Rotational constants in MHz : 37294.476802  9191.037795  8105.639967

                             ****ORCA TERMINATED NORMALLY****
TOTAL RUN TIME: 0 days 0 hours 0 minutes 18 seconds 414 msec
