                         Program Version 5.0.0 -  RELEASE  -
|  1> !CAM-B3LYP RIJCOSX def2-TZVPD def2/J TightSCF
|  2> *xyz 0 1
|  3> C          4.99986       -1.59613       -5.92488
|  4> C          5.28156       -1.97413       -4.53576
|  5> C          3.76678       -2.26611       -6.51175
|  6> C          4.79250       -1.36132       -3.45730
|  7> N          3.93990       -0.37492       -3.55736
|  8> N          5.25986       -1.75422       -2.23913
|  9> H          5.92282       -2.52145       -2.18672
| 10> H          4.65468       -1.64040       -1.44202
| 11> H          5.70914       -2.87560       -4.38702
| 12> H          3.33010       -0.31764       -4.36125
| 13> H          3.69849        0.11447       -2.70833
| 14> H          4.84333       -0.51793       -5.94302
| 15> H          5.90170       -1.82250       -6.49647
| 16> H          3.63046       -1.94025       -7.52177
| 17> H          2.90710       -2.00116       -5.93240
| 18> H          3.89538       -3.32820       -6.49392
| 19> *
| 20>
| 21> %MaxCore 64000
| 22>
| 23> %pal nprocs 4
| 24> end
| 25>
| 26> %scf
| 27>   MaxIter 150
| 28> end
| 29>
| 30>
| 31>                          ****END OF INPUT****

CARTESIAN COORDINATES (ANGSTROEM)
---------------------------------
  C      4.999860   -1.596130   -5.924880
  C      5.281560   -1.974130   -4.535760
  C      3.766780   -2.266110   -6.511750
  C      4.792500   -1.361320   -3.457300
  N      3.939900   -0.374920   -3.557360
  N      5.259860   -1.754220   -2.239130
  H      5.922820   -2.521450   -2.186720
  H      4.654680   -1.640400   -1.442020
  H      5.709140   -2.875600   -4.387020
  H      3.330100   -0.317640   -4.361250
  H      3.698490    0.114470   -2.708330
  H      4.843330   -0.517930   -5.943020
  H      5.901700   -1.822500   -6.496470
  H      3.630460   -1.940250   -7.521770
  H      2.907100   -2.001160   -5.932400
  H      3.895380   -3.328200   -6.493920

 Total Charge           Charge          ....    0
 Multiplicity           Mult            ....    1
 Number of Electrons    NEL             ....   48
 Basis Dimension        Dim             ....  312

ORBITAL ENERGIES
----------------

  NO   OCC          E(Eh)            E(eV)
   0   2.0000     -14.393954      -391.6794
   1   2.0000     -14.385691      -391.4545
   2   2.0000     -10.288801      -279.9725
   3   2.0000     -10.215640      -277.9817
   4   2.0000     -10.210408      -277.8393
   5   2.0000     -10.167394      -276.6689
   6   2.0000      -1.047150       -28.4944
   7   2.0000      -0.953303       -25.9407
   8   2.0000      -0.856652       -23.3107
   9   2.0000      -0.775570       -21.1043
  10   2.0000      -0.692726       -18.8500
  11   2.0000      -0.652418       -17.7532
  12   2.0000      -0.618326       -16.8255
  13   2.0000      -0.576305       -15.6821
  14   2.0000      -0.547209       -14.8903
  15   2.0000      -0.513904       -13.9840
  16   2.0000      -0.485227       -13.2037
  17   2.0000      -0.465356       -12.6630
  18   2.0000      -0.452532       -12.3140
  19   2.0000      -0.418750       -11.3948
  20   2.0000      -0.392401       -10.6778
  21   2.0000      -0.384701       -10.4683
  22   2.0000      -0.332350        -9.0437
  23   2.0000      -0.221038        -6.0148
  24   0.0000       0.025487         0.6935
  25   0.0000       0.051082         1.3900
  26   0.0000       0.058695         1.5972
  27   0.0000       0.069256         1.8846
  28   0.0000       0.082869         2.2550

MULLIKEN ATOMIC CHARGES
-----------------------
   0 C :   -0.684977
   1 C :   -0.439495
   2 C :   -0.988310
   3 C :    0.458892
   4 N :   -0.318570
   5 N :   -0.437238
   6 H :    0.174530
   7 H :    0.168384
   8 H :    0.260491
   9 H :    0.180197
  10 H :    0.166176
  11 H :    0.311077
  12 H :    0.248832
  13 H :    0.277807
  14 H :    0.313862
  15 H :    0.308340
Sum of atomic charges:   -0.0000000

LOEWDIN ATOMIC CHARGES
----------------------
   0 C :   -0.286712
   1 C :   -0.137548
   2 C :   -0.111711
   3 C :   -0.546392
   4 N :    0.134762
   5 N :    0.099314
   6 H :    0.103081
   7 H :    0.084933
   8 H :    0.062044
   9 H :    0.105723
  10 H :    0.105818
  11 H :    0.097818
  12 H :    0.103828
  13 H :    0.060164
  14 H :    0.057962
  15 H :    0.066917

  Mayer bond orders larger than 0.100000
B(  0-C ,  1-C ) :   0.6161 B(  0-C ,  2-C ) :   0.4982 B(  0-C ,  3-C ) :   0.1282
B(  0-C , 11-H ) :   0.9909 B(  0-C , 12-H ) :   1.0747 B(  1-C ,  3-C ) :   1.3329
B(  1-C ,  8-H ) :   1.0868 B(  2-C , 13-H ) :   0.9948 B(  2-C , 14-H ) :   0.9518
B(  2-C , 15-H ) :   0.9954 B(  3-C ,  4-N ) :   1.0063 B(  3-C ,  5-N ) :   0.9161
B(  3-C ,  8-H ) :  -0.1696 B(  4-N ,  9-H ) :   0.9732 B(  4-N , 10-H ) :   1.0167
B(  5-N ,  6-H ) :   0.9885 B(  5-N ,  7-H ) :   1.0322

FINAL SINGLE POINT ENERGY      -267.879050063485

DIPOLE MOMENT
-------------
                                X             Y             Z
Electronic contribution:      1.22548       1.37828       4.48682
Nuclear contribution   :     -1.82485      -1.28952      -3.74132
                        -----------------------------------------
Total Dipole Moment    :     -0.59937       0.08876       0.74550
                        -----------------------------------------
Magnitude (a.u.)       :      0.96067
Magnitude (Debye)      :      2.44184

Rotational constants in cm-1:     0.245790     0.071632     0.062004
Rotational constants in MHz :  7368.599517  2147.482078  1858.844841

                             ****ORCA TERMINATED NORMALLY****
TOTAL RUN TIME: 0 days 0 hours 1 minutes 24 seconds 258 msec
