                         Program Version 5.0.0 -  RELEASE  -
|  1> !CAM-B3LYP RIJCOSX def2-TZVPD def2/J TightSCF
|  2> *xyz 0 1
|  3> C          4.99986       -1.59613       -5.92488
|  4> N          5.28156       -1.97413       -4.53576
|  5> C          3.76678       -2.26611       -6.51175
|  6> C          4.79250       -1.36132       -3.45730
|  7> C          3.93990       -0.37492       -3.55736
|  8> N          5.25986       -1.75422       -2.23913
|  9> H          5.92282       -2.52145       -2.18672
| 10> H          4.65468       -1.64040       -1.44202
| 11> H          5.70914       -2.87560       -4.38702
| 12> H          3.33010       -0.31764       -4.36125
| 13> H          3.69849        0.11447       -2.70833
| 14> H          4.84333       -0.51793       -5.94302
| 15> H          5.90170       -1.82250       -6.49647
| 16> H          3.63046       -1.94025       -7.52177
| 17> H          2.90710       -2.00116       -5.93240
| 18> H          3.89538       -3.32820       -6.49392
| 19> *
| 20>
| 21> %MaxCore 64000
| 22>
| 23> %pal nprocs 4
| 24> end
| 25>
| 26> %scf
| 27>   MaxIter 150
| 28> end
| 29>
| 30>
| 31>                          ****END OF INPUT****

CARTESIAN COORDINATES (ANGSTROEM)
---------------------------------
  C      4.999860   -1.596130   -5.924880
  N      5.281560   -1.974130   -4.535760
  C      3.766780   -2.266110   -6.511750
  C      4.792500   -1.361320   -3.457300
  C      3.939900   -0.374920   -3.557360
  N      5.259860   -1.754220   -2.239130
  H      5.922820   -2.521450   -2.186720
  H      4.654680   -1.640400   -1.442020
  H      5.709140   -2.875600   -4.387020
  H      3.330100   -0.317640   -4.361250
  H      3.698490    0.114470   -2.708330
  H      4.843330   -0.517930   -5.943020
  H      5.901700   -1.822500   -6.496470
  H      3.630460   -1.940250   -7.521770
  H      2.907100   -2.001160   -5.932400
  H      3.895380   -3.328200   -6.493920

 Total Charge           Charge          ....    0
 Multiplicity           Mult            ....    1
 Number of Electrons    NEL             ....   48
 Basis Dimension        Dim             ....  312

ORBITAL ENERGIES
----------------

  NO   OCC          E(Eh)            E(eV)
   0   2.0000     -14.390483      -391.5849
   1   2.0000     -14.386792      -391.4845
   2   2.0000     -10.290746      -280.0254
   3   2.0000     -10.274475      -279.5827
   4   2.0000     -10.226860      -278.2870
   5   2.0000     -10.156438      -276.3707
   6   2.0000      -1.046441       -28.4751
   7   2.0000      -0.961493       -26.1636
   8   2.0000      -0.838191       -22.8083
   9   2.0000      -0.798422       -21.7262
  10   2.0000      -0.715469       -19.4689
  11   2.0000      -0.638559       -17.3761
  12   2.0000      -0.615439       -16.7470
  13   2.0000      -0.583188       -15.8694
  14   2.0000      -0.525892       -14.3103
  15   2.0000      -0.516495       -14.0545
  16   2.0000      -0.495992       -13.4966
  17   2.0000      -0.468592       -12.7510
  18   2.0000      -0.452451       -12.3118
  19   2.0000      -0.438371       -11.9287
  20   2.0000      -0.421133       -11.4596
  21   2.0000      -0.413134       -11.2420
  22   2.0000      -0.315335        -8.5807
  23   2.0000      -0.233118        -6.3435
  24   0.0000       0.027553         0.7498
  25   0.0000       0.048792         1.3277
  26   0.0000       0.057384         1.5615
  27   0.0000       0.063363         1.7242
  28   0.0000       0.084804         2.3076

MULLIKEN ATOMIC CHARGES
-----------------------
   0 C :   -0.608952
   1 N :   -0.201102
   2 C :   -0.985333
   3 C :    0.603173
   4 C :   -1.093809
   5 N :   -0.395633
   6 H :    0.164465
   7 H :    0.198629
   8 H :    0.175681
   9 H :    0.255141
  10 H :    0.289652
  11 H :    0.394379
  12 H :    0.286595
  13 H :    0.321032
  14 H :    0.303271
  15 H :    0.292811
Sum of atomic charges:    0.0000000

LOEWDIN ATOMIC CHARGES
----------------------
   0 C :   -0.240613
   1 N :    0.010968
   2 C :   -0.089363
   3 C :   -0.555377
   4 C :    0.004629
   5 N :    0.106279
   6 H :    0.092994
   7 H :    0.097787
   8 H :    0.131755
   9 H :    0.009619
  10 H :    0.015865
  11 H :    0.109652
  12 H :    0.111653
  13 H :    0.066562
  14 H :    0.063083
  15 H :    0.064508

  Mayer bond orders larger than 0.100000
B(  0-C ,  1-N ) :   0.8422 B(  0-C ,  2-C ) :   0.5672 B(  0-C ,  4-C ) :   0.1916
B(  0-C , 11-H ) :   0.9080 B(  0-C , 12-H ) :   0.9272 B(  1-N ,  3-C ) :   1.0322
B(  1-N ,  8-H ) :   1.0043 B(  2-C , 13-H ) :   0.9736 B(  2-C , 14-H ) :   0.9746
B(  2-C , 15-H ) :   0.9724 B(  3-C ,  4-C ) :   1.3472 B(  3-C ,  5-N ) :   0.9344
B(  4-C ,  9-H ) :   0.9698 B(  4-C , 10-H ) :   1.0578 B(  5-N ,  6-H ) :   1.0077
B(  5-N ,  7-H ) :   0.9816

FINAL SINGLE POINT ENERGY      -267.873320057388

DIPOLE MOMENT
-------------
                                X             Y             Z
Electronic contribution:      2.39560      -0.08302       3.47802
Nuclear contribution   :     -2.10948      -0.95026      -3.53375
                        -----------------------------------------
Total Dipole Moment    :      0.28613      -1.03328      -0.05573
                        -----------------------------------------
Magnitude (a.u.)       :      1.07361
Magnitude (Debye)      :      2.72891

Rotational constants in cm-1:     0.255209     0.072067     0.062929
Rotational constants in MHz :  7650.964615  2160.525743  1886.569524

                             ****ORCA TERMINATED NORMALLY****
TOTAL RUN TIME: 0 days 0 hours 1 minutes 27 seconds 24 msec
