                         Program Version 5.0.0 -  RELEASE  -
|  1> !CAM-B3LYP RIJCOSX def2-TZVPD def2/J TightSCF
|  2> *xyz 0 1
|  3> C          4.99986       -1.59613       -5.92488
|  4> N          5.28156       -1.97413       -4.53576
|  5> C          3.76678       -2.26611       -6.51175
|  6> C          4.79250       -1.36132       -3.45730
|  7> N          3.93990       -0.37492       -3.55736
|  8> C          5.25986       -1.75422       -2.23913
|  9> H          5.92282       -2.52145       -2.18672
| 10> H          4.65468       -1.64040       -1.44202
| 11> H          5.70914       -2.87560       -4.38702
| 12> H          3.33010       -0.31764       -4.36125
| 13> H          3.69849        0.11447       -2.70833
| 14> H          4.84333       -0.51793       -5.94302
| 15> H          5.90170       -1.82250       -6.49647
| 16> H          3.63046       -1.94025       -7.52177
| 17> H          2.90710       -2.00116       -5.93240
| 18> H          3.89538       -3.32820       -6.49392
| 19> *
| 20>
| 21> %MaxCore 64000
| 22>
| 23> %pal nprocs 4
| 24> end
| 25>
| 26> %scf
| 27>   MaxIter 150
| 28> end
| 29>
| 30>
| 31>                          ****END OF INPUT****

CARTESIAN COORDINATES (ANGSTROEM)
---------------------------------
  C      4.999860   -1.596130   -5.924880
  N      5.281560   -1.974130   -4.535760
  C      3.766780   -2.266110   -6.511750
  C      4.792500   -1.361320   -3.457300
  N      3.939900   -0.374920   -3.557360
  C      5.259860   -1.754220   -2.239130
  H      5.922820   -2.521450   -2.186720
  H      4.654680   -1.640400   -1.442020
  H      5.709140   -2.875600   -4.387020
  H      3.330100   -0.317640   -4.361250
  H      3.698490    0.114470   -2.708330
  H      4.843330   -0.517930   -5.943020
  H      5.901700   -1.822500   -6.496470
  H      3.630460   -1.940250   -7.521770
  H      2.907100   -2.001160   -5.932400
  H      3.895380   -3.328200   -6.493920

 Total Charge           Charge          ....    0
 Multiplicity           Mult            ....    1
 Number of Electrons    NEL             ....   48
 Basis Dimension        Dim             ....  312

ORBITAL ENERGIES
----------------

  NO   OCC          E(Eh)            E(eV)
   0   2.0000     -14.394640      -391.6981
   1   2.0000     -14.390695      -391.5907
   2   2.0000     -10.295660      -280.1592
   3   2.0000     -10.283572      -279.8302
   4   2.0000     -10.238038      -278.5912
   5   2.0000     -10.151671      -276.2410
   6   2.0000      -1.057328       -28.7714
   7   2.0000      -0.972729       -26.4693
   8   2.0000      -0.855971       -23.2922
   9   2.0000      -0.777971       -21.1697
  10   2.0000      -0.707225       -19.2446
  11   2.0000      -0.678696       -18.4683
  12   2.0000      -0.619262       -16.8510
  13   2.0000      -0.571402       -15.5486
  14   2.0000      -0.552959       -15.0468
  15   2.0000      -0.515756       -14.0344
  16   2.0000      -0.501742       -13.6531
  17   2.0000      -0.474415       -12.9095
  18   2.0000      -0.456328       -12.4173
  19   2.0000      -0.434326       -11.8186
  20   2.0000      -0.430899       -11.7254
  21   2.0000      -0.415271       -11.3001
  22   2.0000      -0.322364        -8.7720
  23   2.0000      -0.218531        -5.9465
  24   0.0000       0.024335         0.6622
  25   0.0000       0.052512         1.4289
  26   0.0000       0.053627         1.4593
  27   0.0000       0.058616         1.5950
  28   0.0000       0.085310         2.3214

MULLIKEN ATOMIC CHARGES
-----------------------
   0 C :   -0.597680
   1 N :   -0.179761
   2 C :   -0.967977
   3 C :    0.556274
   4 N :   -0.337804
   5 C :   -1.111436
   6 H :    0.262661
   7 H :    0.260549
   8 H :    0.168510
   9 H :    0.179635
  10 H :    0.184069
  11 H :    0.374613
  12 H :    0.290781
  13 H :    0.322054
  14 H :    0.312363
  15 H :    0.283149
Sum of atomic charges:    0.0000000

LOEWDIN ATOMIC CHARGES
----------------------
   0 C :   -0.242380
   1 N :    0.020734
   2 C :   -0.091995
   3 C :   -0.568158
   4 N :    0.131572
   5 C :   -0.009160
   6 H :   -0.001537
   7 H :   -0.007383
   8 H :    0.140711
   9 H :    0.097184
  10 H :    0.116474
  11 H :    0.107205
  12 H :    0.112856
  13 H :    0.066400
  14 H :    0.060004
  15 H :    0.067474

  Mayer bond orders larger than 0.100000
B(  0-C ,  1-N ) :   0.8276 B(  0-C ,  2-C ) :   0.5583 B(  0-C ,  3-C ) :  -0.1114
B(  0-C ,  4-N ) :   0.1263 B(  0-C , 11-H ) :   0.9110 B(  0-C , 12-H ) :   0.9605
B(  1-N ,  3-C ) :   1.0819 B(  1-N ,  8-H ) :   0.9902 B(  2-C , 13-H ) :   0.9855
B(  2-C , 14-H ) :   0.9529 B(  2-C , 15-H ) :   0.9954 B(  3-C ,  4-N ) :   1.0961
B(  3-C ,  5-C ) :   1.1865 B(  3-C ,  7-H ) :  -0.1016 B(  4-N ,  9-H ) :   0.9792
B(  4-N , 10-H ) :   0.9957 B(  5-C ,  6-H ) :   1.0174 B(  5-C ,  7-H ) :   1.0832

FINAL SINGLE POINT ENERGY      -267.866725544949

DIPOLE MOMENT
-------------
                                X             Y             Z
Electronic contribution:      1.14112       1.24681       2.11021
Nuclear contribution   :     -1.82946      -1.24287      -3.25410
                        -----------------------------------------
Total Dipole Moment    :     -0.68834       0.00394      -1.14389
                        -----------------------------------------
Magnitude (a.u.)       :      1.33503
Magnitude (Debye)      :      3.39338

Rotational constants in cm-1:     0.244672     0.074506     0.064043
Rotational constants in MHz :  7335.067153  2233.624025  1919.970379

                             ****ORCA TERMINATED NORMALLY****
TOTAL RUN TIME: 0 days 0 hours 1 minutes 27 seconds 414 msec
