                         Program Version 5.0.0 -  RELEASE  -
|  1> !CAM-B3LYP RIJCOSX def2-TZVPD def2/J TightSCF xyzfile
|  2>
|  3> *xyzfile 0 1 D1.xyz
|  4>
|  5> %MaxCore 64000
|  6>
|  7> %pal nprocs 4
|  8> end
|  9>
| 10> %scf
| 11>   MaxIter 150
| 12> end
| 13>
| 14>
| 15>                          ****END OF INPUT****

CARTESIAN COORDINATES (ANGSTROEM)
---------------------------------
  C      4.999862   -1.596133   -5.924876
  C      5.281560   -1.974132   -4.535764
  C      3.766779   -2.266110   -6.511752
  C      2.496702   -1.844161   -5.735704
  H      1.626416   -2.217434   -6.308950
  H      2.481824   -2.456069   -4.793414
  F      2.459729   -0.509204   -5.505757
  C      4.792500   -1.361316   -3.457295
  N      3.939898   -0.374925   -3.557359
  N      5.259860   -1.754224   -2.239133
  H      5.922824   -2.521451   -2.186720
  H      4.654678   -1.640404   -1.442016
  H      5.709139   -2.875599   -4.387021
  H      3.330101   -0.317639   -4.361247
  H      3.698494    0.114468   -2.708333
  H      4.843333   -0.517930   -5.943019
  H      5.901695   -1.822503   -6.496467
  H      3.886191   -3.357076   -6.533604
  H      3.685602   -1.922168   -7.547128

 Total Charge           Charge          ....    0
 Multiplicity           Mult            ....    1
 Number of Electrons    NEL             ....   64
 Basis Dimension        Dim             ....  398

ORBITAL ENERGIES
----------------

  NO   OCC          E(Eh)            E(eV)
   0   2.0000     -24.779250      -674.2777
   1   2.0000     -14.380432      -391.3115
   2   2.0000     -14.365628      -390.9086
   3   2.0000     -10.327667      -281.0301
   4   2.0000     -10.282998      -279.8146
   5   2.0000     -10.239038      -278.6184
   6   2.0000     -10.217987      -278.0456
   7   2.0000     -10.162958      -276.5482
   8   2.0000      -1.329409       -36.1751
   9   2.0000      -1.035822       -28.1862
  10   2.0000      -0.943312       -25.6688
  11   2.0000      -0.878977       -23.9182
  12   2.0000      -0.805949       -21.9310
  13   2.0000      -0.751981       -20.4625
  14   2.0000      -0.678052       -18.4507
  15   2.0000      -0.664342       -18.0777
  16   2.0000      -0.618518       -16.8307
  17   2.0000      -0.601965       -16.3803
  18   2.0000      -0.588843       -16.0232
  19   2.0000      -0.569285       -15.4910
  20   2.0000      -0.563155       -15.3242
  21   2.0000      -0.524346       -14.2682
  22   2.0000      -0.494622       -13.4593
  23   2.0000      -0.476697       -12.9716
  24   2.0000      -0.463631       -12.6161
  25   2.0000      -0.441066       -12.0020
  26   2.0000      -0.419265       -11.4088
  27   2.0000      -0.402901       -10.9635
  28   2.0000      -0.390697       -10.6314
  29   2.0000      -0.380858       -10.3637
  30   2.0000      -0.320560        -8.7229
  31   2.0000      -0.217017        -5.9053
  32   0.0000       0.030188         0.8215
  33   0.0000       0.045509         1.2384
  34   0.0000       0.056035         1.5248
  35   0.0000       0.058405         1.5893
  36   0.0000       0.074627         2.0307

MULLIKEN ATOMIC CHARGES
-----------------------
   0 C :   -0.583422
   1 C :   -0.751738
   2 C :   -0.404637
   3 C :   -0.337462
   4 H :    0.303996
   5 H :    0.279632
   6 F :   -0.384185
   7 C :    0.588658
   8 N :   -0.353360
   9 N :   -0.455972
  10 H :    0.168269
  11 H :    0.165367
  12 H :    0.238135
  13 H :    0.303476
  14 H :    0.126996
  15 H :    0.281647
  16 H :    0.259951
  17 H :    0.310040
  18 H :    0.244608
Sum of atomic charges:    0.0000000

LOEWDIN ATOMIC CHARGES
----------------------
   0 C :   -0.235071
   1 C :   -0.131744
   2 C :   -0.176262
   3 C :   -0.222484
   4 H :    0.120914
   5 H :    0.132485
   6 F :   -0.026292
   7 C :   -0.541807
   8 N :    0.149918
   9 N :    0.102257
  10 H :    0.101086
  11 H :    0.084734
  12 H :    0.061410
  13 H :    0.028238
  14 H :    0.109576
  15 H :    0.108975
  16 H :    0.109640
  17 H :    0.119568
  18 H :    0.104856

  Mayer bond orders larger than 0.100000
B(  0-C ,  1-C ) :   0.6312 B(  0-C ,  2-C ) :   0.6924 B(  0-C , 15-H ) :   0.9740
B(  0-C , 16-H ) :   1.0895 B(  1-C ,  7-C ) :   1.3324 B(  1-C ,  8-N ) :   0.1368
B(  1-C , 12-H ) :   1.1483 B(  2-C ,  3-C ) :   0.8952 B(  2-C , 17-H ) :   0.9557
B(  2-C , 18-H ) :   0.9496 B(  3-C ,  4-H ) :   0.9433 B(  3-C ,  5-H ) :   0.9664
B(  3-C ,  6-F ) :   0.7599 B(  7-C ,  8-N ) :   0.9719 B(  7-C ,  9-N ) :   0.8925
B(  7-C , 12-H ) :  -0.1877 B(  8-N , 13-H ) :   0.8438 B(  8-N , 14-H ) :   1.0518
B(  9-N , 10-H ) :   0.9945 B(  9-N , 11-H ) :   1.0332

FINAL SINGLE POINT ENERGY      -406.429790822476

DIPOLE MOMENT
-------------
                                X             Y             Z
Electronic contribution:     -3.33932       3.96871       0.76564
Nuclear contribution   :      2.63975      -4.51113      -0.34926
                        -----------------------------------------
Total Dipole Moment    :     -0.69958      -0.54242       0.41638
                        -----------------------------------------
Magnitude (a.u.)       :      0.97826
Magnitude (Debye)      :      2.48654

Rotational constants in cm-1:     0.109429     0.049838     0.039337
Rotational constants in MHz :  3280.611039  1494.113088  1179.280063

                             ****ORCA TERMINATED NORMALLY****
TOTAL RUN TIME: 0 days 0 hours 2 minutes 28 seconds 911 msec
