                         Program Version 5.0.0 -  RELEASE  -
|  1> !CAM-B3LYP RIJCOSX def2-TZVPD def2/J TightSCF xyzfile
|  2>
|  3> *xyzfile 0 1 D2.xyz
|  4>
|  5> %MaxCore 64000
|  6>
|  7> %pal nprocs 4
|  8> end
|  9>
| 10> %scf
| 11>   MaxIter 150
| 12> end
| 13>
| 14>
| 15>                          ****END OF INPUT****

CARTESIAN COORDINATES (ANGSTROEM)
---------------------------------
  C      4.999862   -1.596133   -5.924876
  N      5.281560   -1.974132   -4.535764
  C      3.766779   -2.266110   -6.511752
  C      2.496702   -1.844161   -5.735704
  H      1.626416   -2.217434   -6.308950
  H      2.481824   -2.456069   -4.793414
  F      2.459729   -0.509204   -5.505757
  C      4.792500   -1.361316   -3.457295
  C      3.939898   -0.374925   -3.557359
  N      5.259860   -1.754224   -2.239133
  H      5.922824   -2.521451   -2.186720
  H      4.654678   -1.640404   -1.442016
  H      5.709139   -2.875599   -4.387021
  H      3.330101   -0.317639   -4.361247
  H      3.698494    0.114468   -2.708333
  H      4.843333   -0.517930   -5.943019
  H      5.901695   -1.822503   -6.496467
  H      3.886191   -3.357076   -6.533604
  H      3.685602   -1.922168   -7.547128

 Total Charge           Charge          ....    0
 Multiplicity           Mult            ....    1
 Number of Electrons    NEL             ....   64
 Basis Dimension        Dim             ....  398

ORBITAL ENERGIES
----------------

  NO   OCC          E(Eh)            E(eV)
   0   2.0000     -24.756806      -673.6670
   1   2.0000     -14.387549      -391.5051
   2   2.0000     -14.378748      -391.2656
   3   2.0000     -10.326918      -281.0097
   4   2.0000     -10.278895      -279.7029
   5   2.0000     -10.277217      -279.6573
   6   2.0000     -10.254330      -279.0345
   7   2.0000     -10.130430      -275.6630
   8   2.0000      -1.309503       -35.6334
   9   2.0000      -1.041585       -28.3430
  10   2.0000      -0.957760       -26.0620
  11   2.0000      -0.867656       -23.6101
  12   2.0000      -0.792767       -21.5723
  13   2.0000      -0.773682       -21.0530
  14   2.0000      -0.690973       -18.8023
  15   2.0000      -0.643927       -17.5221
  16   2.0000      -0.622413       -16.9367
  17   2.0000      -0.591510       -16.0958
  18   2.0000      -0.588695       -16.0192
  19   2.0000      -0.569139       -15.4871
  20   2.0000      -0.556424       -15.1411
  21   2.0000      -0.526733       -14.3331
  22   2.0000      -0.497099       -13.5267
  23   2.0000      -0.478832       -13.0297
  24   2.0000      -0.456073       -12.4104
  25   2.0000      -0.447148       -12.1675
  26   2.0000      -0.426646       -11.6096
  27   2.0000      -0.411126       -11.1873
  28   2.0000      -0.401877       -10.9356
  29   2.0000      -0.373247       -10.1566
  30   2.0000      -0.311828        -8.4853
  31   2.0000      -0.221588        -6.0297
  32   0.0000       0.024433         0.6649
  33   0.0000       0.044225         1.2034
  34   0.0000       0.051230         1.3940
  35   0.0000       0.058121         1.5816
  36   0.0000       0.073605         2.0029

MULLIKEN ATOMIC CHARGES
-----------------------
   0 C :   -0.710888
   1 N :   -0.217748
   2 C :   -0.354958
   3 C :   -0.363611
   4 H :    0.304015
   5 H :    0.295968
   6 F :   -0.316692
   7 C :    0.679203
   8 C :   -1.327521
   9 N :   -0.429886
  10 H :    0.156969
  11 H :    0.190177
  12 H :    0.162890
  13 H :    0.420313
  14 H :    0.298632
  15 H :    0.368175
  16 H :    0.301729
  17 H :    0.275005
  18 H :    0.268226
Sum of atomic charges:   -0.0000000

LOEWDIN ATOMIC CHARGES
----------------------
   0 C :   -0.188077
   1 N :    0.022054
   2 C :   -0.160054
   3 C :   -0.225996
   4 H :    0.120648
   5 H :    0.131792
   6 F :   -0.044397
   7 C :   -0.550811
   8 C :    0.023008
   9 N :    0.103460
  10 H :    0.089244
  11 H :    0.096129
  12 H :    0.131455
  13 H :   -0.039139
  14 H :    0.026555
  15 H :    0.121329
  16 H :    0.117438
  17 H :    0.115829
  18 H :    0.109533

  Mayer bond orders larger than 0.100000
B(  0-C ,  1-N ) :   0.8711 B(  0-C ,  2-C ) :   0.7660 B(  0-C , 15-H ) :   0.8843
B(  0-C , 16-H ) :   0.9530 B(  1-N ,  7-C ) :   0.9632 B(  1-N , 12-H ) :   1.0134
B(  2-C ,  3-C ) :   0.9059 B(  2-C , 17-H ) :   0.9642 B(  2-C , 18-H ) :   0.9625
B(  3-C ,  4-H ) :   0.9404 B(  3-C ,  5-H ) :   0.9547 B(  3-C ,  6-F ) :   0.8037
B(  6-F ,  8-C ) :   0.1020 B(  6-F , 13-H ) :  -0.2667 B(  7-C ,  8-C ) :   1.1940
B(  7-C ,  9-N ) :   0.8778 B(  7-C , 13-H ) :  -0.1146 B(  8-C , 13-H ) :   0.9972
B(  8-C , 14-H ) :   1.1213 B(  9-N , 10-H ) :   1.0162 B(  9-N , 11-H ) :   0.9900

FINAL SINGLE POINT ENERGY      -406.399464047925

DIPOLE MOMENT
-------------
                                X             Y             Z
Electronic contribution:     -2.28796       2.69140      -0.16871
Nuclear contribution   :      2.43398      -4.26587      -0.19921
                        -----------------------------------------
Total Dipole Moment    :      0.14602      -1.57447      -0.36792
                        -----------------------------------------
Magnitude (a.u.)       :      1.62347
Magnitude (Debye)      :      4.12653

Rotational constants in cm-1:     0.110089     0.049944     0.039407
Rotational constants in MHz :  3300.378855  1497.273856  1181.385913

                             ****ORCA TERMINATED NORMALLY****
TOTAL RUN TIME: 0 days 0 hours 2 minutes 37 seconds 644 msec
