                         Program Version 5.0.0 -  RELEASE  -
|  1> !CAM-B3LYP RIJCOSX def2-TZVPD def2/J TightSCF xyzfile
|  2>
|  3> *xyzfile 0 1 D3.xyz
|  4>
|  5> %MaxCore 64000
|  6>
|  7> %pal nprocs 4
|  8> end
|  9>
| 10> %scf
| 11>   MaxIter 150
| 12> end
| 13>
| 14>
| 15>                          ****END OF INPUT****

CARTESIAN COORDINATES (ANGSTROEM)
---------------------------------
  C      4.999862   -1.596133   -5.924876
  N      5.281560   -1.974132   -4.535764
  C      3.766779   -2.266110   -6.511752
  C      2.496702   -1.844161   -5.735704
  H      1.626416   -2.217434   -6.308950
  H      2.481824   -2.456069   -4.793414
  F      2.459729   -0.509204   -5.505757
  C      4.792500   -1.361316   -3.457295
  N      3.939898   -0.374925   -3.557359
  C      5.259860   -1.754224   -2.239133
  H      5.922824   -2.521451   -2.186720
  H      4.654678   -1.640404   -1.442016
  H      5.709139   -2.875599   -4.387021
  H      3.330101   -0.317639   -4.361247
  H      3.698494    0.114468   -2.708333
  H      4.843333   -0.517930   -5.943019
  H      5.901695   -1.822503   -6.496467
  H      3.886191   -3.357076   -6.533604
  H      3.685602   -1.922168   -7.547128

 Total Charge           Charge          ....    0
 Multiplicity           Mult            ....    1
 Number of Electrons    NEL             ....   64
 Basis Dimension        Dim             ....  398

ORBITAL ENERGIES
----------------

  NO   OCC          E(Eh)            E(eV)
   0   2.0000     -24.793797      -674.6735
   1   2.0000     -14.388843      -391.5403
   2   2.0000     -14.364325      -390.8732
   3   2.0000     -10.346993      -281.5560
   4   2.0000     -10.286311      -279.9048
   5   2.0000     -10.286139      -279.9001
   6   2.0000     -10.266458      -279.3645
   7   2.0000     -10.142611      -275.9945
   8   2.0000      -1.344320       -36.5808
   9   2.0000      -1.048818       -28.5398
  10   2.0000      -0.964345       -26.2412
  11   2.0000      -0.883606       -24.0441
  12   2.0000      -0.810752       -22.0617
  13   2.0000      -0.752181       -20.4679
  14   2.0000      -0.698632       -19.0107
  15   2.0000      -0.672328       -18.2950
  16   2.0000      -0.652429       -17.7535
  17   2.0000      -0.619527       -16.8582
  18   2.0000      -0.590613       -16.0714
  19   2.0000      -0.576841       -15.6966
  20   2.0000      -0.544997       -14.8301
  21   2.0000      -0.540837       -14.7169
  22   2.0000      -0.507732       -13.8161
  23   2.0000      -0.495973       -13.4961
  24   2.0000      -0.457952       -12.4615
  25   2.0000      -0.448290       -12.1986
  26   2.0000      -0.438821       -11.9409
  27   2.0000      -0.423522       -11.5246
  28   2.0000      -0.411877       -11.2077
  29   2.0000      -0.408126       -11.1057
  30   2.0000      -0.313045        -8.5184
  31   2.0000      -0.210117        -5.7176
  32   0.0000       0.022657         0.6165
  33   0.0000       0.044936         1.2228
  34   0.0000       0.047258         1.2859
  35   0.0000       0.051287         1.3956
  36   0.0000       0.075308         2.0492

MULLIKEN ATOMIC CHARGES
-----------------------
   0 C :   -0.673596
   1 N :   -0.197214
   2 C :   -0.358417
   3 C :   -0.349360
   4 H :    0.304541
   5 H :    0.280719
   6 F :   -0.378397
   7 C :    0.479547
   8 N :   -0.353609
   9 C :   -1.167000
  10 H :    0.284684
  11 H :    0.267861
  12 H :    0.167886
  13 H :    0.322595
  14 H :    0.145439
  15 H :    0.353767
  16 H :    0.311732
  17 H :    0.279357
  18 H :    0.279466
Sum of atomic charges:   -0.0000000

LOEWDIN ATOMIC CHARGES
----------------------
   0 C :   -0.189907
   1 N :    0.032361
   2 C :   -0.160250
   3 C :   -0.218647
   4 H :    0.124330
   5 H :    0.136796
   6 F :   -0.025586
   7 C :   -0.568942
   8 N :    0.147429
   9 C :   -0.014122
  10 H :   -0.006072
  11 H :   -0.009525
  12 H :    0.141252
  13 H :    0.024260
  14 H :    0.119943
  15 H :    0.118042
  16 H :    0.118743
  17 H :    0.119473
  18 H :    0.110420

  Mayer bond orders larger than 0.100000
B(  0-C ,  1-N ) :   0.8305 B(  0-C ,  2-C ) :   0.7547 B(  0-C ,  7-C ) :  -0.1114
B(  0-C , 15-H ) :   0.8916 B(  0-C , 16-H ) :   0.9624 B(  1-N ,  7-C ) :   1.0434
B(  1-N ,  9-C ) :   0.1097 B(  1-N , 12-H ) :   0.9798 B(  2-C ,  3-C ) :   0.8954
B(  2-C , 17-H ) :   0.9603 B(  2-C , 18-H ) :   0.9738 B(  3-C ,  4-H ) :   0.9436
B(  3-C ,  5-H ) :   0.9605 B(  3-C ,  6-F ) :   0.7767 B(  7-C ,  8-N ) :   1.0995
B(  7-C ,  9-C ) :   1.1989 B(  8-N , 13-H ) :   0.8215 B(  8-N , 14-H ) :   1.0233
B(  9-C , 10-H ) :   1.0038 B(  9-C , 11-H ) :   1.0643

FINAL SINGLE POINT ENERGY      -406.413364309205

DIPOLE MOMENT
-------------
                                X             Y             Z
Electronic contribution:     -3.49841       3.85283      -1.54119
Nuclear contribution   :      2.63642      -4.47741       0.00296
                        -----------------------------------------
Total Dipole Moment    :     -0.86199      -0.62458      -1.53824
                        -----------------------------------------
Magnitude (a.u.)       :      1.87064
Magnitude (Debye)      :      4.75479

Rotational constants in cm-1:     0.108041     0.051979     0.040387
Rotational constants in MHz :  3238.993235  1558.297571  1210.782552

                             ****ORCA TERMINATED NORMALLY****
TOTAL RUN TIME: 0 days 0 hours 2 minutes 35 seconds 316 msec
