                         Program Version 5.0.0 -  RELEASE  -
|  1> !wB97X-D3 RIJCOSX def2-TZVP def2/J TightSCF
|  2> *xyz -1 1
|  3> C         -5.57236       -5.80780       -0.81644
|  4> S         -6.90318       -4.61903       -0.52846
|  5> O         -8.11485       -5.25093       -0.95701
|  6> O         -6.53271       -3.42684       -1.31485
|  7> O         -6.86563       -4.29496        0.91412
|  8> H         -5.55376       -6.07856       -1.85145
|  9> H         -5.73990       -6.68165       -0.22212
| 10> H         -4.63562       -5.36690       -0.54622
| 11> *
| 12> %MaxCore 64000
| 13>
| 14> %pal nprocs 18
| 15> end
| 16>
| 17> %scf
| 18>   MaxIter 150
| 19> end
| 20>
| 21>                          ****END OF INPUT****

CARTESIAN COORDINATES (ANGSTROEM)
---------------------------------
  C     -5.572360   -5.807800   -0.816440
  S     -6.903180   -4.619030   -0.528460
  O     -8.114850   -5.250930   -0.957010
  O     -6.532710   -3.426840   -1.314850
  O     -6.865630   -4.294960    0.914120
  H     -5.553760   -6.078560   -1.851450
  H     -5.739900   -6.681650   -0.222120
  H     -4.635620   -5.366900   -0.546220

 Total Charge           Charge          ....   -1
 Multiplicity           Mult            ....    1
 Number of Electrons    NEL             ....   50
 Basis Dimension        Dim             ....  179

ORBITAL ENERGIES
----------------

  NO   OCC          E(Eh)            E(eV)
   0   2.0000     -88.929899     -2419.9056
   1   2.0000     -19.004292      -517.1331
   2   2.0000     -18.990744      -516.7644
   3   2.0000     -18.989757      -516.7376
   4   2.0000     -10.123376      -275.4711
   5   2.0000      -7.991797      -217.4679
   6   2.0000      -5.946334      -161.8080
   7   2.0000      -5.944746      -161.7648
   8   2.0000      -5.944474      -161.7574
   9   2.0000      -1.029203       -28.0060
  10   2.0000      -0.896220       -24.3874
  11   2.0000      -0.872979       -23.7550
  12   2.0000      -0.693510       -18.8714
  13   2.0000      -0.488499       -13.2927
  14   2.0000      -0.392128       -10.6703
  15   2.0000      -0.384912       -10.4740
  16   2.0000      -0.383788       -10.4434
  17   2.0000      -0.338195        -9.2028
  18   2.0000      -0.336325        -9.1519
  19   2.0000      -0.239456        -6.5159
  20   2.0000      -0.239368        -6.5135
  21   2.0000      -0.203375        -5.5341
  22   2.0000      -0.194421        -5.2905
  23   2.0000      -0.187330        -5.0975
  24   2.0000      -0.147956        -4.0261
  25   0.0000       0.275781         7.5044
  26   0.0000       0.332254         9.0411
  27   0.0000       0.334231         9.0949
  28   0.0000       0.345195         9.3932
  29   0.0000       0.417888        11.3713

MULLIKEN ATOMIC CHARGES
-----------------------
   0 C :   -0.391054
   1 S :    0.849216
   2 O :   -0.550567
   3 O :   -0.598652
   4 O :   -0.599904
   5 H :    0.095565
   6 H :    0.094026
   7 H :    0.101370
Sum of atomic charges:   -1.0000000

LOEWDIN ATOMIC CHARGES
----------------------
   0 C :   -0.459816
   1 S :    0.406796
   2 O :   -0.373529
   3 O :   -0.429919
   4 O :   -0.432912
   5 H :    0.096016
   6 H :    0.095314
   7 H :    0.098050

  Mayer bond orders larger than 0.100000
B(  0-C ,  1-S ) :   0.8686 B(  0-C ,  5-H ) :   0.9677 B(  0-C ,  6-H ) :   0.9672
B(  0-C ,  7-H ) :   0.9706 B(  1-S ,  2-O ) :   1.8132 B(  1-S ,  3-O ) :   1.7611
B(  1-S ,  4-O ) :   1.7588

Dispersion correction           -0.001521546
FINAL SINGLE POINT ENERGY      -663.898852754948

DIPOLE MOMENT
-------------
                                X             Y             Z
Electronic contribution:     -3.26778       2.75297       0.64066
Nuclear contribution   :      4.23639      -3.86101      -0.94151
                        -----------------------------------------
Total Dipole Moment    :      0.96860      -1.10804      -0.30085
                        -----------------------------------------
Magnitude (a.u.)       :      1.50215
Magnitude (Debye)      :      3.81816

Rotational constants in cm-1:     0.172406     0.155169     0.153146
Rotational constants in MHz :  5168.590738  4651.861875  4591.214998

                             ****ORCA TERMINATED NORMALLY****
TOTAL RUN TIME: 0 days 0 hours 0 minutes 10 seconds 559 msec
