                         Program Version 5.0.0 -  RELEASE  -
|  1> !wB97X-D3 RIJCOSX def2-TZVP def2/J TightSCF
|  2> *xyz 1 1
|  3> C         -4.38262       -1.67089        1.21620
|  4> N         -5.76354       -1.91517        0.70501
|  5> H         -5.84081       -2.11520       -0.30065
|  6> H         -6.40882       -1.14866        0.93612
|  7> H         -6.17478       -2.79061        1.05143
|  8> H         -4.01369       -0.74796        0.81997
|  9> H         -3.74223       -2.47168        0.91037
| 10> H         -4.40201       -1.61791        2.28471
| 11> *
| 12> %MaxCore 64000
| 13>
| 14> %pal nprocs 18
| 15> end
| 16>
| 17> %scf
| 18>   MaxIter 150
| 19> end
| 20>
| 21>                          ****END OF INPUT****

CARTESIAN COORDINATES (ANGSTROEM)
---------------------------------
  C     -4.382620   -1.670890    1.216200
  N     -5.763540   -1.915170    0.705010
  H     -5.840810   -2.115200   -0.300650
  H     -6.408820   -1.148660    0.936120
  H     -6.174780   -2.790610    1.051430
  H     -4.013690   -0.747960    0.819970
  H     -3.742230   -2.471680    0.910370
  H     -4.402010   -1.617910    2.284710

 Total Charge           Charge          ....    1
 Multiplicity           Mult            ....    1
 Number of Electrons    NEL             ....   18
 Basis Dimension        Dim             ....   98

ORBITAL ENERGIES
----------------

  NO   OCC          E(Eh)            E(eV)
   0   2.0000     -14.771358      -401.9491
   1   2.0000     -10.531729      -286.5829
   2   2.0000      -1.342166       -36.5222
   3   2.0000      -1.056447       -28.7474
   4   2.0000      -0.916509       -24.9395
   5   2.0000      -0.892264       -24.2797
   6   2.0000      -0.817193       -22.2369
   7   2.0000      -0.725085       -19.7306
   8   2.0000      -0.721741       -19.6396
   9   0.0000      -0.118383        -3.2214
  10   0.0000      -0.048022        -1.3067
  11   0.0000      -0.046075        -1.2538
  12   0.0000      -0.030277        -0.8239
  13   0.0000       0.019185         0.5221

MULLIKEN ATOMIC CHARGES
-----------------------
   0 C :   -0.304883
   1 N :   -0.321546
   2 H :    0.337237
   3 H :    0.345106
   4 H :    0.334773
   5 H :    0.203965
   6 H :    0.200956
   7 H :    0.204392
Sum of atomic charges:    1.0000000

LOEWDIN ATOMIC CHARGES
----------------------
   0 C :   -0.238664
   1 N :    0.149088
   2 H :    0.224116
   3 H :    0.226019
   4 H :    0.224227
   5 H :    0.138442
   6 H :    0.138080
   7 H :    0.138692

  Mayer bond orders larger than 0.100000
B(  0-C ,  1-N ) :   0.8922 B(  0-C ,  5-H ) :   0.9534 B(  0-C ,  6-H ) :   0.9527
B(  0-C ,  7-H ) :   0.9520 B(  1-N ,  2-H ) :   0.8728 B(  1-N ,  3-H ) :   0.8685
B(  1-N ,  4-H ) :   0.8756

Dispersion correction           -0.000533427
FINAL SINGLE POINT ENERGY       -96.224246083535

DIPOLE MOMENT
-------------
                                X             Y             Z
Electronic contribution:     -0.97398      -0.13720      -0.35913
Nuclear contribution   :      0.12888      -0.05969       0.04130
                        -----------------------------------------
Total Dipole Moment    :     -0.84510      -0.19689      -0.31784
                        -----------------------------------------
Magnitude (a.u.)       :      0.92411
Magnitude (Debye)      :      2.34889

Rotational constants in cm-1:     2.932748     0.676653     0.669753
Rotational constants in MHz : 87921.559023 20285.538082 20078.692306

                             ****ORCA TERMINATED NORMALLY****
TOTAL RUN TIME: 0 days 0 hours 0 minutes 4 seconds 869 msec
