                         Program Version 5.0.0 -  RELEASE  -
|  1> !wB97X-D3 RIJCOSX def2-TZVP def2/J TightSCF
|  2> *xyz 0 1
|  3> C         -5.57236       -5.80780       -0.81644
|  4> S         -6.90318       -4.61903       -0.52846
|  5> F         -8.11485       -5.25093       -0.95701
|  6> O         -6.53271       -3.42684       -1.31485
|  7> O         -6.86563       -4.29496        0.91412
|  8> H         -5.55376       -6.07856       -1.85145
|  9> H         -5.73990       -6.68165       -0.22212
| 10> H         -4.63562       -5.36690       -0.54622
| 11> *
| 12> %MaxCore 64000
| 13>
| 14> %pal nprocs 18
| 15> end
| 16>
| 17> %scf
| 18>   MaxIter 150
| 19> end
| 20>
| 21>                          ****END OF INPUT****

CARTESIAN COORDINATES (ANGSTROEM)
---------------------------------
  C     -5.572360   -5.807800   -0.816440
  S     -6.903180   -4.619030   -0.528460
  F     -8.114850   -5.250930   -0.957010
  O     -6.532710   -3.426840   -1.314850
  O     -6.865630   -4.294960    0.914120
  H     -5.553760   -6.078560   -1.851450
  H     -5.739900   -6.681650   -0.222120
  H     -4.635620   -5.366900   -0.546220

 Total Charge           Charge          ....    0
 Multiplicity           Mult            ....    1
 Number of Electrons    NEL             ....   50
 Basis Dimension        Dim             ....  179

ORBITAL ENERGIES
----------------

  NO   OCC          E(Eh)            E(eV)
   0   2.0000     -89.203906     -2427.3617
   1   2.0000     -24.916451      -678.0111
   2   2.0000     -19.236538      -523.4528
   3   2.0000     -19.235509      -523.4248
   4   2.0000     -10.335843      -281.2526
   5   2.0000      -8.266284      -224.9370
   6   2.0000      -6.223702      -169.3556
   7   2.0000      -6.217528      -169.1875
   8   2.0000      -6.216800      -169.1677
   9   2.0000      -1.513419       -41.1822
  10   2.0000      -1.211567       -32.9684
  11   2.0000      -1.112761       -30.2798
  12   2.0000      -0.918496       -24.9936
  13   2.0000      -0.833621       -22.6840
  14   2.0000      -0.715504       -19.4699
  15   2.0000      -0.702238       -19.1089
  16   2.0000      -0.662312       -18.0224
  17   2.0000      -0.579604       -15.7718
  18   2.0000      -0.573487       -15.6054
  19   2.0000      -0.565775       -15.3955
  20   2.0000      -0.531544       -14.4640
  21   2.0000      -0.480146       -13.0654
  22   2.0000      -0.427752       -11.6397
  23   2.0000      -0.422783       -11.5045
  24   2.0000      -0.397487       -10.8162
  25   0.0000       0.099685         2.7126
  26   0.0000       0.129639         3.5277
  27   0.0000       0.143353         3.9008
  28   0.0000       0.147575         4.0157
  29   0.0000       0.166397         4.5279

MULLIKEN ATOMIC CHARGES
-----------------------
   0 C :   -0.386634
   1 S :    0.865742
   2 F :   -0.087104
   3 O :   -0.444485
   4 O :   -0.444866
   5 H :    0.157737
   6 H :    0.157645
   7 H :    0.181966
Sum of atomic charges:    0.0000000

LOEWDIN ATOMIC CHARGES
----------------------
   0 C :   -0.395006
   1 S :    0.529321
   2 F :    0.110742
   3 O :   -0.306913
   4 O :   -0.309052
   5 H :    0.119069
   6 H :    0.118833
   7 H :    0.133006

  Mayer bond orders larger than 0.100000
B(  0-C ,  1-S ) :   0.9182 B(  0-C ,  5-H ) :   0.9461 B(  0-C ,  6-H ) :   0.9462
B(  0-C ,  7-H ) :   0.9484 B(  1-S ,  2-F ) :   1.1604 B(  1-S ,  3-O ) :   1.8987
B(  1-S ,  4-O ) :   1.8970

Dispersion correction           -0.001530103
FINAL SINGLE POINT ENERGY      -688.413798848401

DIPOLE MOMENT
-------------
                                X             Y             Z
Electronic contribution:     -5.26301       1.61599      -0.09818
Nuclear contribution   :      5.53040      -3.27628      -0.52239
                        -----------------------------------------
Total Dipole Moment    :      0.26739      -1.66029      -0.62057
                        -----------------------------------------
Magnitude (a.u.)       :      1.79253
Magnitude (Debye)      :      4.55626

Rotational constants in cm-1:     0.163239     0.153903     0.144751
Rotational constants in MHz :  4893.777363  4613.882823  4339.513182

                             ****ORCA TERMINATED NORMALLY****
TOTAL RUN TIME: 0 days 0 hours 0 minutes 11 seconds 221 msec
