                         Program Version 5.0.0 -  RELEASE  -
|  1> !wB97X-D3 RIJCOSX def2-TZVP def2/J TightSCF
|  2> *xyz 0 1
|  3> C         -4.38262       -1.67089        1.21620
|  4> C         -5.76354       -1.91517        0.70501
|  5> H         -5.84081       -2.11520       -0.30065
|  6> H         -6.40882       -1.14866        0.93612
|  7> H         -6.17478       -2.79061        1.05143
|  8> H         -4.01369       -0.74796        0.81997
|  9> H         -3.74223       -2.47168        0.91037
| 10> H         -4.40201       -1.61791        2.28471
| 11> *
| 12> %MaxCore 64000
| 13>
| 14> %pal nprocs 18
| 15> end
| 16>
| 17> %scf
| 18>   MaxIter 150
| 19> end
| 20>
| 21>                          ****END OF INPUT****

CARTESIAN COORDINATES (ANGSTROEM)
---------------------------------
  C     -4.382620   -1.670890    1.216200
  C     -5.763540   -1.915170    0.705010
  H     -5.840810   -2.115200   -0.300650
  H     -6.408820   -1.148660    0.936120
  H     -6.174780   -2.790610    1.051430
  H     -4.013690   -0.747960    0.819970
  H     -3.742230   -2.471680    0.910370
  H     -4.402010   -1.617910    2.284710

 Total Charge           Charge          ....    0
 Multiplicity           Mult            ....    1
 Number of Electrons    NEL             ....   18
 Basis Dimension        Dim             ....   98

ORBITAL ENERGIES
----------------

  NO   OCC          E(Eh)            E(eV)
   0   2.0000     -10.250600      -278.9330
   1   2.0000     -10.234043      -278.4825
   2   2.0000      -0.882935       -24.0259
   3   2.0000      -0.738780       -20.1032
   4   2.0000      -0.551565       -15.0088
   5   2.0000      -0.538051       -14.6411
   6   2.0000      -0.470163       -12.7938
   7   2.0000      -0.444863       -12.1054
   8   2.0000      -0.431348       -11.7376
   9   0.0000       0.127783         3.4772
  10   0.0000       0.168068         4.5734
  11   0.0000       0.199023         5.4157
  12   0.0000       0.201907         5.4942
  13   0.0000       0.214859         5.8466

MULLIKEN ATOMIC CHARGES
-----------------------
   0 C :   -0.297882
   1 C :   -0.324332
   2 H :    0.106109
   3 H :    0.105808
   4 H :    0.104757
   5 H :    0.101812
   6 H :    0.101225
   7 H :    0.102504
Sum of atomic charges:    0.0000000

LOEWDIN ATOMIC CHARGES
----------------------
   0 C :   -0.327130
   1 C :   -0.331577
   2 H :    0.105120
   3 H :    0.105120
   4 H :    0.106256
   5 H :    0.113813
   6 H :    0.114073
   7 H :    0.114324

  Mayer bond orders larger than 0.100000
B(  0-C ,  1-C ) :   0.9849 B(  0-C ,  5-H ) :   0.9811 B(  0-C ,  6-H ) :   0.9820
B(  0-C ,  7-H ) :   0.9804 B(  1-C ,  2-H ) :   0.9826 B(  1-C ,  3-H ) :   0.9819
B(  1-C ,  4-H ) :   0.9828

Dispersion correction           -0.000522348
FINAL SINGLE POINT ENERGY       -79.821273130270

DIPOLE MOMENT
-------------
                                X             Y             Z
Electronic contribution:      0.07726       0.07399       0.03115
Nuclear contribution   :     -0.10782      -0.10031      -0.04623
                        -----------------------------------------
Total Dipole Moment    :     -0.03056      -0.02632      -0.01508
                        -----------------------------------------
Magnitude (a.u.)       :      0.04306
Magnitude (Debye)      :      0.10945

Rotational constants in cm-1:     2.932831     0.705715     0.698218
Rotational constants in MHz : 87924.050302 21156.813368 20932.044240

                             ****ORCA TERMINATED NORMALLY****
TOTAL RUN TIME: 0 days 0 hours 0 minutes 4 seconds 84 msec
