                         Program Version 5.0.0 -  RELEASE  -
|  1> !wB97X-D3 RIJCOSX def2-TZVP def2/J TightSCF
|  2> *xyz 0 1
|  3> C         -5.57236       -5.80780       -0.81644
|  4> S         -6.90318       -4.61903       -0.52846
|  5> O         -8.11485       -5.25093       -0.95701
|  6> F         -6.53271       -3.42684       -1.31485
|  7> O         -6.86563       -4.29496        0.91412
|  8> H         -5.55376       -6.07856       -1.85145
|  9> H         -5.73990       -6.68165       -0.22212
| 10> H         -4.63562       -5.36690       -0.54622
| 11> *
| 12> %MaxCore 64000
| 13>
| 14> %pal nprocs 18
| 15> end
| 16>
| 17> %scf
| 18>   MaxIter 150
| 19> end
| 20>
| 21>                          ****END OF INPUT****

CARTESIAN COORDINATES (ANGSTROEM)
---------------------------------
  C     -5.572360   -5.807800   -0.816440
  S     -6.903180   -4.619030   -0.528460
  O     -8.114850   -5.250930   -0.957010
  F     -6.532710   -3.426840   -1.314850
  O     -6.865630   -4.294960    0.914120
  H     -5.553760   -6.078560   -1.851450
  H     -5.739900   -6.681650   -0.222120
  H     -4.635620   -5.366900   -0.546220

 Total Charge           Charge          ....    0
 Multiplicity           Mult            ....    1
 Number of Electrons    NEL             ....   50
 Basis Dimension        Dim             ....  179

ORBITAL ENERGIES
----------------

  NO   OCC          E(Eh)            E(eV)
   0   2.0000     -89.201621     -2427.2995
   1   2.0000     -24.894334      -677.4093
   2   2.0000     -19.249443      -523.8040
   3   2.0000     -19.236096      -523.4408
   4   2.0000     -10.335233      -281.2360
   5   2.0000      -8.264040      -224.8760
   6   2.0000      -6.221478      -169.2950
   7   2.0000      -6.215467      -169.1315
   8   2.0000      -6.214477      -169.1045
   9   2.0000      -1.476960       -40.1901
  10   2.0000      -1.228476       -33.4285
  11   2.0000      -1.128210       -30.7001
  12   2.0000      -0.916500       -24.9392
  13   2.0000      -0.815362       -22.1871
  14   2.0000      -0.696753       -18.9596
  15   2.0000      -0.676444       -18.4070
  16   2.0000      -0.658598       -17.9214
  17   2.0000      -0.580129       -15.7861
  18   2.0000      -0.577142       -15.7048
  19   2.0000      -0.565302       -15.3826
  20   2.0000      -0.539239       -14.6734
  21   2.0000      -0.489332       -13.3154
  22   2.0000      -0.440708       -11.9923
  23   2.0000      -0.427123       -11.6226
  24   2.0000      -0.410232       -11.1630
  25   0.0000       0.100675         2.7395
  26   0.0000       0.127794         3.4774
  27   0.0000       0.144162         3.9228
  28   0.0000       0.156986         4.2718
  29   0.0000       0.164522         4.4769

MULLIKEN ATOMIC CHARGES
-----------------------
   0 C :   -0.388230
   1 S :    0.870046
   2 O :   -0.406497
   3 F :   -0.119156
   4 O :   -0.453236
   5 H :    0.158732
   6 H :    0.178036
   7 H :    0.160304
Sum of atomic charges:    0.0000000

LOEWDIN ATOMIC CHARGES
----------------------
   0 C :   -0.394522
   1 S :    0.535930
   2 O :   -0.257162
   3 F :    0.057952
   4 O :   -0.313008
   5 H :    0.119325
   6 H :    0.131328
   7 H :    0.120157

  Mayer bond orders larger than 0.100000
B(  0-C ,  1-S ) :   0.9179 B(  0-C ,  5-H ) :   0.9463 B(  0-C ,  6-H ) :   0.9478
B(  0-C ,  7-H ) :   0.9480 B(  1-S ,  2-O ) :   1.9517 B(  1-S ,  3-F ) :   1.1186
B(  1-S ,  4-O ) :   1.8950

Dispersion correction           -0.001529238
FINAL SINGLE POINT ENERGY      -688.431726859498

DIPOLE MOMENT
-------------
                                X             Y             Z
Electronic contribution:     -2.59887       4.68829      -0.71294
Nuclear contribution   :      3.94974      -5.09866      -0.16489
                        -----------------------------------------
Total Dipole Moment    :      1.35087      -0.41038      -0.87783
                        -----------------------------------------
Magnitude (a.u.)       :      1.66248
Magnitude (Debye)      :      4.22569

Rotational constants in cm-1:     0.163657     0.151977     0.145976
Rotational constants in MHz :  4906.325390  4556.144033  4376.262759

                             ****ORCA TERMINATED NORMALLY****
TOTAL RUN TIME: 0 days 0 hours 0 minutes 9 seconds 530 msec
