                         Program Version 5.0.0 -  RELEASE  -
|  1> !wB97X-D3 RIJCOSX def2-TZVP def2/J TightSCF
|  2> *xyz 0 1
|  3> C         -5.57236       -5.80780       -0.81644
|  4> S         -6.90318       -4.61903       -0.52846
|  5> O         -8.11485       -5.25093       -0.95701
|  6> O         -6.53271       -3.42684       -1.31485
|  7> F         -6.86563       -4.29496        0.91412
|  8> H         -5.55376       -6.07856       -1.85145
|  9> H         -5.73990       -6.68165       -0.22212
| 10> H         -4.63562       -5.36690       -0.54622
| 11> *
| 12> %MaxCore 64000
| 13>
| 14> %pal nprocs 18
| 15> end
| 16>
| 17> %scf
| 18>   MaxIter 150
| 19> end
| 20>
| 21>                          ****END OF INPUT****

CARTESIAN COORDINATES (ANGSTROEM)
---------------------------------
  C     -5.572360   -5.807800   -0.816440
  S     -6.903180   -4.619030   -0.528460
  O     -8.114850   -5.250930   -0.957010
  O     -6.532710   -3.426840   -1.314850
  F     -6.865630   -4.294960    0.914120
  H     -5.553760   -6.078560   -1.851450
  H     -5.739900   -6.681650   -0.222120
  H     -4.635620   -5.366900   -0.546220

 Total Charge           Charge          ....    0
 Multiplicity           Mult            ....    1
 Number of Electrons    NEL             ....   50
 Basis Dimension        Dim             ....  179

ORBITAL ENERGIES
----------------

  NO   OCC          E(Eh)            E(eV)
   0   2.0000     -89.201329     -2427.2916
   1   2.0000     -24.894170      -677.4048
   2   2.0000     -19.249520      -523.8061
   3   2.0000     -19.235184      -523.4160
   4   2.0000     -10.335201      -281.2351
   5   2.0000      -8.263783      -224.8690
   6   2.0000      -6.221180      -169.2869
   7   2.0000      -6.215250      -169.1255
   8   2.0000      -6.214202      -169.0970
   9   2.0000      -1.475130       -40.1403
  10   2.0000      -1.229198       -33.4482
  11   2.0000      -1.128977       -30.7210
  12   2.0000      -0.915747       -24.9187
  13   2.0000      -0.815011       -22.1776
  14   2.0000      -0.696025       -18.9398
  15   2.0000      -0.675216       -18.3736
  16   2.0000      -0.658049       -17.9064
  17   2.0000      -0.579875       -15.7792
  18   2.0000      -0.576890       -15.6980
  19   2.0000      -0.566220       -15.4076
  20   2.0000      -0.539349       -14.6764
  21   2.0000      -0.489430       -13.3181
  22   2.0000      -0.440723       -11.9927
  23   2.0000      -0.426526       -11.6064
  24   2.0000      -0.410321       -11.1654
  25   0.0000       0.097490         2.6528
  26   0.0000       0.126822         3.4510
  27   0.0000       0.145131         3.9492
  28   0.0000       0.157637         4.2895
  29   0.0000       0.165399         4.5007

MULLIKEN ATOMIC CHARGES
-----------------------
   0 C :   -0.387541
   1 S :    0.869621
   2 O :   -0.406242
   3 O :   -0.452387
   4 F :   -0.120246
   5 H :    0.179014
   6 H :    0.156305
   7 H :    0.161476
Sum of atomic charges:    0.0000000

LOEWDIN ATOMIC CHARGES
----------------------
   0 C :   -0.394245
   1 S :    0.536335
   2 O :   -0.256843
   3 O :   -0.310348
   4 F :    0.054318
   5 H :    0.131791
   6 H :    0.118372
   7 H :    0.120620

  Mayer bond orders larger than 0.100000
B(  0-C ,  1-S ) :   0.9186 B(  0-C ,  5-H ) :   0.9474 B(  0-C ,  6-H ) :   0.9466
B(  0-C ,  7-H ) :   0.9480 B(  1-S ,  2-O ) :   1.9516 B(  1-S ,  3-O ) :   1.8971
B(  1-S ,  4-F ) :   1.1163

Dispersion correction           -0.001528000
FINAL SINGLE POINT ENERGY      -688.431332022348

DIPOLE MOMENT
-------------
                                X             Y             Z
Electronic contribution:     -3.16176       3.21610       3.05749
Nuclear contribution   :      4.28235      -4.23136      -2.39177
                        -----------------------------------------
Total Dipole Moment    :      1.12059      -1.01525       0.66571
                        -----------------------------------------
Magnitude (a.u.)       :      1.65216
Magnitude (Debye)      :      4.19946

Rotational constants in cm-1:     0.164456     0.151338     0.145749
Rotational constants in MHz :  4930.268698  4537.002642  4369.437533

                             ****ORCA TERMINATED NORMALLY****
TOTAL RUN TIME: 0 days 0 hours 0 minutes 9 seconds 382 msec
