                         Program Version 5.0.0 -  RELEASE  -
|  1> !wB97X-D3 RIJCOSX def2-TZVP def2/J TightSCF xyzfile
|  2>
|  3> *xyzfile 0 1 D1.xyz
|  4>
|  5> %MaxCore 64000
|  6>
|  7> %pal nprocs 18
|  8> end
|  9>
| 10> %scf
| 11>   MaxIter 150
| 12> end
| 13>
| 14>
| 15>                          ****END OF INPUT****

CARTESIAN COORDINATES (ANGSTROEM)
---------------------------------
  C     -4.382623   -1.670889    1.216201
  C     -5.763539   -1.915170    0.705012
  C     -3.281728   -2.191272    0.294361
  C     -5.572364   -5.807798   -0.816445
  S     -6.903179   -4.619033   -0.528458
  H     -5.840812   -2.115205   -0.300646
  H     -6.408823   -1.148656    0.936124
  H     -6.174781   -2.790606    1.051433
  F     -8.114853   -5.250932   -0.957007
  O     -6.532715   -3.426838   -1.314848
  H     -4.328618   -2.139223    2.198103
  H     -4.261583   -0.597399    1.357248
  O     -6.865632   -4.294957    0.914118
  C     -3.474641   -3.605898   -0.259608
  H     -2.354548   -2.127602    0.871433
  H     -3.166611   -1.499693   -0.545037
  C     -3.827078   -4.661097    0.786174
  H     -2.560559   -3.889391   -0.788050
  H     -4.255932   -3.570040   -1.019300
  C     -4.457800   -5.941875    0.229195
  H     -5.177347   -5.542575   -1.797714
  H     -6.074202   -6.768894   -0.921272
  H     -4.530506   -4.253640    1.511979
  H     -2.933400   -4.932302    1.356825
  H     -3.681064   -6.562236   -0.229885
  H     -4.843942   -6.512728    1.075805

 Total Charge           Charge          ....    0
 Multiplicity           Mult            ....    1
 Number of Electrons    NEL             ....   98
 Basis Dimension        Dim             ....  437

ORBITAL ENERGIES
----------------

  NO   OCC          E(Eh)            E(eV)
   0   2.0000     -89.205483     -2427.4046
   1   2.0000     -24.919097      -678.0831
   2   2.0000     -19.242268      -523.6087
   3   2.0000     -19.241232      -523.5805
   4   2.0000     -10.341778      -281.4141
   5   2.0000     -10.303759      -280.3795
   6   2.0000     -10.270530      -279.4753
   7   2.0000     -10.259725      -279.1813
   8   2.0000     -10.251231      -278.9502
   9   2.0000     -10.236595      -278.5519
  10   2.0000     -10.176640      -276.9205
  11   2.0000      -8.268871      -225.0074
  12   2.0000      -6.226052      -169.4195
  13   2.0000      -6.219979      -169.2542
  14   2.0000      -6.219493      -169.2410
  15   2.0000      -1.516315       -41.2610
  16   2.0000      -1.223154       -33.2837
  17   2.0000      -1.124663       -30.6036
  18   2.0000      -0.953487       -25.9457
  19   2.0000      -0.912151       -24.8209
  20   2.0000      -0.869181       -23.6516
  21   2.0000      -0.841427       -22.8964
  22   2.0000      -0.804374       -21.8881
  23   2.0000      -0.757444       -20.6111
  24   2.0000      -0.722137       -19.6503
  25   2.0000      -0.707574       -19.2541
  26   2.0000      -0.693258       -18.8645
  27   2.0000      -0.661198       -17.9921
  28   2.0000      -0.647645       -17.6233
  29   2.0000      -0.598487       -16.2857
  30   2.0000      -0.596406       -16.2290
  31   2.0000      -0.572174       -15.5697
  32   2.0000      -0.567591       -15.4449
  33   2.0000      -0.541089       -14.7238
  34   2.0000      -0.532393       -14.4872
  35   2.0000      -0.514866       -14.0102
  36   2.0000      -0.507379       -13.8065
  37   2.0000      -0.482880       -13.1398
  38   2.0000      -0.475618       -12.9422
  39   2.0000      -0.471529       -12.8310
  40   2.0000      -0.440657       -11.9909
  41   2.0000      -0.435908       -11.8616
  42   2.0000      -0.430058       -11.7025
  43   2.0000      -0.425770       -11.5858
  44   2.0000      -0.416889       -11.3441
  45   2.0000      -0.402782       -10.9603
  46   2.0000      -0.385319       -10.4851
  47   2.0000      -0.379009       -10.3134
  48   2.0000      -0.357551        -9.7295
  49   0.0000       0.095079         2.5872
  50   0.0000       0.099409         2.7050
  51   0.0000       0.129100         3.5130
  52   0.0000       0.132422         3.6034
  53   0.0000       0.137981         3.7547

MULLIKEN ATOMIC CHARGES
-----------------------
   0 C :   -0.166505
   1 C :   -0.415833
   2 C :   -0.202077
   3 C :   -0.337201
   4 S :    0.925821
   5 H :    0.137697
   6 H :    0.099119
   7 H :    0.139735
   8 F :   -0.090459
   9 O :   -0.451610
  10 H :    0.091187
  11 H :    0.089241
  12 O :   -0.448970
  13 C :   -0.189351
  14 H :    0.087857
  15 H :    0.101468
  16 C :   -0.271869
  17 H :    0.095961
  18 H :    0.123312
  19 C :   -0.165593
  20 H :    0.180071
  21 H :    0.158123
  22 H :    0.152141
  23 H :    0.108697
  24 H :    0.122155
  25 H :    0.126881
Sum of atomic charges:   -0.0000000

LOEWDIN ATOMIC CHARGES
----------------------
   0 C :   -0.305190
   1 C :   -0.330984
   2 C :   -0.268465
   3 C :   -0.368370
   4 S :    0.565070
   5 H :    0.105712
   6 H :    0.100902
   7 H :    0.095820
   8 F :    0.113725
   9 O :   -0.281002
  10 H :    0.128613
  11 H :    0.131549
  12 O :   -0.274163
  13 C :   -0.269880
  14 H :    0.131682
  15 H :    0.136145
  16 C :   -0.265659
  17 H :    0.132238
  18 H :    0.136820
  19 C :   -0.273230
  20 H :    0.146491
  21 H :    0.137101
  22 H :    0.145660
  23 H :    0.137720
  24 H :    0.147166
  25 H :    0.144529

  Mayer bond orders larger than 0.100000
B(  0-C ,  1-C ) :   0.9160 B(  0-C ,  2-C ) :   0.9773 B(  0-C , 10-H ) :   0.9902
B(  0-C , 11-H ) :   0.9769 B(  1-C ,  5-H ) :   0.9898 B(  1-C ,  6-H ) :   0.9817
B(  1-C ,  7-H ) :   0.9827 B(  2-C , 13-C ) :   0.9866 B(  2-C , 14-H ) :   0.9843
B(  2-C , 15-H ) :   0.9761 B(  3-C ,  4-S ) :   0.9149 B(  3-C , 19-C ) :   0.9611
B(  3-C , 20-H ) :   0.9428 B(  3-C , 21-H ) :   0.9473 B(  4-S ,  8-F ) :   1.1650
B(  4-S ,  9-O ) :   1.8368 B(  4-S , 12-O ) :   1.8190 B( 13-C , 16-C ) :   0.9369
B( 13-C , 17-H ) :   0.9733 B( 13-C , 18-H ) :   0.9767 B( 16-C , 19-C ) :   0.9751
B( 16-C , 22-H ) :   0.9832 B( 16-C , 23-H ) :   0.9676 B( 19-C , 24-H ) :   0.9590
B( 19-C , 25-H ) :   0.9785

Dispersion correction           -0.012979686
FINAL SINGLE POINT ENERGY      -924.262225070086

DIPOLE MOMENT
-------------
                                X             Y             Z
Electronic contribution:    -18.99569      -8.70280      -6.75003
Nuclear contribution   :     19.08524       6.89775       6.14221
                        -----------------------------------------
Total Dipole Moment    :      0.08954      -1.80504      -0.60782
                        -----------------------------------------
Magnitude (a.u.)       :      1.90674
Magnitude (Debye)      :      4.84654

Rotational constants in cm-1:     0.049343     0.024787     0.019726
Rotational constants in MHz :  1479.262779   743.087234   591.370705

                             ****ORCA TERMINATED NORMALLY****
TOTAL RUN TIME: 0 days 0 hours 0 minutes 49 seconds 500 msec
