                         Program Version 5.0.0 -  RELEASE  -
|  1> !wB97X-D3 RIJCOSX def2-TZVP def2/J TightSCF xyzfile
|  2>
|  3> *xyzfile 0 1 D2.xyz
|  4>
|  5> %MaxCore 64000
|  6>
|  7> %pal nprocs 18
|  8> end
|  9>
| 10> %scf
| 11>   MaxIter 150
| 12> end
| 13>
| 14>
| 15>                          ****END OF INPUT****

CARTESIAN COORDINATES (ANGSTROEM)
---------------------------------
  C     -4.382623   -1.670889    1.216201
  C     -5.763539   -1.915170    0.705012
  C     -3.281728   -2.191272    0.294361
  C     -5.572364   -5.807798   -0.816445
  S     -6.903179   -4.619033   -0.528458
  H     -5.840812   -2.115205   -0.300646
  H     -6.408823   -1.148656    0.936124
  H     -6.174781   -2.790606    1.051433
  O     -8.114853   -5.250932   -0.957007
  F     -6.532715   -3.426838   -1.314848
  H     -4.328618   -2.139223    2.198103
  H     -4.261583   -0.597399    1.357248
  O     -6.865632   -4.294957    0.914118
  C     -3.474641   -3.605898   -0.259608
  H     -2.354548   -2.127602    0.871433
  H     -3.166611   -1.499693   -0.545037
  C     -3.827078   -4.661097    0.786174
  H     -2.560559   -3.889391   -0.788050
  H     -4.255932   -3.570040   -1.019300
  C     -4.457800   -5.941875    0.229195
  H     -5.177347   -5.542575   -1.797714
  H     -6.074202   -6.768894   -0.921272
  H     -4.530506   -4.253640    1.511979
  H     -2.933400   -4.932302    1.356825
  H     -3.681064   -6.562236   -0.229885
  H     -4.843942   -6.512728    1.075805

 Total Charge           Charge          ....    0
 Multiplicity           Mult            ....    1
 Number of Electrons    NEL             ....   98
 Basis Dimension        Dim             ....  437

ORBITAL ENERGIES
----------------

  NO   OCC          E(Eh)            E(eV)
   0   2.0000     -89.200481     -2427.2685
   1   2.0000     -24.895749      -677.4478
   2   2.0000     -19.252029      -523.8743
   3   2.0000     -19.238065      -523.4944
   4   2.0000     -10.339963      -281.3647
   5   2.0000     -10.303523      -280.3731
   6   2.0000     -10.277889      -279.6756
   7   2.0000     -10.276398      -279.6350
   8   2.0000     -10.265502      -279.3385
   9   2.0000     -10.252171      -278.9758
  10   2.0000     -10.200131      -277.5597
  11   2.0000      -8.263939      -224.8732
  12   2.0000      -6.221336      -169.2911
  13   2.0000      -6.215121      -169.1220
  14   2.0000      -6.214327      -169.1004
  15   2.0000      -1.482537       -40.3419
  16   2.0000      -1.232812       -33.5465
  17   2.0000      -1.136584       -30.9280
  18   2.0000      -0.956411       -26.0253
  19   2.0000      -0.921603       -25.0781
  20   2.0000      -0.871879       -23.7250
  21   2.0000      -0.843875       -22.9630
  22   2.0000      -0.805867       -21.9288
  23   2.0000      -0.769072       -20.9275
  24   2.0000      -0.727034       -19.7836
  25   2.0000      -0.690001       -18.7759
  26   2.0000      -0.678046       -18.4506
  27   2.0000      -0.662983       -18.0407
  28   2.0000      -0.660971       -17.9859
  29   2.0000      -0.601659       -16.3720
  30   2.0000      -0.592756       -16.1297
  31   2.0000      -0.572700       -15.5840
  32   2.0000      -0.564360       -15.3570
  33   2.0000      -0.557496       -15.1702
  34   2.0000      -0.537353       -14.6221
  35   2.0000      -0.523056       -14.2331
  36   2.0000      -0.503226       -13.6935
  37   2.0000      -0.494146       -13.4464
  38   2.0000      -0.488516       -13.2932
  39   2.0000      -0.484021       -13.1709
  40   2.0000      -0.454656       -12.3718
  41   2.0000      -0.449654       -12.2357
  42   2.0000      -0.447904       -12.1881
  43   2.0000      -0.430952       -11.7268
  44   2.0000      -0.420837       -11.4515
  45   2.0000      -0.414219       -11.2715
  46   2.0000      -0.403734       -10.9862
  47   2.0000      -0.402072       -10.9409
  48   2.0000      -0.368618       -10.0306
  49   0.0000       0.096680         2.6308
  50   0.0000       0.103478         2.8158
  51   0.0000       0.120049         3.2667
  52   0.0000       0.125653         3.4192
  53   0.0000       0.136911         3.7255

MULLIKEN ATOMIC CHARGES
-----------------------
   0 C :   -0.168980
   1 C :   -0.437193
   2 C :   -0.207509
   3 C :   -0.353337
   4 S :    0.931723
   5 H :    0.090888
   6 H :    0.113814
   7 H :    0.173288
   8 O :   -0.417302
   9 F :   -0.119641
  10 H :    0.102164
  11 H :    0.096188
  12 O :   -0.452741
  13 C :   -0.187515
  14 H :    0.096593
  15 H :    0.105730
  16 C :   -0.283891
  17 H :    0.108494
  18 H :    0.086413
  19 C :   -0.152234
  20 H :    0.167125
  21 H :    0.186399
  22 H :    0.157200
  23 H :    0.112785
  24 H :    0.118529
  25 H :    0.133009
Sum of atomic charges:   -0.0000000

LOEWDIN ATOMIC CHARGES
----------------------
   0 C :   -0.301672
   1 C :   -0.333107
   2 C :   -0.268149
   3 C :   -0.365301
   4 S :    0.570938
   5 H :    0.095335
   6 H :    0.104880
   7 H :    0.096673
   8 O :   -0.250066
   9 F :    0.071187
  10 H :    0.132361
  11 H :    0.133568
  12 O :   -0.273295
  13 C :   -0.270326
  14 H :    0.134965
  15 H :    0.136162
  16 C :   -0.267460
  17 H :    0.135895
  18 H :    0.126325
  19 C :   -0.275580
  20 H :    0.138503
  21 H :    0.151235
  22 H :    0.145931
  23 H :    0.138937
  24 H :    0.145523
  25 H :    0.146538

  Mayer bond orders larger than 0.100000
B(  0-C ,  1-C ) :   0.9132 B(  0-C ,  2-C ) :   0.9716 B(  0-C , 10-H ) :   0.9902
B(  0-C , 11-H ) :   0.9775 B(  1-C ,  5-H ) :   0.9980 B(  1-C ,  6-H ) :   0.9782
B(  1-C ,  7-H ) :   0.9734 B(  2-C , 13-C ) :   0.9807 B(  2-C , 14-H ) :   0.9827
B(  2-C , 15-H ) :   0.9787 B(  3-C ,  4-S ) :   0.9160 B(  3-C , 19-C ) :   0.9497
B(  3-C , 20-H ) :   0.9497 B(  3-C , 21-H ) :   0.9450 B(  4-S ,  8-O ) :   1.9771
B(  4-S ,  9-F ) :   1.0941 B(  4-S , 12-O ) :   1.7916 B( 13-C , 16-C ) :   0.9384
B( 13-C , 17-H ) :   0.9732 B( 13-C , 18-H ) :   0.9878 B( 16-C , 19-C ) :   0.9693
B( 16-C , 22-H ) :   0.9834 B( 16-C , 23-H ) :   0.9653 B( 19-C , 24-H ) :   0.9576
B( 19-C , 25-H ) :   0.9748

Dispersion correction           -0.012960698
FINAL SINGLE POINT ENERGY      -924.279929015994

DIPOLE MOMENT
-------------
                                X             Y             Z
Electronic contribution:    -15.98797      -5.37398      -7.23900
Nuclear contribution   :     17.25367       4.78608       6.55647
                        -----------------------------------------
Total Dipole Moment    :      1.26569      -0.58790      -0.68254
                        -----------------------------------------
Magnitude (a.u.)       :      1.55353
Magnitude (Debye)      :      3.94877

Rotational constants in cm-1:     0.048508     0.025517     0.020225
Rotational constants in MHz :  1454.219007   764.979652   606.316599

                             ****ORCA TERMINATED NORMALLY****
TOTAL RUN TIME: 0 days 0 hours 1 minutes 1 seconds 440 msec
