                         Program Version 5.0.0 -  RELEASE  -
|  1> !PBE D3BJ RIJCOSX def2-TZVPD def2/J TightSCF
|  2> *xyz -1 1
|  3> C          1.44442        5.26658       -0.97546
|  4> O          1.56525        4.23349       -1.86489
|  5> C          0.14812        5.21087       -0.13809
|  6> H          1.47425        6.26464       -1.47692
|  7> H          2.28962        5.30327       -0.26445
|  8> H         -0.69779        5.17417       -0.79230
|  9> H          0.08430        6.08276        0.47887
| 10> H          0.15965        4.33708        0.47938
| 11> *
| 12> %MaxCore 64000
| 13>
| 14> %pal nprocs 4
| 15> end
| 16>
| 17> %scf
| 18>   MaxIter 150
| 19> end
| 20>
| 21>
| 22>                          ****END OF INPUT****

CARTESIAN COORDINATES (ANGSTROEM)
---------------------------------
  C      1.444420    5.266580   -0.975460
  O      1.565250    4.233490   -1.864890
  C      0.148120    5.210870   -0.138090
  H      1.474250    6.264640   -1.476920
  H      2.289620    5.303270   -0.264450
  H     -0.697790    5.174170   -0.792300
  H      0.084300    6.082760    0.478870
  H      0.159650    4.337080    0.479380

 Total Charge           Charge          ....   -1
 Multiplicity           Mult            ....    1
 Number of Electrons    NEL             ....   26
 Basis Dimension        Dim             ....  159

ORBITAL ENERGIES
----------------

  NO   OCC          E(Eh)            E(eV)
   0   2.0000     -18.434294      -501.6226
   1   2.0000      -9.698555      -263.9111
   2   2.0000      -9.673788      -263.2371
   3   2.0000      -0.608174       -16.5493
   4   2.0000      -0.459818       -12.5123
   5   2.0000      -0.317385        -8.6365
   6   2.0000      -0.203856        -5.5472
   7   2.0000      -0.183599        -4.9960
   8   2.0000      -0.134010        -3.6466
   9   2.0000      -0.116106        -3.1594
  10   2.0000      -0.078559        -2.1377
  11   2.0000       0.059714         1.6249
  12   2.0000       0.064667         1.7597
  13   0.0000       0.140042         3.8107
  14   0.0000       0.162955         4.4342
  15   0.0000       0.187723         5.1082
  16   0.0000       0.191462         5.2100
  17   0.0000       0.212078         5.7709

MULLIKEN ATOMIC CHARGES
-----------------------
   0 C :   -0.177329
   1 O :   -0.867925
   2 C :   -0.974249
   3 H :    0.132713
   4 H :    0.129754
   5 H :    0.212283
   6 H :    0.331386
   7 H :    0.213367
Sum of atomic charges:   -1.0000000

LOEWDIN ATOMIC CHARGES
----------------------
   0 C :   -0.632151
   1 O :   -0.375061
   2 C :   -0.180887
   3 H :    0.051139
   4 H :    0.047843
   5 H :    0.035263
   6 H :    0.019829
   7 H :    0.034026

  Mayer bond orders larger than 0.100000
B(  0-C ,  1-O ) :   0.8730 B(  0-C ,  2-C ) :   0.8719 B(  0-C ,  3-H ) :   1.0733
B(  0-C ,  4-H ) :   1.0809 B(  1-O ,  2-C ) :   0.6302 B(  1-O ,  6-H ) :  -0.1172
B(  2-C ,  5-H ) :   1.0168 B(  2-C ,  6-H ) :   0.9685 B(  2-C ,  7-H ) :   1.0096
B(  3-H ,  4-H ) :   0.1227

Dispersion correction           -0.003756101
FINAL SINGLE POINT ENERGY      -154.301535895108

DIPOLE MOMENT
-------------
                                X             Y             Z
Electronic contribution:      1.31132      -1.76005      -2.24843
Nuclear contribution   :     -1.83256       2.47114       3.17273
                        -----------------------------------------
Total Dipole Moment    :     -0.52124       0.71109       0.92431
                        -----------------------------------------
Magnitude (a.u.)       :      1.27738
Magnitude (Debye)      :      3.24683

Rotational constants in cm-1:     1.286062     0.322579     0.284728
Rotational constants in MHz : 38555.180127  9670.683110  8535.939140

                             ****ORCA TERMINATED NORMALLY****
TOTAL RUN TIME: 0 days 0 hours 0 minutes 10 seconds 100 msec
