                         Program Version 5.0.0 -  RELEASE  -
|  1> !PBE D3BJ RIJCOSX def2-TZVPD def2/J TightSCF
|  2> *xyz 1 1
|  3> C         -0.70169        4.07250       -4.00392
|  4> N          0.68053        4.61482       -4.04800
|  5> H          0.69993        5.58489       -4.38827
|  6> H          1.27804        4.05598       -4.66824
|  7> H          1.08573        4.53358       -3.10652
|  8> C         -1.70347        5.09320       -3.47740
|  9> H         -0.99590        3.74039       -5.00065
| 10> H         -0.64358        3.20191       -3.35153
| 11> H         -1.73704        5.93384       -4.13853
| 12> H         -1.40338        5.41759       -2.50291
| 13> H         -2.67335        4.64479       -3.42108
| 14> *
| 15> %MaxCore 64000
| 16>
| 17> %pal nprocs 4
| 18> end
| 19>
| 20> %scf
| 21>   MaxIter 150
| 22> end
| 23>
| 24>
| 25>                          ****END OF INPUT****

CARTESIAN COORDINATES (ANGSTROEM)
---------------------------------
  C     -0.701690    4.072500   -4.003920
  N      0.680530    4.614820   -4.048000
  H      0.699930    5.584890   -4.388270
  H      1.278040    4.055980   -4.668240
  H      1.085730    4.533580   -3.106520
  C     -1.703470    5.093200   -3.477400
  H     -0.995900    3.740390   -5.000650
  H     -0.643580    3.201910   -3.351530
  H     -1.737040    5.933840   -4.138530
  H     -1.403380    5.417590   -2.502910
  H     -2.673350    4.644790   -3.421080

 Total Charge           Charge          ....    1
 Multiplicity           Mult            ....    1
 Number of Electrons    NEL             ....   26
 Basis Dimension        Dim             ....  183

ORBITAL ENERGIES
----------------

  NO   OCC          E(Eh)            E(eV)
   0   2.0000     -14.318201      -389.6181
   1   2.0000     -10.134258      -275.7672
   2   2.0000     -10.055985      -273.6373
   3   2.0000      -1.138182       -30.9715
   4   2.0000      -0.897187       -24.4137
   5   2.0000      -0.785469       -21.3737
   6   2.0000      -0.752688       -20.4817
   7   2.0000      -0.735294       -20.0084
   8   2.0000      -0.650001       -17.6874
   9   2.0000      -0.595799       -16.2125
  10   2.0000      -0.540932       -14.7195
  11   2.0000      -0.525712       -14.3054
  12   2.0000      -0.508547       -13.8383
  13   0.0000      -0.223440        -6.0801
  14   0.0000      -0.167115        -4.5474
  15   0.0000      -0.161801        -4.4028
  16   0.0000      -0.151716        -4.1284
  17   0.0000      -0.121207        -3.2982

MULLIKEN ATOMIC CHARGES
-----------------------
   0 C :   -0.218743
   1 N :   -0.155494
   2 H :    0.295183
   3 H :    0.311753
   4 H :    0.327067
   5 C :   -0.816967
   6 H :    0.219351
   7 H :    0.224835
   8 H :    0.300041
   9 H :    0.283751
  10 H :    0.229222
Sum of atomic charges:    1.0000000

LOEWDIN ATOMIC CHARGES
----------------------
   0 C :   -0.207088
   1 N :    0.187975
   2 H :    0.178778
   3 H :    0.178484
   4 H :    0.180919
   5 C :   -0.051220
   6 H :    0.136453
   7 H :    0.135663
   8 H :    0.083452
   9 H :    0.083010
  10 H :    0.093575

  Mayer bond orders larger than 0.100000
B(  0-C ,  1-N ) :   1.0287 B(  0-C ,  5-C ) :   0.8359 B(  0-C ,  6-H ) :   0.9432
B(  0-C ,  7-H ) :   0.9380 B(  1-N ,  2-H ) :   0.8831 B(  1-N ,  3-H ) :   0.8827
B(  1-N ,  4-H ) :   0.8659 B(  5-C ,  8-H ) :   0.9243 B(  5-C ,  9-H ) :   0.9541
B(  5-C , 10-H ) :   0.9941

Dispersion correction           -0.006154957
FINAL SINGLE POINT ENERGY      -135.399670917502

DIPOLE MOMENT
-------------
                                X             Y             Z
Electronic contribution:      1.72979      -0.32525      -0.44707
Nuclear contribution   :     -0.23930       0.27560       0.19485
                        -----------------------------------------
Total Dipole Moment    :      1.49049      -0.04965      -0.25222
                        -----------------------------------------
Magnitude (a.u.)       :      1.51249
Magnitude (Debye)      :      3.84445

Rotational constants in cm-1:     1.018556     0.279088     0.248454
Rotational constants in MHz : 30535.536069  8366.847891  7448.451392

                             ****ORCA TERMINATED NORMALLY****
TOTAL RUN TIME: 0 days 0 hours 0 minutes 9 seconds 267 msec
