                         Program Version 5.0.0 -  RELEASE  -
|  1> !PBE D3BJ RIJCOSX def2-TZVPD def2/J TightSCF xyzfile
|  2>
|  3> *xyzfile 0 1 B.xyz
|  4>
|  5> %MaxCore 64000
|  6>
|  7> %pal nprocs 4
|  8> end
|  9>
| 10> %scf
| 11>   MaxIter 150
| 12> end
| 13>
| 14>
| 15>                          ****END OF INPUT****

CARTESIAN COORDINATES (ANGSTROEM)
---------------------------------
  C     -0.701686    4.072499   -4.003920
  N      0.680528    4.614820   -4.048005
  C      1.444422    5.266576   -0.975463
  O      1.565248    4.233493   -1.864885
  H      0.699926    5.584890   -4.388272
  H      1.278044    4.055977   -4.668235
  H      1.085729    4.533581   -3.106524
  C     -1.703475    5.093197   -3.477396
  H     -0.995895    3.740394   -5.000654
  H     -0.643580    3.201910   -3.351533
  C     -1.313997    5.785995   -2.169271
  H     -1.877057    5.850103   -4.251154
  H     -2.653264    4.564475   -3.354796
  H     -2.097137    6.509395   -1.929558
  H     -0.416875    6.387594   -2.339097
  C     -1.073895    4.844728   -0.979904
  H     -1.968893    4.809608   -0.352568
  C      0.148120    5.210874   -0.138092
  H     -0.909754    3.827531   -1.338975
  H      1.474250    6.264638   -1.476917
  H      2.289622    5.303267   -0.264450
  H      0.261827    4.450942    0.640711
  H     -0.002516    6.171031    0.371483

 Total Charge           Charge          ....    0
 Multiplicity           Mult            ....    1
 Number of Electrons    NEL             ....   66
 Basis Dimension        Dim             ....  434

ORBITAL ENERGIES
----------------

  NO   OCC          E(Eh)            E(eV)
   0   2.0000     -18.627881      -506.8904
   1   2.0000     -14.064210      -382.7066
   2   2.0000      -9.945852      -270.6404
   3   2.0000      -9.903038      -269.4754
   4   2.0000      -9.878541      -268.8088
   5   2.0000      -9.866232      -268.4738
   6   2.0000      -9.857726      -268.2424
   7   2.0000      -9.839684      -267.7514
   8   2.0000      -0.909708       -24.7544
   9   2.0000      -0.812437       -22.1075
  10   2.0000      -0.738254       -20.0889
  11   2.0000      -0.678334       -18.4584
  12   2.0000      -0.629423       -17.1275
  13   2.0000      -0.575051       -15.6479
  14   2.0000      -0.530806       -14.4440
  15   2.0000      -0.520178       -14.1548
  16   2.0000      -0.513541       -13.9742
  17   2.0000      -0.465317       -12.6619
  18   2.0000      -0.444143       -12.0857
  19   2.0000      -0.415724       -11.3124
  20   2.0000      -0.409130       -11.1330
  21   2.0000      -0.374048       -10.1784
  22   2.0000      -0.363522        -9.8919
  23   2.0000      -0.351010        -9.5515
  24   2.0000      -0.333542        -9.0761
  25   2.0000      -0.313089        -8.5196
  26   2.0000      -0.307460        -8.3664
  27   2.0000      -0.290348        -7.9008
  28   2.0000      -0.268932        -7.3180
  29   2.0000      -0.262186        -7.1344
  30   2.0000      -0.254312        -6.9202
  31   2.0000      -0.142529        -3.8784
  32   2.0000      -0.135788        -3.6950
  33   0.0000      -0.043835        -1.1928
  34   0.0000      -0.010743        -0.2923
  35   0.0000      -0.004339        -0.1181
  36   0.0000       0.011061         0.3010
  37   0.0000       0.023203         0.6314

MULLIKEN ATOMIC CHARGES
-----------------------
   0 C :   -0.514389
   1 N :    0.035802
   2 C :   -0.334840
   3 O :   -0.854153
   4 H :    0.310647
   5 H :    0.324294
   6 H :   -0.023741
   7 C :   -0.151134
   8 H :    0.177777
   9 H :    0.283439
  10 C :   -0.388368
  11 H :    0.156216
  12 H :    0.098577
  13 H :    0.166955
  14 H :    0.163369
  15 C :   -0.061903
  16 H :    0.161005
  17 C :   -0.312959
  18 H :    0.102343
  19 H :    0.216650
  20 H :    0.128967
  21 H :    0.201566
  22 H :    0.113880
Sum of atomic charges:   -0.0000000

LOEWDIN ATOMIC CHARGES
----------------------
   0 C :   -0.182704
   1 N :    0.146213
   2 C :   -0.431773
   3 O :   -0.244258
   4 H :    0.157841
   5 H :    0.157434
   6 H :   -0.047748
   7 C :   -0.194760
   8 H :    0.116552
   9 H :    0.122335
  10 C :   -0.205925
  11 H :    0.110048
  12 H :    0.118635
  13 H :    0.111708
  14 H :    0.091180
  15 C :   -0.214838
  16 H :    0.106350
  17 C :   -0.202478
  18 H :    0.094603
  19 H :    0.087652
  20 H :    0.095853
  21 H :    0.103387
  22 H :    0.104693

  Mayer bond orders larger than 0.100000
B(  0-C ,  1-N ) :   1.0620 B(  0-C ,  7-C ) :   0.9216 B(  0-C ,  8-H ) :   0.9696
B(  0-C ,  9-H ) :   0.9004 B(  0-C , 15-C ) :   0.1304 B(  1-N ,  4-H ) :   0.8276
B(  1-N ,  5-H ) :   0.8503 B(  1-N ,  6-H ) :   0.8695 B(  2-C ,  3-O ) :   1.0033
B(  2-C , 10-C ) :   0.1089 B(  2-C , 17-C ) :   0.9402 B(  2-C , 19-H ) :   0.9611
B(  2-C , 20-H ) :   1.0261 B(  3-O ,  6-H ) :   0.3500 B(  7-C , 10-C ) :   0.9557
B(  7-C , 11-H ) :   0.9110 B(  7-C , 12-H ) :   0.9861 B(  7-C , 15-C ) :   0.1860
B( 10-C , 13-H ) :   0.9458 B( 10-C , 14-H ) :   0.9803 B( 10-C , 15-C ) :   0.9372
B( 10-C , 17-C ) :   0.2829 B( 15-C , 16-H ) :   0.9664 B( 15-C , 17-C ) :   0.9605
B( 15-C , 18-H ) :   0.9130 B( 17-C , 18-H ) :   0.1243 B( 17-C , 21-H ) :   0.8917
B( 17-C , 22-H ) :   1.0177

Dispersion correction           -0.022038814
FINAL SINGLE POINT ENERGY      -367.272436896511

DIPOLE MOMENT
-------------
                                X             Y             Z
Electronic contribution:      2.04545      -1.59752      -1.24162
Nuclear contribution   :     -3.16446       1.92310      -1.11926
                        -----------------------------------------
Total Dipole Moment    :     -1.11902       0.32558      -2.36088
                        -----------------------------------------
Magnitude (a.u.)       :      2.63286
Magnitude (Debye)      :      6.69219

Rotational constants in cm-1:     0.085554     0.055600     0.038553
Rotational constants in MHz :  2564.854379  1666.836664  1155.798427

                             ****ORCA TERMINATED NORMALLY****
TOTAL RUN TIME: 0 days 0 hours 0 minutes 39 seconds 317 msec
