                         Program Version 5.0.0 -  RELEASE  -
|  1> !PBE D3BJ RIJCOSX def2-TZVPD def2/J TightSCF
|  2> *xyz 0 1
|  3> C          1.44442        5.26658       -0.97546
|  4> F          1.56525        4.23349       -1.86489
|  5> C          0.14812        5.21087       -0.13809
|  6> H          1.47425        6.26464       -1.47692
|  7> H          2.28962        5.30327       -0.26445
|  8> H         -0.69779        5.17417       -0.79230
|  9> H          0.08430        6.08276        0.47887
| 10> H          0.15965        4.33708        0.47938
| 11> *
| 12> %MaxCore 64000
| 13>
| 14> %pal nprocs 4
| 15> end
| 16>
| 17> %scf
| 18>   MaxIter 150
| 19> end
| 20>
| 21>
| 22>                          ****END OF INPUT****

CARTESIAN COORDINATES (ANGSTROEM)
---------------------------------
  C      1.444420    5.266580   -0.975460
  F      1.565250    4.233490   -1.864890
  C      0.148120    5.210870   -0.138090
  H      1.474250    6.264640   -1.476920
  H      2.289620    5.303270   -0.264450
  H     -0.697790    5.174170   -0.792300
  H      0.084300    6.082760    0.478870
  H      0.159650    4.337080    0.479380

 Total Charge           Charge          ....    0
 Multiplicity           Mult            ....    1
 Number of Electrons    NEL             ....   26
 Basis Dimension        Dim             ....  159

ORBITAL ENERGIES
----------------

  NO   OCC          E(Eh)            E(eV)
   0   2.0000     -24.248004      -659.8217
   1   2.0000      -9.957424      -270.9553
   2   2.0000      -9.875883      -268.7364
   3   2.0000      -1.100845       -29.9555
   4   2.0000      -0.692955       -18.8563
   5   2.0000      -0.570086       -15.5128
   6   2.0000      -0.456900       -12.4329
   7   2.0000      -0.438892       -11.9429
   8   2.0000      -0.403846       -10.9892
   9   2.0000      -0.356428        -9.6989
  10   2.0000      -0.355039        -9.6611
  11   2.0000      -0.288468        -7.8496
  12   2.0000      -0.282111        -7.6766
  13   0.0000      -0.005606        -0.1525
  14   0.0000       0.022585         0.6146
  15   0.0000       0.034204         0.9307
  16   0.0000       0.041450         1.1279
  17   0.0000       0.065289         1.7766

MULLIKEN ATOMIC CHARGES
-----------------------
   0 C :   -0.018002
   1 F :   -0.244292
   2 C :   -0.675474
   3 H :    0.148561
   4 H :    0.146847
   5 H :    0.199103
   6 H :    0.244499
   7 H :    0.198756
Sum of atomic charges:    0.0000000

LOEWDIN ATOMIC CHARGES
----------------------
   0 C :   -0.307443
   1 F :   -0.021915
   2 C :   -0.082214
   3 H :    0.112597
   4 H :    0.107311
   5 H :    0.063314
   6 H :    0.065913
   7 H :    0.062438

  Mayer bond orders larger than 0.100000
B(  0-C ,  1-F ) :   0.8872 B(  0-C ,  2-C ) :   0.9056 B(  0-C ,  3-H ) :   0.9796
B(  0-C ,  4-H ) :   0.9857 B(  2-C ,  5-H ) :   0.9759 B(  2-C ,  6-H ) :   0.9475
B(  2-C ,  7-H ) :   0.9732

Dispersion correction           -0.003475603
FINAL SINGLE POINT ENERGY      -178.924578076180

DIPOLE MOMENT
-------------
                                X             Y             Z
Electronic contribution:      2.30465      -2.77896      -3.73105
Nuclear contribution   :     -2.43357       3.25919       4.19687
                        -----------------------------------------
Total Dipole Moment    :     -0.12892       0.48023       0.46582
                        -----------------------------------------
Magnitude (a.u.)       :      0.68134
Magnitude (Debye)      :      1.73184

Rotational constants in cm-1:     1.264662     0.300144     0.266170
Rotational constants in MHz : 37913.611527  8998.095216  7979.576054

                             ****ORCA TERMINATED NORMALLY****
TOTAL RUN TIME: 0 days 0 hours 0 minutes 7 seconds 998 msec
