                         Program Version 5.0.0 -  RELEASE  -
|  1> !PBE D3BJ RIJCOSX def2-TZVPD def2/J TightSCF
|  2> *xyz 0 1
|  3> C         -0.70169        4.07250       -4.00392
|  4> C          0.68053        4.61482       -4.04800
|  5> H          0.69993        5.58489       -4.38827
|  6> H          1.27804        4.05598       -4.66824
|  7> H          1.08573        4.53358       -3.10652
|  8> C         -1.70347        5.09320       -3.47740
|  9> H         -0.99590        3.74039       -5.00065
| 10> H         -0.64358        3.20191       -3.35153
| 11> H         -1.73704        5.93384       -4.13853
| 12> H         -1.40338        5.41759       -2.50291
| 13> H         -2.67335        4.64479       -3.42108
| 14> *
| 15> %MaxCore 64000
| 16>
| 17> %pal nprocs 4
| 18> end
| 19>
| 20> %scf
| 21>   MaxIter 150
| 22> end
| 23>
| 24>
| 25>                          ****END OF INPUT****

CARTESIAN COORDINATES (ANGSTROEM)
---------------------------------
  C     -0.701690    4.072500   -4.003920
  C      0.680530    4.614820   -4.048000
  H      0.699930    5.584890   -4.388270
  H      1.278040    4.055980   -4.668240
  H      1.085730    4.533580   -3.106520
  C     -1.703470    5.093200   -3.477400
  H     -0.995900    3.740390   -5.000650
  H     -0.643580    3.201910   -3.351530
  H     -1.737040    5.933840   -4.138530
  H     -1.403380    5.417590   -2.502910
  H     -2.673350    4.644790   -3.421080

 Total Charge           Charge          ....    0
 Multiplicity           Mult            ....    1
 Number of Electrons    NEL             ....   26
 Basis Dimension        Dim             ....  183

ORBITAL ENERGIES
----------------

  NO   OCC          E(Eh)            E(eV)
   0   2.0000      -9.867440      -268.5067
   1   2.0000      -9.857802      -268.2444
   2   2.0000      -9.839664      -267.7509
   3   2.0000      -0.718850       -19.5609
   4   2.0000      -0.623510       -16.9666
   5   2.0000      -0.524581       -14.2746
   6   2.0000      -0.420197       -11.4341
   7   2.0000      -0.397020       -10.8035
   8   2.0000      -0.357026        -9.7152
   9   2.0000      -0.345958        -9.4140
  10   2.0000      -0.295617        -8.0442
  11   2.0000      -0.292461        -7.9583
  12   2.0000      -0.283805        -7.7227
  13   0.0000      -0.002101        -0.0572
  14   0.0000       0.024511         0.6670
  15   0.0000       0.027853         0.7579
  16   0.0000       0.042836         1.1656
  17   0.0000       0.065041         1.7699

MULLIKEN ATOMIC CHARGES
-----------------------
   0 C :    0.177165
   1 C :   -1.010170
   2 H :    0.252251
   3 H :    0.248702
   4 H :    0.264070
   5 C :   -0.869622
   6 H :    0.137506
   7 H :    0.125127
   8 H :    0.237813
   9 H :    0.232357
  10 H :    0.204799
Sum of atomic charges:   -0.0000000

LOEWDIN ATOMIC CHARGES
----------------------
   0 C :   -0.320649
   1 C :   -0.126918
   2 H :    0.055074
   3 H :    0.051477
   4 H :    0.056618
   5 C :   -0.114856
   6 H :    0.103092
   7 H :    0.103453
   8 H :    0.065676
   9 H :    0.066696
  10 H :    0.060337

  Mayer bond orders larger than 0.100000
B(  0-C ,  1-C ) :   0.7676 B(  0-C ,  5-C ) :   0.7435 B(  0-C ,  6-H ) :   0.9756
B(  0-C ,  7-H ) :   0.9716 B(  1-C ,  2-H ) :   0.9703 B(  1-C ,  3-H ) :   0.9906
B(  1-C ,  4-H ) :   0.9774 B(  1-C ,  5-C ) :   0.1982 B(  5-C ,  8-H ) :   0.9889
B(  5-C ,  9-H ) :   0.9932 B(  5-C , 10-H ) :   1.0060

Dispersion correction           -0.006152764
FINAL SINGLE POINT ENERGY      -118.990634345247

DIPOLE MOMENT
-------------
                                X             Y             Z
Electronic contribution:     -0.13568      -0.31267      -0.13802
Nuclear contribution   :      0.16058       0.27975       0.12812
                        -----------------------------------------
Total Dipole Moment    :      0.02490      -0.03292      -0.00991
                        -----------------------------------------
Magnitude (a.u.)       :      0.04245
Magnitude (Debye)      :      0.10790

Rotational constants in cm-1:     1.027122     0.293327     0.260229
Rotational constants in MHz : 30792.337141  8793.723318  7801.458329

                             ****ORCA TERMINATED NORMALLY****
TOTAL RUN TIME: 0 days 0 hours 0 minutes 9 seconds 697 msec
