                         Program Version 5.0.0 -  RELEASE  -
|  1> !PBE D3BJ RIJCOSX def2-TZVPD def2/J TightSCF xyzfile
|  2>
|  3> *xyzfile 0 1 D.xyz
|  4>
|  5> %MaxCore 64000
|  6>
|  7> %pal nprocs 4
|  8> end
|  9>
| 10> %scf
| 11>   MaxIter 150
| 12> end
| 13>
| 14>
| 15>                          ****END OF INPUT****

CARTESIAN COORDINATES (ANGSTROEM)
---------------------------------
  C     -0.701686    4.072499   -4.003920
  C      0.680528    4.614820   -4.048005
  C      1.444422    5.266576   -0.975463
  F      1.565248    4.233493   -1.864885
  H      0.699926    5.584890   -4.388272
  H      1.278044    4.055977   -4.668235
  H      1.085729    4.533581   -3.106524
  C     -1.703475    5.093197   -3.477396
  H     -0.995895    3.740394   -5.000654
  H     -0.643580    3.201910   -3.351533
  C     -1.313997    5.785995   -2.169271
  H     -1.877057    5.850103   -4.251154
  H     -2.653264    4.564475   -3.354796
  H     -2.097137    6.509395   -1.929558
  H     -0.416875    6.387594   -2.339097
  C     -1.073895    4.844728   -0.979904
  H     -1.968893    4.809608   -0.352568
  C      0.148120    5.210874   -0.138092
  H     -0.909754    3.827531   -1.338975
  H      1.474250    6.264638   -1.476917
  H      2.289622    5.303267   -0.264450
  H      0.261827    4.450942    0.640711
  H     -0.002516    6.171031    0.371483

 Total Charge           Charge          ....    0
 Multiplicity           Mult            ....    1
 Number of Electrons    NEL             ....   66
 Basis Dimension        Dim             ....  434

ORBITAL ENERGIES
----------------

  NO   OCC          E(Eh)            E(eV)
   0   2.0000     -24.267997      -660.3658
   1   2.0000      -9.964613      -271.1509
   2   2.0000      -9.891440      -269.1598
   3   2.0000      -9.877994      -268.7939
   4   2.0000      -9.871469      -268.6163
   5   2.0000      -9.864859      -268.4365
   6   2.0000      -9.852701      -268.1056
   7   2.0000      -9.798855      -266.6404
   8   2.0000      -1.133308       -30.8389
   9   2.0000      -0.740599       -20.1527
  10   2.0000      -0.712047       -19.3758
  11   2.0000      -0.655310       -17.8319
  12   2.0000      -0.625024       -17.0078
  13   2.0000      -0.568017       -15.4565
  14   2.0000      -0.537766       -14.6334
  15   2.0000      -0.485830       -13.2201
  16   2.0000      -0.480536       -13.0761
  17   2.0000      -0.464385       -12.6366
  18   2.0000      -0.439544       -11.9606
  19   2.0000      -0.409491       -11.1428
  20   2.0000      -0.402069       -10.9408
  21   2.0000      -0.381477       -10.3805
  22   2.0000      -0.365966        -9.9584
  23   2.0000      -0.344022        -9.3613
  24   2.0000      -0.337415        -9.1815
  25   2.0000      -0.323896        -8.8136
  26   2.0000      -0.314177        -8.5492
  27   2.0000      -0.298221        -8.1150
  28   2.0000      -0.288196        -7.8422
  29   2.0000      -0.275249        -7.4899
  30   2.0000      -0.264042        -7.1850
  31   2.0000      -0.261108        -7.1051
  32   2.0000      -0.234633        -6.3847
  33   0.0000      -0.010523        -0.2863
  34   0.0000       0.001683         0.0458
  35   0.0000       0.007217         0.1964
  36   0.0000       0.015465         0.4208
  37   0.0000       0.028319         0.7706

MULLIKEN ATOMIC CHARGES
-----------------------
   0 C :   -0.128928
   1 C :   -0.681276
   2 C :   -0.243675
   3 F :   -0.269796
   4 H :    0.273174
   5 H :    0.236868
   6 H :   -0.026284
   7 C :   -0.266368
   8 H :    0.080656
   9 H :    0.217891
  10 C :   -0.352020
  11 H :    0.168004
  12 H :    0.087841
  13 H :    0.171132
  14 H :    0.160104
  15 C :   -0.202542
  16 H :    0.164015
  17 C :   -0.291889
  18 H :    0.161781
  19 H :    0.283396
  20 H :    0.141480
  21 H :    0.199984
  22 H :    0.116451
Sum of atomic charges:    0.0000000

LOEWDIN ATOMIC CHARGES
----------------------
   0 C :   -0.257269
   1 C :   -0.109443
   2 C :   -0.220958
   3 F :   -0.009235
   4 H :    0.065220
   5 H :    0.060500
   6 H :   -0.037489
   7 C :   -0.214577
   8 H :    0.105918
   9 H :    0.101577
  10 C :   -0.206583
  11 H :    0.111846
  12 H :    0.107650
  13 H :    0.109237
  14 H :    0.092840
  15 C :   -0.203477
  16 H :    0.112430
  17 C :   -0.178639
  18 H :    0.101299
  19 H :    0.123341
  20 H :    0.119352
  21 H :    0.107556
  22 H :    0.118905

  Mayer bond orders larger than 0.100000
B(  0-C ,  1-C ) :   0.7367 B(  0-C ,  7-C ) :   0.9745 B(  0-C ,  8-H ) :   1.0184
B(  0-C ,  9-H ) :   0.8992 B(  0-C , 15-C ) :   0.1573 B(  1-C ,  2-C ) :   0.1247
B(  1-C ,  3-F ) :   0.1297 B(  1-C ,  4-H ) :   0.9576 B(  1-C ,  5-H ) :   0.9297
B(  1-C ,  6-H ) :   1.1783 B(  1-C ,  7-C ) :   0.1847 B(  1-C , 10-C ) :   0.1459
B(  2-C ,  3-F ) :   0.8146 B(  2-C , 10-C ) :   0.1480 B(  2-C , 17-C ) :   1.0263
B(  2-C , 19-H ) :   0.9099 B(  2-C , 20-H ) :   0.9834 B(  3-F ,  6-H ) :  -0.1397
B(  7-C , 10-C ) :   1.0317 B(  7-C , 11-H ) :   0.9139 B(  7-C , 12-H ) :   0.9651
B(  7-C , 15-C ) :   0.1876 B( 10-C , 13-H ) :   0.9290 B( 10-C , 14-H ) :   0.9949
B( 10-C , 15-C ) :   0.9200 B( 10-C , 17-C ) :   0.2245 B( 15-C , 16-H ) :   0.9684
B( 15-C , 17-C ) :   0.9497 B( 15-C , 18-H ) :   0.9614 B( 17-C , 21-H ) :   0.8991
B( 17-C , 22-H ) :   0.9838

Dispersion correction           -0.021418497
FINAL SINGLE POINT ENERGY      -375.224979874335

DIPOLE MOMENT
-------------
                                X             Y             Z
Electronic contribution:      5.12914      -2.30385       2.74480
Nuclear contribution   :     -5.08831       2.68947      -1.99048
                        -----------------------------------------
Total Dipole Moment    :      0.04083       0.38563       0.75432
                        -----------------------------------------
Magnitude (a.u.)       :      0.84816
Magnitude (Debye)      :      2.15585

Rotational constants in cm-1:     0.084646     0.055672     0.038419
Rotational constants in MHz :  2537.625105  1668.992890  1151.781380

                             ****ORCA TERMINATED NORMALLY****
TOTAL RUN TIME: 0 days 0 hours 0 minutes 36 seconds 155 msec
