                         Program Version 5.0.0 -  RELEASE  -
|  1> !wB97X-D3 RIJCOSX def2-TZVP def2/J TightSCF
|  2> *xyz -1 1
|  3> C         -0.05517        1.61942       -3.78858
|  4> C          1.22302        2.46987       -3.75691
|  5> H          1.11470        3.25807       -4.53300
|  6> H          1.23773        3.01124       -2.79216
|  7> O          2.35381        1.71203       -3.93448
|  8> H         -0.10198        1.08015       -4.71156
|  9> H         -0.91014        2.25726       -3.70441
| 10> H         -0.04403        0.92826       -2.97183
| 11> *
| 12>
| 13> %MaxCore 64000
| 14>
| 15> %pal nprocs 4
| 16> end
| 17>
| 18> %scf
| 19>   MaxIter 150
| 20> end
| 21>
| 22>
| 23>                          ****END OF INPUT****

CARTESIAN COORDINATES (ANGSTROEM)
---------------------------------
  C     -0.055170    1.619420   -3.788580
  C      1.223020    2.469870   -3.756910
  H      1.114700    3.258070   -4.533000
  H      1.237730    3.011240   -2.792160
  O      2.353810    1.712030   -3.934480
  H     -0.101980    1.080150   -4.711560
  H     -0.910140    2.257260   -3.704410
  H     -0.044030    0.928260   -2.971830

 Total Charge           Charge          ....   -1
 Multiplicity           Mult            ....    1
 Number of Electrons    NEL             ....   26
 Basis Dimension        Dim             ....  123

ORBITAL ENERGIES
----------------

  NO   OCC          E(Eh)            E(eV)
   0   2.0000     -18.868589      -513.4404
   1   2.0000     -10.077176      -274.2139
   2   2.0000     -10.056844      -273.6606
   3   2.0000      -0.775908       -21.1135
   4   2.0000      -0.632130       -17.2011
   5   2.0000      -0.472801       -12.8656
   6   2.0000      -0.344324        -9.3695
   7   2.0000      -0.319928        -8.7057
   8   2.0000      -0.260823        -7.0974
   9   2.0000      -0.243799        -6.6341
  10   2.0000      -0.190643        -5.1877
  11   2.0000      -0.043641        -1.1875
  12   2.0000      -0.042128        -1.1464
  13   0.0000       0.294810         8.0222
  14   0.0000       0.331660         9.0249
  15   0.0000       0.357040         9.7156
  16   0.0000       0.361506         9.8371
  17   0.0000       0.393587        10.7101

MULLIKEN ATOMIC CHARGES
-----------------------
   0 C :   -0.172002
   1 C :    0.088060
   2 H :   -0.077918
   3 H :   -0.075744
   4 O :   -0.806723
   5 H :    0.033538
   6 H :   -0.022321
   7 H :    0.033110
Sum of atomic charges:   -1.0000000

LOEWDIN ATOMIC CHARGES
----------------------
   0 C :   -0.361627
   1 C :   -0.547694
   2 H :    0.052397
   3 H :    0.053842
   4 O :   -0.448282
   5 H :    0.088700
   6 H :    0.074531
   7 H :    0.088134

  Mayer bond orders larger than 0.100000
B(  0-C ,  1-C ) :   0.9091 B(  0-C ,  4-O ) :  -0.1846 B(  0-C ,  5-H ) :   0.9745
B(  0-C ,  6-H ) :   0.9420 B(  0-C ,  7-H ) :   0.9772 B(  1-C ,  2-H ) :   0.9274
B(  1-C ,  3-H ) :   0.9277 B(  1-C ,  4-O ) :   1.5809

Dispersion correction           -0.000857260
FINAL SINGLE POINT ENERGY      -154.431158680223

DIPOLE MOMENT
-------------
                                X             Y             Z
Electronic contribution:      2.83960      -0.60593      -0.26392
Nuclear contribution   :     -4.28298       0.81046       0.39340
                        -----------------------------------------
Total Dipole Moment    :     -1.44338       0.20453       0.12949
                        -----------------------------------------
Magnitude (a.u.)       :      1.46353
Magnitude (Debye)      :      3.72001

Rotational constants in cm-1:     1.266793     0.328147     0.288309
Rotational constants in MHz : 37977.512300  9837.594308  8643.275638

                             ****ORCA TERMINATED NORMALLY****
TOTAL RUN TIME: 0 days 0 hours 0 minutes 16 seconds 318 msec
