                         Program Version 5.0.0 -  RELEASE  -
|  1> !wB97X-D3 RIJCOSX def2-TZVP def2/J TightSCF
|  2> *xyz 1 1
|  3> C          1.63556       -1.67040       -5.29211
|  4> C          0.33848       -1.50091       -4.50540
|  5> N          2.48451       -0.50741       -5.14039
|  6> H          1.39834       -1.82924       -6.35259
|  7> H          2.15586       -2.56540       -4.93209
|  8> C          3.45115       -0.14953       -5.95259
|  9> N          3.92267        1.08956       -5.85071
| 10> N          3.96616       -1.00618       -6.86788
| 11> H          3.52139       -1.90647       -6.99527
| 12> H          4.44482       -0.62347       -7.67035
| 13> H          2.25200        0.24080       -4.49879
| 14> H          3.46428        1.64078       -5.13639
| 15> H          4.83447        1.31375       -6.22465
| 16> H         -0.17658       -0.62881       -4.85045
| 17> H          0.56384       -1.39374       -3.46490
| 18> H         -0.28102       -2.36136       -4.64938
| 19> *
| 20>
| 21> %MaxCore 64000
| 22>
| 23> %pal nprocs 4
| 24> end
| 25>
| 26> %scf
| 27>   MaxIter 150
| 28> end
| 29>
| 30>
| 31>                          ****END OF INPUT****

CARTESIAN COORDINATES (ANGSTROEM)
---------------------------------
  C      1.635560   -1.670400   -5.292110
  C      0.338480   -1.500910   -4.505400
  N      2.484510   -0.507410   -5.140390
  H      1.398340   -1.829240   -6.352590
  H      2.155860   -2.565400   -4.932090
  C      3.451150   -0.149530   -5.952590
  N      3.922670    1.089560   -5.850710
  N      3.966160   -1.006180   -6.867880
  H      3.521390   -1.906470   -6.995270
  H      4.444820   -0.623470   -7.670350
  H      2.252000    0.240800   -4.498790
  H      3.464280    1.640780   -5.136390
  H      4.834470    1.313750   -6.224650
  H     -0.176580   -0.628810   -4.850450
  H      0.563840   -1.393740   -3.464900
  H     -0.281020   -2.361360   -4.649380

 Total Charge           Charge          ....    1
 Multiplicity           Mult            ....    1
 Number of Electrons    NEL             ....   48
 Basis Dimension        Dim             ....  246

ORBITAL ENERGIES
----------------

  NO   OCC          E(Eh)            E(eV)
   0   2.0000     -14.649474      -398.6325
   1   2.0000     -14.644152      -398.4876
   2   2.0000     -14.642125      -398.4325
   3   2.0000     -10.610984      -288.7396
   4   2.0000     -10.484929      -285.3094
   5   2.0000     -10.412146      -283.3289
   6   2.0000      -1.338197       -36.4142
   7   2.0000      -1.222917       -33.2773
   8   2.0000      -1.208760       -32.8920
   9   2.0000      -1.051239       -28.6057
  10   2.0000      -0.940871       -25.6024
  11   2.0000      -0.923189       -25.1212
  12   2.0000      -0.880334       -23.9551
  13   2.0000      -0.849310       -23.1109
  14   2.0000      -0.788160       -21.4469
  15   2.0000      -0.783835       -21.3292
  16   2.0000      -0.765027       -20.8175
  17   2.0000      -0.740716       -20.1559
  18   2.0000      -0.703653       -19.1474
  19   2.0000      -0.643637       -17.5143
  20   2.0000      -0.626323       -17.0431
  21   2.0000      -0.616882       -16.7862
  22   2.0000      -0.572438       -15.5768
  23   2.0000      -0.545451       -14.8425
  24   0.0000      -0.084215        -2.2916
  25   0.0000      -0.069516        -1.8916
  26   0.0000      -0.036955        -1.0056
  27   0.0000      -0.020342        -0.5535
  28   0.0000       0.000066         0.0018

MULLIKEN ATOMIC CHARGES
-----------------------
   0 C :   -0.141371
   1 C :   -0.398111
   2 N :   -0.269557
   3 H :    0.144183
   4 H :    0.171048
   5 C :    0.483337
   6 N :   -0.435973
   7 N :   -0.460993
   8 H :    0.303101
   9 H :    0.299715
  10 H :    0.254432
  11 H :    0.280286
  12 H :    0.308557
  13 H :    0.145080
  14 H :    0.151312
  15 H :    0.164956
Sum of atomic charges:    1.0000000

LOEWDIN ATOMIC CHARGES
----------------------
   0 C :   -0.288346
   1 C :   -0.276840
   2 N :    0.170321
   3 H :    0.141331
   4 H :    0.145029
   5 C :   -0.396679
   6 N :    0.059358
   7 N :    0.048283
   8 H :    0.195440
   9 H :    0.197438
  10 H :    0.212349
  11 H :    0.198694
  12 H :    0.202057
  13 H :    0.125756
  14 H :    0.127562
  15 H :    0.138246

  Mayer bond orders larger than 0.100000
B(  0-C ,  1-C ) :   0.9973 B(  0-C ,  2-N ) :   0.8506 B(  0-C ,  3-H ) :   0.9642
B(  0-C ,  4-H ) :   0.9460 B(  1-C , 13-H ) :   0.9743 B(  1-C , 14-H ) :   0.9725
B(  1-C , 15-H ) :   0.9625 B(  2-N ,  5-C ) :   1.4055 B(  2-N , 10-H ) :   0.9011
B(  5-C ,  6-N ) :   1.3267 B(  5-C ,  7-N ) :   1.3095 B(  6-N , 11-H ) :   0.8978
B(  6-N , 12-H ) :   0.8846 B(  7-N ,  8-H ) :   0.8914 B(  7-N ,  9-H ) :   0.8899

Dispersion correction           -0.003480723
FINAL SINGLE POINT ENERGY      -284.427256140072

DIPOLE MOMENT
-------------
                                X             Y             Z
Electronic contribution:      4.72182       2.50113      -1.70964
Nuclear contribution   :     -3.96322      -1.85512       1.24891
                        -----------------------------------------
Total Dipole Moment    :      0.75860       0.64601      -0.46074
                        -----------------------------------------
Magnitude (a.u.)       :      1.09776
Magnitude (Debye)      :      2.79029

Rotational constants in cm-1:     0.261404     0.067000     0.054949
Rotational constants in MHz :  7836.702504  2008.609425  1647.329138

                             ****ORCA TERMINATED NORMALLY****
TOTAL RUN TIME: 0 days 0 hours 0 minutes 50 seconds 551 msec
