                         Program Version 5.0.0 -  RELEASE  -
|  1> !wB97X-D3 RIJCOSX def2-TZVP def2/J TightSCF
|  2> *xyz 0 1
|  3> C         -0.05517        1.61942       -3.78858
|  4> C          1.22302        2.46987       -3.75691
|  5> H          1.11470        3.25807       -4.53300
|  6> H          1.23773        3.01124       -2.79216
|  7> F          2.35381        1.71203       -3.93448
|  8> H         -0.10198        1.08015       -4.71156
|  9> H         -0.91014        2.25726       -3.70441
| 10> H         -0.04403        0.92826       -2.97183
| 11> *
| 12>
| 13> %MaxCore 64000
| 14>
| 15> %pal nprocs 4
| 16> end
| 17>
| 18> %scf
| 19>   MaxIter 150
| 20> end
| 21>
| 22>
| 23>                          ****END OF INPUT****

CARTESIAN COORDINATES (ANGSTROEM)
---------------------------------
  C     -0.055170    1.619420   -3.788580
  C      1.223020    2.469870   -3.756910
  H      1.114700    3.258070   -4.533000
  H      1.237730    3.011240   -2.792160
  F      2.353810    1.712030   -3.934480
  H     -0.101980    1.080150   -4.711560
  H     -0.910140    2.257260   -3.704410
  H     -0.044030    0.928260   -2.971830

 Total Charge           Charge          ....    0
 Multiplicity           Mult            ....    1
 Number of Electrons    NEL             ....   26
 Basis Dimension        Dim             ....  123

ORBITAL ENERGIES
----------------

  NO   OCC          E(Eh)            E(eV)
   0   2.0000     -24.767675      -673.9627
   1   2.0000     -10.353010      -281.7197
   2   2.0000     -10.267745      -279.3996
   3   2.0000      -1.310503       -35.6606
   4   2.0000      -0.880743       -23.9662
   5   2.0000      -0.742011       -20.1912
   6   2.0000      -0.608067       -16.5464
   7   2.0000      -0.598287       -16.2802
   8   2.0000      -0.557478       -15.1697
   9   2.0000      -0.503184       -13.6923
  10   2.0000      -0.497335       -13.5332
  11   2.0000      -0.430834       -11.7236
  12   2.0000      -0.426080       -11.5942
  13   0.0000       0.124336         3.3834
  14   0.0000       0.163111         4.4385
  15   0.0000       0.182091         4.9550
  16   0.0000       0.185842         5.0570
  17   0.0000       0.196648         5.3511

MULLIKEN ATOMIC CHARGES
-----------------------
   0 C :   -0.327265
   1 C :    0.047458
   2 H :    0.087253
   3 H :    0.086986
   4 F :   -0.238627
   5 H :    0.117966
   6 H :    0.109435
   7 H :    0.116795
Sum of atomic charges:   -0.0000000

LOEWDIN ATOMIC CHARGES
----------------------
   0 C :   -0.308693
   1 C :   -0.363668
   2 H :    0.116353
   3 H :    0.115542
   4 F :    0.087889
   5 H :    0.116642
   6 H :    0.120168
   7 H :    0.115766

  Mayer bond orders larger than 0.100000
B(  0-C ,  1-C ) :   0.9961 B(  0-C ,  5-H ) :   0.9726 B(  0-C ,  6-H ) :   0.9621
B(  0-C ,  7-H ) :   0.9737 B(  1-C ,  2-H ) :   0.9717 B(  1-C ,  3-H ) :   0.9719
B(  1-C ,  4-F ) :   0.9910

Dispersion correction           -0.000872722
FINAL SINGLE POINT ENERGY      -179.086371612100

DIPOLE MOMENT
-------------
                                X             Y             Z
Electronic contribution:      5.03386      -0.74006      -0.43319
Nuclear contribution   :     -5.66833       1.07099       0.52006
                        -----------------------------------------
Total Dipole Moment    :     -0.63447       0.33093       0.08687
                        -----------------------------------------
Magnitude (a.u.)       :      0.72084
Magnitude (Debye)      :      1.83224

Rotational constants in cm-1:     1.245689     0.305293     0.269541
Rotational constants in MHz : 37344.801915  9152.442838  8080.640229

                             ****ORCA TERMINATED NORMALLY****
TOTAL RUN TIME: 0 days 0 hours 0 minutes 13 seconds 225 msec
