                         Program Version 5.0.0 -  RELEASE  -
|  1> !wB97X-D3 RIJCOSX def2-TZVP def2/J TightSCF
|  2> *xyz 0 1
|  3> C          1.63556       -1.67040       -5.29211
|  4> C          0.33848       -1.50091       -4.50540
|  5> C          2.48451       -0.50741       -5.14039
|  6> H          1.39834       -1.82924       -6.35259
|  7> H          2.15586       -2.56540       -4.93209
|  8> C          3.45115       -0.14953       -5.95259
|  9> N          3.92267        1.08956       -5.85071
| 10> N          3.96616       -1.00618       -6.86788
| 11> H          3.52139       -1.90647       -6.99527
| 12> H          4.44482       -0.62347       -7.67035
| 13> H          2.25200        0.24080       -4.49879
| 14> H          3.46428        1.64078       -5.13639
| 15> H          4.83447        1.31375       -6.22465
| 16> H         -0.17658       -0.62881       -4.85045
| 17> H          0.56384       -1.39374       -3.46490
| 18> H         -0.28102       -2.36136       -4.64938
| 19> *
| 20>
| 21> %MaxCore 64000
| 22>
| 23> %pal nprocs 4
| 24> end
| 25>
| 26> %scf
| 27>   MaxIter 150
| 28> end
| 29>
| 30>
| 31>                          ****END OF INPUT****

CARTESIAN COORDINATES (ANGSTROEM)
---------------------------------
  C      1.635560   -1.670400   -5.292110
  C      0.338480   -1.500910   -4.505400
  C      2.484510   -0.507410   -5.140390
  H      1.398340   -1.829240   -6.352590
  H      2.155860   -2.565400   -4.932090
  C      3.451150   -0.149530   -5.952590
  N      3.922670    1.089560   -5.850710
  N      3.966160   -1.006180   -6.867880
  H      3.521390   -1.906470   -6.995270
  H      4.444820   -0.623470   -7.670350
  H      2.252000    0.240800   -4.498790
  H      3.464280    1.640780   -5.136390
  H      4.834470    1.313750   -6.224650
  H     -0.176580   -0.628810   -4.850450
  H      0.563840   -1.393740   -3.464900
  H     -0.281020   -2.361360   -4.649380

 Total Charge           Charge          ....    0
 Multiplicity           Mult            ....    1
 Number of Electrons    NEL             ....   48
 Basis Dimension        Dim             ....  246

ORBITAL ENERGIES
----------------

  NO   OCC          E(Eh)            E(eV)
   0   2.0000     -14.419322      -392.3697
   1   2.0000     -14.414194      -392.2301
   2   2.0000     -10.313183      -280.6360
   3   2.0000     -10.250310      -278.9251
   4   2.0000     -10.240090      -278.6470
   5   2.0000     -10.192265      -277.3456
   6   2.0000      -1.073737       -29.2179
   7   2.0000      -0.983812       -26.7709
   8   2.0000      -0.891678       -24.2638
   9   2.0000      -0.810205       -22.0468
  10   2.0000      -0.720101       -19.5949
  11   2.0000      -0.684175       -18.6174
  12   2.0000      -0.634479       -17.2651
  13   2.0000      -0.614595       -16.7240
  14   2.0000      -0.562465       -15.3055
  15   2.0000      -0.541309       -14.7298
  16   2.0000      -0.525629       -14.3031
  17   2.0000      -0.493543       -13.4300
  18   2.0000      -0.475135       -12.9291
  19   2.0000      -0.434821       -11.8321
  20   2.0000      -0.423812       -11.5325
  21   2.0000      -0.422346       -11.4926
  22   2.0000      -0.357346        -9.7239
  23   2.0000      -0.247396        -6.7320
  24   0.0000       0.106741         2.9046
  25   0.0000       0.133859         3.6425
  26   0.0000       0.145105         3.9485
  27   0.0000       0.156810         4.2670
  28   0.0000       0.164076         4.4647

MULLIKEN ATOMIC CHARGES
-----------------------
   0 C :   -0.165708
   1 C :   -0.354880
   2 C :   -0.290847
   3 H :    0.069049
   4 H :    0.090840
   5 C :    0.340050
   6 N :   -0.510777
   7 N :   -0.532221
   8 H :    0.254752
   9 H :    0.230159
  10 H :    0.064377
  11 H :    0.245970
  12 H :    0.233552
  13 H :    0.108273
  14 H :    0.110631
  15 H :    0.106780
Sum of atomic charges:   -0.0000000

LOEWDIN ATOMIC CHARGES
----------------------
   0 C :   -0.306130
   1 C :   -0.296746
   2 C :   -0.289226
   3 H :    0.127836
   4 H :    0.129942
   5 C :   -0.453409
   6 N :   -0.024487
   7 N :   -0.030918
   8 H :    0.174223
   9 H :    0.160691
  10 H :    0.123445
  11 H :    0.181670
  12 H :    0.162755
  13 H :    0.114314
  14 H :    0.115330
  15 H :    0.110710

  Mayer bond orders larger than 0.100000
B(  0-C ,  1-C ) :   0.9795 B(  0-C ,  2-C ) :   0.9574 B(  0-C ,  3-H ) :   0.9788
B(  0-C ,  4-H ) :   0.9750 B(  1-C , 13-H ) :   0.9835 B(  1-C , 14-H ) :   0.9850
B(  1-C , 15-H ) :   0.9856 B(  2-C ,  5-C ) :   1.6754 B(  2-C , 10-H ) :   1.0043
B(  5-C ,  6-N ) :   1.1665 B(  5-C ,  7-N ) :   1.1433 B(  6-N , 11-H ) :   0.9191
B(  6-N , 12-H ) :   0.9192 B(  7-N ,  8-H ) :   0.9195 B(  7-N ,  9-H ) :   0.9216

Dispersion correction           -0.003473136
FINAL SINGLE POINT ENERGY      -267.943041598062

DIPOLE MOMENT
-------------
                                X             Y             Z
Electronic contribution:      4.56656       2.18356      -1.94791
Nuclear contribution   :     -3.99655      -1.83277       1.34879
                        -----------------------------------------
Total Dipole Moment    :      0.57002       0.35079      -0.59912
                        -----------------------------------------
Magnitude (a.u.)       :      0.89829
Magnitude (Debye)      :      2.28327

Rotational constants in cm-1:     0.262971     0.067064     0.055026
Rotational constants in MHz :  7883.664566  2010.513309  1649.636654

                             ****ORCA TERMINATED NORMALLY****
TOTAL RUN TIME: 0 days 0 hours 0 minutes 56 seconds 348 msec
