                         Program Version 5.0.0 -  RELEASE  -
|  1> !wB97X-D3 RIJCOSX def2-TZVP def2/J TightSCF
|  2> *xyz 0 1
|  3> C          1.63556       -1.67040       -5.29211
|  4> C          0.33848       -1.50091       -4.50540
|  5> N          2.48451       -0.50741       -5.14039
|  6> H          1.39834       -1.82924       -6.35259
|  7> H          2.15586       -2.56540       -4.93209
|  8> C          3.45115       -0.14953       -5.95259
|  9> C          3.92267        1.08956       -5.85071
| 10> N          3.96616       -1.00618       -6.86788
| 11> H          3.52139       -1.90647       -6.99527
| 12> H          4.44482       -0.62347       -7.67035
| 13> H          2.25200        0.24080       -4.49879
| 14> H          3.46428        1.64078       -5.13639
| 15> H          4.83447        1.31375       -6.22465
| 16> H         -0.17658       -0.62881       -4.85045
| 17> H          0.56384       -1.39374       -3.46490
| 18> H         -0.28102       -2.36136       -4.64938
| 19> *
| 20>
| 21> %MaxCore 64000
| 22>
| 23> %pal nprocs 4
| 24> end
| 25>
| 26> %scf
| 27>   MaxIter 150
| 28> end
| 29>
| 30>
| 31>                          ****END OF INPUT****

CARTESIAN COORDINATES (ANGSTROEM)
---------------------------------
  C      1.635560   -1.670400   -5.292110
  C      0.338480   -1.500910   -4.505400
  N      2.484510   -0.507410   -5.140390
  H      1.398340   -1.829240   -6.352590
  H      2.155860   -2.565400   -4.932090
  C      3.451150   -0.149530   -5.952590
  C      3.922670    1.089560   -5.850710
  N      3.966160   -1.006180   -6.867880
  H      3.521390   -1.906470   -6.995270
  H      4.444820   -0.623470   -7.670350
  H      2.252000    0.240800   -4.498790
  H      3.464280    1.640780   -5.136390
  H      4.834470    1.313750   -6.224650
  H     -0.176580   -0.628810   -4.850450
  H      0.563840   -1.393740   -3.464900
  H     -0.281020   -2.361360   -4.649380

 Total Charge           Charge          ....    0
 Multiplicity           Mult            ....    1
 Number of Electrons    NEL             ....   48
 Basis Dimension        Dim             ....  246

ORBITAL ENERGIES
----------------

  NO   OCC          E(Eh)            E(eV)
   0   2.0000     -14.421185      -392.4204
   1   2.0000     -14.418500      -392.3473
   2   2.0000     -10.318919      -280.7921
   3   2.0000     -10.317995      -280.7669
   4   2.0000     -10.273643      -279.5600
   5   2.0000     -10.178930      -276.9828
   6   2.0000      -1.087432       -29.5905
   7   2.0000      -0.998416       -27.1683
   8   2.0000      -0.894586       -24.3429
   9   2.0000      -0.816256       -22.2115
  10   2.0000      -0.739511       -20.1231
  11   2.0000      -0.702176       -19.1072
  12   2.0000      -0.636731       -17.3263
  13   2.0000      -0.597969       -16.2716
  14   2.0000      -0.583604       -15.8807
  15   2.0000      -0.561154       -15.2698
  16   2.0000      -0.518349       -14.1050
  17   2.0000      -0.495624       -13.4866
  18   2.0000      -0.475865       -12.9490
  19   2.0000      -0.471259       -12.8236
  20   2.0000      -0.470035       -12.7903
  21   2.0000      -0.445463       -12.1217
  22   2.0000      -0.350908        -9.5487
  23   2.0000      -0.247091        -6.7237
  24   0.0000       0.106191         2.8896
  25   0.0000       0.127708         3.4751
  26   0.0000       0.137937         3.7535
  27   0.0000       0.153218         4.1693
  28   0.0000       0.169901         4.6232

MULLIKEN ATOMIC CHARGES
-----------------------
   0 C :   -0.078541
   1 C :   -0.379750
   2 N :   -0.332721
   3 H :    0.095787
   4 H :    0.109624
   5 C :    0.415034
   6 C :   -0.562897
   7 N :   -0.529662
   8 H :    0.235884
   9 H :    0.259767
  10 H :    0.227200
  11 H :    0.059357
  12 H :    0.109928
  13 H :    0.125119
  14 H :    0.124077
  15 H :    0.121795
Sum of atomic charges:   -0.0000000

LOEWDIN ATOMIC CHARGES
----------------------
   0 C :   -0.312598
   1 C :   -0.299164
   2 N :    0.114225
   3 H :    0.124841
   4 H :    0.123894
   5 C :   -0.455901
   6 C :   -0.353172
   7 N :   -0.027204
   8 H :    0.160861
   9 H :    0.176229
  10 H :    0.200368
  11 H :    0.095341
  12 H :    0.096068
  13 H :    0.118147
  14 H :    0.117600
  15 H :    0.120464

  Mayer bond orders larger than 0.100000
B(  0-C ,  1-C ) :   0.9916 B(  0-C ,  2-N ) :   0.9270 B(  0-C ,  3-H ) :   0.9648
B(  0-C ,  4-H ) :   0.9546 B(  1-C , 13-H ) :   0.9792 B(  1-C , 14-H ) :   0.9812
B(  1-C , 15-H ) :   0.9776 B(  2-N ,  5-C ) :   1.2125 B(  2-N , 10-H ) :   0.9211
B(  5-C ,  6-C ) :   1.5879 B(  5-C ,  7-N ) :   1.1080 B(  6-C , 11-H ) :   1.0180
B(  6-C , 12-H ) :   1.0032 B(  7-N ,  8-H ) :   0.9264 B(  7-N ,  9-H ) :   0.9181

Dispersion correction           -0.003505480
FINAL SINGLE POINT ENERGY      -267.932479026363

DIPOLE MOMENT
-------------
                                X             Y             Z
Electronic contribution:      2.95016       0.51943      -1.29572
Nuclear contribution   :     -3.69145      -1.49398       1.19810
                        -----------------------------------------
Total Dipole Moment    :     -0.74129      -0.97455      -0.09762
                        -----------------------------------------
Magnitude (a.u.)       :      1.22833
Magnitude (Debye)      :      3.12217

Rotational constants in cm-1:     0.270790     0.068966     0.056679
Rotational constants in MHz :  8118.084803  2067.559423  1699.196934

                             ****ORCA TERMINATED NORMALLY****
TOTAL RUN TIME: 0 days 0 hours 0 minutes 53 seconds 634 msec
