                         Program Version 5.0.0 -  RELEASE  -
|  1> !wB97X-D3 RIJCOSX def2-TZVP def2/J TightSCF
|  2> *xyz 0 1
|  3> C          1.63556       -1.67040       -5.29211
|  4> C          0.33848       -1.50091       -4.50540
|  5> N          2.48451       -0.50741       -5.14039
|  6> H          1.39834       -1.82924       -6.35259
|  7> H          2.15586       -2.56540       -4.93209
|  8> C          3.45115       -0.14953       -5.95259
|  9> N          3.92267        1.08956       -5.85071
| 10> C          3.96616       -1.00618       -6.86788
| 11> H          3.52139       -1.90647       -6.99527
| 12> H          4.44482       -0.62347       -7.67035
| 13> H          2.25200        0.24080       -4.49879
| 14> H          3.46428        1.64078       -5.13639
| 15> H          4.83447        1.31375       -6.22465
| 16> H         -0.17658       -0.62881       -4.85045
| 17> H          0.56384       -1.39374       -3.46490
| 18> H         -0.28102       -2.36136       -4.64938
| 19> *
| 20>
| 21> %MaxCore 64000
| 22>
| 23> %pal nprocs 4
| 24> end
| 25>
| 26> %scf
| 27>   MaxIter 150
| 28> end
| 29>
| 30>
| 31>                          ****END OF INPUT****

CARTESIAN COORDINATES (ANGSTROEM)
---------------------------------
  C      1.635560   -1.670400   -5.292110
  C      0.338480   -1.500910   -4.505400
  N      2.484510   -0.507410   -5.140390
  H      1.398340   -1.829240   -6.352590
  H      2.155860   -2.565400   -4.932090
  C      3.451150   -0.149530   -5.952590
  N      3.922670    1.089560   -5.850710
  C      3.966160   -1.006180   -6.867880
  H      3.521390   -1.906470   -6.995270
  H      4.444820   -0.623470   -7.670350
  H      2.252000    0.240800   -4.498790
  H      3.464280    1.640780   -5.136390
  H      4.834470    1.313750   -6.224650
  H     -0.176580   -0.628810   -4.850450
  H      0.563840   -1.393740   -3.464900
  H     -0.281020   -2.361360   -4.649380

 Total Charge           Charge          ....    0
 Multiplicity           Mult            ....    1
 Number of Electrons    NEL             ....   48
 Basis Dimension        Dim             ....  246

ORBITAL ENERGIES
----------------

  NO   OCC          E(Eh)            E(eV)
   0   2.0000     -14.427293      -392.5866
   1   2.0000     -14.420795      -392.4098
   2   2.0000     -10.320355      -280.8311
   3   2.0000     -10.310770      -280.5703
   4   2.0000     -10.269726      -279.4534
   5   2.0000     -10.180003      -277.0120
   6   2.0000      -1.095913       -29.8213
   7   2.0000      -1.003710       -27.3123
   8   2.0000      -0.880377       -23.9563
   9   2.0000      -0.816104       -22.2073
  10   2.0000      -0.756202       -20.5773
  11   2.0000      -0.673693       -18.3321
  12   2.0000      -0.638181       -17.3658
  13   2.0000      -0.626420       -17.0458
  14   2.0000      -0.577547       -15.7159
  15   2.0000      -0.565749       -15.3948
  16   2.0000      -0.500850       -13.6288
  17   2.0000      -0.492460       -13.4005
  18   2.0000      -0.488872       -13.3029
  19   2.0000      -0.465959       -12.6794
  20   2.0000      -0.456694       -12.4273
  21   2.0000      -0.445920       -12.1341
  22   2.0000      -0.344477        -9.3737
  23   2.0000      -0.250747        -6.8232
  24   0.0000       0.101192         2.7536
  25   0.0000       0.123577         3.3627
  26   0.0000       0.144425         3.9300
  27   0.0000       0.158088         4.3018
  28   0.0000       0.171761         4.6738

MULLIKEN ATOMIC CHARGES
-----------------------
   0 C :   -0.059884
   1 C :   -0.371026
   2 N :   -0.340585
   3 H :    0.114781
   4 H :    0.113830
   5 C :    0.393337
   6 N :   -0.504467
   7 C :   -0.564812
   8 H :    0.090876
   9 H :    0.099235
  10 H :    0.188580
  11 H :    0.212129
  12 H :    0.267156
  13 H :    0.118557
  14 H :    0.118214
  15 H :    0.124079
Sum of atomic charges:   -0.0000000

LOEWDIN ATOMIC CHARGES
----------------------
   0 C :   -0.294338
   1 C :   -0.302177
   2 N :    0.115246
   3 H :    0.134111
   4 H :    0.129201
   5 C :   -0.467733
   6 N :   -0.016743
   7 C :   -0.362758
   8 H :    0.094642
   9 H :    0.093789
  10 H :    0.180680
  11 H :    0.162724
  12 H :    0.181257
  13 H :    0.115507
  14 H :    0.115228
  15 H :    0.121365

  Mayer bond orders larger than 0.100000
B(  0-C ,  1-C ) :   0.9744 B(  0-C ,  2-N ) :   0.9169 B(  0-C ,  3-H ) :   0.9703
B(  0-C ,  4-H ) :   0.9632 B(  1-C , 13-H ) :   0.9800 B(  1-C , 14-H ) :   0.9808
B(  1-C , 15-H ) :   0.9791 B(  2-N ,  5-C ) :   1.1812 B(  2-N , 10-H ) :   0.9311
B(  5-C ,  6-N ) :   1.1302 B(  5-C ,  7-C ) :   1.5898 B(  6-N , 11-H ) :   0.9288
B(  6-N , 12-H ) :   0.9132 B(  7-C ,  8-H ) :   1.0140 B(  7-C ,  9-H ) :   1.0038

Dispersion correction           -0.003486481
FINAL SINGLE POINT ENERGY      -267.932529979779

DIPOLE MOMENT
-------------
                                X             Y             Z
Electronic contribution:      3.00451       2.68353      -0.15961
Nuclear contribution   :     -3.68222      -1.93858       0.98231
                        -----------------------------------------
Total Dipole Moment    :     -0.67772       0.74495       0.82270
                        -----------------------------------------
Magnitude (a.u.)       :      1.30041
Magnitude (Debye)      :      3.30539

Rotational constants in cm-1:     0.275407     0.068040     0.056255
Rotational constants in MHz :  8256.498401  2039.796466  1686.484500

                             ****ORCA TERMINATED NORMALLY****
TOTAL RUN TIME: 0 days 0 hours 0 minutes 53 seconds 822 msec
