                         Program Version 5.0.0 -  RELEASE  -
|  1> !wB97X-D3 RIJCOSX def2-TZVP def2/J TightSCF xyzfile
|  2>
|  3> *xyzfile 0 1 D2.xyz
|  4>
|  5> %MaxCore 64000
|  6>
|  7> %pal nprocs 18
|  8> end
|  9>
| 10> %scf
| 11>   MaxIter 150
| 12> end
| 13>
| 14>
| 15>                          ****END OF INPUT****

CARTESIAN COORDINATES (ANGSTROEM)
---------------------------------
  C      1.635557   -1.670396   -5.292109
  C      0.338484   -1.500907   -4.505398
  N      2.484511   -0.507410   -5.140392
  C     -0.684873   -0.528026   -5.099889
  C     -0.290406    0.951335   -5.153423
  H      0.607991    1.070692   -5.764412
  C     -0.055168    1.619420   -3.788577
  H     -1.080912    1.483775   -5.689436
  H      0.045006    0.862302   -3.003015
  H     -0.922936    2.230329   -3.517028
  C      1.223022    2.469865   -3.756911
  H      1.114701    3.258074   -4.532999
  H      1.237732    3.011242   -2.792157
  F      2.353815    1.712032   -3.934477
  H      1.398337   -1.829239   -6.352591
  H      2.155864   -2.565398   -4.932091
  C      3.451149   -0.149530   -5.952589
  C      3.922667    1.089559   -5.850711
  N      3.966162   -1.006183   -6.867880
  H      3.521391   -1.906467   -6.995270
  H      4.444824   -0.623472   -7.670348
  H      2.251995    0.240804   -4.498792
  H      3.464277    1.640782   -5.136392
  H      4.834470    1.313745   -6.224653
  H     -0.937999   -0.869056   -6.110838
  H     -1.604638   -0.622496   -4.513132
  H      0.594887   -1.211578   -3.482312
  H     -0.126530   -2.487656   -4.434176

 Total Charge           Charge          ....    0
 Multiplicity           Mult            ....    1
 Number of Electrons    NEL             ....   88
 Basis Dimension        Dim             ....  443

ORBITAL ENERGIES
----------------

  NO   OCC          E(Eh)            E(eV)
   0   2.0000     -24.799399      -674.8260
   1   2.0000     -14.403589      -391.9416
   2   2.0000     -14.393609      -391.6700
   3   2.0000     -10.365091      -282.0485
   4   2.0000     -10.304228      -280.3923
   5   2.0000     -10.300401      -280.2882
   6   2.0000     -10.289710      -279.9972
   7   2.0000     -10.278778      -279.6998
   8   2.0000     -10.278377      -279.6889
   9   2.0000     -10.276258      -279.6312
  10   2.0000     -10.153080      -276.2794
  11   2.0000      -1.350774       -36.7564
  12   2.0000      -1.069579       -29.1047
  13   2.0000      -0.984029       -26.7768
  14   2.0000      -0.936494       -25.4833
  15   2.0000      -0.893490       -24.3131
  16   2.0000      -0.852172       -23.1888
  17   2.0000      -0.798396       -21.7255
  18   2.0000      -0.762983       -20.7618
  19   2.0000      -0.732563       -19.9340
  20   2.0000      -0.691324       -18.8119
  21   2.0000      -0.675919       -18.3927
  22   2.0000      -0.647063       -17.6075
  23   2.0000      -0.620288       -16.8789
  24   2.0000      -0.612086       -16.6557
  25   2.0000      -0.605221       -16.4689
  26   2.0000      -0.586474       -15.9588
  27   2.0000      -0.574910       -15.6441
  28   2.0000      -0.550558       -14.9814
  29   2.0000      -0.539768       -14.6878
  30   2.0000      -0.522084       -14.2066
  31   2.0000      -0.508809       -13.8454
  32   2.0000      -0.497171       -13.5287
  33   2.0000      -0.477922       -13.0049
  34   2.0000      -0.465283       -12.6610
  35   2.0000      -0.458995       -12.4899
  36   2.0000      -0.448133       -12.1943
  37   2.0000      -0.442111       -12.0305
  38   2.0000      -0.425933       -11.5902
  39   2.0000      -0.416187       -11.3250
  40   2.0000      -0.415288       -11.3006
  41   2.0000      -0.411209       -11.1896
  42   2.0000      -0.332215        -9.0400
  43   2.0000      -0.228717        -6.2237
  44   0.0000       0.107389         2.9222
  45   0.0000       0.119117         3.2414
  46   0.0000       0.129391         3.5209
  47   0.0000       0.134459         3.6588
  48   0.0000       0.150141         4.0856

MULLIKEN ATOMIC CHARGES
-----------------------
   0 C :   -0.102379
   1 C :   -0.237014
   2 N :   -0.325741
   3 C :   -0.195932
   4 C :   -0.260303
   5 H :    0.161130
   6 C :   -0.235563
   7 H :    0.107094
   8 H :    0.113421
   9 H :    0.123829
  10 C :    0.017615
  11 H :    0.117702
  12 H :    0.111991
  13 F :   -0.224006
  14 H :    0.088646
  15 H :    0.109953
  16 C :    0.409877
  17 C :   -0.634273
  18 N :   -0.538265
  19 H :    0.230269
  20 H :    0.254809
  21 H :    0.240347
  22 H :    0.125076
  23 H :    0.099956
  24 H :    0.105979
  25 H :    0.107172
  26 H :    0.113186
  27 H :    0.115426
Sum of atomic charges:   -0.0000000

LOEWDIN ATOMIC CHARGES
----------------------
   0 C :   -0.292896
   1 C :   -0.269896
   2 N :    0.115105
   3 C :   -0.268486
   4 C :   -0.270891
   5 H :    0.147046
   6 C :   -0.272741
   7 H :    0.135655
   8 H :    0.138530
   9 H :    0.143158
  10 C :   -0.334847
  11 H :    0.130129
  12 H :    0.125276
  13 F :    0.146918
  14 H :    0.125951
  15 H :    0.125052
  16 C :   -0.462766
  17 C :   -0.368976
  18 N :   -0.032338
  19 H :    0.157951
  20 H :    0.173243
  21 H :    0.173760
  22 H :    0.092979
  23 H :    0.091511
  24 H :    0.138454
  25 H :    0.137633
  26 H :    0.134527
  27 H :    0.140961

  Mayer bond orders larger than 0.100000
B(  0-C ,  1-C ) :   0.9933 B(  0-C ,  2-N ) :   0.9406 B(  0-C , 14-H ) :   0.9598
B(  0-C , 15-H ) :   0.9574 B(  1-C ,  3-C ) :   0.9795 B(  1-C , 26-H ) :   0.9866
B(  1-C , 27-H ) :   0.9783 B(  2-N , 16-C ) :   1.2262 B(  2-N , 21-H ) :   0.8910
B(  3-C ,  4-C ) :   0.9717 B(  3-C , 24-H ) :   0.9731 B(  3-C , 25-H ) :   0.9776
B(  4-C ,  5-H ) :   0.9758 B(  4-C ,  6-C ) :   0.9230 B(  4-C ,  7-H ) :   0.9719
B(  6-C ,  8-H ) :   0.9799 B(  6-C ,  9-H ) :   0.9567 B(  6-C , 10-C ) :   0.9906
B( 10-C , 11-H ) :   0.9781 B( 10-C , 12-H ) :   0.9698 B( 10-C , 13-F ) :   0.9138
B( 16-C , 17-C ) :   1.5805 B( 16-C , 18-N ) :   1.0935 B( 17-C , 22-H ) :   1.0103
B( 17-C , 23-H ) :   1.0041 B( 18-N , 19-H ) :   0.9290 B( 18-N , 20-H ) :   0.9194

Dispersion correction           -0.011866316
FINAL SINGLE POINT ENERGY      -524.426605865157

DIPOLE MOMENT
-------------
                                X             Y             Z
Electronic contribution:      6.33915       2.41168       1.69287
Nuclear contribution   :     -7.85451      -2.70006      -1.48294
                        -----------------------------------------
Total Dipole Moment    :     -1.51536      -0.28838       0.20993
                        -----------------------------------------
Magnitude (a.u.)       :      1.55677
Magnitude (Debye)      :      3.95701

Rotational constants in cm-1:     0.044065     0.029250     0.019826
Rotational constants in MHz :  1321.026981   876.903192   594.367265

                             ****ORCA TERMINATED NORMALLY****
TOTAL RUN TIME: 0 days 0 hours 1 minutes 9 seconds 615 msec
