                         Program Version 5.0.0 -  RELEASE  -
|  1> !wB97X-D3 RIJCOSX def2-TZVP def2/J TightSCF xyzfile
|  2>
|  3> *xyzfile 0 1 D3.xyz
|  4>
|  5> %MaxCore 64000
|  6>
|  7> %pal nprocs 18
|  8> end
|  9>
| 10> %scf
| 11>   MaxIter 150
| 12> end
| 13>
| 14>
| 15>                          ****END OF INPUT****

CARTESIAN COORDINATES (ANGSTROEM)
---------------------------------
  C      1.635557   -1.670396   -5.292109
  C      0.338484   -1.500907   -4.505398
  N      2.484511   -0.507410   -5.140392
  C     -0.684873   -0.528026   -5.099889
  C     -0.290406    0.951335   -5.153423
  H      0.607991    1.070692   -5.764412
  C     -0.055168    1.619420   -3.788577
  H     -1.080912    1.483775   -5.689436
  H      0.045006    0.862302   -3.003015
  H     -0.922936    2.230329   -3.517028
  C      1.223022    2.469865   -3.756911
  H      1.114701    3.258074   -4.532999
  H      1.237732    3.011242   -2.792157
  F      2.353815    1.712032   -3.934477
  H      1.398337   -1.829239   -6.352591
  H      2.155864   -2.565398   -4.932091
  C      3.451149   -0.149530   -5.952589
  N      3.922667    1.089559   -5.850711
  C      3.966162   -1.006183   -6.867880
  H      3.521391   -1.906467   -6.995270
  H      4.444824   -0.623472   -7.670348
  H      2.251995    0.240804   -4.498792
  H      3.464277    1.640782   -5.136392
  H      4.834470    1.313745   -6.224653
  H     -0.937999   -0.869056   -6.110838
  H     -1.604638   -0.622496   -4.513132
  H      0.594887   -1.211578   -3.482312
  H     -0.126530   -2.487656   -4.434176

 Total Charge           Charge          ....    0
 Multiplicity           Mult            ....    1
 Number of Electrons    NEL             ....   88
 Basis Dimension        Dim             ....  443

ORBITAL ENERGIES
----------------

  NO   OCC          E(Eh)            E(eV)
   0   2.0000     -24.828512      -675.6182
   1   2.0000     -14.397609      -391.7788
   2   2.0000     -14.392578      -391.6420
   3   2.0000     -10.382917      -282.5335
   4   2.0000     -10.301461      -280.3170
   5   2.0000     -10.299869      -280.2737
   6   2.0000     -10.296902      -280.1930
   7   2.0000     -10.282588      -279.8034
   8   2.0000     -10.279446      -279.7179
   9   2.0000     -10.276287      -279.6320
  10   2.0000     -10.163447      -276.5614
  11   2.0000      -1.378913       -37.5221
  12   2.0000      -1.074778       -29.2462
  13   2.0000      -0.985006       -26.8034
  14   2.0000      -0.941683       -25.6245
  15   2.0000      -0.897254       -24.4155
  16   2.0000      -0.844445       -22.9785
  17   2.0000      -0.806953       -21.9583
  18   2.0000      -0.772795       -21.0288
  19   2.0000      -0.745636       -20.2898
  20   2.0000      -0.687984       -18.7210
  21   2.0000      -0.674828       -18.3630
  22   2.0000      -0.664508       -18.0822
  23   2.0000      -0.637347       -17.3431
  24   2.0000      -0.632917       -17.2225
  25   2.0000      -0.599326       -16.3085
  26   2.0000      -0.591255       -16.0889
  27   2.0000      -0.576371       -15.6839
  28   2.0000      -0.564382       -15.3576
  29   2.0000      -0.534083       -14.5331
  30   2.0000      -0.527631       -14.3576
  31   2.0000      -0.518018       -14.0960
  32   2.0000      -0.499750       -13.5989
  33   2.0000      -0.474110       -12.9012
  34   2.0000      -0.472390       -12.8544
  35   2.0000      -0.458867       -12.4864
  36   2.0000      -0.456345       -12.4178
  37   2.0000      -0.449269       -12.2252
  38   2.0000      -0.437176       -11.8962
  39   2.0000      -0.425406       -11.5759
  40   2.0000      -0.416619       -11.3368
  41   2.0000      -0.414071       -11.2674
  42   2.0000      -0.321742        -8.7550
  43   2.0000      -0.233430        -6.3519
  44   0.0000       0.103357         2.8125
  45   0.0000       0.119783         3.2595
  46   0.0000       0.125673         3.4197
  47   0.0000       0.135581         3.6894
  48   0.0000       0.143538         3.9059

MULLIKEN ATOMIC CHARGES
-----------------------
   0 C :   -0.082170
   1 C :   -0.231122
   2 N :   -0.339923
   3 C :   -0.197797
   4 C :   -0.252021
   5 H :    0.143918
   6 C :   -0.233769
   7 H :    0.109479
   8 H :    0.121361
   9 H :    0.129731
  10 C :    0.008368
  11 H :    0.123688
  12 H :    0.120368
  13 F :   -0.249061
  14 H :    0.106270
  15 H :    0.113837
  16 C :    0.377546
  17 N :   -0.531046
  18 C :   -0.575035
  19 H :    0.084010
  20 H :    0.091739
  21 H :    0.223882
  22 H :    0.242610
  23 H :    0.251806
  24 H :    0.111774
  25 H :    0.106740
  26 H :    0.106531
  27 H :    0.118287
Sum of atomic charges:   -0.0000000

LOEWDIN ATOMIC CHARGES
----------------------
   0 C :   -0.274343
   1 C :   -0.271363
   2 N :    0.116676
   3 C :   -0.267540
   4 C :   -0.271635
   5 H :    0.143078
   6 C :   -0.271272
   7 H :    0.136311
   8 H :    0.140688
   9 H :    0.145270
  10 C :   -0.333500
  11 H :    0.130797
  12 H :    0.128164
  13 F :    0.135870
  14 H :    0.135006
  15 H :    0.130499
  16 C :   -0.471764
  17 N :   -0.026479
  18 C :   -0.375268
  19 H :    0.092072
  20 H :    0.091049
  21 H :    0.162190
  22 H :    0.149002
  23 H :    0.174365
  24 H :    0.140583
  25 H :    0.137351
  26 H :    0.132053
  27 H :    0.142141

  Mayer bond orders larger than 0.100000
B(  0-C ,  1-C ) :   0.9796 B(  0-C ,  2-N ) :   0.9229 B(  0-C , 14-H ) :   0.9666
B(  0-C , 15-H ) :   0.9680 B(  1-C ,  3-C ) :   0.9752 B(  1-C , 26-H ) :   0.9868
B(  1-C , 27-H ) :   0.9794 B(  2-N , 16-C ) :   1.1916 B(  2-N , 21-H ) :   0.8964
B(  3-C ,  4-C ) :   0.9742 B(  3-C , 24-H ) :   0.9715 B(  3-C , 25-H ) :   0.9778
B(  4-C ,  5-H ) :   0.9770 B(  4-C ,  6-C ) :   0.9176 B(  4-C ,  7-H ) :   0.9702
B(  6-C ,  8-H ) :   0.9798 B(  6-C ,  9-H ) :   0.9553 B(  6-C , 10-C ) :   0.9888
B( 10-C , 11-H ) :   0.9775 B( 10-C , 12-H ) :   0.9714 B( 10-C , 13-F ) :   0.8849
B( 16-C , 17-N ) :   1.1404 B( 16-C , 18-C ) :   1.5968 B( 17-N , 22-H ) :   0.8946
B( 17-N , 23-H ) :   0.9207 B( 18-C , 19-H ) :   1.0164 B( 18-C , 20-H ) :   1.0080

Dispersion correction           -0.011867319
FINAL SINGLE POINT ENERGY      -524.438196857188

DIPOLE MOMENT
-------------
                                X             Y             Z
Electronic contribution:      6.25057       4.48939       2.83060
Nuclear contribution   :     -7.84660      -3.08098      -1.66782
                        -----------------------------------------
Total Dipole Moment    :     -1.59603       1.40840       1.16278
                        -----------------------------------------
Magnitude (a.u.)       :      2.42548
Magnitude (Debye)      :      6.16508

Rotational constants in cm-1:     0.043547     0.029898     0.020008
Rotational constants in MHz :  1305.520367   896.323854   599.829375

                             ****ORCA TERMINATED NORMALLY****
TOTAL RUN TIME: 0 days 0 hours 1 minutes 6 seconds 720 msec
