                         Program Version 5.0.0 -  RELEASE  -
|  1> !wB97X-D3 RIJCOSX def2-SVP def2/J TightSCF
|  2> *xyz -1 1
|  3> C          1.44442        5.26658       -0.97546
|  4> O          1.56525        4.23349       -1.86489
|  5> H          1.76623        6.17572       -1.43893
|  6> H          2.05096        5.07018       -0.11614
|  7> H          0.42160        5.36155       -0.67592
|  8> *
|  9> %MaxCore 64000
| 10>
| 11> %pal nprocs 8
| 12> end
| 13>
| 14> %scf
| 15>   MaxIter 150
| 16> end
| 17>
| 18>
| 19>                          ****END OF INPUT****

CARTESIAN COORDINATES (ANGSTROEM)
---------------------------------
  C      1.444420    5.266580   -0.975460
  O      1.565250    4.233490   -1.864890
  H      1.766230    6.175720   -1.438930
  H      2.050960    5.070180   -0.116140
  H      0.421600    5.361550   -0.675920

 Total Charge           Charge          ....   -1
 Multiplicity           Mult            ....    1
 Number of Electrons    NEL             ....   18
 Basis Dimension        Dim             ....   43

ORBITAL ENERGIES
----------------

  NO   OCC          E(Eh)            E(eV)
   0   2.0000     -18.809460      -511.8314
   1   2.0000     -10.044293      -273.3191
   2   2.0000      -0.706556       -19.2264
   3   2.0000      -0.468688       -12.7536
   4   2.0000      -0.267216        -7.2713
   5   2.0000      -0.267178        -7.2703
   6   2.0000      -0.137592        -3.7441
   7   2.0000       0.019943         0.5427
   8   2.0000       0.019951         0.5429
   9   0.0000       0.370580        10.0840
  10   0.0000       0.445519        12.1232
  11   0.0000       0.445536        12.1237
  12   0.0000       0.538036        14.6407
  13   0.0000       0.815341        22.1865

MULLIKEN ATOMIC CHARGES
-----------------------
   0 C :    0.297665
   1 O :   -0.814700
   2 H :   -0.160862
   3 H :   -0.161045
   4 H :   -0.161058
Sum of atomic charges:   -1.0000000

LOEWDIN ATOMIC CHARGES
----------------------
   0 C :   -0.010659
   1 O :   -0.742718
   2 H :   -0.082189
   3 H :   -0.082206
   4 H :   -0.082228

  Mayer bond orders larger than 0.100000
B(  0-C ,  1-O ) :   1.3967 B(  0-C ,  2-H ) :   0.9139 B(  0-C ,  3-H ) :   0.9139
B(  0-C ,  4-H ) :   0.9139

Dispersion correction           -0.000090124
FINAL SINGLE POINT ENERGY      -114.930041695969

DIPOLE MOMENT
-------------
                                X             Y             Z
Electronic contribution:      0.18891      -1.61370      -1.38943
Nuclear contribution   :     -0.25440       2.17514       1.87266
                        -----------------------------------------
Total Dipole Moment    :     -0.06549       0.56144       0.48324
                        -----------------------------------------
Magnitude (a.u.)       :      0.74365
Magnitude (Debye)      :      1.89022

Rotational constants in cm-1:     5.477715     0.940444     0.940443
Rotational constants in MHz : 164217.753846 28193.799011 28193.774483

                             ****ORCA TERMINATED NORMALLY****
TOTAL RUN TIME: 0 days 0 hours 0 minutes 3 seconds 456 msec
