                         Program Version 5.0.0 -  RELEASE  -
|  1> !wB97X-D3 RIJCOSX def2-SVP def2/J TightSCF
|  2> *xyz 1 1
|  3> C         -0.70169        4.07250       -4.00392
|  4> N          0.68053        4.61482       -4.04800
|  5> H          0.69993        5.58489       -4.38827
|  6> H          1.27804        4.05598       -4.66824
|  7> H          1.08573        4.53358       -3.10652
|  8> H         -1.14500        4.14653       -4.97495
|  9> H         -1.28296        4.63405       -3.30271
| 10> H         -0.67274        3.04629       -3.70235
| 11> *
| 12> %MaxCore 64000
| 13>
| 14> %pal nprocs 8
| 15> end
| 16>
| 17> %scf
| 18>   MaxIter 150
| 19> end
| 20>
| 21>
| 22>                          ****END OF INPUT****

CARTESIAN COORDINATES (ANGSTROEM)
---------------------------------
  C     -0.701690    4.072500   -4.003920
  N      0.680530    4.614820   -4.048000
  H      0.699930    5.584890   -4.388270
  H      1.278040    4.055980   -4.668240
  H      1.085730    4.533580   -3.106520
  H     -1.145000    4.146530   -4.974950
  H     -1.282960    4.634050   -3.302710
  H     -0.672740    3.046290   -3.702350

 Total Charge           Charge          ....    1
 Multiplicity           Mult            ....    1
 Number of Electrons    NEL             ....   18
 Basis Dimension        Dim             ....   58

ORBITAL ENERGIES
----------------

  NO   OCC          E(Eh)            E(eV)
   0   2.0000     -14.789560      -402.4444
   1   2.0000     -10.546932      -286.9966
   2   2.0000      -1.337427       -36.3932
   3   2.0000      -1.046761       -28.4838
   4   2.0000      -0.920537       -25.0491
   5   2.0000      -0.910324       -24.7712
   6   2.0000      -0.814757       -22.1707
   7   2.0000      -0.725125       -19.7317
   8   2.0000      -0.723391       -19.6845
   9   0.0000      -0.102798        -2.7973
  10   0.0000      -0.033709        -0.9173
  11   0.0000      -0.032097        -0.8734
  12   0.0000      -0.001653        -0.0450
  13   0.0000       0.040984         1.1152

MULLIKEN ATOMIC CHARGES
-----------------------
   0 C :   -0.010657
   1 N :   -0.054207
   2 H :    0.235573
   3 H :    0.228507
   4 H :    0.232676
   5 H :    0.122490
   6 H :    0.123705
   7 H :    0.121913
Sum of atomic charges:    1.0000000

LOEWDIN ATOMIC CHARGES
----------------------
   0 C :    0.067441
   1 N :    0.293760
   2 H :    0.153027
   3 H :    0.150998
   4 H :    0.152863
   5 H :    0.060314
   6 H :    0.060899
   7 H :    0.060698

  Mayer bond orders larger than 0.100000
B(  0-C ,  1-N ) :   0.9363 B(  0-C ,  5-H ) :   0.9734 B(  0-C ,  6-H ) :   0.9725
B(  0-C ,  7-H ) :   0.9724 B(  1-N ,  2-H ) :   0.9297 B(  1-N ,  3-H ) :   0.9332
B(  1-N ,  4-H ) :   0.9329

Dispersion correction           -0.000499704
FINAL SINGLE POINT ENERGY       -96.118362840774

DIPOLE MOMENT
-------------
                                X             Y             Z
Electronic contribution:      1.04999       0.43648      -0.03887
Nuclear contribution   :     -0.21844      -0.13976       0.01729
                        -----------------------------------------
Total Dipole Moment    :      0.83155       0.29671      -0.02158
                        -----------------------------------------
Magnitude (a.u.)       :      0.88317
Magnitude (Debye)      :      2.24483

Rotational constants in cm-1:     2.865765     0.688517     0.685249
Rotational constants in MHz : 85913.460223 20641.211162 20543.252263

                             ****ORCA TERMINATED NORMALLY****
TOTAL RUN TIME: 0 days 0 hours 0 minutes 4 seconds 71 msec
