                         Program Version 5.0.0 -  RELEASE  -
|  1> !wB97X-D3 RIJCOSX def2-SVP def2/J TightSCF
|  2> *xyz 0 1
|  3> C          1.44442        5.26658       -0.97546
|  4> F          1.56525        4.23349       -1.86489
|  5> H          1.76623        6.17572       -1.43893
|  6> H          2.05096        5.07018       -0.11614
|  7> H          0.42160        5.36155       -0.67592
|  8> *
|  9> %MaxCore 64000
| 10>
| 11> %pal nprocs 8
| 12> end
| 13>
| 14> %scf
| 15>   MaxIter 150
| 16> end
| 17>
| 18>
| 19>                          ****END OF INPUT****

CARTESIAN COORDINATES (ANGSTROEM)
---------------------------------
  C      1.444420    5.266580   -0.975460
  F      1.565250    4.233490   -1.864890
  H      1.766230    6.175720   -1.438930
  H      2.050960    5.070180   -0.116140
  H      0.421600    5.361550   -0.675920

 Total Charge           Charge          ....    0
 Multiplicity           Mult            ....    1
 Number of Electrons    NEL             ....   18
 Basis Dimension        Dim             ....   43

ORBITAL ENERGIES
----------------

  NO   OCC          E(Eh)            E(eV)
   0   2.0000     -24.758922      -673.7245
   1   2.0000     -10.351417      -281.6764
   2   2.0000      -1.278353       -34.7857
   3   2.0000      -0.806527       -21.9467
   4   2.0000      -0.583245       -15.8709
   5   2.0000      -0.583225       -15.8703
   6   2.0000      -0.583197       -15.8696
   7   2.0000      -0.435342       -11.8463
   8   2.0000      -0.435313       -11.8455
   9   0.0000       0.165385         4.5004
  10   0.0000       0.219446         5.9714
  11   0.0000       0.225991         6.1495
  12   0.0000       0.226000         6.1498
  13   0.0000       0.544858        14.8263

MULLIKEN ATOMIC CHARGES
-----------------------
   0 C :    0.228497
   1 F :   -0.299739
   2 H :    0.023826
   3 H :    0.023744
   4 H :    0.023673
Sum of atomic charges:    0.0000000

LOEWDIN ATOMIC CHARGES
----------------------
   0 C :    0.125357
   1 F :   -0.155851
   2 H :    0.010174
   3 H :    0.010170
   4 H :    0.010150

  Mayer bond orders larger than 0.100000
B(  0-C ,  1-F ) :   0.9713 B(  0-C ,  2-H ) :   0.9828 B(  0-C ,  3-H ) :   0.9828
B(  0-C ,  4-H ) :   0.9828

Dispersion correction           -0.000129361
FINAL SINGLE POINT ENERGY      -139.592168969034

DIPOLE MOMENT
-------------
                                X             Y             Z
Electronic contribution:      0.25896      -2.21283      -1.90515
Nuclear contribution   :     -0.32265       2.75860       2.37499
                        -----------------------------------------
Total Dipole Moment    :     -0.06369       0.54577       0.46984
                        -----------------------------------------
Magnitude (a.u.)       :      0.72296
Magnitude (Debye)      :      1.83761

Rotational constants in cm-1:     5.477715     0.875416     0.875415
Rotational constants in MHz : 164217.753846 26244.308980 26244.287726

                             ****ORCA TERMINATED NORMALLY****
TOTAL RUN TIME: 0 days 0 hours 0 minutes 3 seconds 305 msec
