                         Program Version 5.0.0 -  RELEASE  -
|  1> !wB97X-D3 RIJCOSX def2-SVP def2/J TightSCF
|  2> *xyz 0 1
|  3> C         -0.70169        4.07250       -4.00392
|  4> C          0.68053        4.61482       -4.04800
|  5> H          0.69993        5.58489       -4.38827
|  6> H          1.27804        4.05598       -4.66824
|  7> H          1.08573        4.53358       -3.10652
|  8> H         -1.14500        4.14653       -4.97495
|  9> H         -1.28296        4.63405       -3.30271
| 10> H         -0.67274        3.04629       -3.70235
| 11> *
| 12> %MaxCore 64000
| 13>
| 14> %pal nprocs 8
| 15> end
| 16>
| 17> %scf
| 18>   MaxIter 150
| 19> end
| 20>
| 21>
| 22>                          ****END OF INPUT****

CARTESIAN COORDINATES (ANGSTROEM)
---------------------------------
  C     -0.701690    4.072500   -4.003920
  C      0.680530    4.614820   -4.048000
  H      0.699930    5.584890   -4.388270
  H      1.278040    4.055980   -4.668240
  H      1.085730    4.533580   -3.106520
  H     -1.145000    4.146530   -4.974950
  H     -1.282960    4.634050   -3.302710
  H     -0.672740    3.046290   -3.702350

 Total Charge           Charge          ....    0
 Multiplicity           Mult            ....    1
 Number of Electrons    NEL             ....   18
 Basis Dimension        Dim             ....   58

ORBITAL ENERGIES
----------------

  NO   OCC          E(Eh)            E(eV)
   0   2.0000     -10.264453      -279.3100
   1   2.0000     -10.251233      -278.9502
   2   2.0000      -0.877697       -23.8834
   3   2.0000      -0.724217       -19.7069
   4   2.0000      -0.551112       -14.9965
   5   2.0000      -0.545000       -14.8302
   6   2.0000      -0.462248       -12.5784
   7   2.0000      -0.441298       -12.0083
   8   2.0000      -0.435550       -11.8519
   9   0.0000       0.158260         4.3065
  10   0.0000       0.213484         5.8092
  11   0.0000       0.223825         6.0906
  12   0.0000       0.225651         6.1403
  13   0.0000       0.255107         6.9418

MULLIKEN ATOMIC CHARGES
-----------------------
   0 C :   -0.084855
   1 C :   -0.018964
   2 H :    0.013225
   3 H :    0.006327
   4 H :    0.009211
   5 H :    0.024325
   6 H :    0.025978
   7 H :    0.024753
Sum of atomic charges:    0.0000000

LOEWDIN ATOMIC CHARGES
----------------------
   0 C :   -0.057606
   1 C :   -0.050803
   2 H :    0.015162
   3 H :    0.014946
   4 H :    0.016051
   5 H :    0.020094
   6 H :    0.020905
   7 H :    0.021251

  Mayer bond orders larger than 0.100000
B(  0-C ,  1-C ) :   1.1088 B(  0-C ,  5-H ) :   0.9816 B(  0-C ,  6-H ) :   0.9815
B(  0-C ,  7-H ) :   0.9810 B(  1-C ,  2-H ) :   0.9782 B(  1-C ,  3-H ) :   0.9761
B(  1-C ,  4-H ) :   0.9774

Dispersion correction           -0.000488889
FINAL SINGLE POINT ENERGY       -79.732110076810

DIPOLE MOMENT
-------------
                                X             Y             Z
Electronic contribution:      0.00612       0.04453      -0.01038
Nuclear contribution   :      0.01985      -0.04545       0.00953
                        -----------------------------------------
Total Dipole Moment    :      0.02597      -0.00091      -0.00085
                        -----------------------------------------
Magnitude (a.u.)       :      0.02600
Magnitude (Debye)      :      0.06608

Rotational constants in cm-1:     2.865782     0.718825     0.715264
Rotational constants in MHz : 85913.996449 21549.842906 21443.078705

                             ****ORCA TERMINATED NORMALLY****
TOTAL RUN TIME: 0 days 0 hours 0 minutes 3 seconds 402 msec
