                         Program Version 5.0.0 -  RELEASE  -
|  1> !wB97X-D3 RIJCOSX def2-SVP def2/J TightSCF xyzfile
|  2>
|  3> *xyzfile 0 1 D1.xyz
|  4>
|  5> %MaxCore 64000
|  6>
|  7> %pal nprocs 18
|  8> end
|  9>
| 10> %scf
| 11>   MaxIter 150
| 12> end
| 13>
| 14>
| 15>                          ****END OF INPUT****

CARTESIAN COORDINATES (ANGSTROEM)
---------------------------------
  C     -0.701686    4.072499   -4.003920
  C      0.680528    4.614820   -4.048005
  C      1.444422    5.266576   -0.975463
  F      1.565248    4.233493   -1.864885
  H      0.699926    5.584890   -4.388272
  H      1.278044    4.055977   -4.668235
  H      1.085729    4.533581   -3.106524
  C     -1.703475    5.093197   -3.477396
  H     -0.995895    3.740394   -5.000654
  H     -0.643580    3.201910   -3.351533
  C     -1.313997    5.785995   -2.169271
  H     -1.877057    5.850103   -4.251154
  H     -2.653264    4.564475   -3.354796
  H     -2.097137    6.509395   -1.929558
  H     -0.416875    6.387594   -2.339097
  C     -1.073895    4.844728   -0.979904
  H     -1.968893    4.809608   -0.352568
  C      0.148120    5.210874   -0.138092
  H     -0.909754    3.827531   -1.338975
  H      1.474250    6.264638   -1.476917
  H      2.289622    5.303267   -0.264450
  H      0.261827    4.450942    0.640711
  H     -0.002516    6.171031    0.371483

 Total Charge           Charge          ....    0
 Multiplicity           Mult            ....    1
 Number of Electrons    NEL             ....   66
 Basis Dimension        Dim             ....  187

ORBITAL ENERGIES
----------------

  NO   OCC          E(Eh)            E(eV)
   0   2.0000     -24.797305      -674.7690
   1   2.0000     -10.376123      -282.3487
   2   2.0000     -10.298547      -280.2377
   3   2.0000     -10.284521      -279.8560
   4   2.0000     -10.277912      -279.6762
   5   2.0000     -10.270212      -279.4667
   6   2.0000     -10.257192      -279.1124
   7   2.0000     -10.203737      -277.6578
   8   2.0000      -1.327150       -36.1136
   9   2.0000      -0.925450       -25.1828
  10   2.0000      -0.893258       -24.3068
  11   2.0000      -0.830928       -22.6107
  12   2.0000      -0.796975       -21.6868
  13   2.0000      -0.735657       -20.0183
  14   2.0000      -0.700224       -19.0541
  15   2.0000      -0.644350       -17.5337
  16   2.0000      -0.638741       -17.3810
  17   2.0000      -0.622638       -16.9428
  18   2.0000      -0.594621       -16.1805
  19   2.0000      -0.559384       -15.2216
  20   2.0000      -0.552457       -15.0331
  21   2.0000      -0.527144       -14.3443
  22   2.0000      -0.511631       -13.9222
  23   2.0000      -0.485438       -13.2094
  24   2.0000      -0.476549       -12.9676
  25   2.0000      -0.463610       -12.6155
  26   2.0000      -0.453861       -12.3502
  27   2.0000      -0.433402       -11.7935
  28   2.0000      -0.422905       -11.5078
  29   2.0000      -0.406913       -11.0727
  30   2.0000      -0.394010       -10.7216
  31   2.0000      -0.390895       -10.6368
  32   2.0000      -0.367060        -9.9882
  33   0.0000       0.138545         3.7700
  34   0.0000       0.154991         4.2175
  35   0.0000       0.163041         4.4366
  36   0.0000       0.179148         4.8749
  37   0.0000       0.190703         5.1893

MULLIKEN ATOMIC CHARGES
-----------------------
   0 C :   -0.081411
   1 C :   -0.018425
   2 C :    0.233789
   3 F :   -0.215547
   4 H :   -0.019845
   5 H :   -0.019077
   6 H :    0.052767
   7 C :   -0.028225
   8 H :    0.014688
   9 H :    0.009473
  10 C :   -0.052077
  11 H :    0.018388
  12 H :    0.013381
  13 H :    0.020658
  14 H :    0.007200
  15 C :   -0.040625
  16 H :    0.029971
  17 C :   -0.110429
  18 H :    0.030178
  19 H :    0.038760
  20 H :    0.040085
  21 H :    0.037543
  22 H :    0.038781
Sum of atomic charges:   -0.0000000

LOEWDIN ATOMIC CHARGES
----------------------
   0 C :   -0.042349
   1 C :   -0.075050
   2 C :    0.114598
   3 F :   -0.030751
   4 H :   -0.000115
   5 H :    0.009060
   6 H :   -0.046949
   7 C :   -0.038440
   8 H :    0.017489
   9 H :    0.013262
  10 C :   -0.045058
  11 H :    0.022293
  12 H :    0.018244
  13 H :    0.024144
  14 H :    0.015013
  15 C :   -0.043626
  16 H :    0.027461
  17 C :   -0.060212
  18 H :    0.022856
  19 H :    0.017944
  20 H :    0.021125
  21 H :    0.026728
  22 H :    0.032333

  Mayer bond orders larger than 0.100000
B(  0-C ,  1-C ) :   1.0827 B(  0-C ,  7-C ) :   1.0784 B(  0-C ,  8-H ) :   0.9555
B(  0-C ,  9-H ) :   0.9515 B(  1-C ,  4-H ) :   0.9598 B(  1-C ,  5-H ) :   0.9425
B(  1-C ,  6-H ) :   0.9176 B(  2-C ,  3-F ) :   0.9154 B(  2-C , 17-C ) :   1.0579
B(  2-C , 19-H ) :   0.9534 B(  2-C , 20-H ) :   0.9617 B(  3-F ,  6-H ) :   0.1522
B(  7-C , 10-C ) :   1.0770 B(  7-C , 11-H ) :   0.9479 B(  7-C , 12-H ) :   0.9529
B( 10-C , 13-H ) :   0.9475 B( 10-C , 14-H ) :   0.9553 B( 10-C , 15-C ) :   1.0341
B( 15-C , 16-H ) :   0.9511 B( 15-C , 17-C ) :   1.0703 B( 15-C , 18-H ) :   0.9565
B( 17-C , 21-H ) :   0.9520 B( 17-C , 22-H ) :   0.9447

Dispersion correction           -0.008769184
FINAL SINGLE POINT ENERGY      -375.194595573098

DIPOLE MOMENT
-------------
                                X             Y             Z
Electronic contribution:      5.17878      -2.26654       2.81196
Nuclear contribution   :     -5.08831       2.68947      -1.99048
                        -----------------------------------------
Total Dipole Moment    :      0.09047       0.42294       0.82149
                        -----------------------------------------
Magnitude (a.u.)       :      0.92839
Magnitude (Debye)      :      2.35977

Rotational constants in cm-1:     0.084646     0.055672     0.038419
Rotational constants in MHz :  2537.625105  1668.992890  1151.781380

                             ****ORCA TERMINATED NORMALLY****
TOTAL RUN TIME: 0 days 0 hours 0 minutes 13 seconds 145 msec
