                         Program Version 5.0.0 -  RELEASE  -
|  1> !TPSS D3BJ RIJCOSX def2-SVP def2/J TightSCF
|  2> *xyz -1 1
|  3> C          0.96805        1.63064       -3.71575
|  4> C         -0.50835        1.72268       -4.12430
|  5> S         -1.32861        0.14674       -4.43578
|  6> H         -0.59151        2.29496       -5.04722
|  7> H         -1.11411        2.23561       -3.37436
|  8> O         -2.57135        0.47573       -5.06834
|  9> O         -1.51496       -0.40051       -3.06342
| 10> O         -0.37793       -0.62756       -5.20114
| 11> H          1.51840        1.12197       -4.47946
| 12> H          1.05062        1.08971       -2.79625
| 13> H          1.36450        2.61606       -3.58668
| 14> *
| 15> %MaxCore 64000
| 16>
| 17> %pal nprocs 4
| 18> end
| 19>
| 20> %scf
| 21>   MaxIter 150
| 22> end
| 23>
| 24>
| 25>                          ****END OF INPUT****

CARTESIAN COORDINATES (ANGSTROEM)
---------------------------------
  C      0.968050    1.630640   -3.715750
  C     -0.508350    1.722680   -4.124300
  S     -1.328610    0.146740   -4.435780
  H     -0.591510    2.294960   -5.047220
  H     -1.114110    2.235610   -3.374360
  O     -2.571350    0.475730   -5.068340
  O     -1.514960   -0.400510   -3.063420
  O     -0.377930   -0.627560   -5.201140
  H      1.518400    1.121970   -4.479460
  H      1.050620    1.089710   -2.796250
  H      1.364500    2.616060   -3.586680

 Total Charge           Charge          ....   -1
 Multiplicity           Mult            ....    1
 Number of Electrons    NEL             ....   58
 Basis Dimension        Dim             ....  113

ORBITAL ENERGIES
----------------

  NO   OCC          E(Eh)            E(eV)
   0   2.0000     -88.323962     -2403.4172
   1   2.0000     -18.645355      -507.3659
   2   2.0000     -18.642181      -507.2795
   3   2.0000     -18.624162      -506.7892
   4   2.0000      -9.848167      -267.9822
   5   2.0000      -9.838576      -267.7213
   6   2.0000      -7.690981      -209.2822
   7   2.0000      -5.676543      -154.4666
   8   2.0000      -5.676198      -154.4572
   9   2.0000      -5.675818      -154.4469
  10   2.0000      -0.824860       -22.4456
  11   2.0000      -0.695346       -18.9213
  12   2.0000      -0.663255       -18.0481
  13   2.0000      -0.551899       -15.0179
  14   2.0000      -0.434456       -11.8221
  15   2.0000      -0.306504        -8.3404
  16   2.0000      -0.259629        -7.0649
  17   2.0000      -0.246300        -6.7022
  18   2.0000      -0.211649        -5.7592
  19   2.0000      -0.192398        -5.2354
  20   2.0000      -0.189643        -5.1605
  21   2.0000      -0.167831        -4.5669
  22   2.0000      -0.158126        -4.3028
  23   2.0000      -0.073485        -1.9996
  24   2.0000      -0.073020        -1.9870
  25   2.0000      -0.045281        -1.2322
  26   2.0000      -0.038636        -1.0513
  27   2.0000      -0.021239        -0.5779
  28   2.0000       0.011435         0.3112
  29   0.0000       0.195947         5.3320
  30   0.0000       0.246161         6.6984
  31   0.0000       0.250662         6.8209
  32   0.0000       0.257454         7.0057
  33   0.0000       0.284367         7.7380

MULLIKEN ATOMIC CHARGES
-----------------------
   0 C :    0.039184
   1 C :   -0.092759
   2 S :    0.805601
   3 H :   -0.016426
   4 H :   -0.004041
   5 O :   -0.539817
   6 O :   -0.602526
   7 O :   -0.552736
   8 H :    0.002393
   9 H :   -0.000324
  10 H :   -0.038549
Sum of atomic charges:   -1.0000000

LOEWDIN ATOMIC CHARGES
----------------------
   0 C :   -0.062508
   1 C :   -0.187142
   2 S :    1.052465
   3 H :   -0.005155
   4 H :    0.001792
   5 O :   -0.579645
   6 O :   -0.644061
   7 O :   -0.592100
   8 H :    0.010484
   9 H :    0.010281
  10 H :   -0.004410

  Mayer bond orders larger than 0.100000
B(  0-C ,  1-C ) :   1.0608 B(  0-C ,  8-H ) :   0.9645 B(  0-C ,  9-H ) :   0.9654
B(  0-C , 10-H ) :   0.9566 B(  1-C ,  2-S ) :   0.8654 B(  1-C ,  3-H ) :   0.9341
B(  1-C ,  4-H ) :   0.9396 B(  2-S ,  5-O ) :   1.6470 B(  2-S ,  6-O ) :   1.5775
B(  2-S ,  7-O ) :   1.6226

Dispersion correction           -0.012099658
FINAL SINGLE POINT ENERGY      -702.792133891843

DIPOLE MOMENT
-------------
                                X             Y             Z
Electronic contribution:     -5.75294      -5.52029      -1.98362
Nuclear contribution   :      6.64523       6.80157       2.07300
                        -----------------------------------------
Total Dipole Moment    :      0.89229       1.28128       0.08938
                        -----------------------------------------
Magnitude (a.u.)       :      1.56392
Magnitude (Debye)      :      3.97517

Rotational constants in cm-1:     0.163070     0.082807     0.081541
Rotational constants in MHz :  4888.719902  2482.497026  2444.541148

                             ****ORCA TERMINATED NORMALLY****
TOTAL RUN TIME: 0 days 0 hours 0 minutes 8 seconds 454 msec
