                         Program Version 5.0.0 -  RELEASE  -
|  1> !TPSS D3BJ RIJCOSX def2-SVP def2/J TightSCF
|  2> *xyz 1 1
|  3> C          1.36401        0.46874       -2.81376
|  4> N          0.42884        0.32140       -1.65531
|  5> C          0.96805        1.63064       -3.71575
|  6> H          0.74858       -0.40054       -1.00134
|  7> H         -0.46105        0.02333       -2.07773
|  8> H          0.31026        1.20137       -1.13495
|  9> H          1.29485       -0.46874       -3.36468
| 10> H          2.37622        0.59740       -2.43149
| 11> H          1.65923        1.70213       -4.52942
| 12> H          0.98421        2.54058       -3.15304
| 13> H         -0.01744        1.46536       -4.09838
| 14> *
| 15> %MaxCore 64000
| 16>
| 17> %pal nprocs 4
| 18> end
| 19>
| 20> %scf
| 21>   MaxIter 150
| 22> end
| 23>
| 24>
| 25>                          ****END OF INPUT****

CARTESIAN COORDINATES (ANGSTROEM)
---------------------------------
  C      1.364010    0.468740   -2.813760
  N      0.428840    0.321400   -1.655310
  C      0.968050    1.630640   -3.715750
  H      0.748580   -0.400540   -1.001340
  H     -0.461050    0.023330   -2.077730
  H      0.310260    1.201370   -1.134950
  H      1.294850   -0.468740   -3.364680
  H      2.376220    0.597400   -2.431490
  H      1.659230    1.702130   -4.529420
  H      0.984210    2.540580   -3.153040
  H     -0.017440    1.465360   -4.098380

 Total Charge           Charge          ....    1
 Multiplicity           Mult            ....    1
 Number of Electrons    NEL             ....   26
 Basis Dimension        Dim             ....   82

ORBITAL ENERGIES
----------------

  NO   OCC          E(Eh)            E(eV)
   0   2.0000     -14.455077      -393.3426
   1   2.0000     -10.255194      -279.0580
   2   2.0000     -10.180062      -277.0136
   3   2.0000      -1.148003       -31.2388
   4   2.0000      -0.905366       -24.6363
   5   2.0000      -0.791119       -21.5274
   6   2.0000      -0.761642       -20.7253
   7   2.0000      -0.745308       -20.2809
   8   2.0000      -0.653682       -17.7876
   9   2.0000      -0.605100       -16.4656
  10   2.0000      -0.546515       -14.8714
  11   2.0000      -0.530914       -14.4469
  12   2.0000      -0.517876       -14.0921
  13   0.0000      -0.197934        -5.3861
  14   0.0000      -0.139791        -3.8039
  15   0.0000      -0.135769        -3.6945
  16   0.0000      -0.104277        -2.8375
  17   0.0000      -0.073527        -2.0008

MULLIKEN ATOMIC CHARGES
-----------------------
   0 C :   -0.051513
   1 N :    0.021711
   2 C :   -0.020697
   3 H :    0.213001
   4 H :    0.210857
   5 H :    0.210128
   6 H :    0.099291
   7 H :    0.105341
   8 H :    0.096026
   9 H :    0.059897
  10 H :    0.055957
Sum of atomic charges:    1.0000000

LOEWDIN ATOMIC CHARGES
----------------------
   0 C :    0.058669
   1 N :    0.301686
   2 C :   -0.027508
   3 H :    0.144148
   4 H :    0.144111
   5 H :    0.141669
   6 H :    0.050879
   7 H :    0.051609
   8 H :    0.062233
   9 H :    0.036766
  10 H :    0.035738

  Mayer bond orders larger than 0.100000
B(  0-C ,  1-N ) :   0.9247 B(  0-C ,  2-C ) :   1.1034 B(  0-C ,  6-H ) :   0.9510
B(  0-C ,  7-H ) :   0.9508 B(  1-N ,  3-H ) :   0.9327 B(  1-N ,  4-H ) :   0.9395
B(  1-N ,  5-H ) :   0.9330 B(  2-C ,  8-H ) :   0.9556 B(  2-C ,  9-H ) :   0.9677
B(  2-C , 10-H ) :   0.9680

Dispersion correction           -0.007456270
FINAL SINGLE POINT ENERGY      -135.463303627324

DIPOLE MOMENT
-------------
                                X             Y             Z
Electronic contribution:     -0.36974      -0.95925       1.60870
Nuclear contribution   :     -0.20470       0.31427      -0.31587
                        -----------------------------------------
Total Dipole Moment    :     -0.57443      -0.64498       1.29283
                        -----------------------------------------
Magnitude (a.u.)       :      1.55480
Magnitude (Debye)      :      3.95198

Rotational constants in cm-1:     1.011480     0.279280     0.248378
Rotational constants in MHz : 30323.408050  8372.602834  7446.185305

                             ****ORCA TERMINATED NORMALLY****
TOTAL RUN TIME: 0 days 0 hours 0 minutes 7 seconds 713 msec
