                         Program Version 5.0.0 -  RELEASE  -
|  1> !TPSS D3BJ RIJCOSX def2-TZVP def2/J TightSCF xyzfile
|  2>
|  3> *xyzfile 0 1 B.xyz
|  4>
|  5> %MaxCore 64000
|  6>
|  7> %pal nprocs 18
|  8> end
|  9>
| 10> %scf
| 11>   MaxIter 150
| 12> end
| 13>
| 14>
| 15>                          ****END OF INPUT****

CARTESIAN COORDINATES (ANGSTROEM)
---------------------------------
  C      1.364014    0.468742   -2.813764
  N      0.428844    0.321402   -1.655312
  C      0.968045    1.630639   -3.715749
  C     -0.508347    1.722679   -4.124300
  S     -1.328608    0.146737   -4.435781
  H     -0.591511    2.294958   -5.047219
  H     -1.114114    2.235610   -3.374362
  H      0.748578   -0.400542   -1.001345
  H     -0.461053    0.023332   -2.077731
  H      0.310258    1.201375   -1.134948
  O     -2.571347    0.475733   -5.068341
  O     -1.514963   -0.400512   -3.063420
  H      1.294847   -0.468742   -3.364684
  H      2.376216    0.597400   -2.431495
  H      1.578688    1.520652   -4.612733
  H      1.266653    2.575988   -3.250448
  O     -0.377928   -0.627558   -5.201141

 Total Charge           Charge          ....    0
 Multiplicity           Mult            ....    1
 Number of Electrons    NEL             ....   74
 Basis Dimension        Dim             ....  308

ORBITAL ENERGIES
----------------

  NO   OCC          E(Eh)            E(eV)
   0   2.0000     -88.489560     -2407.9234
   1   2.0000     -18.834066      -512.5010
   2   2.0000     -18.818645      -512.0814
   3   2.0000     -18.816500      -512.0230
   4   2.0000     -14.232523      -387.2866
   5   2.0000     -10.074970      -274.1539
   6   2.0000     -10.025857      -272.8174
   7   2.0000     -10.002213      -272.1741
   8   2.0000      -7.838521      -213.2970
   9   2.0000      -5.818494      -158.3293
  10   2.0000      -5.817472      -158.3015
  11   2.0000      -5.816187      -158.2665
  12   2.0000      -1.015075       -27.6216
  13   2.0000      -0.967665       -26.3315
  14   2.0000      -0.885282       -24.0897
  15   2.0000      -0.883312       -24.0361
  16   2.0000      -0.766905       -20.8685
  17   2.0000      -0.683241       -18.5919
  18   2.0000      -0.602384       -16.3917
  19   2.0000      -0.574421       -15.6308
  20   2.0000      -0.566176       -15.4064
  21   2.0000      -0.495096       -13.4723
  22   2.0000      -0.478750       -13.0275
  23   2.0000      -0.445032       -12.1099
  24   2.0000      -0.426929       -11.6173
  25   2.0000      -0.411663       -11.2019
  26   2.0000      -0.380701       -10.3594
  27   2.0000      -0.372072       -10.1246
  28   2.0000      -0.362606        -9.8670
  29   2.0000      -0.348547        -9.4844
  30   2.0000      -0.337702        -9.1893
  31   2.0000      -0.274097        -7.4585
  32   2.0000      -0.265680        -7.2295
  33   2.0000      -0.240832        -6.5534
  34   2.0000      -0.229310        -6.2398
  35   2.0000      -0.224815        -6.1175
  36   2.0000      -0.190011        -5.1705
  37   0.0000      -0.049892        -1.3576
  38   0.0000      -0.001216        -0.0331
  39   0.0000       0.014843         0.4039
  40   0.0000       0.046081         1.2539
  41   0.0000       0.053000         1.4422

MULLIKEN ATOMIC CHARGES
-----------------------
   0 C :   -0.230194
   1 N :   -0.274142
   2 C :   -0.168994
   3 C :   -0.308801
   4 S :    0.779301
   5 H :    0.132531
   6 H :    0.113051
   7 H :    0.278976
   8 H :    0.299892
   9 H :    0.268682
  10 O :   -0.448452
  11 O :   -0.541372
  12 H :    0.202402
  13 H :    0.136626
  14 H :    0.127868
  15 H :    0.107719
  16 O :   -0.475092
Sum of atomic charges:   -0.0000000

LOEWDIN ATOMIC CHARGES
----------------------
   0 C :   -0.271911
   1 N :    0.146492
   2 C :   -0.287189
   3 C :   -0.394012
   4 S :    0.400667
   5 H :    0.138031
   6 H :    0.124364
   7 H :    0.194538
   8 H :    0.136705
   9 H :    0.193918
  10 O :   -0.284802
  11 O :   -0.353983
  12 H :    0.151690
  13 H :    0.130606
  14 H :    0.156383
  15 H :    0.134612
  16 O :   -0.316109

  Mayer bond orders larger than 0.100000
B(  0-C ,  1-N ) :   0.8931 B(  0-C ,  2-C ) :   1.0306 B(  0-C , 12-H ) :   0.9343
B(  0-C , 13-H ) :   0.9462 B(  1-N ,  7-H ) :   0.8953 B(  1-N ,  8-H ) :   0.7179
B(  1-N ,  9-H ) :   0.8943 B(  2-C ,  3-C ) :   0.9931 B(  2-C , 14-H ) :   0.9364
B(  2-C , 15-H ) :   0.9427 B(  3-C ,  4-S ) :   0.8949 B(  3-C ,  5-H ) :   0.9419
B(  3-C ,  6-H ) :   0.9474 B(  4-S , 10-O ) :   1.9265 B(  4-S , 11-O ) :   1.4637
B(  4-S , 16-O ) :   1.7871 B(  8-H , 11-O ) :   0.2583

Dispersion correction           -0.022815834
FINAL SINGLE POINT ENERGY      -798.615522052555

DIPOLE MOMENT
-------------
                                X             Y             Z
Electronic contribution:     -7.01537      -4.23410      -4.36888
Nuclear contribution   :      9.95459       5.57517       7.68169
                        -----------------------------------------
Total Dipole Moment    :      2.93921       1.34107       3.31281
                        -----------------------------------------
Magnitude (a.u.)       :      4.62732
Magnitude (Debye)      :     11.76173

Rotational constants in cm-1:     0.102119     0.045768     0.041299
Rotational constants in MHz :  3061.441288  1372.093000  1238.124534

                             ****ORCA TERMINATED NORMALLY****
TOTAL RUN TIME: 0 days 0 hours 0 minutes 9 seconds 241 msec
