                         Program Version 5.0.0 -  RELEASE  -
|  1> !TPSS D3BJ RIJCOSX def2-SVP def2/J TightSCF
|  2> *xyz 0 1
|  3> C          0.96805        1.63064       -3.71575
|  4> C         -0.50835        1.72268       -4.12430
|  5> S         -1.32861        0.14674       -4.43578
|  6> H         -0.59151        2.29496       -5.04722
|  7> H         -1.11411        2.23561       -3.37436
|  8> F         -2.57135        0.47573       -5.06834
|  9> O         -1.51496       -0.40051       -3.06342
| 10> O         -0.37793       -0.62756       -5.20114
| 11> H          1.51840        1.12197       -4.47946
| 12> H          1.05062        1.08971       -2.79625
| 13> H          1.36450        2.61606       -3.58668
| 14> *
| 15> %MaxCore 64000
| 16>
| 17> %pal nprocs 4
| 18> end
| 19>
| 20> %scf
| 21>   MaxIter 150
| 22> end
| 23>
| 24>
| 25>                          ****END OF INPUT****

CARTESIAN COORDINATES (ANGSTROEM)
---------------------------------
  C      0.968050    1.630640   -3.715750
  C     -0.508350    1.722680   -4.124300
  S     -1.328610    0.146740   -4.435780
  H     -0.591510    2.294960   -5.047220
  H     -1.114110    2.235610   -3.374360
  F     -2.571350    0.475730   -5.068340
  O     -1.514960   -0.400510   -3.063420
  O     -0.377930   -0.627560   -5.201140
  H      1.518400    1.121970   -4.479460
  H      1.050620    1.089710   -2.796250
  H      1.364500    2.616060   -3.586680

 Total Charge           Charge          ....    0
 Multiplicity           Mult            ....    1
 Number of Electrons    NEL             ....   58
 Basis Dimension        Dim             ....  113

ORBITAL ENERGIES
----------------

  NO   OCC          E(Eh)            E(eV)
   0   2.0000     -88.595459     -2410.8050
   1   2.0000     -24.529134      -667.4717
   2   2.0000     -18.893084      -514.1070
   3   2.0000     -18.876483      -513.6552
   4   2.0000     -10.051219      -273.5076
   5   2.0000     -10.018492      -272.6170
   6   2.0000      -7.965207      -216.7443
   7   2.0000      -5.955027      -162.0445
   8   2.0000      -5.948209      -161.8590
   9   2.0000      -5.946538      -161.8135
  10   2.0000      -1.291017       -35.1303
  11   2.0000      -1.018480       -27.7143
  12   2.0000      -0.916236       -24.9321
  13   2.0000      -0.750346       -20.4179
  14   2.0000      -0.669866       -18.2280
  15   2.0000      -0.615218       -16.7409
  16   2.0000      -0.528667       -14.3858
  17   2.0000      -0.523477       -14.2445
  18   2.0000      -0.493247       -13.4219
  19   2.0000      -0.444713       -12.1013
  20   2.0000      -0.425567       -11.5803
  21   2.0000      -0.384521       -10.4633
  22   2.0000      -0.381512       -10.3815
  23   2.0000      -0.364752        -9.9254
  24   2.0000      -0.346992        -9.4421
  25   2.0000      -0.326799        -8.8927
  26   2.0000      -0.278744        -7.5850
  27   2.0000      -0.262132        -7.1330
  28   2.0000      -0.245471        -6.6796
  29   0.0000       0.008646         0.2353
  30   0.0000       0.032037         0.8718
  31   0.0000       0.052075         1.4170
  32   0.0000       0.068569         1.8659
  33   0.0000       0.085618         2.3298

MULLIKEN ATOMIC CHARGES
-----------------------
   0 C :    0.026589
   1 C :   -0.127448
   2 S :    0.878671
   3 H :    0.049559
   4 H :    0.064844
   5 F :   -0.143518
   6 O :   -0.462049
   7 O :   -0.415707
   8 H :    0.046208
   9 H :    0.047011
  10 H :    0.035840
Sum of atomic charges:    0.0000000

LOEWDIN ATOMIC CHARGES
----------------------
   0 C :   -0.033638
   1 C :   -0.149892
   2 S :    1.105134
   3 H :    0.022551
   4 H :    0.031145
   5 F :   -0.096979
   6 O :   -0.510271
   7 O :   -0.461513
   8 H :    0.030027
   9 H :    0.031199
  10 H :    0.032237

  Mayer bond orders larger than 0.100000
B(  0-C ,  1-C ) :   1.0755 B(  0-C ,  8-H ) :   0.9680 B(  0-C ,  9-H ) :   0.9713
B(  0-C , 10-H ) :   0.9605 B(  1-C ,  2-S ) :   0.9012 B(  1-C ,  3-H ) :   0.9273
B(  1-C ,  4-H ) :   0.9302 B(  2-S ,  5-F ) :   1.0405 B(  2-S ,  6-O ) :   1.7314
B(  2-S ,  7-O ) :   1.7721

Dispersion correction           -0.011574661
FINAL SINGLE POINT ENERGY      -727.294875095183

DIPOLE MOMENT
-------------
                                X             Y             Z
Electronic contribution:     -8.37520      -5.26419      -3.24574
Nuclear contribution   :      8.31000       6.74109       2.87442
                        -----------------------------------------
Total Dipole Moment    :     -0.06519       1.47690      -0.37132
                        -----------------------------------------
Magnitude (a.u.)       :      1.52426
Magnitude (Debye)      :      3.87436

Rotational constants in cm-1:     0.158705     0.080192     0.078179
Rotational constants in MHz :  4757.865601  2404.095079  2343.752507

                             ****ORCA TERMINATED NORMALLY****
TOTAL RUN TIME: 0 days 0 hours 0 minutes 9 seconds 116 msec
