                         Program Version 5.0.0 -  RELEASE  -
|  1> !TPSS D3BJ RIJCOSX def2-SVP def2/J TightSCF
|  2> *xyz 0 1
|  3> C          1.36401        0.46874       -2.81376
|  4> C          0.42884        0.32140       -1.65531
|  5> C          0.96805        1.63064       -3.71575
|  6> H          0.74858       -0.40054       -1.00134
|  7> H         -0.46105        0.02333       -2.07773
|  8> H          0.31026        1.20137       -1.13495
|  9> H          1.29485       -0.46874       -3.36468
| 10> H          2.37622        0.59740       -2.43149
| 11> H          1.65923        1.70213       -4.52942
| 12> H          0.98421        2.54058       -3.15304
| 13> H         -0.01744        1.46536       -4.09838
| 14> *
| 15> %MaxCore 64000
| 16>
| 17> %pal nprocs 4
| 18> end
| 19>
| 20> %scf
| 21>   MaxIter 150
| 22> end
| 23>
| 24>
| 25>                          ****END OF INPUT****

CARTESIAN COORDINATES (ANGSTROEM)
---------------------------------
  C      1.364010    0.468740   -2.813760
  C      0.428840    0.321400   -1.655310
  C      0.968050    1.630640   -3.715750
  H      0.748580   -0.400540   -1.001340
  H     -0.461050    0.023330   -2.077730
  H      0.310260    1.201370   -1.134950
  H      1.294850   -0.468740   -3.364680
  H      2.376220    0.597400   -2.431490
  H      1.659230    1.702130   -4.529420
  H      0.984210    2.540580   -3.153040
  H     -0.017440    1.465360   -4.098380

 Total Charge           Charge          ....    0
 Multiplicity           Mult            ....    1
 Number of Electrons    NEL             ....   26
 Basis Dimension        Dim             ....   82

ORBITAL ENERGIES
----------------

  NO   OCC          E(Eh)            E(eV)
   0   2.0000      -9.985667      -271.7238
   1   2.0000      -9.980795      -271.5913
   2   2.0000      -9.964737      -271.1543
   3   2.0000      -0.724692       -19.7199
   4   2.0000      -0.629344       -17.1253
   5   2.0000      -0.529520       -14.4090
   6   2.0000      -0.426004       -11.5922
   7   2.0000      -0.400631       -10.9017
   8   2.0000      -0.361132        -9.8269
   9   2.0000      -0.350530        -9.5384
  10   2.0000      -0.297856        -8.1051
  11   2.0000      -0.294953        -8.0261
  12   2.0000      -0.291499        -7.9321
  13   0.0000       0.053834         1.4649
  14   0.0000       0.100629         2.7383
  15   0.0000       0.102150         2.7796
  16   0.0000       0.107681         2.9302
  17   0.0000       0.134311         3.6548

MULLIKEN ATOMIC CHARGES
-----------------------
   0 C :   -0.094456
   1 C :    0.073775
   2 C :    0.011529
   3 H :   -0.010172
   4 H :   -0.011899
   5 H :   -0.010217
   6 H :    0.007910
   7 H :    0.008749
   8 H :    0.010538
   9 H :    0.008158
  10 H :    0.006085
Sum of atomic charges:    0.0000000

LOEWDIN ATOMIC CHARGES
----------------------
   0 C :   -0.034241
   1 C :   -0.031563
   2 C :   -0.041412
   3 H :    0.010498
   4 H :    0.011248
   5 H :    0.008069
   6 H :    0.016178
   7 H :    0.013057
   8 H :    0.017096
   9 H :    0.015603
  10 H :    0.015466

  Mayer bond orders larger than 0.100000
B(  0-C ,  1-C ) :   1.1066 B(  0-C ,  2-C ) :   1.1059 B(  0-C ,  6-H ) :   0.9545
B(  0-C ,  7-H ) :   0.9545 B(  1-C ,  3-H ) :   0.9617 B(  1-C ,  4-H ) :   0.9702
B(  1-C ,  5-H ) :   0.9700 B(  2-C ,  8-H ) :   0.9680 B(  2-C ,  9-H ) :   0.9724
B(  2-C , 10-H ) :   0.9726

Dispersion correction           -0.007480986
FINAL SINGLE POINT ENERGY      -119.066367931012

DIPOLE MOMENT
-------------
                                X             Y             Z
Electronic contribution:      0.35522      -0.17456      -0.01755
Nuclear contribution   :     -0.35842       0.15752       0.02695
                        -----------------------------------------
Total Dipole Moment    :     -0.00321      -0.01704       0.00940
                        -----------------------------------------
Magnitude (a.u.)       :      0.01972
Magnitude (Debye)      :      0.05013

Rotational constants in cm-1:     1.019891     0.293671     0.260247
Rotational constants in MHz : 30575.551403  8804.039097  7802.009261

                             ****ORCA TERMINATED NORMALLY****
TOTAL RUN TIME: 0 days 0 hours 0 minutes 7 seconds 274 msec
