                         Program Version 5.0.0 -  RELEASE  -
|  1> !TPSS D3BJ RIJCOSX def2-SVP def2/J TightSCF
|  2> *xyz 0 1
|  3> C          0.96805        1.63064       -3.71575
|  4> C         -0.50835        1.72268       -4.12430
|  5> S         -1.32861        0.14674       -4.43578
|  6> H         -0.59151        2.29496       -5.04722
|  7> H         -1.11411        2.23561       -3.37436
|  8> O         -2.57135        0.47573       -5.06834
|  9> F         -1.51496       -0.40051       -3.06342
| 10> O         -0.37793       -0.62756       -5.20114
| 11> H          1.51840        1.12197       -4.47946
| 12> H          1.05062        1.08971       -2.79625
| 13> H          1.36450        2.61606       -3.58668
| 14> *
| 15> %MaxCore 64000
| 16>
| 17> %pal nprocs 4
| 18> end
| 19>
| 20> %scf
| 21>   MaxIter 150
| 22> end
| 23>
| 24>
| 25>                          ****END OF INPUT****

CARTESIAN COORDINATES (ANGSTROEM)
---------------------------------
  C      0.968050    1.630640   -3.715750
  C     -0.508350    1.722680   -4.124300
  S     -1.328610    0.146740   -4.435780
  H     -0.591510    2.294960   -5.047220
  H     -1.114110    2.235610   -3.374360
  O     -2.571350    0.475730   -5.068340
  F     -1.514960   -0.400510   -3.063420
  O     -0.377930   -0.627560   -5.201140
  H      1.518400    1.121970   -4.479460
  H      1.050620    1.089710   -2.796250
  H      1.364500    2.616060   -3.586680

 Total Charge           Charge          ....    0
 Multiplicity           Mult            ....    1
 Number of Electrons    NEL             ....   58
 Basis Dimension        Dim             ....  113

ORBITAL ENERGIES
----------------

  NO   OCC          E(Eh)            E(eV)
   0   2.0000     -88.593661     -2410.7561
   1   2.0000     -24.500791      -666.7004
   2   2.0000     -18.897067      -514.2153
   3   2.0000     -18.894166      -514.1364
   4   2.0000     -10.050281      -273.4820
   5   2.0000     -10.019769      -272.6518
   6   2.0000      -7.963362      -216.6941
   7   2.0000      -5.952784      -161.9835
   8   2.0000      -5.946801      -161.8207
   9   2.0000      -5.944947      -161.7702
  10   2.0000      -1.243636       -33.8411
  11   2.0000      -1.034215       -28.1424
  12   2.0000      -0.943974       -25.6868
  13   2.0000      -0.752314       -20.4715
  14   2.0000      -0.652963       -17.7680
  15   2.0000      -0.606734       -16.5101
  16   2.0000      -0.516888       -14.0652
  17   2.0000      -0.490827       -13.3561
  18   2.0000      -0.483274       -13.1506
  19   2.0000      -0.443456       -12.0671
  20   2.0000      -0.422593       -11.4993
  21   2.0000      -0.399669       -10.8755
  22   2.0000      -0.383560       -10.4372
  23   2.0000      -0.361661        -9.8413
  24   2.0000      -0.357176        -9.7193
  25   2.0000      -0.333515        -9.0754
  26   2.0000      -0.288171        -7.8415
  27   2.0000      -0.280726        -7.6389
  28   2.0000      -0.266897        -7.2626
  29   0.0000       0.008311         0.2261
  30   0.0000       0.041875         1.1395
  31   0.0000       0.051511         1.4017
  32   0.0000       0.072136         1.9629
  33   0.0000       0.084975         2.3123

MULLIKEN ATOMIC CHARGES
-----------------------
   0 C :    0.014661
   1 C :   -0.139103
   2 S :    0.894284
   3 H :    0.083079
   4 H :    0.060748
   5 O :   -0.405260
   6 F :   -0.200960
   7 O :   -0.420665
   8 H :    0.049821
   9 H :    0.028784
  10 H :    0.034611
Sum of atomic charges:   -0.0000000

LOEWDIN ATOMIC CHARGES
----------------------
   0 C :   -0.046927
   1 C :   -0.151648
   2 S :    1.115058
   3 H :    0.043693
   4 H :    0.028488
   5 O :   -0.451982
   6 F :   -0.155693
   7 O :   -0.464487
   8 H :    0.029743
   9 H :    0.022773
  10 H :    0.030982

  Mayer bond orders larger than 0.100000
B(  0-C ,  1-C ) :   1.0553 B(  0-C ,  8-H ) :   0.9681 B(  0-C ,  9-H ) :   0.9732
B(  0-C , 10-H ) :   0.9596 B(  1-C ,  2-S ) :   0.8981 B(  1-C ,  3-H ) :   0.9367
B(  1-C ,  4-H ) :   0.9322 B(  2-S ,  5-O ) :   1.7997 B(  2-S ,  6-F ) :   0.9739
B(  2-S ,  7-O ) :   1.7794

Dispersion correction           -0.011522931
FINAL SINGLE POINT ENERGY      -727.320496869110

DIPOLE MOMENT
-------------
                                X             Y             Z
Electronic contribution:     -6.62451      -6.73187       0.11167
Nuclear contribution   :      7.20921       7.65416       0.78523
                        -----------------------------------------
Total Dipole Moment    :      0.58470       0.92229       0.89691
                        -----------------------------------------
Magnitude (a.u.)       :      1.41313
Magnitude (Debye)      :      3.59189

Rotational constants in cm-1:     0.153780     0.081282     0.079816
Rotational constants in MHz :  4610.199589  2436.778679  2392.820729

                             ****ORCA TERMINATED NORMALLY****
TOTAL RUN TIME: 0 days 0 hours 0 minutes 8 seconds 894 msec
