                         Program Version 5.0.0 -  RELEASE  -
|  1> !TPSS D3BJ RIJCOSX def2-SVP def2/J TightSCF
|  2> *xyz 0 1
|  3> C          0.96805        1.63064       -3.71575
|  4> C         -0.50835        1.72268       -4.12430
|  5> S         -1.32861        0.14674       -4.43578
|  6> H         -0.59151        2.29496       -5.04722
|  7> H         -1.11411        2.23561       -3.37436
|  8> O         -2.57135        0.47573       -5.06834
|  9> O         -1.51496       -0.40051       -3.06342
| 10> F         -0.37793       -0.62756       -5.20114
| 11> H          1.51840        1.12197       -4.47946
| 12> H          1.05062        1.08971       -2.79625
| 13> H          1.36450        2.61606       -3.58668
| 14> *
| 15> %MaxCore 64000
| 16>
| 17> %pal nprocs 4
| 18> end
| 19>
| 20> %scf
| 21>   MaxIter 150
| 22> end
| 23>
| 24>
| 25>                          ****END OF INPUT****

CARTESIAN COORDINATES (ANGSTROEM)
---------------------------------
  C      0.968050    1.630640   -3.715750
  C     -0.508350    1.722680   -4.124300
  S     -1.328610    0.146740   -4.435780
  H     -0.591510    2.294960   -5.047220
  H     -1.114110    2.235610   -3.374360
  O     -2.571350    0.475730   -5.068340
  O     -1.514960   -0.400510   -3.063420
  F     -0.377930   -0.627560   -5.201140
  H      1.518400    1.121970   -4.479460
  H      1.050620    1.089710   -2.796250
  H      1.364500    2.616060   -3.586680

 Total Charge           Charge          ....    0
 Multiplicity           Mult            ....    1
 Number of Electrons    NEL             ....   58
 Basis Dimension        Dim             ....  113

ORBITAL ENERGIES
----------------

  NO   OCC          E(Eh)            E(eV)
   0   2.0000     -88.594871     -2410.7890
   1   2.0000     -24.523572      -667.3203
   2   2.0000     -18.896879      -514.2102
   3   2.0000     -18.877005      -513.6694
   4   2.0000     -10.051016      -273.5020
   5   2.0000     -10.023176      -272.7445
   6   2.0000      -7.964659      -216.7294
   7   2.0000      -5.954501      -162.0302
   8   2.0000      -5.947708      -161.8454
   9   2.0000      -5.945993      -161.7987
  10   2.0000      -1.280616       -34.8473
  11   2.0000      -1.024627       -27.8815
  12   2.0000      -0.919396       -25.0181
  13   2.0000      -0.754283       -20.5251
  14   2.0000      -0.663284       -18.0489
  15   2.0000      -0.618047       -16.8179
  16   2.0000      -0.534311       -14.5393
  17   2.0000      -0.515886       -14.0380
  18   2.0000      -0.484338       -13.1795
  19   2.0000      -0.445712       -12.1284
  20   2.0000      -0.422679       -11.5017
  21   2.0000      -0.399351       -10.8669
  22   2.0000      -0.383028       -10.4227
  23   2.0000      -0.367638       -10.0039
  24   2.0000      -0.353128        -9.6091
  25   2.0000      -0.328974        -8.9518
  26   2.0000      -0.282829        -7.6962
  27   2.0000      -0.262724        -7.1491
  28   2.0000      -0.248627        -6.7655
  29   0.0000       0.003753         0.1021
  30   0.0000       0.042493         1.1563
  31   0.0000       0.045603         1.2409
  32   0.0000       0.074915         2.0385
  33   0.0000       0.084847         2.3088

MULLIKEN ATOMIC CHARGES
-----------------------
   0 C :    0.008073
   1 C :   -0.130620
   2 S :    0.881209
   3 H :    0.058661
   4 H :    0.090760
   5 O :   -0.399025
   6 O :   -0.462137
   7 F :   -0.157877
   8 H :    0.026669
   9 H :    0.045376
  10 H :    0.038912
Sum of atomic charges:   -0.0000000

LOEWDIN ATOMIC CHARGES
----------------------
   0 C :   -0.049632
   1 C :   -0.146700
   2 S :    1.107745
   3 H :    0.026763
   4 H :    0.048071
   5 O :   -0.447415
   6 O :   -0.510396
   7 F :   -0.109830
   8 H :    0.020519
   9 H :    0.028160
  10 H :    0.032716

  Mayer bond orders larger than 0.100000
B(  0-C ,  1-C ) :   1.0525 B(  0-C ,  8-H ) :   0.9723 B(  0-C ,  9-H ) :   0.9701
B(  0-C , 10-H ) :   0.9607 B(  1-C ,  2-S ) :   0.9038 B(  1-C ,  3-H ) :   0.9319
B(  1-C ,  4-H ) :   0.9356 B(  2-S ,  5-O ) :   1.7943 B(  2-S ,  6-O ) :   1.7323
B(  2-S ,  7-F ) :   1.0204

Dispersion correction           -0.011502317
FINAL SINGLE POINT ENERGY      -727.299919579989

DIPOLE MOMENT
-------------
                                X             Y             Z
Electronic contribution:     -4.72521      -7.09277      -3.45230
Nuclear contribution   :      6.02439       7.89075       3.01280
                        -----------------------------------------
Total Dipole Moment    :      1.29919       0.79799      -0.43949
                        -----------------------------------------
Magnitude (a.u.)       :      1.58676
Magnitude (Debye)      :      4.03323

Rotational constants in cm-1:     0.153652     0.082400     0.079295
Rotational constants in MHz :  4606.361242  2470.285703  2377.214112

                             ****ORCA TERMINATED NORMALLY****
TOTAL RUN TIME: 0 days 0 hours 0 minutes 9 seconds 788 msec
