                         Program Version 5.0.0 -  RELEASE  -
|  1> !TPSS D3BJ RIJCOSX def2-TZVP def2/J TightSCF xyzfile
|  2>
|  3> *xyzfile 0 1 D2.xyz
|  4>
|  5> %MaxCore 64000
|  6>
|  7> %pal nprocs 18
|  8> end
|  9>
| 10> %scf
| 11>   MaxIter 150
| 12> end
| 13>
| 14>
| 15>                          ****END OF INPUT****

CARTESIAN COORDINATES (ANGSTROEM)
---------------------------------
  C      1.364014    0.468742   -2.813764
  C      0.428844    0.321402   -1.655312
  C      0.968045    1.630639   -3.715749
  C     -0.508347    1.722679   -4.124300
  S     -1.328608    0.146737   -4.435781
  H     -0.591511    2.294958   -5.047219
  H     -1.114114    2.235610   -3.374362
  H      0.748578   -0.400542   -1.001345
  H     -0.461053    0.023332   -2.077731
  H      0.310258    1.201375   -1.134948
  O     -2.571347    0.475733   -5.068341
  F     -1.514963   -0.400512   -3.063420
  H      1.294847   -0.468742   -3.364684
  H      2.376216    0.597400   -2.431495
  H      1.578688    1.520652   -4.612733
  H      1.266653    2.575988   -3.250448
  O     -0.377928   -0.627558   -5.201141

 Total Charge           Charge          ....    0
 Multiplicity           Mult            ....    1
 Number of Electrons    NEL             ....   74
 Basis Dimension        Dim             ....  308

ORBITAL ENERGIES
----------------

  NO   OCC          E(Eh)            E(eV)
   0   2.0000     -88.583103     -2410.4688
   1   2.0000     -24.508486      -666.9098
   2   2.0000     -18.899595      -514.2841
   3   2.0000     -18.896966      -514.2126
   4   2.0000     -10.039485      -273.1883
   5   2.0000     -10.005860      -272.2733
   6   2.0000      -9.983415      -271.6625
   7   2.0000      -9.943725      -270.5825
   8   2.0000      -7.933011      -215.8682
   9   2.0000      -5.916449      -160.9948
  10   2.0000      -5.909383      -160.8025
  11   2.0000      -5.909081      -160.7943
  12   2.0000      -1.275771       -34.7155
  13   2.0000      -1.046222       -28.4691
  14   2.0000      -0.960123       -26.1263
  15   2.0000      -0.776873       -21.1398
  16   2.0000      -0.720806       -19.6141
  17   2.0000      -0.655740       -17.8436
  18   2.0000      -0.638805       -17.3828
  19   2.0000      -0.548610       -14.9284
  20   2.0000      -0.531948       -14.4750
  21   2.0000      -0.510178       -13.8827
  22   2.0000      -0.497718       -13.5436
  23   2.0000      -0.452746       -12.3198
  24   2.0000      -0.436014       -11.8645
  25   2.0000      -0.429188       -11.6788
  26   2.0000      -0.410057       -11.1582
  27   2.0000      -0.389810       -10.6073
  28   2.0000      -0.372600       -10.1390
  29   2.0000      -0.362188        -9.8556
  30   2.0000      -0.349833        -9.5194
  31   2.0000      -0.317732        -8.6459
  32   2.0000      -0.308433        -8.3929
  33   2.0000      -0.302640        -8.2353
  34   2.0000      -0.294055        -8.0016
  35   2.0000      -0.286599        -7.7988
  36   2.0000      -0.277035        -7.5385
  37   0.0000      -0.006237        -0.1697
  38   0.0000       0.014824         0.4034
  39   0.0000       0.025395         0.6910
  40   0.0000       0.045051         1.2259
  41   0.0000       0.056876         1.5477

MULLIKEN ATOMIC CHARGES
-----------------------
   0 C :   -0.236030
   1 C :   -0.340092
   2 C :   -0.142987
   3 C :   -0.280986
   4 S :    0.759936
   5 H :    0.158806
   6 H :    0.141259
   7 H :    0.112189
   8 H :    0.121157
   9 H :    0.093629
  10 O :   -0.374236
  11 F :   -0.077674
  12 H :    0.134403
  13 H :    0.093321
  14 H :    0.110483
  15 H :    0.103174
  16 O :   -0.376351
Sum of atomic charges:   -0.0000000

LOEWDIN ATOMIC CHARGES
----------------------
   0 C :   -0.301549
   1 C :   -0.308736
   2 C :   -0.277245
   3 C :   -0.361157
   4 S :    0.504819
   5 H :    0.147507
   6 H :    0.137007
   7 H :    0.105956
   8 H :    0.083328
   9 H :    0.103405
  10 O :   -0.231947
  11 F :    0.082010
  12 H :    0.138699
  13 H :    0.132582
  14 H :    0.143000
  15 H :    0.140582
  16 O :   -0.238262

  Mayer bond orders larger than 0.100000
B(  0-C ,  1-C ) :   1.0063 B(  0-C ,  2-C ) :   1.0164 B(  0-C , 12-H ) :   0.9632
B(  0-C , 13-H ) :   0.9448 B(  1-C ,  7-H ) :   0.9656 B(  1-C ,  8-H ) :   0.9802
B(  1-C ,  9-H ) :   0.9669 B(  2-C ,  3-C ) :   0.9907 B(  2-C , 14-H ) :   0.9497
B(  2-C , 15-H ) :   0.9352 B(  3-C ,  4-S ) :   0.9164 B(  3-C ,  5-H ) :   0.9330
B(  3-C ,  6-H ) :   0.9339 B(  4-S , 10-O ) :   1.9786 B(  4-S , 11-F ) :   1.0721
B(  4-S , 16-O ) :   1.9168

Dispersion correction           -0.022055427
FINAL SINGLE POINT ENERGY      -806.544380293314

DIPOLE MOMENT
-------------
                                X             Y             Z
Electronic contribution:    -10.55170      -5.62204      -6.21035
Nuclear contribution   :     11.08796       6.45140       7.05645
                        -----------------------------------------
Total Dipole Moment    :      0.53626       0.82936       0.84611
                        -----------------------------------------
Magnitude (a.u.)       :      1.30051
Magnitude (Debye)      :      3.30562

Rotational constants in cm-1:     0.100113     0.046890     0.041843
Rotational constants in MHz :  3001.313402  1405.711946  1254.411771

                             ****ORCA TERMINATED NORMALLY****
TOTAL RUN TIME: 0 days 0 hours 0 minutes 8 seconds 238 msec
