                         Program Version 5.0.0 -  RELEASE  -
|  1> !CAM-B3LYP RIJCOSX def2-SVP def2/J TightSCF
|  2> *xyz -1 1
|  3> C          0.61188        1.65763       -4.50029
|  4> C          1.69499        1.54179       -5.57045
|  5> H          2.69733        1.73466       -5.18400
|  6> H          1.50666        2.27224       -6.35808
|  7> S          1.78029       -0.03313       -6.42874
|  8> O          2.56929        0.21366       -7.60736
|  9> O          0.41688       -0.46297       -6.61859
| 10> O          2.50513       -0.93326       -5.48257
| 11> H         -0.34424        1.45871       -4.93752
| 12> H          0.61845        2.64655       -4.09174
| 13> H          0.80247        0.94882       -3.72173
| 14> *
| 15> %MaxCore 64000
| 16>
| 17> %pal nprocs 4
| 18> end
| 19>
| 20> %scf
| 21>   MaxIter 150
| 22> end
| 23>
| 24>
| 25>                          ****END OF INPUT****

CARTESIAN COORDINATES (ANGSTROEM)
---------------------------------
  C      0.611880    1.657630   -4.500290
  C      1.694990    1.541790   -5.570450
  H      2.697330    1.734660   -5.184000
  H      1.506660    2.272240   -6.358080
  S      1.780290   -0.033130   -6.428740
  O      2.569290    0.213660   -7.607360
  O      0.416880   -0.462970   -6.618590
  O      2.505130   -0.933260   -5.482570
  H     -0.344240    1.458710   -4.937520
  H      0.618450    2.646550   -4.091740
  H      0.802470    0.948820   -3.721730

 Total Charge           Charge          ....   -1
 Multiplicity           Mult            ....    1
 Number of Electrons    NEL             ....   58
 Basis Dimension        Dim             ....  113

ORBITAL ENERGIES
----------------

  NO   OCC          E(Eh)            E(eV)
   0   2.0000     -88.919569     -2419.6245
   1   2.0000     -18.958016      -515.8738
   2   2.0000     -18.956156      -515.8232
   3   2.0000     -18.933865      -515.2167
   4   2.0000     -10.110165      -275.1116
   5   2.0000     -10.104126      -274.9472
   6   2.0000      -7.979814      -217.1418
   7   2.0000      -5.949272      -161.8879
   8   2.0000      -5.949000      -161.8805
   9   2.0000      -5.948844      -161.8763
  10   2.0000      -0.985305       -26.8115
  11   2.0000      -0.845181       -22.9986
  12   2.0000      -0.807898       -21.9840
  13   2.0000      -0.699894       -19.0451
  14   2.0000      -0.571505       -15.5514
  15   2.0000      -0.433988       -11.8094
  16   2.0000      -0.379490       -10.3264
  17   2.0000      -0.367060        -9.9882
  18   2.0000      -0.330006        -8.9799
  19   2.0000      -0.308396        -8.3919
  20   2.0000      -0.304810        -8.2943
  21   2.0000      -0.282586        -7.6896
  22   2.0000      -0.268024        -7.2933
  23   2.0000      -0.187803        -5.1104
  24   2.0000      -0.185979        -5.0607
  25   2.0000      -0.154488        -4.2038
  26   2.0000      -0.145835        -3.9684
  27   2.0000      -0.127704        -3.4750
  28   2.0000      -0.095319        -2.5938
  29   0.0000       0.243307         6.6207
  30   0.0000       0.296414         8.0658
  31   0.0000       0.303923         8.2702
  32   0.0000       0.310655         8.4533
  33   0.0000       0.338041         9.1986

MULLIKEN ATOMIC CHARGES
-----------------------
   0 C :    0.047080
   1 C :   -0.085844
   2 H :   -0.003006
   3 H :   -0.015256
   4 S :    0.867603
   5 O :   -0.570542
   6 O :   -0.570857
   7 O :   -0.633281
   8 H :    0.003694
   9 H :   -0.039793
  10 H :    0.000202
Sum of atomic charges:   -1.0000000

LOEWDIN ATOMIC CHARGES
----------------------
   0 C :   -0.070850
   1 C :   -0.186263
   2 H :    0.009054
   3 H :    0.002457
   4 S :    1.111504
   5 O :   -0.611948
   6 O :   -0.611785
   7 O :   -0.675657
   8 H :    0.016325
   9 H :    0.001092
  10 H :    0.016070

  Mayer bond orders larger than 0.100000
B(  0-C ,  1-C ) :   1.0627 B(  0-C ,  8-H ) :   0.9653 B(  0-C ,  9-H ) :   0.9609
B(  0-C , 10-H ) :   0.9677 B(  1-C ,  2-H ) :   0.9449 B(  1-C ,  3-H ) :   0.9407
B(  1-C ,  4-S ) :   0.8992 B(  4-S ,  5-O ) :   1.6465 B(  4-S ,  6-O ) :   1.6368
B(  4-S ,  7-O ) :   1.5814

FINAL SINGLE POINT ENERGY      -702.604921604969

DIPOLE MOMENT
-------------
                                X             Y             Z
Electronic contribution:      2.25253      -5.71491      -5.06894
Nuclear contribution   :     -2.69163       7.29476       5.86550
                        -----------------------------------------
Total Dipole Moment    :     -0.43910       1.57985       0.79656
                        -----------------------------------------
Magnitude (a.u.)       :      1.82298
Magnitude (Debye)      :      4.63365

Rotational constants in cm-1:     0.163060     0.082831     0.081111
Rotational constants in MHz :  4888.419330  2483.225008  2431.646841

                             ****ORCA TERMINATED NORMALLY****
TOTAL RUN TIME: 0 days 0 hours 0 minutes 13 seconds 16 msec
