                         Program Version 5.0.0 -  RELEASE  -
|  1> !CAM-B3LYP RIJCOSX def2-SVP def2/J TightSCF
|  2> *xyz 1 1
|  3> C          1.96337       -1.74915       -1.89689
|  4> N          2.73849       -2.01517       -3.09711
|  5> C          4.04974       -2.15472       -3.15204
|  6> N          4.65821       -1.98629       -4.31866
|  7> N          4.76423       -2.45444       -2.05049
|  8> H          4.28736       -2.77626       -1.21750
|  9> H          5.75082       -2.65835       -2.12599
| 10> H          2.34518       -1.69027       -3.97145
| 11> H          4.10900       -1.59268       -5.07176
| 12> H          5.64910       -2.15646       -4.42724
| 13> C          2.08852       -0.30091       -1.41520
| 14> H          2.23127       -2.45162       -1.10264
| 15> H          0.93025       -1.97780       -2.15544
| 16> H          1.82118        0.36368       -2.21003
| 17> H          3.09792       -0.11068       -1.11551
| 18> H          1.43391       -0.14382       -0.58352
| 19> *
| 20> %MaxCore 64000
| 21>
| 22> %pal nprocs 4
| 23> end
| 24>
| 25> %scf
| 26>   MaxIter 150
| 27> end
| 28>
| 29>
| 30>                          ****END OF INPUT****

CARTESIAN COORDINATES (ANGSTROEM)
---------------------------------
  C      1.963370   -1.749150   -1.896890
  N      2.738490   -2.015170   -3.097110
  C      4.049740   -2.154720   -3.152040
  N      4.658210   -1.986290   -4.318660
  N      4.764230   -2.454440   -2.050490
  H      4.287360   -2.776260   -1.217500
  H      5.750820   -2.658350   -2.125990
  H      2.345180   -1.690270   -3.971450
  H      4.109000   -1.592680   -5.071760
  H      5.649100   -2.156460   -4.427240
  C      2.088520   -0.300910   -1.415200
  H      2.231270   -2.451620   -1.102640
  H      0.930250   -1.977800   -2.155440
  H      1.821180    0.363680   -2.210030
  H      3.097920   -0.110680   -1.115510
  H      1.433910   -0.143820   -0.583520

 Total Charge           Charge          ....    1
 Multiplicity           Mult            ....    1
 Number of Electrons    NEL             ....   48
 Basis Dimension        Dim             ....  134

ORBITAL ENERGIES
----------------

  NO   OCC          E(Eh)            E(eV)
   0   2.0000     -14.628090      -398.0506
   1   2.0000     -14.625025      -397.9672
   2   2.0000     -14.624037      -397.9403
   3   2.0000     -10.596038      -288.3329
   4   2.0000     -10.464152      -284.7441
   5   2.0000     -10.393834      -282.8306
   6   2.0000      -1.292571       -35.1727
   7   2.0000      -1.178078       -32.0571
   8   2.0000      -1.164167       -31.6786
   9   2.0000      -1.003904       -27.3176
  10   2.0000      -0.912167       -24.8213
  11   2.0000      -0.876100       -23.8399
  12   2.0000      -0.855465       -23.2784
  13   2.0000      -0.814943       -22.1757
  14   2.0000      -0.763689       -20.7810
  15   2.0000      -0.754566       -20.5328
  16   2.0000      -0.727339       -19.7919
  17   2.0000      -0.696266       -18.9464
  18   2.0000      -0.667892       -18.1743
  19   2.0000      -0.629826       -17.1384
  20   2.0000      -0.596131       -16.2216
  21   2.0000      -0.575891       -15.6708
  22   2.0000      -0.540111       -14.6972
  23   2.0000      -0.511073       -13.9070
  24   0.0000      -0.107967        -2.9379
  25   0.0000      -0.097695        -2.6584
  26   0.0000      -0.064130        -1.7451
  27   0.0000      -0.052617        -1.4318
  28   0.0000      -0.027699        -0.7537

MULLIKEN ATOMIC CHARGES
-----------------------
   0 C :    0.015767
   1 N :   -0.092294
   2 C :    0.009027
   3 N :   -0.006806
   4 N :   -0.037633
   5 H :    0.169931
   6 H :    0.169007
   7 H :    0.156797
   8 H :    0.169978
   9 H :    0.175336
  10 C :    0.021406
  11 H :    0.052413
  12 H :    0.068739
  13 H :    0.035402
  14 H :    0.028560
  15 H :    0.064370
Sum of atomic charges:    1.0000000

LOEWDIN ATOMIC CHARGES
----------------------
   0 C :    0.039189
   1 N :    0.030929
   2 C :    0.152306
   3 N :    0.048200
   4 N :    0.036303
   5 H :    0.108714
   6 H :    0.110929
   7 H :    0.103830
   8 H :    0.110711
   9 H :    0.114089
  10 C :   -0.048076
  11 H :    0.034362
  12 H :    0.049738
  13 H :    0.032457
  14 H :    0.027414
  15 H :    0.048905

  Mayer bond orders larger than 0.100000
B(  0-C ,  1-N ) :   0.9397 B(  0-C , 10-C ) :   1.0908 B(  0-C , 11-H ) :   0.9551
B(  0-C , 12-H ) :   0.9501 B(  1-N ,  2-C ) :   1.3826 B(  1-N ,  7-H ) :   0.9097
B(  2-C ,  3-N ) :   1.4053 B(  2-C ,  4-N ) :   1.3876 B(  3-N ,  8-H ) :   0.9235
B(  3-N ,  9-H ) :   0.9250 B(  4-N ,  5-H ) :   0.9241 B(  4-N ,  6-H ) :   0.9267
B( 10-C , 13-H ) :   0.9695 B( 10-C , 14-H ) :   0.9678 B( 10-C , 15-H ) :   0.9643

FINAL SINGLE POINT ENERGY      -284.042656575652

DIPOLE MOMENT
-------------
                                X             Y             Z
Electronic contribution:      3.09133      -2.74385      -3.14859
Nuclear contribution   :     -2.17768       2.37118       2.44574
                        -----------------------------------------
Total Dipole Moment    :      0.91365      -0.37267      -0.70285
                        -----------------------------------------
Magnitude (a.u.)       :      1.21146
Magnitude (Debye)      :      3.07929

Rotational constants in cm-1:     0.215650     0.075183     0.066454
Rotational constants in MHz :  6465.033740  2253.919004  1992.232519

                             ****ORCA TERMINATED NORMALLY****
TOTAL RUN TIME: 0 days 0 hours 0 minutes 18 seconds 157 msec
