                         Program Version 5.0.0 -  RELEASE  -
|  1> !CAM-B3LYP RIJCOSX def2-TZVP def2/J TightSCF xyzfile
|  2>
|  3> *xyzfile 0 1 B.xyz
|  4>
|  5> %MaxCore 64000
|  6>
|  7> %pal nprocs 18
|  8> end
|  9>
| 10> %scf
| 11>   MaxIter 150
| 12> end
| 13>
| 14>
| 15>                          ****END OF INPUT****

CARTESIAN COORDINATES (ANGSTROEM)
---------------------------------
  C      1.963365   -1.749150   -1.896887
  N      2.738490   -2.015170   -3.097113
  C      0.611877    1.657634   -4.500288
  C      1.694991    1.541794   -5.570447
  H      2.697326    1.734659   -5.183996
  H      1.506656    2.272239   -6.358076
  S      1.780287   -0.033128   -6.428739
  C      4.049736   -2.154717   -3.152044
  N      4.658206   -1.986293   -4.318655
  N      4.764231   -2.454435   -2.050491
  H      4.287363   -2.776259   -1.217496
  H      5.750825   -2.658351   -2.125988
  H      2.345176   -1.690274   -3.971447
  H      4.109004   -1.592677   -5.071760
  H      5.649095   -2.156462   -4.427237
  O      2.569287    0.213657   -7.607360
  O      0.416880   -0.462969   -6.618595
  C      2.088520   -0.300912   -1.415204
  H      2.231272   -2.451616   -1.102643
  H      0.930249   -1.977801   -2.155438
  C      0.680356    0.655418   -3.348038
  H     -0.356865    1.549231   -4.991128
  H      0.650228    2.675438   -4.096000
  C      1.968993    0.733582   -2.535654
  H      3.051356   -0.168602   -0.911868
  H      1.316501   -0.136231   -0.657252
  O      2.505129   -0.933263   -5.482570
  H      2.824195    0.624726   -3.208464
  H      2.058919    1.730331   -2.093112
  H      0.542252   -0.344731   -3.766662
  H     -0.174219    0.829692   -2.685182

 Total Charge           Charge          ....    0
 Multiplicity           Mult            ....    1
 Number of Electrons    NEL             ....  120
 Basis Dimension        Dim             ....  542

ORBITAL ENERGIES
----------------

  NO   OCC          E(Eh)            E(eV)
   0   2.0000     -89.061647     -2423.4906
   1   2.0000     -19.135700      -520.7089
   2   2.0000     -19.114505      -520.1321
   3   2.0000     -19.112966      -520.0902
   4   2.0000     -14.476305      -393.9203
   5   2.0000     -14.446973      -393.1221
   6   2.0000     -14.442685      -393.0054
   7   2.0000     -10.430295      -283.8228
   8   2.0000     -10.316090      -280.7151
   9   2.0000     -10.265623      -279.3418
  10   2.0000     -10.245955      -278.8066
  11   2.0000     -10.233880      -278.4780
  12   2.0000     -10.231247      -278.4064
  13   2.0000     -10.230008      -278.3727
  14   2.0000      -8.105257      -220.5553
  15   2.0000      -6.070239      -165.1796
  16   2.0000      -6.068910      -165.1434
  17   2.0000      -6.067749      -165.1119
  18   2.0000      -1.156145       -31.4603
  19   2.0000      -1.148953       -31.2646
  20   2.0000      -1.040157       -28.3041
  21   2.0000      -1.025812       -27.9138
  22   2.0000      -1.014363       -27.6022
  23   2.0000      -1.013450       -27.5774
  24   2.0000      -0.905404       -24.6373
  25   2.0000      -0.865074       -23.5398
  26   2.0000      -0.815619       -22.1941
  27   2.0000      -0.775217       -21.0947
  28   2.0000      -0.747276       -20.3344
  29   2.0000      -0.710697       -19.3391
  30   2.0000      -0.703876       -19.1534
  31   2.0000      -0.669779       -18.2256
  32   2.0000      -0.648660       -17.6509
  33   2.0000      -0.627927       -17.0868
  34   2.0000      -0.612227       -16.6595
  35   2.0000      -0.592823       -16.1315
  36   2.0000      -0.575839       -15.6694
  37   2.0000      -0.551793       -15.0150
  38   2.0000      -0.547555       -14.8997
  39   2.0000      -0.540689       -14.7129
  40   2.0000      -0.524718       -14.2783
  41   2.0000      -0.508274       -13.8308
  42   2.0000      -0.495692       -13.4885
  43   2.0000      -0.485593       -13.2137
  44   2.0000      -0.468809       -12.7569
  45   2.0000      -0.461348       -12.5539
  46   2.0000      -0.444192       -12.0871
  47   2.0000      -0.436399       -11.8750
  48   2.0000      -0.430049       -11.7022
  49   2.0000      -0.402658       -10.9569
  50   2.0000      -0.399575       -10.8730
  51   2.0000      -0.393620       -10.7109
  52   2.0000      -0.377702       -10.2778
  53   2.0000      -0.372085       -10.1250
  54   2.0000      -0.364297        -9.9130
  55   2.0000      -0.358937        -9.7672
  56   2.0000      -0.328509        -8.9392
  57   2.0000      -0.318084        -8.6555
  58   2.0000      -0.309192        -8.4135
  59   2.0000      -0.283415        -7.7121
  60   0.0000       0.008606         0.2342
  61   0.0000       0.029896         0.8135
  62   0.0000       0.042288         1.1507
  63   0.0000       0.073947         2.0122
  64   0.0000       0.082136         2.2350

MULLIKEN ATOMIC CHARGES
-----------------------
   0 C :   -0.271414
   1 N :   -0.203770
   2 C :   -0.173578
   3 C :   -0.295358
   4 H :    0.110663
   5 H :    0.138214
   6 S :    0.874670
   7 C :    0.376243
   8 N :   -0.387391
   9 N :   -0.431997
  10 H :    0.261838
  11 H :    0.250758
  12 H :    0.295683
  13 H :    0.311730
  14 H :    0.238834
  15 O :   -0.508991
  16 O :   -0.502783
  17 C :   -0.139909
  18 H :    0.121982
  19 H :    0.177698
  20 C :   -0.236468
  21 H :    0.130851
  22 H :    0.095184
  23 C :   -0.247446
  24 H :    0.109115
  25 H :    0.115719
  26 O :   -0.677239
  27 H :    0.123503
  28 H :    0.112004
  29 H :    0.133274
  30 H :    0.098384
Sum of atomic charges:    0.0000000

LOEWDIN ATOMIC CHARGES
----------------------
   0 C :   -0.277032
   1 N :    0.174919
   2 C :   -0.286854
   3 C :   -0.387771
   4 H :    0.124442
   5 H :    0.137693
   6 S :    0.467283
   7 C :   -0.410937
   8 N :    0.057645
   9 N :    0.021111
  10 H :    0.183663
  11 H :    0.181269
  12 H :    0.184581
  13 H :    0.179048
  14 H :    0.178386
  15 O :   -0.338444
  16 O :   -0.336237
  17 C :   -0.268092
  18 H :    0.126727
  19 H :    0.147872
  20 C :   -0.272039
  21 H :    0.145943
  22 H :    0.135086
  23 C :   -0.269756
  24 H :    0.133780
  25 H :    0.142058
  26 O :   -0.423629
  27 H :    0.138040
  28 H :    0.138675
  29 H :    0.137416
  30 H :    0.135153

  Mayer bond orders larger than 0.100000
B(  0-C ,  1-N ) :   0.8967 B(  0-C , 17-C ) :   0.9001 B(  0-C , 18-H ) :   0.9954
B(  0-C , 19-H ) :   0.9746 B(  1-N ,  7-C ) :   1.4374 B(  1-N , 12-H ) :   0.8120
B(  2-C ,  3-C ) :   0.9345 B(  2-C , 20-C ) :   0.9699 B(  2-C , 21-H ) :   0.9699
B(  2-C , 22-H ) :   0.9680 B(  3-C ,  4-H ) :   0.9665 B(  3-C ,  5-H ) :   0.9646
B(  3-C ,  6-S ) :   0.9039 B(  6-S , 15-O ) :   1.9056 B(  6-S , 16-O ) :   1.8408
B(  6-S , 26-O ) :   1.3985 B(  7-C ,  8-N ) :   1.3938 B(  7-C ,  9-N ) :   1.2487
B(  8-N , 13-H ) :   0.8085 B(  8-N , 14-H ) :   0.9190 B(  9-N , 10-H ) :   0.9031
B(  9-N , 11-H ) :   0.9166 B( 12-H , 26-O ) :   0.1239 B( 13-H , 26-O ) :   0.1153
B( 17-C , 23-C ) :   0.9484 B( 17-C , 24-H ) :   0.9841 B( 17-C , 25-H ) :   0.9787
B( 20-C , 23-C ) :   0.9233 B( 20-C , 29-H ) :   0.9607 B( 20-C , 30-H ) :   0.9770
B( 23-C , 27-H ) :   0.9770 B( 23-C , 28-H ) :   0.9794

FINAL SINGLE POINT ENERGY     -1065.126772693336

DIPOLE MOMENT
-------------
                                X             Y             Z
Electronic contribution:      2.30593      -4.99380     -14.19785
Nuclear contribution   :      0.44641       3.59123      19.13564
                        -----------------------------------------
Total Dipole Moment    :      2.75234      -1.40257       4.93779
                        -----------------------------------------
Magnitude (a.u.)       :      5.82446
Magnitude (Debye)      :     14.80460

Rotational constants in cm-1:     0.029186     0.014646     0.011115
Rotational constants in MHz :   874.975540   439.070287   333.231642

                             ****ORCA TERMINATED NORMALLY****
TOTAL RUN TIME: 0 days 0 hours 1 minutes 14 seconds 882 msec
