                         Program Version 5.0.0 -  RELEASE  -
|  1> !CAM-B3LYP RIJCOSX def2-SVP def2/J TightSCF
|  2> *xyz 0 1
|  3> C          0.61188        1.65763       -4.50029
|  4> C          1.69499        1.54179       -5.57045
|  5> H          2.69733        1.73466       -5.18400
|  6> H          1.50666        2.27224       -6.35808
|  7> S          1.78029       -0.03313       -6.42874
|  8> F          2.56929        0.21366       -7.60736
|  9> O          0.41688       -0.46297       -6.61859
| 10> O          2.50513       -0.93326       -5.48257
| 11> H         -0.34424        1.45871       -4.93752
| 12> H          0.61845        2.64655       -4.09174
| 13> H          0.80247        0.94882       -3.72173
| 14> *
| 15> %MaxCore 64000
| 16>
| 17> %pal nprocs 4
| 18> end
| 19>
| 20> %scf
| 21>   MaxIter 150
| 22> end
| 23>
| 24>
| 25>                          ****END OF INPUT****

CARTESIAN COORDINATES (ANGSTROEM)
---------------------------------
  C      0.611880    1.657630   -4.500290
  C      1.694990    1.541790   -5.570450
  H      2.697330    1.734660   -5.184000
  H      1.506660    2.272240   -6.358080
  S      1.780290   -0.033130   -6.428740
  F      2.569290    0.213660   -7.607360
  O      0.416880   -0.462970   -6.618590
  O      2.505130   -0.933260   -5.482570
  H     -0.344240    1.458710   -4.937520
  H      0.618450    2.646550   -4.091740
  H      0.802470    0.948820   -3.721730

 Total Charge           Charge          ....    0
 Multiplicity           Mult            ....    1
 Number of Electrons    NEL             ....   58
 Basis Dimension        Dim             ....  113

ORBITAL ENERGIES
----------------

  NO   OCC          E(Eh)            E(eV)
   0   2.0000     -89.194770     -2427.1131
   1   2.0000     -24.878200      -676.9703
   2   2.0000     -19.210277      -522.7382
   3   2.0000     -19.187886      -522.1289
   4   2.0000     -10.317174      -280.7446
   5   2.0000     -10.278596      -279.6948
   6   2.0000      -8.257427      -224.6960
   7   2.0000      -6.230919      -169.5519
   8   2.0000      -6.224265      -169.3709
   9   2.0000      -6.223103      -169.3392
  10   2.0000      -1.454480       -39.5784
  11   2.0000      -1.178131       -32.0586
  12   2.0000      -1.064281       -28.9606
  13   2.0000      -0.899644       -24.4806
  14   2.0000      -0.808928       -22.0121
  15   2.0000      -0.749306       -20.3897
  16   2.0000      -0.659112       -17.9354
  17   2.0000      -0.658108       -17.9080
  18   2.0000      -0.620237       -16.8775
  19   2.0000      -0.564497       -15.3607
  20   2.0000      -0.546102       -14.8602
  21   2.0000      -0.499403       -13.5894
  22   2.0000      -0.496175       -13.5016
  23   2.0000      -0.474716       -12.9177
  24   2.0000      -0.453776       -12.3479
  25   2.0000      -0.441053       -12.0017
  26   2.0000      -0.389541       -10.6000
  27   2.0000      -0.369347       -10.0504
  28   2.0000      -0.354255        -9.6398
  29   0.0000       0.084835         2.3085
  30   0.0000       0.091626         2.4933
  31   0.0000       0.131341         3.5740
  32   0.0000       0.133654         3.6369
  33   0.0000       0.142256         3.8710

MULLIKEN ATOMIC CHARGES
-----------------------
   0 C :    0.032661
   1 C :   -0.123927
   2 H :    0.067756
   3 H :    0.047871
   4 S :    0.943740
   5 F :   -0.167628
   6 O :   -0.433394
   7 O :   -0.492558
   8 H :    0.045253
   9 H :    0.033563
  10 H :    0.046662
Sum of atomic charges:    0.0000000

LOEWDIN ATOMIC CHARGES
----------------------
   0 C :   -0.044838
   1 C :   -0.150978
   2 H :    0.038447
   3 H :    0.028096
   4 S :    1.168895
   5 F :   -0.116399
   6 O :   -0.484266
   7 O :   -0.545678
   8 H :    0.034551
   9 H :    0.036063
  10 H :    0.036108

  Mayer bond orders larger than 0.100000
B(  0-C ,  1-C ) :   1.0760 B(  0-C ,  8-H ) :   0.9681 B(  0-C ,  9-H ) :   0.9633
B(  0-C , 10-H ) :   0.9727 B(  1-C ,  2-H ) :   0.9346 B(  1-C ,  3-H ) :   0.9319
B(  1-C ,  4-S ) :   0.9252 B(  4-S ,  5-F ) :   1.0310 B(  4-S ,  6-O ) :   1.7873
B(  4-S ,  7-O ) :   1.7335

FINAL SINGLE POINT ENERGY      -727.108088221888

DIPOLE MOMENT
-------------
                                X             Y             Z
Electronic contribution:      3.88599      -5.65455      -7.59467
Nuclear contribution   :     -3.66946       7.33549       7.42434
                        -----------------------------------------
Total Dipole Moment    :      0.21652       1.68094      -0.17033
                        -----------------------------------------
Magnitude (a.u.)       :      1.70336
Magnitude (Debye)      :      4.32961

Rotational constants in cm-1:     0.158379     0.080294     0.077843
Rotational constants in MHz :  4748.076444  2407.152850  2333.668303

                             ****ORCA TERMINATED NORMALLY****
TOTAL RUN TIME: 0 days 0 hours 0 minutes 13 seconds 20 msec
