                         Program Version 5.0.0 -  RELEASE  -
|  1> !CAM-B3LYP RIJCOSX def2-SVP def2/J TightSCF
|  2> *xyz 0 1
|  3> C          1.96337       -1.74915       -1.89689
|  4> C          2.73849       -2.01517       -3.09711
|  5> C          4.04974       -2.15472       -3.15204
|  6> N          4.65821       -1.98629       -4.31866
|  7> N          4.76423       -2.45444       -2.05049
|  8> H          4.28736       -2.77626       -1.21750
|  9> H          5.75082       -2.65835       -2.12599
| 10> H          2.34518       -1.69027       -3.97145
| 11> H          4.10900       -1.59268       -5.07176
| 12> H          5.64910       -2.15646       -4.42724
| 13> C          2.08852       -0.30091       -1.41520
| 14> H          2.23127       -2.45162       -1.10264
| 15> H          0.93025       -1.97780       -2.15544
| 16> H          1.82118        0.36368       -2.21003
| 17> H          3.09792       -0.11068       -1.11551
| 18> H          1.43391       -0.14382       -0.58352
| 19> *
| 20> %MaxCore 64000
| 21>
| 22> %pal nprocs 4
| 23> end
| 24>
| 25> %scf
| 26>   MaxIter 150
| 27> end
| 28>
| 29>
| 30>                          ****END OF INPUT****

CARTESIAN COORDINATES (ANGSTROEM)
---------------------------------
  C      1.963370   -1.749150   -1.896890
  C      2.738490   -2.015170   -3.097110
  C      4.049740   -2.154720   -3.152040
  N      4.658210   -1.986290   -4.318660
  N      4.764230   -2.454440   -2.050490
  H      4.287360   -2.776260   -1.217500
  H      5.750820   -2.658350   -2.125990
  H      2.345180   -1.690270   -3.971450
  H      4.109000   -1.592680   -5.071760
  H      5.649100   -2.156460   -4.427240
  C      2.088520   -0.300910   -1.415200
  H      2.231270   -2.451620   -1.102640
  H      0.930250   -1.977800   -2.155440
  H      1.821180    0.363680   -2.210030
  H      3.097920   -0.110680   -1.115510
  H      1.433910   -0.143820   -0.583520

 Total Charge           Charge          ....    0
 Multiplicity           Mult            ....    1
 Number of Electrons    NEL             ....   48
 Basis Dimension        Dim             ....  134

ORBITAL ENERGIES
----------------

  NO   OCC          E(Eh)            E(eV)
   0   2.0000     -14.396216      -391.7409
   1   2.0000     -14.393419      -391.6649
   2   2.0000     -10.294914      -280.1388
   3   2.0000     -10.225192      -278.2416
   4   2.0000     -10.217838      -278.0415
   5   2.0000     -10.165120      -276.6070
   6   2.0000      -1.025247       -27.8984
   7   2.0000      -0.933627       -25.4053
   8   2.0000      -0.840241       -22.8641
   9   2.0000      -0.758800       -20.6480
  10   2.0000      -0.680923       -18.5289
  11   2.0000      -0.643037       -17.4979
  12   2.0000      -0.605517       -16.4770
  13   2.0000      -0.571826       -15.5602
  14   2.0000      -0.533787       -14.5251
  15   2.0000      -0.500484       -13.6189
  16   2.0000      -0.481941       -13.1143
  17   2.0000      -0.446284       -12.1440
  18   2.0000      -0.440150       -11.9771
  19   2.0000      -0.414326       -11.2744
  20   2.0000      -0.385204       -10.4819
  21   2.0000      -0.374761       -10.1978
  22   2.0000      -0.321119        -8.7381
  23   2.0000      -0.204845        -5.5741
  24   0.0000       0.086419         2.3516
  25   0.0000       0.119069         3.2400
  26   0.0000       0.130250         3.5443
  27   0.0000       0.152063         4.1379
  28   0.0000       0.155022         4.2184

MULLIKEN ATOMIC CHARGES
-----------------------
   0 C :    0.053640
   1 C :   -0.149991
   2 C :   -0.083091
   3 N :   -0.043620
   4 N :   -0.074468
   5 H :    0.117086
   6 H :    0.098322
   7 H :   -0.116304
   8 H :    0.119994
   9 H :    0.097602
  10 C :    0.067138
  11 H :   -0.034570
  12 H :   -0.019107
  13 H :   -0.011247
  14 H :   -0.007979
  15 H :   -0.013405
Sum of atomic charges:    0.0000000

LOEWDIN ATOMIC CHARGES
----------------------
   0 C :   -0.038238
   1 C :   -0.230254
   2 C :    0.034696
   3 N :   -0.023229
   4 N :   -0.032827
   5 H :    0.079047
   6 H :    0.064622
   7 H :   -0.014525
   8 H :    0.083403
   9 H :    0.065035
  10 C :   -0.053782
  11 H :    0.005744
  12 H :    0.020953
  13 H :    0.015537
  14 H :    0.013616
  15 H :    0.010202

  Mayer bond orders larger than 0.100000
B(  0-C ,  1-C ) :   1.0811 B(  0-C , 10-C ) :   1.0862 B(  0-C , 11-H ) :   0.9357
B(  0-C , 12-H ) :   0.9236 B(  1-C ,  2-C ) :   1.7093 B(  1-C ,  7-H ) :   0.9199
B(  2-C ,  3-N ) :   1.2473 B(  2-C ,  4-N ) :   1.2451 B(  3-N ,  8-H ) :   0.9360
B(  3-N ,  9-H ) :   0.9498 B(  4-N ,  5-H ) :   0.9435 B(  4-N ,  6-H ) :   0.9498
B( 10-C , 13-H ) :   0.9673 B( 10-C , 14-H ) :   0.9720 B( 10-C , 15-H ) :   0.9642

FINAL SINGLE POINT ENERGY      -267.563346988748

DIPOLE MOMENT
-------------
                                X             Y             Z
Electronic contribution:      3.48264      -2.48373      -2.55595
Nuclear contribution   :     -2.31778       2.31977       2.35294
                        -----------------------------------------
Total Dipole Moment    :      1.16486      -0.16396      -0.20301
                        -----------------------------------------
Magnitude (a.u.)       :      1.19373
Magnitude (Debye)      :      3.03423

Rotational constants in cm-1:     0.219415     0.075373     0.066689
Rotational constants in MHz :  6577.897266  2259.621393  1999.290981

                             ****ORCA TERMINATED NORMALLY****
TOTAL RUN TIME: 0 days 0 hours 0 minutes 18 seconds 821 msec
