                         Program Version 5.0.0 -  RELEASE  -
|  1> !CAM-B3LYP RIJCOSX def2-SVP def2/J TightSCF
|  2> *xyz 0 1
|  3> C          0.61188        1.65763       -4.50029
|  4> C          1.69499        1.54179       -5.57045
|  5> H          2.69733        1.73466       -5.18400
|  6> H          1.50666        2.27224       -6.35808
|  7> S          1.78029       -0.03313       -6.42874
|  8> O          2.56929        0.21366       -7.60736
|  9> F          0.41688       -0.46297       -6.61859
| 10> O          2.50513       -0.93326       -5.48257
| 11> H         -0.34424        1.45871       -4.93752
| 12> H          0.61845        2.64655       -4.09174
| 13> H          0.80247        0.94882       -3.72173
| 14> *
| 15> %MaxCore 64000
| 16>
| 17> %pal nprocs 4
| 18> end
| 19>
| 20> %scf
| 21>   MaxIter 150
| 22> end
| 23>
| 24>
| 25>                          ****END OF INPUT****

CARTESIAN COORDINATES (ANGSTROEM)
---------------------------------
  C      0.611880    1.657630   -4.500290
  C      1.694990    1.541790   -5.570450
  H      2.697330    1.734660   -5.184000
  H      1.506660    2.272240   -6.358080
  S      1.780290   -0.033130   -6.428740
  O      2.569290    0.213660   -7.607360
  F      0.416880   -0.462970   -6.618590
  O      2.505130   -0.933260   -5.482570
  H     -0.344240    1.458710   -4.937520
  H      0.618450    2.646550   -4.091740
  H      0.802470    0.948820   -3.721730

 Total Charge           Charge          ....    0
 Multiplicity           Mult            ....    1
 Number of Electrons    NEL             ....   58
 Basis Dimension        Dim             ....  113

ORBITAL ENERGIES
----------------

  NO   OCC          E(Eh)            E(eV)
   0   2.0000     -89.194212     -2427.0979
   1   2.0000     -24.878043      -676.9660
   2   2.0000     -19.209327      -522.7124
   3   2.0000     -19.188077      -522.1341
   4   2.0000     -10.316791      -280.7341
   5   2.0000     -10.284777      -279.8630
   6   2.0000      -8.256915      -224.6821
   7   2.0000      -6.230555      -169.5420
   8   2.0000      -6.223661      -169.3544
   9   2.0000      -6.222542      -169.3240
  10   2.0000      -1.452913       -39.5358
  11   2.0000      -1.178942       -32.0806
  12   2.0000      -1.063961       -28.9519
  13   2.0000      -0.903841       -24.5948
  14   2.0000      -0.804662       -21.8960
  15   2.0000      -0.754750       -20.5378
  16   2.0000      -0.671070       -18.2608
  17   2.0000      -0.656444       -17.8627
  18   2.0000      -0.609410       -16.5829
  19   2.0000      -0.565409       -15.3856
  20   2.0000      -0.542377       -14.7588
  21   2.0000      -0.515832       -14.0365
  22   2.0000      -0.496150       -13.5009
  23   2.0000      -0.478675       -13.0254
  24   2.0000      -0.460301       -12.5254
  25   2.0000      -0.439510       -11.9597
  26   2.0000      -0.388560       -10.5733
  27   2.0000      -0.369408       -10.0521
  28   2.0000      -0.354278        -9.6404
  29   0.0000       0.069912         1.9024
  30   0.0000       0.105261         2.8643
  31   0.0000       0.132591         3.6080
  32   0.0000       0.135613         3.6902
  33   0.0000       0.141861         3.8602

MULLIKEN ATOMIC CHARGES
-----------------------
   0 C :    0.013105
   1 C :   -0.125117
   2 H :    0.092051
   3 H :    0.060140
   4 S :    0.942266
   5 O :   -0.427977
   6 F :   -0.170960
   7 O :   -0.491804
   8 H :    0.024625
   9 H :    0.038731
  10 H :    0.044941
Sum of atomic charges:    0.0000000

LOEWDIN ATOMIC CHARGES
----------------------
   0 C :   -0.060382
   1 C :   -0.146708
   2 H :    0.054076
   3 H :    0.033713
   4 S :    1.169220
   5 O :   -0.481497
   6 F :   -0.118522
   7 O :   -0.545279
   8 H :    0.024689
   9 H :    0.037730
  10 H :    0.032960

  Mayer bond orders larger than 0.100000
B(  0-C ,  1-C ) :   1.0529 B(  0-C ,  8-H ) :   0.9734 B(  0-C ,  9-H ) :   0.9629
B(  0-C , 10-H ) :   0.9716 B(  1-C ,  2-H ) :   0.9383 B(  1-C ,  3-H ) :   0.9370
B(  1-C ,  4-S ) :   0.9298 B(  4-S ,  5-O ) :   1.7947 B(  4-S ,  6-F ) :   1.0235
B(  4-S ,  7-O ) :   1.7330

FINAL SINGLE POINT ENERGY      -727.107928251766

DIPOLE MOMENT
-------------
                                X             Y             Z
Electronic contribution:      0.23103      -6.79509      -5.88582
Nuclear contribution   :     -1.42658       8.04056       6.39401
                        -----------------------------------------
Total Dipole Moment    :     -1.19555       1.24547       0.50819
                        -----------------------------------------
Magnitude (a.u.)       :      1.79966
Magnitude (Debye)      :      4.57438

Rotational constants in cm-1:     0.153659     0.082363     0.078978
Rotational constants in MHz :  4606.587369  2469.179541  2367.702074

                             ****ORCA TERMINATED NORMALLY****
TOTAL RUN TIME: 0 days 0 hours 0 minutes 13 seconds 40 msec
