                         Program Version 5.0.0 -  RELEASE  -
|  1> !CAM-B3LYP RIJCOSX def2-SVP def2/J TightSCF
|  2> *xyz 0 1
|  3> C          1.96337       -1.74915       -1.89689
|  4> N          2.73849       -2.01517       -3.09711
|  5> C          4.04974       -2.15472       -3.15204
|  6> C          4.65821       -1.98629       -4.31866
|  7> N          4.76423       -2.45444       -2.05049
|  8> H          4.28736       -2.77626       -1.21750
|  9> H          5.75082       -2.65835       -2.12599
| 10> H          2.34518       -1.69027       -3.97145
| 11> H          4.10900       -1.59268       -5.07176
| 12> H          5.64910       -2.15646       -4.42724
| 13> C          2.08852       -0.30091       -1.41520
| 14> H          2.23127       -2.45162       -1.10264
| 15> H          0.93025       -1.97780       -2.15544
| 16> H          1.82118        0.36368       -2.21003
| 17> H          3.09792       -0.11068       -1.11551
| 18> H          1.43391       -0.14382       -0.58352
| 19> *
| 20> %MaxCore 64000
| 21>
| 22> %pal nprocs 4
| 23> end
| 24>
| 25> %scf
| 26>   MaxIter 150
| 27> end
| 28>
| 29>
| 30>                          ****END OF INPUT****

CARTESIAN COORDINATES (ANGSTROEM)
---------------------------------
  C      1.963370   -1.749150   -1.896890
  N      2.738490   -2.015170   -3.097110
  C      4.049740   -2.154720   -3.152040
  C      4.658210   -1.986290   -4.318660
  N      4.764230   -2.454440   -2.050490
  H      4.287360   -2.776260   -1.217500
  H      5.750820   -2.658350   -2.125990
  H      2.345180   -1.690270   -3.971450
  H      4.109000   -1.592680   -5.071760
  H      5.649100   -2.156460   -4.427240
  C      2.088520   -0.300910   -1.415200
  H      2.231270   -2.451620   -1.102640
  H      0.930250   -1.977800   -2.155440
  H      1.821180    0.363680   -2.210030
  H      3.097920   -0.110680   -1.115510
  H      1.433910   -0.143820   -0.583520

 Total Charge           Charge          ....    0
 Multiplicity           Mult            ....    1
 Number of Electrons    NEL             ....   48
 Basis Dimension        Dim             ....  134

ORBITAL ENERGIES
----------------

  NO   OCC          E(Eh)            E(eV)
   0   2.0000     -14.395132      -391.7114
   1   2.0000     -14.392863      -391.6497
   2   2.0000     -10.296573      -280.1840
   3   2.0000     -10.295346      -280.1506
   4   2.0000     -10.246141      -278.8117
   5   2.0000     -10.163010      -276.5496
   6   2.0000      -1.036040       -28.1921
   7   2.0000      -0.948149       -25.8005
   8   2.0000      -0.841368       -22.8948
   9   2.0000      -0.768351       -20.9079
  10   2.0000      -0.697166       -18.9708
  11   2.0000      -0.663694       -18.0600
  12   2.0000      -0.600036       -16.3278
  13   2.0000      -0.560406       -15.2494
  14   2.0000      -0.542644       -14.7661
  15   2.0000      -0.502077       -13.6622
  16   2.0000      -0.497387       -13.5346
  17   2.0000      -0.464424       -12.6376
  18   2.0000      -0.443484       -12.0678
  19   2.0000      -0.435979       -11.8636
  20   2.0000      -0.421229       -11.4622
  21   2.0000      -0.418319       -11.3830
  22   2.0000      -0.309884        -8.4324
  23   2.0000      -0.211454        -5.7540
  24   0.0000       0.085670         2.3312
  25   0.0000       0.114707         3.1213
  26   0.0000       0.128752         3.5035
  27   0.0000       0.146246         3.9796
  28   0.0000       0.154990         4.2175

MULLIKEN ATOMIC CHARGES
-----------------------
   0 C :    0.056039
   1 N :   -0.112118
   2 C :   -0.058361
   3 C :   -0.057050
   4 N :   -0.085265
   5 H :    0.099034
   6 H :    0.118709
   7 H :    0.114480
   8 H :   -0.076571
   9 H :   -0.075909
  10 C :    0.039539
  11 H :    0.004125
  12 H :    0.007582
  13 H :    0.006614
  14 H :    0.015360
  15 H :    0.003793
Sum of atomic charges:   -0.0000000

LOEWDIN ATOMIC CHARGES
----------------------
   0 C :    0.028668
   1 N :   -0.027363
   2 C :    0.041364
   3 C :   -0.255566
   4 N :   -0.031880
   5 H :    0.062837
   6 H :    0.082549
   7 H :    0.082801
   8 H :   -0.011742
   9 H :   -0.011271
  10 C :   -0.063513
  11 H :    0.015130
  12 H :    0.022902
  13 H :    0.021157
  14 H :    0.022935
  15 H :    0.020991

  Mayer bond orders larger than 0.100000
B(  0-C ,  1-N ) :   1.0275 B(  0-C , 10-C ) :   1.0796 B(  0-C , 11-H ) :   0.9546
B(  0-C , 12-H ) :   0.9566 B(  1-N ,  2-C ) :   1.2106 B(  1-N ,  7-H ) :   0.9244
B(  2-C ,  3-C ) :   1.7651 B(  2-C ,  4-N ) :   1.2154 B(  3-C ,  8-H ) :   0.9218
B(  3-C ,  9-H ) :   0.9368 B(  4-N ,  5-H ) :   0.9513 B(  4-N ,  6-H ) :   0.9453
B( 10-C , 13-H ) :   0.9687 B( 10-C , 14-H ) :   0.9668 B( 10-C , 15-H ) :   0.9628

FINAL SINGLE POINT ENERGY      -267.560973539123

DIPOLE MOMENT
-------------
                                X             Y             Z
Electronic contribution:      1.42796      -2.38497      -1.16545
Nuclear contribution   :     -1.91052       2.32590       2.09379
                        -----------------------------------------
Total Dipole Moment    :     -0.48256      -0.05908       0.92834
                        -----------------------------------------
Magnitude (a.u.)       :      1.04794
Magnitude (Debye)      :      2.66365

Rotational constants in cm-1:     0.219448     0.077923     0.068804
Rotational constants in MHz :  6578.886179  2336.083179  2062.700476

                             ****ORCA TERMINATED NORMALLY****
TOTAL RUN TIME: 0 days 0 hours 0 minutes 19 seconds 90 msec
