                         Program Version 5.0.0 -  RELEASE  -
|  1> !CAM-B3LYP RIJCOSX def2-SVP def2/J TightSCF
|  2> *xyz 0 1
|  3> C          0.61188        1.65763       -4.50029
|  4> C          1.69499        1.54179       -5.57045
|  5> H          2.69733        1.73466       -5.18400
|  6> H          1.50666        2.27224       -6.35808
|  7> S          1.78029       -0.03313       -6.42874
|  8> O          2.56929        0.21366       -7.60736
|  9> O          0.41688       -0.46297       -6.61859
| 10> F          2.50513       -0.93326       -5.48257
| 11> H         -0.34424        1.45871       -4.93752
| 12> H          0.61845        2.64655       -4.09174
| 13> H          0.80247        0.94882       -3.72173
| 14> *
| 15> %MaxCore 64000
| 16>
| 17> %pal nprocs 4
| 18> end
| 19>
| 20> %scf
| 21>   MaxIter 150
| 22> end
| 23>
| 24>
| 25>                          ****END OF INPUT****

CARTESIAN COORDINATES (ANGSTROEM)
---------------------------------
  C      0.611880    1.657630   -4.500290
  C      1.694990    1.541790   -5.570450
  H      2.697330    1.734660   -5.184000
  H      1.506660    2.272240   -6.358080
  S      1.780290   -0.033130   -6.428740
  O      2.569290    0.213660   -7.607360
  O      0.416880   -0.462970   -6.618590
  F      2.505130   -0.933260   -5.482570
  H     -0.344240    1.458710   -4.937520
  H      0.618450    2.646550   -4.091740
  H      0.802470    0.948820   -3.721730

 Total Charge           Charge          ....    0
 Multiplicity           Mult            ....    1
 Number of Electrons    NEL             ....   58
 Basis Dimension        Dim             ....  113

ORBITAL ENERGIES
----------------

  NO   OCC          E(Eh)            E(eV)
   0   2.0000     -89.193601     -2427.0813
   1   2.0000     -24.849312      -676.1842
   2   2.0000     -19.211165      -522.7624
   3   2.0000     -19.209484      -522.7166
   4   2.0000     -10.315892      -280.7097
   5   2.0000     -10.279543      -279.7206
   6   2.0000      -8.255916      -224.6549
   7   2.0000      -6.229203      -169.5052
   8   2.0000      -6.223076      -169.3385
   9   2.0000      -6.221871      -169.3057
  10   2.0000      -1.407506       -38.3002
  11   2.0000      -1.191419       -32.4201
  12   2.0000      -1.094817       -29.7915
  13   2.0000      -0.900389       -24.5008
  14   2.0000      -0.790735       -21.5170
  15   2.0000      -0.740106       -20.1393
  16   2.0000      -0.645687       -17.5700
  17   2.0000      -0.624298       -16.9880
  18   2.0000      -0.610952       -16.6249
  19   2.0000      -0.562002       -15.2929
  20   2.0000      -0.545140       -14.8340
  21   2.0000      -0.518774       -14.1166
  22   2.0000      -0.497052       -13.5255
  23   2.0000      -0.471033       -12.8174
  24   2.0000      -0.466231       -12.6868
  25   2.0000      -0.443545       -12.0695
  26   2.0000      -0.397536       -10.8175
  27   2.0000      -0.389324       -10.5941
  28   2.0000      -0.377203       -10.2642
  29   0.0000       0.077097         2.0979
  30   0.0000       0.104209         2.8357
  31   0.0000       0.132303         3.6001
  32   0.0000       0.138269         3.7625
  33   0.0000       0.141598         3.8531

MULLIKEN ATOMIC CHARGES
-----------------------
   0 C :    0.024455
   1 C :   -0.136536
   2 H :    0.061566
   3 H :    0.083461
   4 S :    0.956330
   5 O :   -0.436455
   6 O :   -0.439139
   7 F :   -0.222984
   8 H :    0.049480
   9 H :    0.032604
  10 H :    0.027218
Sum of atomic charges:   -0.0000000

LOEWDIN ATOMIC CHARGES
----------------------
   0 C :   -0.056627
   1 C :   -0.152506
   2 H :    0.034813
   3 H :    0.049551
   4 S :    1.176932
   5 O :   -0.488068
   6 O :   -0.488208
   7 F :   -0.173338
   8 H :    0.034698
   9 H :    0.035223
  10 H :    0.027531

  Mayer bond orders larger than 0.100000
B(  0-C ,  1-C ) :   1.0558 B(  0-C ,  8-H ) :   0.9685 B(  0-C ,  9-H ) :   0.9619
B(  0-C , 10-H ) :   0.9745 B(  1-C ,  2-H ) :   0.9371 B(  1-C ,  3-H ) :   0.9389
B(  1-C ,  4-S ) :   0.9234 B(  4-S ,  5-O ) :   1.8005 B(  4-S ,  6-O ) :   1.7935
B(  4-S ,  7-F ) :   0.9689

FINAL SINGLE POINT ENERGY      -727.133921583647

DIPOLE MOMENT
-------------
                                X             Y             Z
Electronic contribution:      3.79592      -7.62661      -3.94926
Nuclear contribution   :     -3.60260       8.53062       5.21025
                        -----------------------------------------
Total Dipole Moment    :      0.19331       0.90401       1.26099
                        -----------------------------------------
Magnitude (a.u.)       :      1.56355
Magnitude (Debye)      :      3.97423

Rotational constants in cm-1:     0.154011     0.080858     0.079602
Rotational constants in MHz :  4617.134198  2424.070332  2386.404775

                             ****ORCA TERMINATED NORMALLY****
TOTAL RUN TIME: 0 days 0 hours 0 minutes 13 seconds 157 msec
