                         Program Version 5.0.0 -  RELEASE  -
|  1> !CAM-B3LYP RIJCOSX def2-SVP def2/J TightSCF
|  2> *xyz 0 1
|  3> C          1.96337       -1.74915       -1.89689
|  4> N          2.73849       -2.01517       -3.09711
|  5> C          4.04974       -2.15472       -3.15204
|  6> N          4.65821       -1.98629       -4.31866
|  7> C          4.76423       -2.45444       -2.05049
|  8> H          4.28736       -2.77626       -1.21750
|  9> H          5.75082       -2.65835       -2.12599
| 10> H          2.34518       -1.69027       -3.97145
| 11> H          4.10900       -1.59268       -5.07176
| 12> H          5.64910       -2.15646       -4.42724
| 13> C          2.08852       -0.30091       -1.41520
| 14> H          2.23127       -2.45162       -1.10264
| 15> H          0.93025       -1.97780       -2.15544
| 16> H          1.82118        0.36368       -2.21003
| 17> H          3.09792       -0.11068       -1.11551
| 18> H          1.43391       -0.14382       -0.58352
| 19> *
| 20> %MaxCore 64000
| 21>
| 22> %pal nprocs 4
| 23> end
| 24>
| 25> %scf
| 26>   MaxIter 150
| 27> end
| 28>
| 29>
| 30>                          ****END OF INPUT****

CARTESIAN COORDINATES (ANGSTROEM)
---------------------------------
  C      1.963370   -1.749150   -1.896890
  N      2.738490   -2.015170   -3.097110
  C      4.049740   -2.154720   -3.152040
  N      4.658210   -1.986290   -4.318660
  C      4.764230   -2.454440   -2.050490
  H      4.287360   -2.776260   -1.217500
  H      5.750820   -2.658350   -2.125990
  H      2.345180   -1.690270   -3.971450
  H      4.109000   -1.592680   -5.071760
  H      5.649100   -2.156460   -4.427240
  C      2.088520   -0.300910   -1.415200
  H      2.231270   -2.451620   -1.102640
  H      0.930250   -1.977800   -2.155440
  H      1.821180    0.363680   -2.210030
  H      3.097920   -0.110680   -1.115510
  H      1.433910   -0.143820   -0.583520

 Total Charge           Charge          ....    0
 Multiplicity           Mult            ....    1
 Number of Electrons    NEL             ....   48
 Basis Dimension        Dim             ....  134

ORBITAL ENERGIES
----------------

  NO   OCC          E(Eh)            E(eV)
   0   2.0000     -14.397382      -391.7727
   1   2.0000     -14.397018      -391.7628
   2   2.0000     -10.298609      -280.2394
   3   2.0000     -10.287578      -279.9392
   4   2.0000     -10.238474      -278.6030
   5   2.0000     -10.161232      -276.5012
   6   2.0000      -1.041667       -28.3452
   7   2.0000      -0.952516       -25.9193
   8   2.0000      -0.823518       -22.4091
   9   2.0000      -0.772095       -21.0098
  10   2.0000      -0.710582       -19.3359
  11   2.0000      -0.626035       -17.0353
  12   2.0000      -0.611611       -16.6428
  13   2.0000      -0.587275       -15.9806
  14   2.0000      -0.532196       -14.4818
  15   2.0000      -0.504325       -13.7234
  16   2.0000      -0.481110       -13.0917
  17   2.0000      -0.459535       -12.5046
  18   2.0000      -0.441413       -12.0115
  19   2.0000      -0.426760       -11.6127
  20   2.0000      -0.423933       -11.5358
  21   2.0000      -0.407671       -11.0933
  22   2.0000      -0.307694        -8.3728
  23   2.0000      -0.211130        -5.7451
  24   0.0000       0.084572         2.3013
  25   0.0000       0.116690         3.1753
  26   0.0000       0.133969         3.6455
  27   0.0000       0.145181         3.9506
  28   0.0000       0.160632         4.3710

MULLIKEN ATOMIC CHARGES
-----------------------
   0 C :    0.082524
   1 N :   -0.129441
   2 C :   -0.053819
   3 N :   -0.062948
   4 C :   -0.084067
   5 H :   -0.064549
   6 H :   -0.080129
   7 H :    0.089307
   8 H :    0.095433
   9 H :    0.124403
  10 C :    0.033956
  11 H :    0.027662
  12 H :    0.000227
  13 H :   -0.008510
  14 H :    0.025906
  15 H :    0.004043
Sum of atomic charges:    0.0000000

LOEWDIN ATOMIC CHARGES
----------------------
   0 C :    0.042436
   1 N :   -0.026245
   2 C :    0.039709
   3 N :   -0.020479
   4 C :   -0.271119
   5 H :   -0.010509
   6 H :   -0.013195
   7 H :    0.061460
   8 H :    0.062724
   9 H :    0.085361
  10 C :   -0.061620
  11 H :    0.028238
  12 H :    0.019103
  13 H :    0.014547
  14 H :    0.027898
  15 H :    0.021691

  Mayer bond orders larger than 0.100000
B(  0-C ,  1-N ) :   1.0122 B(  0-C , 10-C ) :   1.0992 B(  0-C , 11-H ) :   0.9486
B(  0-C , 12-H ) :   0.9583 B(  1-N ,  2-C ) :   1.1918 B(  1-N ,  7-H ) :   0.9358
B(  2-C ,  3-N ) :   1.2371 B(  2-C ,  4-C ) :   1.7588 B(  3-N ,  8-H ) :   0.9506
B(  3-N ,  9-H ) :   0.9431 B(  4-C ,  5-H ) :   0.9312 B(  4-C ,  6-H ) :   0.9333
B( 10-C , 13-H ) :   0.9675 B( 10-C , 14-H ) :   0.9650 B( 10-C , 15-H ) :   0.9646

FINAL SINGLE POINT ENERGY      -267.559366190095

DIPOLE MOMENT
-------------
                                X             Y             Z
Electronic contribution:      1.34275      -1.81445      -3.55855
Nuclear contribution   :     -1.88803       2.22658       2.57497
                        -----------------------------------------
Total Dipole Moment    :     -0.54528       0.41213      -0.98357
                        -----------------------------------------
Magnitude (a.u.)       :      1.19775
Magnitude (Debye)      :      3.04444

Rotational constants in cm-1:     0.226509     0.075782     0.067928
Rotational constants in MHz :  6790.555051  2271.890226  2036.439218

                             ****ORCA TERMINATED NORMALLY****
TOTAL RUN TIME: 0 days 0 hours 0 minutes 18 seconds 621 msec
