                         Program Version 5.0.0 -  RELEASE  -
|  1> !CAM-B3LYP RIJCOSX def2-TZVP def2/J TightSCF xyzfile
|  2>
|  3> *xyzfile 0 1 D1.xyz
|  4>
|  5> %MaxCore 64000
|  6>
|  7> %pal nprocs 18
|  8> end
|  9>
| 10> %scf
| 11>   MaxIter 150
| 12> end
| 13>
| 14>
| 15>                          ****END OF INPUT****

CARTESIAN COORDINATES (ANGSTROEM)
---------------------------------
  C      1.963365   -1.749150   -1.896887
  C      2.738490   -2.015170   -3.097113
  C      0.611877    1.657634   -4.500288
  C      1.694991    1.541794   -5.570447
  H      2.697326    1.734659   -5.183996
  H      1.506656    2.272239   -6.358076
  S      1.780287   -0.033128   -6.428739
  C      4.049736   -2.154717   -3.152044
  N      4.658206   -1.986293   -4.318655
  N      4.764231   -2.454435   -2.050491
  H      4.287363   -2.776259   -1.217496
  H      5.750825   -2.658351   -2.125988
  H      2.345176   -1.690274   -3.971447
  H      4.109004   -1.592677   -5.071760
  H      5.649095   -2.156462   -4.427237
  F      2.569287    0.213657   -7.607360
  O      0.416880   -0.462969   -6.618595
  C      2.088520   -0.300912   -1.415204
  H      2.231272   -2.451616   -1.102643
  H      0.930249   -1.977801   -2.155438
  C      0.680356    0.655418   -3.348038
  H     -0.356865    1.549231   -4.991128
  H      0.650228    2.675438   -4.096000
  C      1.968993    0.733582   -2.535654
  H      3.051356   -0.168602   -0.911868
  H      1.316501   -0.136231   -0.657252
  O      2.505129   -0.933263   -5.482570
  H      2.824195    0.624726   -3.208464
  H      2.058919    1.730331   -2.093112
  H      0.542252   -0.344731   -3.766662
  H     -0.174219    0.829692   -2.685182

 Total Charge           Charge          ....    0
 Multiplicity           Mult            ....    1
 Number of Electrons    NEL             ....  120
 Basis Dimension        Dim             ....  542

ORBITAL ENERGIES
----------------

  NO   OCC          E(Eh)            E(eV)
   0   2.0000     -89.188208     -2426.9345
   1   2.0000     -24.889550      -677.2791
   2   2.0000     -19.222452      -523.0695
   3   2.0000     -19.208422      -522.6877
   4   2.0000     -14.368887      -390.9973
   5   2.0000     -14.353264      -390.5722
   6   2.0000     -10.307564      -280.4831
   7   2.0000     -10.267022      -279.3799
   8   2.0000     -10.262741      -279.2634
   9   2.0000     -10.234870      -278.5050
  10   2.0000     -10.223209      -278.1877
  11   2.0000     -10.212591      -277.8987
  12   2.0000     -10.200254      -277.5630
  13   2.0000     -10.125470      -275.5281
  14   2.0000      -8.232529      -224.0185
  15   2.0000      -6.200315      -168.7192
  16   2.0000      -6.193757      -168.5407
  17   2.0000      -6.193600      -168.5364
  18   2.0000      -1.480613       -40.2895
  19   2.0000      -1.199473       -32.6393
  20   2.0000      -1.099623       -29.9223
  21   2.0000      -1.019008       -27.7286
  22   2.0000      -0.928691       -25.2710
  23   2.0000      -0.919786       -25.0287
  24   2.0000      -0.873338       -23.7647
  25   2.0000      -0.835598       -22.7378
  26   2.0000      -0.804819       -21.9002
  27   2.0000      -0.769905       -20.9502
  28   2.0000      -0.730411       -19.8755
  29   2.0000      -0.696472       -18.9520
  30   2.0000      -0.679889       -18.5007
  31   2.0000      -0.663806       -18.0631
  32   2.0000      -0.661685       -18.0054
  33   2.0000      -0.624980       -17.0066
  34   2.0000      -0.621087       -16.9006
  35   2.0000      -0.594761       -16.1843
  36   2.0000      -0.569537       -15.4979
  37   2.0000      -0.564202       -15.3527
  38   2.0000      -0.555799       -15.1241
  39   2.0000      -0.535622       -14.5750
  40   2.0000      -0.532999       -14.5036
  41   2.0000      -0.511725       -13.9248
  42   2.0000      -0.501710       -13.6522
  43   2.0000      -0.492999       -13.4152
  44   2.0000      -0.481005       -13.0888
  45   2.0000      -0.468094       -12.7375
  46   2.0000      -0.449449       -12.2301
  47   2.0000      -0.443803       -12.0765
  48   2.0000      -0.435112       -11.8400
  49   2.0000      -0.426898       -11.6165
  50   2.0000      -0.416040       -11.3210
  51   2.0000      -0.399228       -10.8635
  52   2.0000      -0.394187       -10.7264
  53   2.0000      -0.388044       -10.5592
  54   2.0000      -0.386142       -10.5074
  55   2.0000      -0.374337       -10.1862
  56   2.0000      -0.360480        -9.8092
  57   2.0000      -0.346072        -9.4171
  58   2.0000      -0.307252        -8.3607
  59   2.0000      -0.191731        -5.2173
  60   0.0000       0.056987         1.5507
  61   0.0000       0.066303         1.8042
  62   0.0000       0.072892         1.9835
  63   0.0000       0.091399         2.4871
  64   0.0000       0.094819         2.5802

MULLIKEN ATOMIC CHARGES
-----------------------
   0 C :   -0.323517
   1 C :   -0.281037
   2 C :   -0.188752
   3 C :   -0.298836
   4 H :    0.165914
   5 H :    0.154812
   6 S :    0.872251
   7 C :    0.263752
   8 N :   -0.455502
   9 N :   -0.471100
  10 H :    0.232266
  11 H :    0.204780
  12 H :    0.149671
  13 H :    0.239197
  14 H :    0.196923
  15 F :   -0.101530
  16 O :   -0.394259
  17 C :   -0.131788
  18 H :    0.081020
  19 H :    0.110177
  20 C :   -0.272832
  21 H :    0.140040
  22 H :    0.122516
  23 C :   -0.187973
  24 H :    0.091983
  25 H :    0.081196
  26 O :   -0.475427
  27 H :    0.122284
  28 H :    0.093637
  29 H :    0.153513
  30 H :    0.106622
Sum of atomic charges:   -0.0000000

LOEWDIN ATOMIC CHARGES
----------------------
   0 C :   -0.293490
   1 C :   -0.289634
   2 C :   -0.275962
   3 C :   -0.368659
   4 H :    0.142827
   5 H :    0.139041
   6 S :    0.567059
   7 C :   -0.458073
   8 N :   -0.024212
   9 N :   -0.029633
  10 H :    0.171346
  11 H :    0.155889
  12 H :    0.118961
  13 H :    0.160865
  14 H :    0.152797
  15 F :    0.100824
  16 O :   -0.252488
  17 C :   -0.260425
  18 H :    0.125647
  19 H :    0.138844
  20 C :   -0.264164
  21 H :    0.146272
  22 H :    0.146887
  23 C :   -0.269268
  24 H :    0.133339
  25 H :    0.127040
  26 O :   -0.295489
  27 H :    0.138519
  28 H :    0.130527
  29 H :    0.145305
  30 H :    0.139508

  Mayer bond orders larger than 0.100000
B(  0-C ,  1-C ) :   0.9680 B(  0-C , 17-C ) :   0.9117 B(  0-C , 18-H ) :   0.9980
B(  0-C , 19-H ) :   1.0055 B(  1-C ,  7-C ) :   1.6604 B(  1-C , 12-H ) :   1.0194
B(  2-C ,  3-C ) :   0.9410 B(  2-C , 20-C ) :   0.9565 B(  2-C , 21-H ) :   0.9762
B(  2-C , 22-H ) :   0.9612 B(  3-C ,  4-H ) :   0.9431 B(  3-C ,  5-H ) :   0.9468
B(  3-C ,  6-S ) :   0.9242 B(  6-S , 15-F ) :   1.1533 B(  6-S , 16-O ) :   1.9448
B(  6-S , 26-O ) :   1.7405 B(  7-C ,  8-N ) :   1.1871 B(  7-C ,  9-N ) :   1.1392
B(  8-N , 13-H ) :   0.8842 B(  8-N , 14-H ) :   0.9368 B(  9-N , 10-H ) :   0.9229
B(  9-N , 11-H ) :   0.9335 B( 17-C , 23-C ) :   0.9739 B( 17-C , 24-H ) :   0.9764
B( 17-C , 25-H ) :   0.9841 B( 20-C , 23-C ) :   0.9034 B( 20-C , 29-H ) :   0.9807
B( 20-C , 30-H ) :   0.9783 B( 23-C , 27-H ) :   0.9794 B( 23-C , 28-H ) :   0.9776

FINAL SINGLE POINT ENERGY     -1072.982164874221

DIPOLE MOMENT
-------------
                                X             Y             Z
Electronic contribution:      0.82450      -0.99415     -23.57815
Nuclear contribution   :      0.18720       2.58739      22.98820
                        -----------------------------------------
Total Dipole Moment    :      1.01170       1.59325      -0.58995
                        -----------------------------------------
Magnitude (a.u.)       :      1.97738
Magnitude (Debye)      :      5.02609

Rotational constants in cm-1:     0.028798     0.014448     0.010940
Rotational constants in MHz :   863.355869   433.126694   327.985023

                             ****ORCA TERMINATED NORMALLY****
TOTAL RUN TIME: 0 days 0 hours 1 minutes 38 seconds 82 msec
