                         Program Version 5.0.0 -  RELEASE  -
|  1> !CAM-B3LYP RIJCOSX def2-TZVP def2/J TightSCF xyzfile
|  2>
|  3> *xyzfile 0 1 D4.xyz
|  4>
|  5> %MaxCore 64000
|  6>
|  7> %pal nprocs 18
|  8> end
|  9>
| 10> %scf
| 11>   MaxIter 150
| 12> end
| 13>
| 14>
| 15>                          ****END OF INPUT****

CARTESIAN COORDINATES (ANGSTROEM)
---------------------------------
  C      1.963365   -1.749150   -1.896887
  C      2.738490   -2.015170   -3.097113
  C      0.611877    1.657634   -4.500288
  C      1.694991    1.541794   -5.570447
  H      2.697326    1.734659   -5.183996
  H      1.506656    2.272239   -6.358076
  S      1.780287   -0.033128   -6.428739
  C      4.049736   -2.154717   -3.152044
  N      4.658206   -1.986293   -4.318655
  N      4.764231   -2.454435   -2.050491
  H      4.287363   -2.776259   -1.217496
  H      5.750825   -2.658351   -2.125988
  H      2.345176   -1.690274   -3.971447
  H      4.109004   -1.592677   -5.071760
  H      5.649095   -2.156462   -4.427237
  O      2.569287    0.213657   -7.607360
  F      0.416880   -0.462969   -6.618595
  C      2.088520   -0.300912   -1.415204
  H      2.231272   -2.451616   -1.102643
  H      0.930249   -1.977801   -2.155438
  C      0.680356    0.655418   -3.348038
  H     -0.356865    1.549231   -4.991128
  H      0.650228    2.675438   -4.096000
  C      1.968993    0.733582   -2.535654
  H      3.051356   -0.168602   -0.911868
  H      1.316501   -0.136231   -0.657252
  O      2.505129   -0.933263   -5.482570
  H      2.824195    0.624726   -3.208464
  H      2.058919    1.730331   -2.093112
  H      0.542252   -0.344731   -3.766662
  H     -0.174219    0.829692   -2.685182

 Total Charge           Charge          ....    0
 Multiplicity           Mult            ....    1
 Number of Electrons    NEL             ....  120
 Basis Dimension        Dim             ....  542

ORBITAL ENERGIES
----------------

  NO   OCC          E(Eh)            E(eV)
   0   2.0000     -89.188736     -2426.9489
   1   2.0000     -24.889161      -677.2685
   2   2.0000     -19.221887      -523.0541
   3   2.0000     -19.206526      -522.6361
   4   2.0000     -14.369486      -391.0136
   5   2.0000     -14.352680      -390.5563
   6   2.0000     -10.307470      -280.4805
   7   2.0000     -10.271998      -279.5153
   8   2.0000     -10.263507      -279.2842
   9   2.0000     -10.243536      -278.7408
  10   2.0000     -10.227761      -278.3115
  11   2.0000     -10.215768      -277.9852
  12   2.0000     -10.203079      -277.6399
  13   2.0000     -10.125381      -275.5256
  14   2.0000      -8.232944      -224.0298
  15   2.0000      -6.200770      -168.7315
  16   2.0000      -6.194395      -168.5581
  17   2.0000      -6.193767      -168.5410
  18   2.0000      -1.478691       -40.2372
  19   2.0000      -1.200386       -32.6642
  20   2.0000      -1.098903       -29.9027
  21   2.0000      -1.019092       -27.7309
  22   2.0000      -0.929026       -25.2801
  23   2.0000      -0.924650       -25.1610
  24   2.0000      -0.875455       -23.8223
  25   2.0000      -0.834427       -22.7059
  26   2.0000      -0.806171       -21.9370
  27   2.0000      -0.774216       -21.0675
  28   2.0000      -0.731850       -19.9147
  29   2.0000      -0.699313       -19.0293
  30   2.0000      -0.678985       -18.4761
  31   2.0000      -0.675819       -18.3900
  32   2.0000      -0.658341       -17.9144
  33   2.0000      -0.628006       -17.0889
  34   2.0000      -0.617183       -16.7944
  35   2.0000      -0.592871       -16.1328
  36   2.0000      -0.568426       -15.4676
  37   2.0000      -0.566449       -15.4139
  38   2.0000      -0.548640       -14.9292
  39   2.0000      -0.542921       -14.7736
  40   2.0000      -0.536434       -14.5971
  41   2.0000      -0.512801       -13.9540
  42   2.0000      -0.506145       -13.7729
  43   2.0000      -0.499925       -13.6037
  44   2.0000      -0.487068       -13.2538
  45   2.0000      -0.463368       -12.6089
  46   2.0000      -0.453365       -12.3367
  47   2.0000      -0.446215       -12.1421
  48   2.0000      -0.438593       -11.9347
  49   2.0000      -0.431751       -11.7485
  50   2.0000      -0.418518       -11.3885
  51   2.0000      -0.405496       -11.0341
  52   2.0000      -0.401338       -10.9210
  53   2.0000      -0.394019       -10.7218
  54   2.0000      -0.382633       -10.4120
  55   2.0000      -0.376951       -10.2574
  56   2.0000      -0.364030        -9.9058
  57   2.0000      -0.342299        -9.3144
  58   2.0000      -0.307110        -8.3569
  59   2.0000      -0.192463        -5.2372
  60   0.0000       0.046121         1.2550
  61   0.0000       0.072439         1.9712
  62   0.0000       0.074469         2.0264
  63   0.0000       0.088839         2.4174
  64   0.0000       0.093094         2.5332

MULLIKEN ATOMIC CHARGES
-----------------------
   0 C :   -0.316390
   1 C :   -0.277652
   2 C :   -0.223359
   3 C :   -0.291138
   4 H :    0.178944
   5 H :    0.166529
   6 S :    0.883891
   7 C :    0.256716
   8 N :   -0.454229
   9 N :   -0.470192
  10 H :    0.231538
  11 H :    0.205943
  12 H :    0.135501
  13 H :    0.252052
  14 H :    0.198992
  15 O :   -0.405475
  16 F :   -0.098200
  17 C :   -0.134944
  18 H :    0.082145
  19 H :    0.103422
  20 C :   -0.260315
  21 H :    0.132981
  22 H :    0.124601
  23 C :   -0.179469
  24 H :    0.094525
  25 H :    0.081181
  26 O :   -0.477598
  27 H :    0.126049
  28 H :    0.097411
  29 H :    0.126399
  30 H :    0.110141
Sum of atomic charges:    0.0000000

LOEWDIN ATOMIC CHARGES
----------------------
   0 C :   -0.295249
   1 C :   -0.295334
   2 C :   -0.288752
   3 C :   -0.360412
   4 H :    0.152706
   5 H :    0.144138
   6 S :    0.572042
   7 C :   -0.457785
   8 N :   -0.019105
   9 N :   -0.029138
  10 H :    0.171071
  11 H :    0.156404
  12 H :    0.115427
  13 H :    0.166232
  14 H :    0.154400
  15 O :   -0.260861
  16 F :    0.107248
  17 C :   -0.260241
  18 H :    0.125849
  19 H :    0.136677
  20 C :   -0.267826
  21 H :    0.138371
  22 H :    0.146940
  23 C :   -0.267525
  24 H :    0.134330
  25 H :    0.126828
  26 O :   -0.296795
  27 H :    0.140441
  28 H :    0.131892
  29 H :    0.138333
  30 H :    0.139692

  Mayer bond orders larger than 0.100000
B(  0-C ,  1-C ) :   0.9651 B(  0-C , 17-C ) :   0.9101 B(  0-C , 18-H ) :   0.9981
B(  0-C , 19-H ) :   1.0071 B(  1-C ,  7-C ) :   1.6630 B(  1-C , 12-H ) :   1.0236
B(  2-C ,  3-C ) :   0.9312 B(  2-C , 20-C ) :   0.9305 B(  2-C , 21-H ) :   0.9888
B(  2-C , 22-H ) :   0.9611 B(  3-C ,  4-H ) :   0.9443 B(  3-C ,  5-H ) :   0.9540
B(  3-C ,  6-S ) :   0.9197 B(  6-S , 15-O ) :   1.9756 B(  6-S , 16-F ) :   1.1456
B(  6-S , 26-O ) :   1.7331 B(  7-C ,  8-N ) :   1.1981 B(  7-C ,  9-N ) :   1.1399
B(  8-N , 13-H ) :   0.8817 B(  8-N , 14-H ) :   0.9361 B(  9-N , 10-H ) :   0.9229
B(  9-N , 11-H ) :   0.9329 B( 17-C , 23-C ) :   0.9715 B( 17-C , 24-H ) :   0.9759
B( 17-C , 25-H ) :   0.9846 B( 20-C , 23-C ) :   0.8952 B( 20-C , 29-H ) :   0.9916
B( 20-C , 30-H ) :   0.9775 B( 23-C , 27-H ) :   0.9794 B( 23-C , 28-H ) :   0.9773

FINAL SINGLE POINT ENERGY     -1072.982038905767

DIPOLE MOMENT
-------------
                                X             Y             Z
Electronic contribution:     -2.93755      -2.16402     -21.77217
Nuclear contribution   :      2.64598       3.36033      21.85869
                        -----------------------------------------
Total Dipole Moment    :     -0.29157       1.19632       0.08652
                        -----------------------------------------
Magnitude (a.u.)       :      1.23437
Magnitude (Debye)      :      3.13752

Rotational constants in cm-1:     0.028973     0.014435     0.011026
Rotational constants in MHz :   868.588266   432.748309   330.548534

                             ****ORCA TERMINATED NORMALLY****
TOTAL RUN TIME: 0 days 0 hours 1 minutes 22 seconds 183 msec
