                         Program Version 5.0.0 -  RELEASE  -
|  1> !CAM-B3LYP RIJCOSX def2-TZVP def2/J TightSCF xyzfile
|  2>
|  3> *xyzfile 0 1 D5.xyz
|  4>
|  5> %MaxCore 64000
|  6>
|  7> %pal nprocs 18
|  8> end
|  9>
| 10> %scf
| 11>   MaxIter 150
| 12> end
| 13>
| 14>
| 15>                          ****END OF INPUT****

CARTESIAN COORDINATES (ANGSTROEM)
---------------------------------
  C      1.963365   -1.749150   -1.896887
  N      2.738490   -2.015170   -3.097113
  C      0.611877    1.657634   -4.500288
  C      1.694991    1.541794   -5.570447
  H      2.697326    1.734659   -5.183996
  H      1.506656    2.272239   -6.358076
  S      1.780287   -0.033128   -6.428739
  C      4.049736   -2.154717   -3.152044
  C      4.658206   -1.986293   -4.318655
  N      4.764231   -2.454435   -2.050491
  H      4.287363   -2.776259   -1.217496
  H      5.750825   -2.658351   -2.125988
  H      2.345176   -1.690274   -3.971447
  H      4.109004   -1.592677   -5.071760
  H      5.649095   -2.156462   -4.427237
  O      2.569287    0.213657   -7.607360
  F      0.416880   -0.462969   -6.618595
  C      2.088520   -0.300912   -1.415204
  H      2.231272   -2.451616   -1.102643
  H      0.930249   -1.977801   -2.155438
  C      0.680356    0.655418   -3.348038
  H     -0.356865    1.549231   -4.991128
  H      0.650228    2.675438   -4.096000
  C      1.968993    0.733582   -2.535654
  H      3.051356   -0.168602   -0.911868
  H      1.316501   -0.136231   -0.657252
  O      2.505129   -0.933263   -5.482570
  H      2.824195    0.624726   -3.208464
  H      2.058919    1.730331   -2.093112
  H      0.542252   -0.344731   -3.766662
  H     -0.174219    0.829692   -2.685182

 Total Charge           Charge          ....    0
 Multiplicity           Mult            ....    1
 Number of Electrons    NEL             ....  120
 Basis Dimension        Dim             ....  542

ORBITAL ENERGIES
----------------

  NO   OCC          E(Eh)            E(eV)
   0   2.0000     -89.189992     -2426.9831
   1   2.0000     -24.890659      -677.3093
   2   2.0000     -19.223250      -523.0912
   3   2.0000     -19.209343      -522.7128
   4   2.0000     -14.367032      -390.9468
   5   2.0000     -14.352897      -390.5622
   6   2.0000     -10.310564      -280.5647
   7   2.0000     -10.280008      -279.7332
   8   2.0000     -10.267997      -279.4064
   9   2.0000     -10.263569      -279.2859
  10   2.0000     -10.257869      -279.1308
  11   2.0000     -10.243836      -278.7489
  12   2.0000     -10.237697      -278.5819
  13   2.0000     -10.120322      -275.3880
  14   2.0000      -8.234210      -224.0642
  15   2.0000      -6.202159      -168.7693
  16   2.0000      -6.195583      -168.5904
  17   2.0000      -6.195016      -168.5750
  18   2.0000      -1.480539       -40.2875
  19   2.0000      -1.201390       -32.6915
  20   2.0000      -1.100655       -29.9504
  21   2.0000      -1.028367       -27.9833
  22   2.0000      -0.945806       -25.7367
  23   2.0000      -0.931781       -25.3550
  24   2.0000      -0.878105       -23.8944
  25   2.0000      -0.840274       -22.8650
  26   2.0000      -0.804882       -21.9020
  27   2.0000      -0.780199       -21.2303
  28   2.0000      -0.739840       -20.1321
  29   2.0000      -0.707392       -19.2491
  30   2.0000      -0.682415       -18.5695
  31   2.0000      -0.680627       -18.5208
  32   2.0000      -0.665349       -18.1051
  33   2.0000      -0.646036       -17.5795
  34   2.0000      -0.622203       -16.9310
  35   2.0000      -0.588758       -16.0209
  36   2.0000      -0.574882       -15.6433
  37   2.0000      -0.567370       -15.4389
  38   2.0000      -0.550360       -14.9761
  39   2.0000      -0.544264       -14.8102
  40   2.0000      -0.538753       -14.6602
  41   2.0000      -0.528421       -14.3791
  42   2.0000      -0.513857       -13.9827
  43   2.0000      -0.500081       -13.6079
  44   2.0000      -0.493339       -13.4244
  45   2.0000      -0.467338       -12.7169
  46   2.0000      -0.464283       -12.6338
  47   2.0000      -0.453978       -12.3534
  48   2.0000      -0.444756       -12.1024
  49   2.0000      -0.431467       -11.7408
  50   2.0000      -0.427244       -11.6259
  51   2.0000      -0.417260       -11.3542
  52   2.0000      -0.405724       -11.0403
  53   2.0000      -0.398812       -10.8522
  54   2.0000      -0.395012       -10.7488
  55   2.0000      -0.390859       -10.6358
  56   2.0000      -0.384405       -10.4602
  57   2.0000      -0.375056       -10.2058
  58   2.0000      -0.295624        -8.0443
  59   2.0000      -0.195472        -5.3191
  60   0.0000       0.043582         1.1859
  61   0.0000       0.067439         1.8351
  62   0.0000       0.073456         1.9988
  63   0.0000       0.080682         2.1955
  64   0.0000       0.092228         2.5097

MULLIKEN ATOMIC CHARGES
-----------------------
   0 C :   -0.264327
   1 N :   -0.240236
   2 C :   -0.223598
   3 C :   -0.296543
   4 H :    0.186195
   5 H :    0.168286
   6 S :    0.884777
   7 C :    0.326920
   8 C :   -0.556102
   9 N :   -0.487237
  10 H :    0.210317
  11 H :    0.229602
  12 H :    0.230732
  13 H :    0.138242
  14 H :    0.073247
  15 O :   -0.395463
  16 F :   -0.101813
  17 C :   -0.111428
  18 H :    0.113682
  19 H :    0.135621
  20 C :   -0.254084
  21 H :    0.135771
  22 H :    0.128416
  23 C :   -0.250667
  24 H :    0.110974
  25 H :    0.089595
  26 O :   -0.471101
  27 H :    0.152690
  28 H :    0.106679
  29 H :    0.116776
  30 H :    0.114079
Sum of atomic charges:    0.0000000

LOEWDIN ATOMIC CHARGES
----------------------
   0 C :   -0.302439
   1 N :    0.118235
   2 C :   -0.287440
   3 C :   -0.360120
   4 H :    0.154690
   5 H :    0.144904
   6 S :    0.570970
   7 C :   -0.464851
   8 C :   -0.351769
   9 N :   -0.028280
  10 H :    0.156218
  11 H :    0.171428
  12 H :    0.171740
  13 H :    0.098656
  14 H :    0.089209
  15 O :   -0.251128
  16 F :    0.103556
  17 C :   -0.269588
  18 H :    0.125673
  19 H :    0.130682
  20 C :   -0.272194
  21 H :    0.139430
  22 H :    0.148046
  23 C :   -0.268854
  24 H :    0.138222
  25 H :    0.132609
  26 O :   -0.290968
  27 H :    0.144684
  28 H :    0.136252
  29 H :    0.132116
  30 H :    0.140313

  Mayer bond orders larger than 0.100000
B(  0-C ,  1-N ) :   0.9700 B(  0-C , 17-C ) :   0.8835 B(  0-C , 18-H ) :   0.9974
B(  0-C , 19-H ) :   0.9976 B(  1-N ,  7-C ) :   1.2205 B(  1-N , 12-H ) :   0.8986
B(  2-C ,  3-C ) :   0.9298 B(  2-C , 20-C ) :   0.9341 B(  2-C , 21-H ) :   0.9882
B(  2-C , 22-H ) :   0.9621 B(  3-C ,  4-H ) :   0.9438 B(  3-C ,  5-H ) :   0.9549
B(  3-C ,  6-S ) :   0.9184 B(  6-S , 15-O ) :   1.9865 B(  6-S , 16-F ) :   1.1387
B(  6-S , 26-O ) :   1.7263 B(  7-C ,  8-C ) :   1.6332 B(  7-C ,  9-N ) :   1.0999
B(  8-C , 13-H ) :   0.9910 B(  8-C , 14-H ) :   1.0087 B(  9-N , 10-H ) :   0.9260
B(  9-N , 11-H ) :   0.9314 B( 17-C , 23-C ) :   0.9594 B( 17-C , 24-H ) :   0.9721
B( 17-C , 25-H ) :   0.9770 B( 20-C , 23-C ) :   0.9009 B( 20-C , 29-H ) :   0.9893
B( 20-C , 30-H ) :   0.9767 B( 23-C , 27-H ) :   0.9712 B( 23-C , 28-H ) :   0.9747

FINAL SINGLE POINT ENERGY     -1072.980064021182

DIPOLE MOMENT
-------------
                                X             Y             Z
Electronic contribution:     -4.62902      -1.98006     -20.70823
Nuclear contribution   :      2.89225       3.36404      21.70199
                        -----------------------------------------
Total Dipole Moment    :     -1.73677       1.38398       0.99376
                        -----------------------------------------
Magnitude (a.u.)       :      2.43297
Magnitude (Debye)      :      6.18411

Rotational constants in cm-1:     0.029431     0.014408     0.011084
Rotational constants in MHz :   882.306106   431.946714   332.288152

                             ****ORCA TERMINATED NORMALLY****
TOTAL RUN TIME: 0 days 0 hours 1 minutes 44 seconds 750 msec
