                         Program Version 5.0.0 -  RELEASE  -
|  1> !CAM-B3LYP RIJCOSX def2-TZVP def2/J TightSCF xyzfile
|  2>
|  3> *xyzfile 0 1 D6.xyz
|  4>
|  5> %MaxCore 64000
|  6>
|  7> %pal nprocs 18
|  8> end
|  9>
| 10> %scf
| 11>   MaxIter 150
| 12> end
| 13>
| 14>
| 15>                          ****END OF INPUT****

CARTESIAN COORDINATES (ANGSTROEM)
---------------------------------
  C      1.963365   -1.749150   -1.896887
  N      2.738490   -2.015170   -3.097113
  C      0.611877    1.657634   -4.500288
  C      1.694991    1.541794   -5.570447
  H      2.697326    1.734659   -5.183996
  H      1.506656    2.272239   -6.358076
  S      1.780287   -0.033128   -6.428739
  C      4.049736   -2.154717   -3.152044
  N      4.658206   -1.986293   -4.318655
  C      4.764231   -2.454435   -2.050491
  H      4.287363   -2.776259   -1.217496
  H      5.750825   -2.658351   -2.125988
  H      2.345176   -1.690274   -3.971447
  H      4.109004   -1.592677   -5.071760
  H      5.649095   -2.156462   -4.427237
  O      2.569287    0.213657   -7.607360
  F      0.416880   -0.462969   -6.618595
  C      2.088520   -0.300912   -1.415204
  H      2.231272   -2.451616   -1.102643
  H      0.930249   -1.977801   -2.155438
  C      0.680356    0.655418   -3.348038
  H     -0.356865    1.549231   -4.991128
  H      0.650228    2.675438   -4.096000
  C      1.968993    0.733582   -2.535654
  H      3.051356   -0.168602   -0.911868
  H      1.316501   -0.136231   -0.657252
  O      2.505129   -0.933263   -5.482570
  H      2.824195    0.624726   -3.208464
  H      2.058919    1.730331   -2.093112
  H      0.542252   -0.344731   -3.766662
  H     -0.174219    0.829692   -2.685182

 Total Charge           Charge          ....    0
 Multiplicity           Mult            ....    1
 Number of Electrons    NEL             ....  120
 Basis Dimension        Dim             ....  542

ORBITAL ENERGIES
----------------

  NO   OCC          E(Eh)            E(eV)
   0   2.0000     -89.207941     -2427.4715
   1   2.0000     -24.905585      -677.7154
   2   2.0000     -19.239016      -523.5202
   3   2.0000     -19.230621      -523.2918
   4   2.0000     -14.354898      -390.6166
   5   2.0000     -14.352837      -390.5605
   6   2.0000     -10.322185      -280.8809
   7   2.0000     -10.286506      -279.9100
   8   2.0000     -10.266187      -279.3571
   9   2.0000     -10.261413      -279.2273
  10   2.0000     -10.261226      -279.2222
  11   2.0000     -10.244853      -278.7766
  12   2.0000     -10.232204      -278.4324
  13   2.0000     -10.129223      -275.6302
  14   2.0000      -8.252002      -224.5484
  15   2.0000      -6.219842      -169.2505
  16   2.0000      -6.213632      -169.0815
  17   2.0000      -6.212699      -169.0561
  18   2.0000      -1.495222       -40.6871
  19   2.0000      -1.219033       -33.1716
  20   2.0000      -1.120120       -30.4800
  21   2.0000      -1.029491       -28.0139
  22   2.0000      -0.945984       -25.7415
  23   2.0000      -0.937722       -25.5167
  24   2.0000      -0.881258       -23.9802
  25   2.0000      -0.840670       -22.8758
  26   2.0000      -0.809715       -22.0335
  27   2.0000      -0.770357       -20.9625
  28   2.0000      -0.759219       -20.6594
  29   2.0000      -0.719576       -19.5807
  30   2.0000      -0.694787       -18.9061
  31   2.0000      -0.692180       -18.8352
  32   2.0000      -0.663584       -18.0570
  33   2.0000      -0.649379       -17.6705
  34   2.0000      -0.609886       -16.5958
  35   2.0000      -0.596125       -16.2214
  36   2.0000      -0.582906       -15.8617
  37   2.0000      -0.580350       -15.7921
  38   2.0000      -0.569650       -15.5010
  39   2.0000      -0.556626       -15.1466
  40   2.0000      -0.536587       -14.6013
  41   2.0000      -0.527902       -14.3649
  42   2.0000      -0.511581       -13.9208
  43   2.0000      -0.502646       -13.6777
  44   2.0000      -0.494489       -13.4557
  45   2.0000      -0.479535       -13.0488
  46   2.0000      -0.463028       -12.5996
  47   2.0000      -0.459206       -12.4956
  48   2.0000      -0.443171       -12.0593
  49   2.0000      -0.436043       -11.8653
  50   2.0000      -0.428276       -11.6540
  51   2.0000      -0.427038       -11.6203
  52   2.0000      -0.414735       -11.2855
  53   2.0000      -0.407292       -11.0830
  54   2.0000      -0.401011       -10.9121
  55   2.0000      -0.395941       -10.7741
  56   2.0000      -0.393978       -10.7207
  57   2.0000      -0.381464       -10.3802
  58   2.0000      -0.287292        -7.8176
  59   2.0000      -0.198272        -5.3953
  60   0.0000       0.032690         0.8895
  61   0.0000       0.061305         1.6682
  62   0.0000       0.075104         2.0437
  63   0.0000       0.081022         2.2047
  64   0.0000       0.084679         2.3042

MULLIKEN ATOMIC CHARGES
-----------------------
   0 C :   -0.219605
   1 N :   -0.254358
   2 C :   -0.224660
   3 C :   -0.297437
   4 H :    0.187015
   5 H :    0.173601
   6 S :    0.900989
   7 C :    0.308502
   8 N :   -0.463375
   9 C :   -0.543924
  10 H :    0.077679
  11 H :    0.071207
  12 H :    0.219990
  13 H :    0.243084
  14 H :    0.225080
  15 O :   -0.393750
  16 F :   -0.095320
  17 C :   -0.122251
  18 H :    0.131473
  19 H :    0.128916
  20 C :   -0.254441
  21 H :    0.137981
  22 H :    0.131867
  23 C :   -0.253340
  24 H :    0.127870
  25 H :    0.093295
  26 O :   -0.509207
  27 H :    0.130999
  28 H :    0.107968
  29 H :    0.115921
  30 H :    0.118230
Sum of atomic charges:   -0.0000000

LOEWDIN ATOMIC CHARGES
----------------------
   0 C :   -0.283658
   1 N :    0.117661
   2 C :   -0.286988
   3 C :   -0.358212
   4 H :    0.154724
   5 H :    0.146711
   6 S :    0.579071
   7 C :   -0.465039
   8 N :   -0.015205
   9 C :   -0.374526
  10 H :    0.092406
  11 H :    0.089149
  12 H :    0.159899
  13 H :    0.153897
  14 H :    0.170394
  15 O :   -0.249368
  16 F :    0.110014
  17 C :   -0.266091
  18 H :    0.136533
  19 H :    0.127897
  20 C :   -0.272143
  21 H :    0.139808
  22 H :    0.149490
  23 C :   -0.269804
  24 H :    0.144648
  25 H :    0.133447
  26 O :   -0.314339
  27 H :    0.139722
  28 H :    0.136483
  29 H :    0.131510
  30 H :    0.141909

  Mayer bond orders larger than 0.100000
B(  0-C ,  1-N ) :   0.9547 B(  0-C , 17-C ) :   0.9111 B(  0-C , 18-H ) :   0.9829
B(  0-C , 19-H ) :   0.9960 B(  1-N ,  7-C ) :   1.2081 B(  1-N , 12-H ) :   0.9052
B(  2-C ,  3-C ) :   0.9273 B(  2-C , 20-C ) :   0.9312 B(  2-C , 21-H ) :   0.9884
B(  2-C , 22-H ) :   0.9603 B(  3-C ,  4-H ) :   0.9418 B(  3-C ,  5-H ) :   0.9536
B(  3-C ,  6-S ) :   0.9207 B(  6-S , 15-O ) :   1.9877 B(  6-S , 16-F ) :   1.1512
B(  6-S , 26-O ) :   1.6898 B(  7-C ,  8-N ) :   1.1607 B(  7-C ,  9-C ) :   1.6247
B(  8-N , 13-H ) :   0.8914 B(  8-N , 14-H ) :   0.9310 B(  9-C , 10-H ) :   1.0031
B(  9-C , 11-H ) :   1.0018 B( 17-C , 23-C ) :   0.9641 B( 17-C , 24-H ) :   0.9659
B( 17-C , 25-H ) :   0.9827 B( 20-C , 23-C ) :   0.8962 B( 20-C , 29-H ) :   0.9925
B( 20-C , 30-H ) :   0.9774 B( 23-C , 27-H ) :   0.9751 B( 23-C , 28-H ) :   0.9743

FINAL SINGLE POINT ENERGY     -1072.992201005055

DIPOLE MOMENT
-------------
                                X             Y             Z
Electronic contribution:     -4.87695      -1.36469     -22.80006
Nuclear contribution   :      2.90585       3.30398      21.99296
                        -----------------------------------------
Total Dipole Moment    :     -1.97110       1.93930      -0.80711
                        -----------------------------------------
Magnitude (a.u.)       :      2.88054
Magnitude (Debye)      :      7.32176

Rotational constants in cm-1:     0.029065     0.014689     0.011200
Rotational constants in MHz :   871.338526   440.374927   335.770911

                             ****ORCA TERMINATED NORMALLY****
TOTAL RUN TIME: 0 days 0 hours 1 minutes 53 seconds 27 msec
