                         Program Version 5.0.0 -  RELEASE  -
|  1> !CAM-B3LYP RIJCOSX def2-TZVP def2/J TightSCF xyzfile
|  2>
|  3> *xyzfile 0 1 D8.xyz
|  4>
|  5> %MaxCore 64000
|  6>
|  7> %pal nprocs 18
|  8> end
|  9>
| 10> %scf
| 11>   MaxIter 150
| 12> end
| 13>
| 14>
| 15>                          ****END OF INPUT****

CARTESIAN COORDINATES (ANGSTROEM)
---------------------------------
  C      1.963365   -1.749150   -1.896887
  N      2.738490   -2.015170   -3.097113
  C      0.611877    1.657634   -4.500288
  C      1.694991    1.541794   -5.570447
  H      2.697326    1.734659   -5.183996
  H      1.506656    2.272239   -6.358076
  S      1.780287   -0.033128   -6.428739
  C      4.049736   -2.154717   -3.152044
  C      4.658206   -1.986293   -4.318655
  N      4.764231   -2.454435   -2.050491
  H      4.287363   -2.776259   -1.217496
  H      5.750825   -2.658351   -2.125988
  H      2.345176   -1.690274   -3.971447
  H      4.109004   -1.592677   -5.071760
  H      5.649095   -2.156462   -4.427237
  O      2.569287    0.213657   -7.607360
  O      0.416880   -0.462969   -6.618595
  C      2.088520   -0.300912   -1.415204
  H      2.231272   -2.451616   -1.102643
  H      0.930249   -1.977801   -2.155438
  C      0.680356    0.655418   -3.348038
  H     -0.356865    1.549231   -4.991128
  H      0.650228    2.675438   -4.096000
  C      1.968993    0.733582   -2.535654
  H      3.051356   -0.168602   -0.911868
  H      1.316501   -0.136231   -0.657252
  F      2.505129   -0.933263   -5.482570
  H      2.824195    0.624726   -3.208464
  H      2.058919    1.730331   -2.093112
  H      0.542252   -0.344731   -3.766662
  H     -0.174219    0.829692   -2.685182

 Total Charge           Charge          ....    0
 Multiplicity           Mult            ....    1
 Number of Electrons    NEL             ....  120
 Basis Dimension        Dim             ....  542

ORBITAL ENERGIES
----------------

  NO   OCC          E(Eh)            E(eV)
   0   2.0000     -89.179998     -2426.7111
   1   2.0000     -24.864556      -676.5990
   2   2.0000     -19.218071      -522.9503
   3   2.0000     -19.215993      -522.8937
   4   2.0000     -14.387440      -391.5021
   5   2.0000     -14.383328      -391.3903
   6   2.0000     -10.305522      -280.4275
   7   2.0000     -10.289650      -279.9956
   8   2.0000     -10.284010      -279.8421
   9   2.0000     -10.273254      -279.5494
  10   2.0000     -10.260156      -279.1930
  11   2.0000     -10.253008      -278.9985
  12   2.0000     -10.249041      -278.8906
  13   2.0000     -10.149542      -276.1831
  14   2.0000      -8.224249      -223.7932
  15   2.0000      -6.192432      -168.5046
  16   2.0000      -6.185614      -168.3191
  17   2.0000      -6.184933      -168.3006
  18   2.0000      -1.443448       -39.2782
  19   2.0000      -1.205748       -32.8101
  20   2.0000      -1.112980       -30.2857
  21   2.0000      -1.053666       -28.6717
  22   2.0000      -0.967682       -26.3320
  23   2.0000      -0.929053       -25.2808
  24   2.0000      -0.884249       -24.0616
  25   2.0000      -0.847839       -23.0709
  26   2.0000      -0.801511       -21.8102
  27   2.0000      -0.791692       -21.5430
  28   2.0000      -0.752570       -20.4785
  29   2.0000      -0.714073       -19.4309
  30   2.0000      -0.673681       -18.3318
  31   2.0000      -0.671482       -18.2720
  32   2.0000      -0.651571       -17.7301
  33   2.0000      -0.646539       -17.5932
  34   2.0000      -0.625709       -17.0264
  35   2.0000      -0.605101       -16.4656
  36   2.0000      -0.576215       -15.6796
  37   2.0000      -0.571025       -15.5384
  38   2.0000      -0.559560       -15.2264
  39   2.0000      -0.553509       -15.0617
  40   2.0000      -0.542267       -14.7558
  41   2.0000      -0.533675       -14.5220
  42   2.0000      -0.516526       -14.0554
  43   2.0000      -0.507622       -13.8131
  44   2.0000      -0.493985       -13.4420
  45   2.0000      -0.476382       -12.9630
  46   2.0000      -0.470532       -12.8038
  47   2.0000      -0.462948       -12.5974
  48   2.0000      -0.452350       -12.3091
  49   2.0000      -0.443650       -12.0723
  50   2.0000      -0.436776       -11.8853
  51   2.0000      -0.431718       -11.7477
  52   2.0000      -0.415835       -11.3155
  53   2.0000      -0.411261       -11.1910
  54   2.0000      -0.405441       -11.0326
  55   2.0000      -0.397157       -10.8072
  56   2.0000      -0.396388       -10.7863
  57   2.0000      -0.393260       -10.7011
  58   2.0000      -0.318505        -8.6670
  59   2.0000      -0.221443        -6.0258
  60   0.0000       0.051570         1.4033
  61   0.0000       0.061452         1.6722
  62   0.0000       0.073851         2.0096
  63   0.0000       0.078960         2.1486
  64   0.0000       0.088570         2.4101

MULLIKEN ATOMIC CHARGES
-----------------------
   0 C :   -0.269480
   1 N :   -0.248455
   2 C :   -0.164211
   3 C :   -0.327508
   4 H :    0.171881
   5 H :    0.177962
   6 S :    0.880966
   7 C :    0.353234
   8 C :   -0.562351
   9 N :   -0.480788
  10 H :    0.217410
  11 H :    0.235223
  12 H :    0.217557
  13 H :    0.104582
  14 H :    0.087933
  15 O :   -0.413229
  16 O :   -0.415899
  17 C :   -0.106059
  18 H :    0.121389
  19 H :    0.149976
  20 C :   -0.297981
  21 H :    0.146036
  22 H :    0.122076
  23 C :   -0.266066
  24 H :    0.113884
  25 H :    0.099063
  26 F :   -0.152337
  27 H :    0.139426
  28 H :    0.113658
  29 H :    0.134053
  30 H :    0.118054
Sum of atomic charges:   -0.0000000

LOEWDIN ATOMIC CHARGES
----------------------
   0 C :   -0.296233
   1 N :    0.118727
   2 C :   -0.281949
   3 C :   -0.364755
   4 H :    0.141932
   5 H :    0.153826
   6 S :    0.569279
   7 C :   -0.460462
   8 C :   -0.353839
   9 N :   -0.019332
  10 H :    0.159903
  11 H :    0.174704
  12 H :    0.175160
  13 H :    0.092252
  14 H :    0.094096
  15 O :   -0.260692
  16 O :   -0.264838
  17 C :   -0.268662
  18 H :    0.128340
  19 H :    0.135010
  20 C :   -0.272621
  21 H :    0.147744
  22 H :    0.145888
  23 C :   -0.271451
  24 H :    0.138459
  25 H :    0.135870
  26 F :    0.051083
  27 H :    0.138391
  28 H :    0.138795
  29 H :    0.132967
  30 H :    0.142409

  Mayer bond orders larger than 0.100000
B(  0-C ,  1-N ) :   0.9464 B(  0-C , 17-C ) :   0.8846 B(  0-C , 18-H ) :   0.9967
B(  0-C , 19-H ) :   0.9929 B(  1-N ,  7-C ) :   1.2222 B(  1-N , 12-H ) :   0.9226
B(  2-C ,  3-C ) :   0.9217 B(  2-C , 20-C ) :   0.9490 B(  2-C , 21-H ) :   0.9754
B(  2-C , 22-H ) :   0.9609 B(  3-C ,  4-H ) :   0.9500 B(  3-C ,  5-H ) :   0.9506
B(  3-C ,  6-S ) :   0.9144 B(  6-S , 15-O ) :   1.9688 B(  6-S , 16-O ) :   1.9186
B(  6-S , 26-F ) :   1.0209 B(  7-C ,  8-C ) :   1.6035 B(  7-C ,  9-N ) :   1.1197
B(  8-C , 13-H ) :   1.0071 B(  8-C , 14-H ) :   1.0087 B(  9-N , 10-H ) :   0.9234
B(  9-N , 11-H ) :   0.9289 B( 17-C , 23-C ) :   0.9523 B( 17-C , 24-H ) :   0.9742
B( 17-C , 25-H ) :   0.9768 B( 20-C , 23-C ) :   0.8955 B( 20-C , 29-H ) :   0.9901
B( 20-C , 30-H ) :   0.9772 B( 23-C , 27-H ) :   0.9768 B( 23-C , 28-H ) :   0.9768

FINAL SINGLE POINT ENERGY     -1072.998949086221

DIPOLE MOMENT
-------------
                                X             Y             Z
Electronic contribution:     -0.84986      -2.94183     -18.30887
Nuclear contribution   :      0.50676       3.90127      20.40426
                        -----------------------------------------
Total Dipole Moment    :     -0.34310       0.95944       2.09539
                        -----------------------------------------
Magnitude (a.u.)       :      2.33000
Magnitude (Debye)      :      5.92240

Rotational constants in cm-1:     0.029548     0.014706     0.011197
Rotational constants in MHz :   885.834387   440.871746   335.667619

                             ****ORCA TERMINATED NORMALLY****
TOTAL RUN TIME: 0 days 0 hours 1 minutes 44 seconds 540 msec
