                         Program Version 5.0.0 -  RELEASE  -
|  1> !TPSS D3BJ RIJCOSX def2-TZVP def2/J TightSCF
|  2> *xyz -1 1
|  3> C         -2.79070       -0.78527        5.70281
|  4> C         -2.45380        0.05510        6.94145
|  5> C         -2.07842        1.48042        6.56410
|  6> H         -1.62558       -0.38216        7.49891
|  7> H         -3.32527        0.08775        7.59917
|  8> O         -0.90125        1.85816        6.82810
|  9> O         -2.93658        2.17731        5.96415
| 10> H         -1.94052       -0.82114        5.05412
| 11> H         -3.61590       -0.34261        5.18514
| 12> H         -3.05063       -1.77815        6.00536
| 13> *
| 14> %MaxCore 64000
| 15>
| 16> %pal nprocs 4
| 17> end
| 18>
| 19> %scf
| 20>   MaxIter 150
| 21> end
| 22>
| 23>
| 24>                          ****END OF INPUT****

CARTESIAN COORDINATES (ANGSTROEM)
---------------------------------
  C     -2.790700   -0.785270    5.702810
  C     -2.453800    0.055100    6.941450
  C     -2.078420    1.480420    6.564100
  H     -1.625580   -0.382160    7.498910
  H     -3.325270    0.087750    7.599170
  O     -0.901250    1.858160    6.828100
  O     -2.936580    2.177310    5.964150
  H     -1.940520   -0.821140    5.054120
  H     -3.615900   -0.342610    5.185140
  H     -3.050630   -1.778150    6.005360

 Total Charge           Charge          ....   -1
 Multiplicity           Mult            ....    1
 Number of Electrons    NEL             ....   40
 Basis Dimension        Dim             ....  185

ORBITAL ENERGIES
----------------

  NO   OCC          E(Eh)            E(eV)
   0   2.0000     -18.606073      -506.2970
   1   2.0000     -18.604183      -506.2456
   2   2.0000      -9.846006      -267.9234
   3   2.0000      -9.818040      -267.1624
   4   2.0000      -9.803354      -266.7628
   5   2.0000      -0.735715       -20.0198
   6   2.0000      -0.646699       -17.5976
   7   2.0000      -0.544157       -14.8073
   8   2.0000      -0.419126       -11.4050
   9   2.0000      -0.269107        -7.3228
  10   2.0000      -0.246184        -6.6990
  11   2.0000      -0.208963        -5.6862
  12   2.0000      -0.180383        -4.9085
  13   2.0000      -0.166618        -4.5339
  14   2.0000      -0.154995        -4.2176
  15   2.0000      -0.123669        -3.3652
  16   2.0000      -0.111025        -3.0211
  17   2.0000       0.000544         0.0148
  18   2.0000       0.011172         0.3040
  19   2.0000       0.029219         0.7951
  20   0.0000       0.175160         4.7664
  21   0.0000       0.216335         5.8868
  22   0.0000       0.225204         6.1281
  23   0.0000       0.239805         6.5254
  24   0.0000       0.245447         6.6790

MULLIKEN ATOMIC CHARGES
-----------------------
   0 C :   -0.319076
   1 C :   -0.100526
   2 C :    0.183158
   3 H :    0.027362
   4 H :    0.020265
   5 O :   -0.521563
   6 O :   -0.515900
   7 H :    0.084822
   8 H :    0.089539
   9 H :    0.051918
Sum of atomic charges:   -1.0000000

LOEWDIN ATOMIC CHARGES
----------------------
   0 C :   -0.318021
   1 C :   -0.290060
   2 C :   -0.709870
   3 H :    0.113825
   4 H :    0.115310
   5 O :   -0.111696
   6 O :   -0.101688
   7 H :    0.105483
   8 H :    0.107381
   9 H :    0.089335

  Mayer bond orders larger than 0.100000
B(  0-C ,  1-C ) :   0.9887 B(  0-C ,  7-H ) :   0.9793 B(  0-C ,  8-H ) :   0.9637
B(  0-C ,  9-H ) :   0.9612 B(  1-C ,  2-C ) :   0.9508 B(  1-C ,  3-H ) :   0.9340
B(  1-C ,  4-H ) :   0.9334 B(  2-C ,  5-O ) :   1.8692 B(  2-C ,  6-O ) :   1.8424

Dispersion correction           -0.008068427
FINAL SINGLE POINT ENERGY      -267.983145100782

DIPOLE MOMENT
-------------
                                X             Y             Z
Electronic contribution:      1.69191       5.72303       0.65057
Nuclear contribution   :     -2.24498      -7.51881      -0.57245
                        -----------------------------------------
Total Dipole Moment    :     -0.55307      -1.79578       0.07812
                        -----------------------------------------
Magnitude (a.u.)       :      1.88064
Magnitude (Debye)      :      4.78020

Rotational constants in cm-1:     0.305589     0.135336     0.107479
Rotational constants in MHz :  9161.317320  4057.276612  3222.126231

                             ****ORCA TERMINATED NORMALLY****
TOTAL RUN TIME: 0 days 0 hours 0 minutes 9 seconds 961 msec
