                         Program Version 5.0.0 -  RELEASE  -
|  1> !TPSS D3BJ RIJCOSX def2-TZVP def2/J TightSCF
|  2> *xyz 1 1
|  3> C         -0.69912        3.48945        3.75516
|  4> H         -0.96672        4.34901        3.14049
|  5> N         -1.08067        3.79296        5.15686
|  6> C          0.77696        3.13839        3.61741
|  7> H         -1.33146        2.65651        3.44632
|  8> H         -0.87449        4.76274        5.42734
|  9> H         -0.68079        3.13476        5.83900
| 10> H         -2.05755        3.53169        5.34620
| 11> H          0.99957        2.92898        2.59199
| 12> H          0.99576        2.27685        4.21303
| 13> H          1.37223        3.96279        3.95046
| 14> *
| 15> %MaxCore 64000
| 16>
| 17> %pal nprocs 4
| 18> end
| 19>
| 20> %scf
| 21>   MaxIter 150
| 22> end
| 23>
| 24>
| 25>                          ****END OF INPUT****

CARTESIAN COORDINATES (ANGSTROEM)
---------------------------------
  C     -0.699120    3.489450    3.755160
  H     -0.966720    4.349010    3.140490
  N     -1.080670    3.792960    5.156860
  C      0.776960    3.138390    3.617410
  H     -1.331460    2.656510    3.446320
  H     -0.874490    4.762740    5.427340
  H     -0.680790    3.134760    5.839000
  H     -2.057550    3.531690    5.346200
  H      0.999570    2.928980    2.591990
  H      0.995760    2.276850    4.213030
  H      1.372230    3.962790    3.950460

 Total Charge           Charge          ....    1
 Multiplicity           Mult            ....    1
 Number of Electrons    NEL             ....   26
 Basis Dimension        Dim             ....  141

ORBITAL ENERGIES
----------------

  NO   OCC          E(Eh)            E(eV)
   0   2.0000     -14.435870      -392.8200
   1   2.0000     -10.239158      -278.6216
   2   2.0000     -10.160219      -276.4736
   3   2.0000      -1.157646       -31.5011
   4   2.0000      -0.912953       -24.8427
   5   2.0000      -0.797496       -21.7010
   6   2.0000      -0.770489       -20.9661
   7   2.0000      -0.722731       -19.6665
   8   2.0000      -0.658028       -17.9058
   9   2.0000      -0.604147       -16.4397
  10   2.0000      -0.544154       -14.8072
  11   2.0000      -0.530793       -14.4436
  12   2.0000      -0.515903       -14.0384
  13   0.0000      -0.211005        -5.7417
  14   0.0000      -0.152772        -4.1571
  15   0.0000      -0.148865        -4.0508
  16   0.0000      -0.125835        -3.4241
  17   0.0000      -0.087668        -2.3856

MULLIKEN ATOMIC CHARGES
-----------------------
   0 C :   -0.183540
   1 H :    0.189372
   2 N :   -0.291042
   3 C :   -0.342451
   4 H :    0.177448
   5 H :    0.334626
   6 H :    0.315365
   7 H :    0.325033
   8 H :    0.179598
   9 H :    0.147560
  10 H :    0.148030
Sum of atomic charges:    1.0000000

LOEWDIN ATOMIC CHARGES
----------------------
   0 C :   -0.272575
   1 H :    0.151913
   2 N :    0.170875
   3 C :   -0.267574
   4 H :    0.150003
   5 H :    0.222404
   6 H :    0.219705
   7 H :    0.222955
   8 H :    0.145769
   9 H :    0.127735
  10 H :    0.128789

  Mayer bond orders larger than 0.100000
B(  0-C ,  1-H ) :   0.9436 B(  0-C ,  2-N ) :   0.8812 B(  0-C ,  3-C ) :   1.0442
B(  0-C ,  4-H ) :   0.9419 B(  2-N ,  5-H ) :   0.8692 B(  2-N ,  6-H ) :   0.8764
B(  2-N ,  7-H ) :   0.8789 B(  3-C ,  8-H ) :   0.9500 B(  3-C ,  9-H ) :   0.9545
B(  3-C , 10-H ) :   0.9558

Dispersion correction           -0.007415619
FINAL SINGLE POINT ENERGY      -135.608984295118

DIPOLE MOMENT
-------------
                                X             Y             Z
Electronic contribution:     -1.31952       0.57171       1.09091
Nuclear contribution   :      0.33986      -0.24565       0.10678
                        -----------------------------------------
Total Dipole Moment    :     -0.97966       0.32605       1.19769
                        -----------------------------------------
Magnitude (a.u.)       :      1.58130
Magnitude (Debye)      :      4.01934

Rotational constants in cm-1:     1.016237     0.277523     0.247812
Rotational constants in MHz : 30466.024354  8319.937961  7429.230177

                             ****ORCA TERMINATED NORMALLY****
TOTAL RUN TIME: 0 days 0 hours 0 minutes 7 seconds 763 msec
