                         Program Version 5.0.0 -  RELEASE  -
|  1> !TPSS D3BJ RIJCOSX def2-TZVP def2/J TightSCF
|  2> *xyz 0 1
|  3> C         -2.79070       -0.78527        5.70281
|  4> C         -2.45380        0.05510        6.94145
|  5> C         -2.07842        1.48042        6.56410
|  6> H         -1.62558       -0.38216        7.49891
|  7> H         -3.32527        0.08775        7.59917
|  8> F         -0.90125        1.85816        6.82810
|  9> O         -2.93658        2.17731        5.96415
| 10> H         -1.94052       -0.82114        5.05412
| 11> H         -3.61590       -0.34261        5.18514
| 12> H         -3.05063       -1.77815        6.00536
| 13> *
| 14> %MaxCore 64000
| 15>
| 16> %pal nprocs 4
| 17> end
| 18>
| 19> %scf
| 20>   MaxIter 150
| 21> end
| 22>
| 23>
| 24>                          ****END OF INPUT****

CARTESIAN COORDINATES (ANGSTROEM)
---------------------------------
  C     -2.790700   -0.785270    5.702810
  C     -2.453800    0.055100    6.941450
  C     -2.078420    1.480420    6.564100
  H     -1.625580   -0.382160    7.498910
  H     -3.325270    0.087750    7.599170
  F     -0.901250    1.858160    6.828100
  O     -2.936580    2.177310    5.964150
  H     -1.940520   -0.821140    5.054120
  H     -3.615900   -0.342610    5.185140
  H     -3.050630   -1.778150    6.005360

 Total Charge           Charge          ....    0
 Multiplicity           Mult            ....    1
 Number of Electrons    NEL             ....   40
 Basis Dimension        Dim             ....  185

ORBITAL ENERGIES
----------------

  NO   OCC          E(Eh)            E(eV)
   0   2.0000     -24.472508      -665.9308
   1   2.0000     -18.884844      -513.8827
   2   2.0000     -10.148724      -276.1608
   3   2.0000     -10.016352      -272.5588
   4   2.0000      -9.991556      -271.8841
   5   2.0000      -1.230613       -33.4867
   6   2.0000      -0.960066       -26.1247
   7   2.0000      -0.744370       -20.2553
   8   2.0000      -0.634267       -17.2593
   9   2.0000      -0.580698       -15.8016
  10   2.0000      -0.489528       -13.3207
  11   2.0000      -0.475265       -12.9326
  12   2.0000      -0.456238       -12.4149
  13   2.0000      -0.422011       -11.4835
  14   2.0000      -0.389399       -10.5961
  15   2.0000      -0.358538        -9.7563
  16   2.0000      -0.340500        -9.2655
  17   2.0000      -0.334197        -9.0940
  18   2.0000      -0.306916        -8.3516
  19   2.0000      -0.246592        -6.7101
  20   0.0000      -0.060937        -1.6582
  21   0.0000       0.024443         0.6651
  22   0.0000       0.062236         1.6935
  23   0.0000       0.074584         2.0295
  24   0.0000       0.086555         2.3553

MULLIKEN ATOMIC CHARGES
-----------------------
   0 C :   -0.346277
   1 C :   -0.172863
   2 C :    0.314073
   3 H :    0.100985
   4 H :    0.120196
   5 F :   -0.082050
   6 O :   -0.310505
   7 H :    0.115594
   8 H :    0.138892
   9 H :    0.121956
Sum of atomic charges:    0.0000000

LOEWDIN ATOMIC CHARGES
----------------------
   0 C :   -0.277206
   1 C :   -0.255235
   2 C :   -0.509548
   3 H :    0.135617
   4 H :    0.152032
   5 F :    0.321569
   6 O :    0.074915
   7 H :    0.117494
   8 H :    0.123244
   9 H :    0.117119

  Mayer bond orders larger than 0.100000
B(  0-C ,  1-C ) :   1.0048 B(  0-C ,  7-H ) :   0.9707 B(  0-C ,  8-H ) :   0.9648
B(  0-C ,  9-H ) :   0.9618 B(  1-C ,  2-C ) :   1.0141 B(  1-C ,  3-H ) :   0.9423
B(  1-C ,  4-H ) :   0.9301 B(  2-C ,  5-F ) :   1.1732 B(  2-C ,  6-O ) :   2.0538

Dispersion correction           -0.007649999
FINAL SINGLE POINT ENERGY      -292.559418767942

DIPOLE MOMENT
-------------
                                X             Y             Z
Electronic contribution:      3.96510       7.47512       1.46562
Nuclear contribution   :     -3.69486      -8.49563      -1.04945
                        -----------------------------------------
Total Dipole Moment    :      0.27024      -1.02052       0.41617
                        -----------------------------------------
Magnitude (a.u.)       :      1.13476
Magnitude (Debye)      :      2.88433

Rotational constants in cm-1:     0.293725     0.129218     0.102393
Rotational constants in MHz :  8805.653529  3873.869810  3069.666716

                             ****ORCA TERMINATED NORMALLY****
TOTAL RUN TIME: 0 days 0 hours 0 minutes 9 seconds 933 msec
