                         Program Version 5.0.0 -  RELEASE  -
|  1> !TPSS D3BJ RIJCOSX def2-TZVP def2/J TightSCF
|  2> *xyz 0 1
|  3> C         -0.69912        3.48945        3.75516
|  4> H         -0.96672        4.34901        3.14049
|  5> C         -1.08067        3.79296        5.15686
|  6> C          0.77696        3.13839        3.61741
|  7> H         -1.33146        2.65651        3.44632
|  8> H         -0.87449        4.76274        5.42734
|  9> H         -0.68079        3.13476        5.83900
| 10> H         -2.05755        3.53169        5.34620
| 11> H          0.99957        2.92898        2.59199
| 12> H          0.99576        2.27685        4.21303
| 13> H          1.37223        3.96279        3.95046
| 14> *
| 15> %MaxCore 64000
| 16>
| 17> %pal nprocs 4
| 18> end
| 19>
| 20> %scf
| 21>   MaxIter 150
| 22> end
| 23>
| 24>
| 25>                          ****END OF INPUT****

CARTESIAN COORDINATES (ANGSTROEM)
---------------------------------
  C     -0.699120    3.489450    3.755160
  H     -0.966720    4.349010    3.140490
  C     -1.080670    3.792960    5.156860
  C      0.776960    3.138390    3.617410
  H     -1.331460    2.656510    3.446320
  H     -0.874490    4.762740    5.427340
  H     -0.680790    3.134760    5.839000
  H     -2.057550    3.531690    5.346200
  H      0.999570    2.928980    2.591990
  H      0.995760    2.276850    4.213030
  H      1.372230    3.962790    3.950460

 Total Charge           Charge          ....    0
 Multiplicity           Mult            ....    1
 Number of Electrons    NEL             ....   26
 Basis Dimension        Dim             ....  141

ORBITAL ENERGIES
----------------

  NO   OCC          E(Eh)            E(eV)
   0   2.0000      -9.970827      -271.3200
   1   2.0000      -9.962555      -271.0949
   2   2.0000      -9.944139      -270.5938
   3   2.0000      -0.733230       -19.9522
   4   2.0000      -0.639535       -17.4026
   5   2.0000      -0.540991       -14.7211
   6   2.0000      -0.429449       -11.6859
   7   2.0000      -0.397174       -10.8077
   8   2.0000      -0.360740        -9.8162
   9   2.0000      -0.356499        -9.7008
  10   2.0000      -0.302825        -8.2403
  11   2.0000      -0.293912        -7.9978
  12   2.0000      -0.287847        -7.8327
  13   0.0000       0.031451         0.8558
  14   0.0000       0.073429         1.9981
  15   0.0000       0.079064         2.1514
  16   0.0000       0.081500         2.2177
  17   0.0000       0.105191         2.8624

MULLIKEN ATOMIC CHARGES
-----------------------
   0 C :   -0.135027
   1 H :    0.082244
   2 C :   -0.343087
   3 C :   -0.320271
   4 H :    0.079178
   5 H :    0.110130
   6 H :    0.102396
   7 H :    0.111548
   8 H :    0.108236
   9 H :    0.103292
  10 H :    0.101362
Sum of atomic charges:    0.0000000

LOEWDIN ATOMIC CHARGES
----------------------
   0 C :   -0.315855
   1 H :    0.128881
   2 C :   -0.304891
   3 C :   -0.298621
   4 H :    0.129841
   5 H :    0.105187
   6 H :    0.109065
   7 H :    0.109956
   8 H :    0.111334
   9 H :    0.112269
  10 H :    0.112832

  Mayer bond orders larger than 0.100000
B(  0-C ,  1-H ) :   0.9601 B(  0-C ,  2-C ) :   1.0211 B(  0-C ,  3-C ) :   1.0204
B(  0-C ,  4-H ) :   0.9592 B(  2-C ,  5-H ) :   0.9719 B(  2-C ,  6-H ) :   0.9738
B(  2-C ,  7-H ) :   0.9740 B(  3-C ,  8-H ) :   0.9708 B(  3-C ,  9-H ) :   0.9724
B(  3-C , 10-H ) :   0.9727

Dispersion correction           -0.007440263
FINAL SINGLE POINT ENERGY      -119.193069059323

DIPOLE MOMENT
-------------
                                X             Y             Z
Electronic contribution:     -0.14056       0.12259      -0.39751
Nuclear contribution   :      0.10024      -0.14218       0.41628
                        -----------------------------------------
Total Dipole Moment    :     -0.04032      -0.01959       0.01877
                        -----------------------------------------
Magnitude (a.u.)       :      0.04860
Magnitude (Debye)      :      0.12353

Rotational constants in cm-1:     1.024179     0.291605     0.259489
Rotational constants in MHz : 30704.103454  8742.106283  7779.285909

                             ****ORCA TERMINATED NORMALLY****
TOTAL RUN TIME: 0 days 0 hours 0 minutes 7 seconds 936 msec
