                         Program Version 5.0.0 -  RELEASE  -
|  1> !TPSS D3BJ RIJCOSX def2-TZVP def2/J TightSCF
|  2> *xyz 0 1
|  3> C         -2.79070       -0.78527        5.70281
|  4> C         -2.45380        0.05510        6.94145
|  5> C         -2.07842        1.48042        6.56410
|  6> H         -1.62558       -0.38216        7.49891
|  7> H         -3.32527        0.08775        7.59917
|  8> O         -0.90125        1.85816        6.82810
|  9> F         -2.93658        2.17731        5.96415
| 10> H         -1.94052       -0.82114        5.05412
| 11> H         -3.61590       -0.34261        5.18514
| 12> H         -3.05063       -1.77815        6.00536
| 13> *
| 14> %MaxCore 64000
| 15>
| 16> %pal nprocs 4
| 17> end
| 18>
| 19> %scf
| 20>   MaxIter 150
| 21> end
| 22>
| 23>
| 24>                          ****END OF INPUT****

CARTESIAN COORDINATES (ANGSTROEM)
---------------------------------
  C     -2.790700   -0.785270    5.702810
  C     -2.453800    0.055100    6.941450
  C     -2.078420    1.480420    6.564100
  H     -1.625580   -0.382160    7.498910
  H     -3.325270    0.087750    7.599170
  O     -0.901250    1.858160    6.828100
  F     -2.936580    2.177310    5.964150
  H     -1.940520   -0.821140    5.054120
  H     -3.615900   -0.342610    5.185140
  H     -3.050630   -1.778150    6.005360

 Total Charge           Charge          ....    0
 Multiplicity           Mult            ....    1
 Number of Electrons    NEL             ....   40
 Basis Dimension        Dim             ....  185

ORBITAL ENERGIES
----------------

  NO   OCC          E(Eh)            E(eV)
   0   2.0000     -24.475570      -666.0141
   1   2.0000     -18.882873      -513.8291
   2   2.0000     -10.148502      -276.1548
   3   2.0000     -10.015977      -272.5486
   4   2.0000      -9.995284      -271.9855
   5   2.0000      -1.235754       -33.6266
   6   2.0000      -0.955154       -25.9911
   7   2.0000      -0.747288       -20.3348
   8   2.0000      -0.632310       -17.2060
   9   2.0000      -0.587140       -15.9769
  10   2.0000      -0.493393       -13.4259
  11   2.0000      -0.480522       -13.0757
  12   2.0000      -0.451777       -12.2935
  13   2.0000      -0.422008       -11.4834
  14   2.0000      -0.391590       -10.6557
  15   2.0000      -0.360492        -9.8095
  16   2.0000      -0.343296        -9.3416
  17   2.0000      -0.336715        -9.1625
  18   2.0000      -0.308097        -8.3838
  19   2.0000      -0.240345        -6.5401
  20   0.0000      -0.058523        -1.5925
  21   0.0000       0.020845         0.5672
  22   0.0000       0.061643         1.6774
  23   0.0000       0.077690         2.1140
  24   0.0000       0.091338         2.4854

MULLIKEN ATOMIC CHARGES
-----------------------
   0 C :   -0.350942
   1 C :   -0.168058
   2 C :    0.307453
   3 H :    0.127486
   4 H :    0.105290
   5 O :   -0.314099
   6 F :   -0.080240
   7 H :    0.126555
   8 H :    0.120774
   9 H :    0.125781
Sum of atomic charges:    0.0000000

LOEWDIN ATOMIC CHARGES
----------------------
   0 C :   -0.283405
   1 C :   -0.251507
   2 C :   -0.512319
   3 H :    0.149161
   4 H :    0.143939
   5 O :    0.064905
   6 F :    0.333320
   7 H :    0.119855
   8 H :    0.117401
   9 H :    0.118650

  Mayer bond orders larger than 0.100000
B(  0-C ,  1-C ) :   0.9923 B(  0-C ,  7-H ) :   0.9696 B(  0-C ,  8-H ) :   0.9677
B(  0-C ,  9-H ) :   0.9616 B(  1-C ,  2-C ) :   1.0334 B(  1-C ,  3-H ) :   0.9495
B(  1-C ,  4-H ) :   0.9237 B(  2-C ,  5-O ) :   2.0593 B(  2-C ,  6-F ) :   1.1681

Dispersion correction           -0.007609410
FINAL SINGLE POINT ENERGY      -292.557018638055

DIPOLE MOMENT
-------------
                                X             Y             Z
Electronic contribution:      0.61037       7.97836       0.04737
Nuclear contribution   :     -1.47571      -8.84360      -0.10748
                        -----------------------------------------
Total Dipole Moment    :     -0.86534      -0.86525      -0.06011
                        -----------------------------------------
Magnitude (a.u.)       :      1.22518
Magnitude (Debye)      :      3.11417

Rotational constants in cm-1:     0.283081     0.133379     0.103386
Rotational constants in MHz :  8486.545774  3998.599544  3099.448040

                             ****ORCA TERMINATED NORMALLY****
TOTAL RUN TIME: 0 days 0 hours 0 minutes 9 seconds 922 msec
