                         Program Version 5.0.0 -  RELEASE  -
|  1> !TPSS D3BJ RIJCOSX def2-TZVPD def2/J TightSCF
|  2> *xyz -1 1
|  3> C          2.49556        1.81615       -2.13636
|  4> C          1.87218        0.42790       -2.07750
|  5> H          2.61427       -0.36583       -2.19889
|  6> H          1.38995        0.27309       -1.11236
|  7> S          0.57902        0.14047       -3.29794
|  8> O          0.22886       -1.24687       -3.12787
|  9> O         -0.43927        1.11897       -3.01455
| 10> O          1.24788        0.40347       -4.59565
| 11> H          2.96535        1.95613       -3.08747
| 12> H          3.22581        1.91242       -1.36024
| 13> H          1.73350        2.55528       -2.00274
| 14> *
| 15>
| 16> %MaxCore 64000
| 17>
| 18> %pal nprocs 4
| 19> end
| 20>
| 21> %scf
| 22>   MaxIter 150
| 23> end
| 24>
| 25>
| 26>                          ****END OF INPUT****

CARTESIAN COORDINATES (ANGSTROEM)
---------------------------------
  C      2.495560    1.816150   -2.136360
  C      1.872180    0.427900   -2.077500
  H      2.614270   -0.365830   -2.198890
  H      1.389950    0.273090   -1.112360
  S      0.579020    0.140470   -3.297940
  O      0.228860   -1.246870   -3.127870
  O     -0.439270    1.118970   -3.014550
  O      1.247880    0.403470   -4.595650
  H      2.965350    1.956130   -3.087470
  H      3.225810    1.912420   -1.360240
  H      1.733500    2.555280   -2.002740

 Total Charge           Charge          ....   -1
 Multiplicity           Mult            ....    1
 Number of Electrons    NEL             ....   58
 Basis Dimension        Dim             ....  285

ORBITAL ENERGIES
----------------

  NO   OCC          E(Eh)            E(eV)
   0   2.0000     -88.324578     -2403.4340
   1   2.0000     -18.663688      -507.8648
   2   2.0000     -18.663539      -507.8607
   3   2.0000     -18.649877      -507.4890
   4   2.0000      -9.840023      -267.7606
   5   2.0000      -9.836062      -267.6529
   6   2.0000      -7.673636      -208.8103
   7   2.0000      -5.653093      -153.8285
   8   2.0000      -5.652334      -153.8078
   9   2.0000      -5.652125      -153.8021
  10   2.0000      -0.849128       -23.1059
  11   2.0000      -0.728575       -19.8255
  12   2.0000      -0.703424       -19.1412
  13   2.0000      -0.571506       -15.5515
  14   2.0000      -0.450375       -12.2553
  15   2.0000      -0.329039        -8.9536
  16   2.0000      -0.271892        -7.3986
  17   2.0000      -0.265774        -7.2321
  18   2.0000      -0.227076        -6.1790
  19   2.0000      -0.213562        -5.8113
  20   2.0000      -0.207982        -5.6595
  21   2.0000      -0.186772        -5.0823
  22   2.0000      -0.172036        -4.6813
  23   2.0000      -0.106303        -2.8927
  24   2.0000      -0.105798        -2.8789
  25   2.0000      -0.075004        -2.0410
  26   2.0000      -0.067758        -1.8438
  27   2.0000      -0.057409        -1.5622
  28   2.0000      -0.022061        -0.6003
  29   0.0000       0.116432         3.1683
  30   0.0000       0.138243         3.7618
  31   0.0000       0.143903         3.9158
  32   0.0000       0.151471         4.1217
  33   0.0000       0.169509         4.6126

MULLIKEN ATOMIC CHARGES
-----------------------
   0 C :   -0.996287
   1 C :   -0.303326
   2 H :    0.217477
   3 H :    0.216167
   4 S :    1.336727
   5 O :   -0.732468
   6 O :   -0.745895
   7 O :   -0.788482
   8 H :    0.285116
   9 H :    0.229195
  10 H :    0.281775
Sum of atomic charges:   -1.0000000

LOEWDIN ATOMIC CHARGES
----------------------
   0 C :   -0.146339
   1 C :   -0.330433
   2 H :    0.079215
   3 H :    0.074745
   4 S :    0.317720
   5 O :   -0.376401
   6 O :   -0.370006
   7 O :   -0.403598
   8 H :    0.055014
   9 H :    0.043762
  10 H :    0.056322

  Mayer bond orders larger than 0.100000
B(  0-C ,  1-C ) :   0.9704 B(  0-C ,  8-H ) :   0.9447 B(  0-C ,  9-H ) :   0.9463
B(  0-C , 10-H ) :   0.9377 B(  1-C ,  2-H ) :   0.9277 B(  1-C ,  3-H ) :   0.9307
B(  1-C ,  4-S ) :   0.8442 B(  1-C ,  5-O ) :   0.1706 B(  1-C ,  6-O ) :   0.1414
B(  1-C ,  7-O ) :   0.1265 B(  4-S ,  5-O ) :   1.4071 B(  4-S ,  6-O ) :   1.4193
B(  4-S ,  7-O ) :   1.3709

Dispersion correction           -0.012152819
FINAL SINGLE POINT ENERGY      -703.379878711526

DIPOLE MOMENT
-------------
                                X             Y             Z
Electronic contribution:     -5.74268      -3.61140      -4.14790
Nuclear contribution   :      6.89220       4.11756       5.35566
                        -----------------------------------------
Total Dipole Moment    :      1.14951       0.50617       1.20777
                        -----------------------------------------
Magnitude (a.u.)       :      1.74249
Magnitude (Debye)      :      4.42907

Rotational constants in cm-1:     0.162183     0.084017     0.082390
Rotational constants in MHz :  4862.117324  2518.774315  2469.980309

                             ****ORCA TERMINATED NORMALLY****
TOTAL RUN TIME: 0 days 0 hours 0 minutes 18 seconds 321 msec
