                         Program Version 5.0.0 -  RELEASE  -
|  1> !TPSS D3BJ RIJCOSX def2-TZVPD def2/J TightSCF
|  2> *xyz 1 1
|  3> C          3.38093        2.08304       -3.35013
|  4> N          4.53592        1.18245       -3.42852
|  5> C          2.49556        1.81615       -2.13636
|  6> C          4.67196        0.12227       -4.22060
|  7> N          5.86602       -0.50785       -4.22428
|  8> N          3.69888       -0.31284       -4.98699
|  9> H          2.73141       -0.05009       -4.84900
| 10> H          3.89005       -1.05517       -5.64373
| 11> H          5.25193        1.30346       -2.72101
| 12> H          6.69516       -0.06232       -3.85160
| 13> H          5.97538       -1.39688       -4.69141
| 14> H          2.80646        1.98651       -4.26848
| 15> H          3.77871        3.09828       -3.30738
| 16> H          2.11090        0.81901       -2.18783
| 17> H          1.68276        2.51198       -2.12786
| 18> H          3.07216        1.93031       -1.24227
| 19> *
| 20>
| 21> %MaxCore 64000
| 22>
| 23> %pal nprocs 4
| 24> end
| 25>
| 26> %scf
| 27>   MaxIter 150
| 28> end
| 29>
| 30>
| 31>                          ****END OF INPUT****

CARTESIAN COORDINATES (ANGSTROEM)
---------------------------------
  C      3.380930    2.083040   -3.350130
  N      4.535920    1.182450   -3.428520
  C      2.495560    1.816150   -2.136360
  C      4.671960    0.122270   -4.220600
  N      5.866020   -0.507850   -4.224280
  N      3.698880   -0.312840   -4.986990
  H      2.731410   -0.050090   -4.849000
  H      3.890050   -1.055170   -5.643730
  H      5.251930    1.303460   -2.721010
  H      6.695160   -0.062320   -3.851600
  H      5.975380   -1.396880   -4.691410
  H      2.806460    1.986510   -4.268480
  H      3.778710    3.098280   -3.307380
  H      2.110900    0.819010   -2.187830
  H      1.682760    2.511980   -2.127860
  H      3.072160    1.930310   -1.242270

 Total Charge           Charge          ....    1
 Multiplicity           Mult            ....    1
 Number of Electrons    NEL             ....   48
 Basis Dimension        Dim             ....  312

ORBITAL ENERGIES
----------------

  NO   OCC          E(Eh)            E(eV)
   0   2.0000     -14.326179      -389.8351
   1   2.0000     -14.320801      -389.6888
   2   2.0000     -14.318492      -389.6260
   3   2.0000     -10.308123      -280.4983
   4   2.0000     -10.191432      -277.3230
   5   2.0000     -10.120958      -275.4053
   6   2.0000      -1.144467       -31.1425
   7   2.0000      -1.041989       -28.3540
   8   2.0000      -1.028066       -27.9751
   9   2.0000      -0.874337       -23.7919
  10   2.0000      -0.790910       -21.5218
  11   2.0000      -0.752785       -20.4843
  12   2.0000      -0.736642       -20.0450
  13   2.0000      -0.694918       -18.9097
  14   2.0000      -0.651299       -17.7227
  15   2.0000      -0.647418       -17.6171
  16   2.0000      -0.599042       -16.3007
  17   2.0000      -0.584926       -15.9166
  18   2.0000      -0.563493       -15.3334
  19   2.0000      -0.517399       -14.0792
  20   2.0000      -0.493757       -13.4358
  21   2.0000      -0.479243       -13.0409
  22   2.0000      -0.438062       -11.9203
  23   2.0000      -0.410098       -11.1593
  24   0.0000      -0.193608        -5.2683
  25   0.0000      -0.172917        -4.7053
  26   0.0000      -0.141206        -3.8424
  27   0.0000      -0.131839        -3.5875
  28   0.0000      -0.114803        -3.1239

MULLIKEN ATOMIC CHARGES
-----------------------
   0 C :   -0.364244
   1 N :   -0.201231
   2 C :   -0.731377
   3 C :    0.895338
   4 N :   -0.394967
   5 N :   -0.337073
   6 H :    0.193152
   7 H :    0.179090
   8 H :    0.197290
   9 H :    0.192318
  10 H :    0.175341
  11 H :    0.281691
  12 H :    0.141744
  13 H :    0.251367
  14 H :    0.260122
  15 H :    0.261441
Sum of atomic charges:    1.0000000

LOEWDIN ATOMIC CHARGES
----------------------
   0 C :   -0.192030
   1 N :    0.089478
   2 C :   -0.052632
   3 C :   -0.444000
   4 N :    0.200275
   5 N :    0.225552
   6 H :    0.136039
   7 H :    0.140781
   8 H :    0.166417
   9 H :    0.135274
  10 H :    0.131234
  11 H :    0.112482
  12 H :    0.126584
  13 H :    0.069767
  14 H :    0.080441
  15 H :    0.074339

  Mayer bond orders larger than 0.100000
B(  0-C ,  1-N ) :   0.9555 B(  0-C ,  2-C ) :   0.9022 B(  0-C ,  3-C ) :  -0.1096
B(  0-C , 11-H ) :   0.8679 B(  0-C , 12-H ) :   0.9986 B(  1-N ,  3-C ) :   1.1650
B(  1-N ,  4-N ) :   0.1262 B(  1-N ,  8-H ) :   0.9974 B(  2-C , 13-H ) :   0.9699
B(  2-C , 14-H ) :   0.9643 B(  2-C , 15-H ) :   0.9303 B(  3-C ,  4-N ) :   0.9559
B(  3-C ,  5-N ) :   1.0948 B(  4-N ,  9-H ) :   0.9983 B(  4-N , 10-H ) :   1.0380
B(  5-N ,  6-H ) :   0.9719 B(  5-N ,  7-H ) :   1.0276

Dispersion correction           -0.014912475
FINAL SINGLE POINT ENERGY      -284.561441579763

DIPOLE MOMENT
-------------
                                X             Y             Z
Electronic contribution:      3.54393      -2.63237      -2.80482
Nuclear contribution   :     -2.93277       1.85779       2.25966
                        -----------------------------------------
Total Dipole Moment    :      0.61117      -0.77457      -0.54516
                        -----------------------------------------
Magnitude (a.u.)       :      1.12725
Magnitude (Debye)      :      2.86524

Rotational constants in cm-1:     0.245511     0.068839     0.059711
Rotational constants in MHz :  7360.233487  2063.743353  1790.088408

                             ****ORCA TERMINATED NORMALLY****
TOTAL RUN TIME: 0 days 0 hours 0 minutes 21 seconds 765 msec
