                         Program Version 5.0.0 -  RELEASE  -
|  1> !TPSS D3BJ RIJCOSX def2-TZVPD def2/J TightSCF xyzfile
|  2>
|  3> *xyzfile 0 1 B.xyz
|  4>
|  5> %MaxCore 64000
|  6>
|  7> %pal nprocs 4
|  8> end
|  9>
| 10> %scf
| 11>   MaxIter 150
| 12> end
| 13>
| 14>
| 15>                          ****END OF INPUT****

CARTESIAN COORDINATES (ANGSTROEM)
---------------------------------
  C      3.380928    2.083045   -3.350127
  N      4.535924    1.182447   -3.428518
  C      2.495557    1.816150   -2.136364
  C      1.872181    0.427903   -2.077497
  H      2.614270   -0.365825   -2.198894
  H      1.389953    0.273087   -1.112360
  S      0.579024    0.140472   -3.297943
  C      4.671956    0.122273   -4.220598
  N      5.866023   -0.507849   -4.224284
  N      3.698881   -0.312844   -4.986988
  H      2.731405   -0.050091   -4.849000
  H      3.890046   -1.055172   -5.643730
  H      5.251933    1.303459   -2.721014
  H      6.695165   -0.062322   -3.851596
  H      5.975383   -1.396884   -4.691414
  O      0.228860   -1.246868   -3.127871
  O     -0.439269    1.118966   -3.014550
  O      1.247881    0.403474   -4.595647
  H      1.697003    2.561969   -2.141109
  H      3.080787    1.987436   -1.225838
  H      2.806463    1.986511   -4.268484
  H      3.778714    3.098282   -3.307383

 Total Charge           Charge          ....    0
 Multiplicity           Mult            ....    1
 Number of Electrons    NEL             ....   96
 Basis Dimension        Dim             ....  524

ORBITAL ENERGIES
----------------

  NO   OCC          E(Eh)            E(eV)
   0   2.0000     -88.472071     -2407.4474
   1   2.0000     -18.817004      -512.0367
   2   2.0000     -18.801807      -511.6232
   3   2.0000     -18.801591      -511.6173
   4   2.0000     -14.193603      -386.2276
   5   2.0000     -14.187500      -386.0615
   6   2.0000     -14.158676      -385.2772
   7   2.0000     -10.168279      -276.6929
   8   2.0000     -10.049504      -273.4609
   9   2.0000      -9.999709      -272.1059
  10   2.0000      -9.983942      -271.6769
  11   2.0000      -7.821263      -212.8274
  12   2.0000      -5.801167      -157.8578
  13   2.0000      -5.800129      -157.8295
  14   2.0000      -5.799099      -157.8015
  15   2.0000      -1.006580       -27.3904
  16   2.0000      -0.996616       -27.1193
  17   2.0000      -0.904692       -24.6179
  18   2.0000      -0.890008       -24.2183
  19   2.0000      -0.866523       -23.5793
  20   2.0000      -0.866153       -23.5692
  21   2.0000      -0.751231       -20.4420
  22   2.0000      -0.683064       -18.5871
  23   2.0000      -0.635245       -17.2859
  24   2.0000      -0.599677       -16.3180
  25   2.0000      -0.589693       -16.0464
  26   2.0000      -0.557335       -15.1659
  27   2.0000      -0.517391       -14.0789
  28   2.0000      -0.504188       -13.7196
  29   2.0000      -0.481339       -13.0979
  30   2.0000      -0.461424       -12.5560
  31   2.0000      -0.444282       -12.0895
  32   2.0000      -0.429829       -11.6963
  33   2.0000      -0.407950       -11.1009
  34   2.0000      -0.389109       -10.5882
  35   2.0000      -0.371872       -10.1191
  36   2.0000      -0.352423        -9.5899
  37   2.0000      -0.342956        -9.3323
  38   2.0000      -0.333562        -9.0767
  39   2.0000      -0.323860        -8.8127
  40   2.0000      -0.299752        -8.1567
  41   2.0000      -0.275201        -7.4886
  42   2.0000      -0.256992        -6.9931
  43   2.0000      -0.249195        -6.7810
  44   2.0000      -0.222522        -6.0551
  45   2.0000      -0.212161        -5.7732
  46   2.0000      -0.208426        -5.6716
  47   2.0000      -0.173343        -4.7169
  48   0.0000      -0.062899        -1.7116
  49   0.0000      -0.057600        -1.5674
  50   0.0000      -0.028397        -0.7727
  51   0.0000      -0.011824        -0.3217
  52   0.0000       0.007811         0.2125

MULLIKEN ATOMIC CHARGES
-----------------------
   0 C :   -0.534209
   1 N :   -0.245088
   2 C :   -0.223725
   3 C :   -0.504607
   4 H :    0.246476
   5 H :    0.173453
   6 S :    1.382667
   7 C :    0.886847
   8 N :   -0.445302
   9 N :   -0.234423
  10 H :    0.222846
  11 H :    0.172829
  12 H :    0.205537
  13 H :    0.175443
  14 H :    0.163954
  15 O :   -0.724276
  16 O :   -0.718571
  17 O :   -0.909038
  18 H :    0.199189
  19 H :    0.131482
  20 H :    0.508641
  21 H :    0.069876
Sum of atomic charges:   -0.0000000

LOEWDIN ATOMIC CHARGES
----------------------
   0 C :   -0.155283
   1 N :    0.089927
   2 C :   -0.198095
   3 C :   -0.252828
   4 H :    0.085162
   5 H :    0.097149
   6 S :    0.392560
   7 C :   -0.455221
   8 N :    0.171495
   9 N :    0.236308
  10 H :    0.024219
  11 H :    0.135124
  12 H :    0.156207
  13 H :    0.118654
  14 H :    0.118890
  15 O :   -0.324388
  16 O :   -0.313475
  17 O :   -0.379376
  18 H :    0.116136
  19 H :    0.105352
  20 H :    0.111452
  21 H :    0.120028

  Mayer bond orders larger than 0.100000
B(  0-C ,  1-N ) :   0.9399 B(  0-C ,  2-C ) :   0.9755 B(  0-C ,  7-C ) :  -0.1347
B(  0-C , 20-H ) :   0.6981 B(  0-C , 21-H ) :   0.9584 B(  1-N ,  7-C ) :   1.1640
B(  1-N ,  8-N ) :   0.1329 B(  1-N , 12-H ) :   0.9810 B(  2-C ,  3-C ) :   1.2323
B(  2-C ,  6-S ) :   0.1400 B(  2-C , 18-H ) :   0.9167 B(  2-C , 19-H ) :   0.8825
B(  3-C ,  4-H ) :   0.8579 B(  3-C ,  5-H ) :   0.9262 B(  3-C ,  6-S ) :   0.8320
B(  3-C , 15-O ) :   0.1756 B(  3-C , 16-O ) :   0.1343 B(  6-S , 15-O ) :   1.3519
B(  6-S , 16-O ) :   1.3827 B(  6-S , 17-O ) :   1.2701 B(  7-C ,  8-N ) :   0.8810
B(  7-C ,  9-N ) :   1.1703 B(  8-N , 13-H ) :   1.0106 B(  8-N , 14-H ) :   1.0512
B(  9-N , 10-H ) :   0.7947 B(  9-N , 11-H ) :   1.0293 B(  9-N , 17-O ) :  -0.1144

Dispersion correction           -0.031627010
FINAL SINGLE POINT ENERGY      -947.546419335448

DIPOLE MOMENT
-------------
                                X             Y             Z
Electronic contribution:     -7.23862      -3.20284      -2.46526
Nuclear contribution   :     13.40759       3.44219       2.21042
                        -----------------------------------------
Total Dipole Moment    :      6.16897       0.23935      -0.25484
                        -----------------------------------------
Magnitude (a.u.)       :      6.17887
Magnitude (Debye)      :     15.70544

Rotational constants in cm-1:     0.059860     0.020817     0.017914
Rotational constants in MHz :  1794.564877   624.092098   537.039275

                             ****ORCA TERMINATED NORMALLY****
TOTAL RUN TIME: 0 days 0 hours 1 minutes 12 seconds 480 msec
