                         Program Version 5.0.0 -  RELEASE  -
|  1> !TPSS D3BJ RIJCOSX def2-TZVPD def2/J TightSCF
|  2> *xyz 0 1
|  3> C          2.49556        1.81615       -2.13636
|  4> C          1.87218        0.42790       -2.07750
|  5> H          2.61427       -0.36583       -2.19889
|  6> H          1.38995        0.27309       -1.11236
|  7> S          0.57902        0.14047       -3.29794
|  8> F          0.22886       -1.24687       -3.12787
|  9> O         -0.43927        1.11897       -3.01455
| 10> O          1.24788        0.40347       -4.59565
| 11> H          2.96535        1.95613       -3.08747
| 12> H          3.22581        1.91242       -1.36024
| 13> H          1.73350        2.55528       -2.00274
| 14> *
| 15>
| 16> %MaxCore 64000
| 17>
| 18> %pal nprocs 4
| 19> end
| 20>
| 21> %scf
| 22>   MaxIter 150
| 23> end
| 24>
| 25>
| 26>                          ****END OF INPUT****

CARTESIAN COORDINATES (ANGSTROEM)
---------------------------------
  C      2.495560    1.816150   -2.136360
  C      1.872180    0.427900   -2.077500
  H      2.614270   -0.365830   -2.198890
  H      1.389950    0.273090   -1.112360
  S      0.579020    0.140470   -3.297940
  F      0.228860   -1.246870   -3.127870
  O     -0.439270    1.118970   -3.014550
  O      1.247880    0.403470   -4.595650
  H      2.965350    1.956130   -3.087470
  H      3.225810    1.912420   -1.360240
  H      1.733500    2.555280   -2.002740

 Total Charge           Charge          ....    0
 Multiplicity           Mult            ....    1
 Number of Electrons    NEL             ....   58
 Basis Dimension        Dim             ....  285

ORBITAL ENERGIES
----------------

  NO   OCC          E(Eh)            E(eV)
   0   2.0000     -88.583637     -2410.4833
   1   2.0000     -24.527674      -667.4319
   2   2.0000     -18.896929      -514.2116
   3   2.0000     -18.882901      -513.8299
   4   2.0000     -10.041867      -273.2531
   5   2.0000     -10.001344      -272.1504
   6   2.0000      -7.933390      -215.8785
   7   2.0000      -5.916607      -160.9991
   8   2.0000      -5.909835      -160.8148
   9   2.0000      -5.909576      -160.8077
  10   2.0000      -1.302141       -35.4331
  11   2.0000      -1.032347       -28.0916
  12   2.0000      -0.936330       -25.4788
  13   2.0000      -0.761373       -20.7180
  14   2.0000      -0.678268       -18.4566
  15   2.0000      -0.619981       -16.8705
  16   2.0000      -0.531155       -14.4535
  17   2.0000      -0.527388       -14.3510
  18   2.0000      -0.503770       -13.7083
  19   2.0000      -0.449851       -12.2411
  20   2.0000      -0.434758       -11.8304
  21   2.0000      -0.396614       -10.7924
  22   2.0000      -0.387023       -10.5314
  23   2.0000      -0.369626       -10.0580
  24   2.0000      -0.350394        -9.5347
  25   2.0000      -0.341169        -9.2837
  26   2.0000      -0.293587        -7.9889
  27   2.0000      -0.280186        -7.6242
  28   2.0000      -0.262591        -7.1455
  29   0.0000      -0.023963        -0.6521
  30   0.0000      -0.003834        -0.1043
  31   0.0000       0.012077         0.3286
  32   0.0000       0.018623         0.5067
  33   0.0000       0.028708         0.7812

MULLIKEN ATOMIC CHARGES
-----------------------
   0 C :   -0.980043
   1 C :   -0.234813
   2 H :    0.251582
   3 H :    0.251822
   4 S :    1.177062
   5 F :   -0.109925
   6 O :   -0.577220
   7 O :   -0.613868
   8 H :    0.307423
   9 H :    0.217112
  10 H :    0.310868
Sum of atomic charges:    0.0000000

LOEWDIN ATOMIC CHARGES
----------------------
   0 C :   -0.098449
   1 C :   -0.286290
   2 H :    0.097254
   3 H :    0.093151
   4 S :    0.561612
   5 F :   -0.043338
   6 O :   -0.254610
   7 O :   -0.286183
   8 H :    0.071825
   9 H :    0.072169
  10 H :    0.072858

  Mayer bond orders larger than 0.100000
B(  0-C ,  1-C ) :   1.0385 B(  0-C ,  8-H ) :   0.9178 B(  0-C ,  9-H ) :   0.9602
B(  0-C , 10-H ) :   0.9071 B(  1-C ,  2-H ) :   0.8789 B(  1-C ,  3-H ) :   0.8839
B(  1-C ,  4-S ) :   0.8415 B(  1-C ,  6-O ) :   0.1093 B(  4-S ,  5-F ) :   1.0089
B(  4-S ,  6-O ) :   1.6552 B(  4-S ,  7-O ) :   1.6007 B(  6-O ,  7-O ) :   0.1210

Dispersion correction           -0.011625322
FINAL SINGLE POINT ENERGY      -727.901592185647

DIPOLE MOMENT
-------------
                                X             Y             Z
Electronic contribution:     -6.84612      -6.36641      -4.14929
Nuclear contribution   :      7.60530       5.82028       5.38743
                        -----------------------------------------
Total Dipole Moment    :      0.75918      -0.54613       1.23814
                        -----------------------------------------
Magnitude (a.u.)       :      1.55165
Magnitude (Debye)      :      3.94398

Rotational constants in cm-1:     0.157861     0.081452     0.078859
Rotational constants in MHz :  4732.562506  2441.865430  2364.129821

                             ****ORCA TERMINATED NORMALLY****
TOTAL RUN TIME: 0 days 0 hours 0 minutes 16 seconds 130 msec
