                         Program Version 5.0.0 -  RELEASE  -
|  1> !TPSS D3BJ RIJCOSX def2-TZVPD def2/J TightSCF
|  2> *xyz 0 1
|  3> C          3.38093        2.08304       -3.35013
|  4> C          4.53592        1.18245       -3.42852
|  5> C          2.49556        1.81615       -2.13636
|  6> C          4.67196        0.12227       -4.22060
|  7> N          5.86602       -0.50785       -4.22428
|  8> N          3.69888       -0.31284       -4.98699
|  9> H          2.73141       -0.05009       -4.84900
| 10> H          3.89005       -1.05517       -5.64373
| 11> H          5.25193        1.30346       -2.72101
| 12> H          6.69516       -0.06232       -3.85160
| 13> H          5.97538       -1.39688       -4.69141
| 14> H          2.80646        1.98651       -4.26848
| 15> H          3.77871        3.09828       -3.30738
| 16> H          2.11090        0.81901       -2.18783
| 17> H          1.68276        2.51198       -2.12786
| 18> H          3.07216        1.93031       -1.24227
| 19> *
| 20>
| 21> %MaxCore 64000
| 22>
| 23> %pal nprocs 4
| 24> end
| 25>
| 26> %scf
| 27>   MaxIter 150
| 28> end
| 29>
| 30>
| 31>                          ****END OF INPUT****

CARTESIAN COORDINATES (ANGSTROEM)
---------------------------------
  C      3.380930    2.083040   -3.350130
  C      4.535920    1.182450   -3.428520
  C      2.495560    1.816150   -2.136360
  C      4.671960    0.122270   -4.220600
  N      5.866020   -0.507850   -4.224280
  N      3.698880   -0.312840   -4.986990
  H      2.731410   -0.050090   -4.849000
  H      3.890050   -1.055170   -5.643730
  H      5.251930    1.303460   -2.721010
  H      6.695160   -0.062320   -3.851600
  H      5.975380   -1.396880   -4.691410
  H      2.806460    1.986510   -4.268480
  H      3.778710    3.098280   -3.307380
  H      2.110900    0.819010   -2.187830
  H      1.682760    2.511980   -2.127860
  H      3.072160    1.930310   -1.242270

 Total Charge           Charge          ....    0
 Multiplicity           Mult            ....    1
 Number of Electrons    NEL             ....   48
 Basis Dimension        Dim             ....  312

ORBITAL ENERGIES
----------------

  NO   OCC          E(Eh)            E(eV)
   0   2.0000     -14.105837      -383.8393
   1   2.0000     -14.098635      -383.6433
   2   2.0000     -10.021778      -272.7064
   3   2.0000      -9.958328      -270.9799
   4   2.0000      -9.949408      -270.7372
   5   2.0000      -9.905847      -269.5518
   6   2.0000      -0.896413       -24.3926
   7   2.0000      -0.810786       -22.0626
   8   2.0000      -0.712669       -19.3927
   9   2.0000      -0.639771       -17.4090
  10   2.0000      -0.567241       -15.4354
  11   2.0000      -0.529661       -14.4128
  12   2.0000      -0.497762       -13.5448
  13   2.0000      -0.462127       -12.5751
  14   2.0000      -0.437270       -11.8987
  15   2.0000      -0.399700       -10.8764
  16   2.0000      -0.373336       -10.1590
  17   2.0000      -0.350624        -9.5410
  18   2.0000      -0.337217        -9.1761
  19   2.0000      -0.310283        -8.4432
  20   2.0000      -0.289837        -7.8869
  21   2.0000      -0.284437        -7.7399
  22   2.0000      -0.224848        -6.1184
  23   2.0000      -0.128691        -3.5019
  24   0.0000      -0.013351        -0.3633
  25   0.0000       0.011449         0.3115
  26   0.0000       0.023027         0.6266
  27   0.0000       0.033468         0.9107
  28   0.0000       0.047703         1.2981

MULLIKEN ATOMIC CHARGES
-----------------------
   0 C :   -0.375001
   1 C :   -0.946609
   2 C :   -0.798510
   3 C :    1.086893
   4 N :   -0.502889
   5 N :   -0.453755
   6 H :    0.149699
   7 H :    0.145019
   8 H :    0.339592
   9 H :    0.154459
  10 H :    0.148423
  11 H :    0.199955
  12 H :    0.111475
  13 H :    0.253593
  14 H :    0.224535
  15 H :    0.263122
Sum of atomic charges:    0.0000000

LOEWDIN ATOMIC CHARGES
----------------------
   0 C :   -0.274366
   1 C :   -0.138426
   2 C :   -0.103988
   3 C :   -0.548882
   4 N :    0.104869
   5 N :    0.132550
   6 H :    0.108657
   7 H :    0.100189
   8 H :    0.065257
   9 H :    0.105366
  10 H :    0.088819
  11 H :    0.089335
  12 H :    0.096726
  13 H :    0.059340
  14 H :    0.053135
  15 H :    0.061419

  Mayer bond orders larger than 0.100000
B(  0-C ,  1-C ) :   1.0512 B(  0-C ,  2-C ) :   0.7140 B(  0-C , 11-H ) :   0.9450
B(  0-C , 12-H ) :   1.0621 B(  1-C ,  2-C ) :   0.1131 B(  1-C ,  3-C ) :   1.3155
B(  1-C ,  4-N ) :   0.2326 B(  1-C ,  5-N ) :   0.1732 B(  1-C ,  8-H ) :   0.8752
B(  2-C , 13-H ) :   0.9709 B(  2-C , 14-H ) :   0.9624 B(  2-C , 15-H ) :   0.9588
B(  3-C ,  4-N ) :   0.7147 B(  3-C ,  5-N ) :   0.8260 B(  4-N ,  9-H ) :   1.0415
B(  4-N , 10-H ) :   1.0726 B(  5-N ,  6-H ) :   1.0163 B(  5-N ,  7-H ) :   1.0652

Dispersion correction           -0.015532277
FINAL SINGLE POINT ENERGY      -268.070041307649

DIPOLE MOMENT
-------------
                                X             Y             Z
Electronic contribution:      3.00807      -2.78779      -2.89059
Nuclear contribution   :     -2.84307       1.95814       2.32378
                        -----------------------------------------
Total Dipole Moment    :      0.16499      -0.82965      -0.56681
                        -----------------------------------------
Magnitude (a.u.)       :      1.01824
Magnitude (Debye)      :      2.58816

Rotational constants in cm-1:     0.248902     0.068887     0.059904
Rotational constants in MHz :  7461.898926  2065.183281  1795.882140

                             ****ORCA TERMINATED NORMALLY****
TOTAL RUN TIME: 0 days 0 hours 0 minutes 24 seconds 317 msec
