                         Program Version 5.0.0 -  RELEASE  -
|  1> !TPSS D3BJ RIJCOSX def2-TZVPD def2/J TightSCF
|  2> *xyz 0 1
|  3> C          2.49556        1.81615       -2.13636
|  4> C          1.87218        0.42790       -2.07750
|  5> H          2.61427       -0.36583       -2.19889
|  6> H          1.38995        0.27309       -1.11236
|  7> S          0.57902        0.14047       -3.29794
|  8> O          0.22886       -1.24687       -3.12787
|  9> F         -0.43927        1.11897       -3.01455
| 10> O          1.24788        0.40347       -4.59565
| 11> H          2.96535        1.95613       -3.08747
| 12> H          3.22581        1.91242       -1.36024
| 13> H          1.73350        2.55528       -2.00274
| 14> *
| 15>
| 16> %MaxCore 64000
| 17>
| 18> %pal nprocs 4
| 19> end
| 20>
| 21> %scf
| 22>   MaxIter 150
| 23> end
| 24>
| 25>
| 26>                          ****END OF INPUT****

CARTESIAN COORDINATES (ANGSTROEM)
---------------------------------
  C      2.495560    1.816150   -2.136360
  C      1.872180    0.427900   -2.077500
  H      2.614270   -0.365830   -2.198890
  H      1.389950    0.273090   -1.112360
  S      0.579020    0.140470   -3.297940
  O      0.228860   -1.246870   -3.127870
  F     -0.439270    1.118970   -3.014550
  O      1.247880    0.403470   -4.595650
  H      2.965350    1.956130   -3.087470
  H      3.225810    1.912420   -1.360240
  H      1.733500    2.555280   -2.002740

 Total Charge           Charge          ....    0
 Multiplicity           Mult            ....    1
 Number of Electrons    NEL             ....   58
 Basis Dimension        Dim             ....  285

ORBITAL ENERGIES
----------------

  NO   OCC          E(Eh)            E(eV)
   0   2.0000     -88.583917     -2410.4909
   1   2.0000     -24.527942      -667.4392
   2   2.0000     -18.897343      -514.2228
   3   2.0000     -18.883649      -513.8502
   4   2.0000     -10.041891      -273.2537
   5   2.0000     -10.003485      -272.2087
   6   2.0000      -7.933638      -215.8853
   7   2.0000      -5.916972      -161.0090
   8   2.0000      -5.910001      -160.8193
   9   2.0000      -5.909807      -160.8140
  10   2.0000      -1.302812       -35.4513
  11   2.0000      -1.031936       -28.0804
  12   2.0000      -0.937373       -25.5072
  13   2.0000      -0.764031       -20.7903
  14   2.0000      -0.674787       -18.3619
  15   2.0000      -0.624431       -16.9916
  16   2.0000      -0.540092       -14.6967
  17   2.0000      -0.526633       -14.3304
  18   2.0000      -0.498117       -13.5545
  19   2.0000      -0.449757       -12.2385
  20   2.0000      -0.432273       -11.7627
  21   2.0000      -0.406072       -11.0498
  22   2.0000      -0.389561       -10.6005
  23   2.0000      -0.368657       -10.0317
  24   2.0000      -0.358285        -9.7494
  25   2.0000      -0.337087        -9.1726
  26   2.0000      -0.292728        -7.9655
  27   2.0000      -0.280438        -7.6311
  28   2.0000      -0.264560        -7.1990
  29   0.0000      -0.027933        -0.7601
  30   0.0000       0.001068         0.0291
  31   0.0000       0.013293         0.3617
  32   0.0000       0.014251         0.3878
  33   0.0000       0.024919         0.6781

MULLIKEN ATOMIC CHARGES
-----------------------
   0 C :   -0.980632
   1 C :   -0.198295
   2 H :    0.230981
   3 H :    0.257723
   4 S :    1.161370
   5 O :   -0.566134
   6 F :   -0.128213
   7 O :   -0.612667
   8 H :    0.307747
   9 H :    0.214566
  10 H :    0.313555
Sum of atomic charges:    0.0000000

LOEWDIN ATOMIC CHARGES
----------------------
   0 C :   -0.110468
   1 C :   -0.277919
   2 H :    0.109190
   3 H :    0.093660
   4 S :    0.560037
   5 O :   -0.257967
   6 F :   -0.039356
   7 O :   -0.283756
   8 H :    0.069761
   9 H :    0.070006
  10 H :    0.066813

  Mayer bond orders larger than 0.100000
B(  0-C ,  1-C ) :   0.9793 B(  0-C ,  8-H ) :   0.9433 B(  0-C ,  9-H ) :   0.9727
B(  0-C , 10-H ) :   0.8892 B(  1-C ,  2-H ) :   0.9068 B(  1-C ,  3-H ) :   0.8984
B(  1-C ,  4-S ) :   0.8355 B(  1-C ,  5-O ) :   0.1295 B(  4-S ,  5-O ) :   1.6512
B(  4-S ,  6-F ) :   1.0158 B(  4-S ,  7-O ) :   1.6073 B(  5-O ,  7-O ) :   0.1141

Dispersion correction           -0.011564906
FINAL SINGLE POINT ENERGY      -727.901519378579

DIPOLE MOMENT
-------------
                                X             Y             Z
Electronic contribution:     -7.94674      -2.44807      -3.95797
Nuclear contribution   :      8.30151       3.35500       5.26935
                        -----------------------------------------
Total Dipole Moment    :      0.35477       0.90693       1.31138
                        -----------------------------------------
Magnitude (a.u.)       :      1.63343
Magnitude (Debye)      :      4.15185

Rotational constants in cm-1:     0.152913     0.083043     0.080351
Rotational constants in MHz :  4584.227971  2489.580280  2408.872860

                             ****ORCA TERMINATED NORMALLY****
TOTAL RUN TIME: 0 days 0 hours 0 minutes 16 seconds 937 msec
