                         Program Version 5.0.0 -  RELEASE  -
|  1> !TPSS D3BJ RIJCOSX def2-TZVPD def2/J TightSCF
|  2> *xyz 0 1
|  3> C          3.38093        2.08304       -3.35013
|  4> N          4.53592        1.18245       -3.42852
|  5> C          2.49556        1.81615       -2.13636
|  6> C          4.67196        0.12227       -4.22060
|  7> C          5.86602       -0.50785       -4.22428
|  8> N          3.69888       -0.31284       -4.98699
|  9> H          2.73141       -0.05009       -4.84900
| 10> H          3.89005       -1.05517       -5.64373
| 11> H          5.25193        1.30346       -2.72101
| 12> H          6.69516       -0.06232       -3.85160
| 13> H          5.97538       -1.39688       -4.69141
| 14> H          2.80646        1.98651       -4.26848
| 15> H          3.77871        3.09828       -3.30738
| 16> H          2.11090        0.81901       -2.18783
| 17> H          1.68276        2.51198       -2.12786
| 18> H          3.07216        1.93031       -1.24227
| 19> *
| 20>
| 21> %MaxCore 64000
| 22>
| 23> %pal nprocs 4
| 24> end
| 25>
| 26> %scf
| 27>   MaxIter 150
| 28> end
| 29>
| 30>
| 31>                          ****END OF INPUT****

CARTESIAN COORDINATES (ANGSTROEM)
---------------------------------
  C      3.380930    2.083040   -3.350130
  N      4.535920    1.182450   -3.428520
  C      2.495560    1.816150   -2.136360
  C      4.671960    0.122270   -4.220600
  C      5.866020   -0.507850   -4.224280
  N      3.698880   -0.312840   -4.986990
  H      2.731410   -0.050090   -4.849000
  H      3.890050   -1.055170   -5.643730
  H      5.251930    1.303460   -2.721010
  H      6.695160   -0.062320   -3.851600
  H      5.975380   -1.396880   -4.691410
  H      2.806460    1.986510   -4.268480
  H      3.778710    3.098280   -3.307380
  H      2.110900    0.819010   -2.187830
  H      1.682760    2.511980   -2.127860
  H      3.072160    1.930310   -1.242270

 Total Charge           Charge          ....    0
 Multiplicity           Mult            ....    1
 Number of Electrons    NEL             ....   48
 Basis Dimension        Dim             ....  312

ORBITAL ENERGIES
----------------

  NO   OCC          E(Eh)            E(eV)
   0   2.0000     -14.104874      -383.8131
   1   2.0000     -14.100919      -383.7055
   2   2.0000     -10.025109      -272.7971
   3   2.0000     -10.024666      -272.7850
   4   2.0000      -9.978284      -271.5229
   5   2.0000      -9.894033      -269.2303
   6   2.0000      -0.902480       -24.5577
   7   2.0000      -0.827248       -22.5106
   8   2.0000      -0.715153       -19.4603
   9   2.0000      -0.642885       -17.4938
  10   2.0000      -0.578512       -15.7421
  11   2.0000      -0.554039       -15.0762
  12   2.0000      -0.497442       -13.5361
  13   2.0000      -0.453866       -12.3503
  14   2.0000      -0.438861       -11.9420
  15   2.0000      -0.404946       -11.0191
  16   2.0000      -0.386626       -10.5206
  17   2.0000      -0.361662        -9.8413
  18   2.0000      -0.347716        -9.4618
  19   2.0000      -0.331673        -9.0253
  20   2.0000      -0.326392        -8.8816
  21   2.0000      -0.313205        -8.5227
  22   2.0000      -0.215464        -5.8631
  23   2.0000      -0.127578        -3.4716
  24   0.0000      -0.013508        -0.3676
  25   0.0000       0.013420         0.3652
  26   0.0000       0.018520         0.5040
  27   0.0000       0.024600         0.6694
  28   0.0000       0.047706         1.2981

MULLIKEN ATOMIC CHARGES
-----------------------
   0 C :   -0.334359
   1 N :   -0.281183
   2 C :   -0.773364
   3 C :    1.047239
   4 C :   -1.366888
   5 N :   -0.439997
   6 H :    0.159105
   7 H :    0.146379
   8 H :    0.157557
   9 H :    0.278152
  10 H :    0.251161
  11 H :    0.288126
  12 H :    0.138937
  13 H :    0.238954
  14 H :    0.256510
  15 H :    0.233673
Sum of atomic charges:    0.0000000

LOEWDIN ATOMIC CHARGES
----------------------
   0 C :   -0.230668
   1 N :    0.024630
   2 C :   -0.082683
   3 C :   -0.573312
   4 C :   -0.003089
   5 N :    0.127789
   6 H :    0.096977
   7 H :    0.113176
   8 H :    0.143801
   9 H :   -0.000096
  10 H :   -0.005000
  11 H :    0.099811
  12 H :    0.104773
  13 H :    0.061928
  14 H :    0.060077
  15 H :    0.061883

  Mayer bond orders larger than 0.100000
B(  0-C ,  1-N ) :   0.9113 B(  0-C ,  2-C ) :   0.8453 B(  0-C , 11-H ) :   0.8846
B(  0-C , 12-H ) :   1.0044 B(  1-N ,  3-C ) :   1.0032 B(  1-N ,  4-C ) :   0.1821
B(  1-N ,  8-H ) :   1.0175 B(  2-C , 13-H ) :   0.9998 B(  2-C , 14-H ) :   0.9705
B(  2-C , 15-H ) :   0.9477 B(  3-C ,  4-C ) :   0.9612 B(  3-C ,  5-N ) :   0.9055
B(  4-C ,  5-N ) :   0.1143 B(  4-C ,  9-H ) :   0.9482 B(  4-C , 10-H ) :   1.0823
B(  5-N ,  6-H ) :   1.0168 B(  5-N ,  7-H ) :   1.0460

Dispersion correction           -0.015374749
FINAL SINGLE POINT ENERGY      -268.061660203564

DIPOLE MOMENT
-------------
                                X             Y             Z
Electronic contribution:      1.52661      -1.10585      -2.04422
Nuclear contribution   :     -2.56090       1.59955       2.15496
                        -----------------------------------------
Total Dipole Moment    :     -1.03429       0.49370       0.11075
                        -----------------------------------------
Magnitude (a.u.)       :      1.15142
Magnitude (Debye)      :      2.92667

Rotational constants in cm-1:     0.249834     0.071381     0.061833
Rotational constants in MHz :  7489.842787  2139.945635  1853.706310

                             ****ORCA TERMINATED NORMALLY****
TOTAL RUN TIME: 0 days 0 hours 0 minutes 23 seconds 325 msec
