                         Program Version 5.0.0 -  RELEASE  -
|  1> !TPSS D3BJ RIJCOSX def2-TZVPD def2/J TightSCF
|  2> *xyz 0 1
|  3> C          2.49556        1.81615       -2.13636
|  4> C          1.87218        0.42790       -2.07750
|  5> H          2.61427       -0.36583       -2.19889
|  6> H          1.38995        0.27309       -1.11236
|  7> S          0.57902        0.14047       -3.29794
|  8> O          0.22886       -1.24687       -3.12787
|  9> O         -0.43927        1.11897       -3.01455
| 10> F          1.24788        0.40347       -4.59565
| 11> H          2.96535        1.95613       -3.08747
| 12> H          3.22581        1.91242       -1.36024
| 13> H          1.73350        2.55528       -2.00274
| 14> *
| 15>
| 16> %MaxCore 64000
| 17>
| 18> %pal nprocs 4
| 19> end
| 20>
| 21> %scf
| 22>   MaxIter 150
| 23> end
| 24>
| 25>
| 26>                          ****END OF INPUT****

CARTESIAN COORDINATES (ANGSTROEM)
---------------------------------
  C      2.495560    1.816150   -2.136360
  C      1.872180    0.427900   -2.077500
  H      2.614270   -0.365830   -2.198890
  H      1.389950    0.273090   -1.112360
  S      0.579020    0.140470   -3.297940
  O      0.228860   -1.246870   -3.127870
  O     -0.439270    1.118970   -3.014550
  F      1.247880    0.403470   -4.595650
  H      2.965350    1.956130   -3.087470
  H      3.225810    1.912420   -1.360240
  H      1.733500    2.555280   -2.002740

 Total Charge           Charge          ....    0
 Multiplicity           Mult            ....    1
 Number of Electrons    NEL             ....   58
 Basis Dimension        Dim             ....  285

ORBITAL ENERGIES
----------------

  NO   OCC          E(Eh)            E(eV)
   0   2.0000     -88.581337     -2410.4207
   1   2.0000     -24.506172      -666.8468
   2   2.0000     -18.897070      -514.2154
   3   2.0000     -18.896795      -514.2079
   4   2.0000     -10.040794      -273.2239
   5   2.0000     -10.003936      -272.2209
   6   2.0000      -7.931178      -215.8183
   7   2.0000      -5.914496      -160.9416
   8   2.0000      -5.907550      -160.7526
   9   2.0000      -5.907466      -160.7503
  10   2.0000      -1.267612       -34.4935
  11   2.0000      -1.042336       -28.3634
  12   2.0000      -0.957514       -26.0553
  13   2.0000      -0.763435       -20.7741
  14   2.0000      -0.662572       -18.0295
  15   2.0000      -0.617125       -16.7928
  16   2.0000      -0.524659       -14.2767
  17   2.0000      -0.502796       -13.6818
  18   2.0000      -0.494191       -13.4476
  19   2.0000      -0.450184       -12.2501
  20   2.0000      -0.428499       -11.6600
  21   2.0000      -0.408527       -11.1166
  22   2.0000      -0.393126       -10.6975
  23   2.0000      -0.368700       -10.0328
  24   2.0000      -0.362812        -9.8726
  25   2.0000      -0.340602        -9.2682
  26   2.0000      -0.299762        -8.1570
  27   2.0000      -0.291472        -7.9314
  28   2.0000      -0.279543        -7.6068
  29   0.0000      -0.025817        -0.7025
  30   0.0000       0.004334         0.1179
  31   0.0000       0.014124         0.3843
  32   0.0000       0.016131         0.4389
  33   0.0000       0.026648         0.7251

MULLIKEN ATOMIC CHARGES
-----------------------
   0 C :   -0.986331
   1 C :   -0.195491
   2 H :    0.254677
   3 H :    0.234183
   4 S :    1.186452
   5 O :   -0.572779
   6 O :   -0.585611
   7 F :   -0.169798
   8 H :    0.310854
   9 H :    0.212107
  10 H :    0.311737
Sum of atomic charges:   -0.0000000

LOEWDIN ATOMIC CHARGES
----------------------
   0 C :   -0.110366
   1 C :   -0.276681
   2 H :    0.099070
   3 H :    0.104830
   4 S :    0.561354
   5 O :   -0.258417
   6 O :   -0.253155
   7 F :   -0.073055
   8 H :    0.066249
   9 H :    0.070023
  10 H :    0.070148

  Mayer bond orders larger than 0.100000
B(  0-C ,  1-C ) :   0.9747 B(  0-C ,  8-H ) :   0.8997 B(  0-C ,  9-H ) :   0.9740
B(  0-C , 10-H ) :   0.9301 B(  1-C ,  2-H ) :   0.9008 B(  1-C ,  3-H ) :   0.9081
B(  1-C ,  4-S ) :   0.8291 B(  1-C ,  5-O ) :   0.1287 B(  4-S ,  5-O ) :   1.6443
B(  4-S ,  6-O ) :   1.6500 B(  4-S ,  7-F ) :   0.9660 B(  5-O ,  6-O ) :   0.1131

Dispersion correction           -0.011561717
FINAL SINGLE POINT ENERGY      -727.919384913814

DIPOLE MOMENT
-------------
                                X             Y             Z
Electronic contribution:     -5.14169      -3.62680      -6.59103
Nuclear contribution   :      6.54345       4.10057       6.91691
                        -----------------------------------------
Total Dipole Moment    :      1.40176       0.47378       0.32588
                        -----------------------------------------
Magnitude (a.u.)       :      1.51512
Magnitude (Debye)      :      3.85113

Rotational constants in cm-1:     0.152835     0.082826     0.080611
Rotational constants in MHz :  4581.878371  2483.049050  2416.647141

                             ****ORCA TERMINATED NORMALLY****
TOTAL RUN TIME: 0 days 0 hours 0 minutes 16 seconds 987 msec
