                         Program Version 5.0.0 -  RELEASE  -
|  1> !TPSS D3BJ RIJCOSX def2-TZVPD def2/J TightSCF
|  2> *xyz 0 1
|  3> C          3.38093        2.08304       -3.35013
|  4> N          4.53592        1.18245       -3.42852
|  5> C          2.49556        1.81615       -2.13636
|  6> C          4.67196        0.12227       -4.22060
|  7> N          5.86602       -0.50785       -4.22428
|  8> C          3.69888       -0.31284       -4.98699
|  9> H          2.73141       -0.05009       -4.84900
| 10> H          3.89005       -1.05517       -5.64373
| 11> H          5.25193        1.30346       -2.72101
| 12> H          6.69516       -0.06232       -3.85160
| 13> H          5.97538       -1.39688       -4.69141
| 14> H          2.80646        1.98651       -4.26848
| 15> H          3.77871        3.09828       -3.30738
| 16> H          2.11090        0.81901       -2.18783
| 17> H          1.68276        2.51198       -2.12786
| 18> H          3.07216        1.93031       -1.24227
| 19> *
| 20>
| 21> %MaxCore 64000
| 22>
| 23> %pal nprocs 4
| 24> end
| 25>
| 26> %scf
| 27>   MaxIter 150
| 28> end
| 29>
| 30>
| 31>                          ****END OF INPUT****

CARTESIAN COORDINATES (ANGSTROEM)
---------------------------------
  C      3.380930    2.083040   -3.350130
  N      4.535920    1.182450   -3.428520
  C      2.495560    1.816150   -2.136360
  C      4.671960    0.122270   -4.220600
  N      5.866020   -0.507850   -4.224280
  C      3.698880   -0.312840   -4.986990
  H      2.731410   -0.050090   -4.849000
  H      3.890050   -1.055170   -5.643730
  H      5.251930    1.303460   -2.721010
  H      6.695160   -0.062320   -3.851600
  H      5.975380   -1.396880   -4.691410
  H      2.806460    1.986510   -4.268480
  H      3.778710    3.098280   -3.307380
  H      2.110900    0.819010   -2.187830
  H      1.682760    2.511980   -2.127860
  H      3.072160    1.930310   -1.242270

 Total Charge           Charge          ....    0
 Multiplicity           Mult            ....    1
 Number of Electrons    NEL             ....   48
 Basis Dimension        Dim             ....  312

ORBITAL ENERGIES
----------------

  NO   OCC          E(Eh)            E(eV)
   0   2.0000     -14.101193      -383.7130
   1   2.0000     -14.098437      -383.6380
   2   2.0000     -10.022173      -272.7172
   3   2.0000     -10.017649      -272.5941
   4   2.0000      -9.971265      -271.3319
   5   2.0000      -9.897397      -269.3219
   6   2.0000      -0.896177       -24.3862
   7   2.0000      -0.818284       -22.2667
   8   2.0000      -0.701679       -19.0937
   9   2.0000      -0.656160       -17.8550
  10   2.0000      -0.589242       -16.0341
  11   2.0000      -0.518277       -14.1030
  12   2.0000      -0.496309       -13.5052
  13   2.0000      -0.470738       -12.8094
  14   2.0000      -0.416221       -11.3260
  15   2.0000      -0.407297       -11.0831
  16   2.0000      -0.377288       -10.2665
  17   2.0000      -0.360485        -9.8093
  18   2.0000      -0.341099        -9.2818
  19   2.0000      -0.338053        -9.1989
  20   2.0000      -0.318107        -8.6561
  21   2.0000      -0.309891        -8.4326
  22   2.0000      -0.207919        -5.6578
  23   2.0000      -0.139204        -3.7879
  24   0.0000      -0.009109        -0.2479
  25   0.0000       0.010480         0.2852
  26   0.0000       0.023266         0.6331
  27   0.0000       0.028359         0.7717
  28   0.0000       0.049440         1.3453

MULLIKEN ATOMIC CHARGES
-----------------------
   0 C :   -0.321531
   1 N :   -0.326236
   2 C :   -0.785816
   3 C :    1.134346
   4 N :   -0.468563
   5 C :   -1.405594
   6 H :    0.273209
   7 H :    0.237551
   8 H :    0.185446
   9 H :    0.158290
  10 H :    0.144646
  11 H :    0.312243
  12 H :    0.133620
  13 H :    0.228807
  14 H :    0.259521
  15 H :    0.240059
Sum of atomic charges:   -0.0000000

LOEWDIN ATOMIC CHARGES
----------------------
   0 C :   -0.225265
   1 N :    0.015837
   2 C :   -0.079140
   3 C :   -0.565653
   4 N :    0.108177
   5 C :    0.005590
   6 H :    0.007283
   7 H :    0.008848
   8 H :    0.134748
   9 H :    0.093239
  10 H :    0.102585
  11 H :    0.103879
  12 H :    0.104955
  13 H :    0.064805
  14 H :    0.060889
  15 H :    0.059222

  Mayer bond orders larger than 0.100000
B(  0-C ,  1-N ) :   0.9076 B(  0-C ,  2-C ) :   0.8369 B(  0-C ,  5-C ) :   0.1548
B(  0-C , 11-H ) :   0.8693 B(  0-C , 12-H ) :   0.9686 B(  1-N ,  3-C ) :   0.9910
B(  1-N ,  8-H ) :   1.0159 B(  2-C , 13-H ) :   1.0218 B(  2-C , 14-H ) :   0.9495
B(  2-C , 15-H ) :   0.9424 B(  3-C ,  4-N ) :   0.7739 B(  3-C ,  5-C ) :   1.0662
B(  3-C ,  7-H ) :  -0.1119 B(  4-N ,  5-C ) :   0.1379 B(  4-N ,  9-H ) :   1.0451
B(  4-N , 10-H ) :   1.0568 B(  5-C ,  6-H ) :   0.9430 B(  5-C ,  7-H ) :   1.1105

Dispersion correction           -0.015461312
FINAL SINGLE POINT ENERGY      -268.066512990150

DIPOLE MOMENT
-------------
                                X             Y             Z
Electronic contribution:      3.65149      -1.32122      -1.35641
Nuclear contribution   :     -3.02065       1.64092       1.99316
                        -----------------------------------------
Total Dipole Moment    :      0.63084       0.31970       0.63675
                        -----------------------------------------
Magnitude (a.u.)       :      0.95164
Magnitude (Debye)      :      2.41887

Rotational constants in cm-1:     0.259304     0.069422     0.060943
Rotational constants in MHz :  7773.747720  2081.225169  1827.013389

                             ****ORCA TERMINATED NORMALLY****
TOTAL RUN TIME: 0 days 0 hours 0 minutes 22 seconds 728 msec
