                         Program Version 5.0.0 -  RELEASE  -
|  1> !TPSS D3BJ RIJCOSX def2-TZVPD def2/J TightSCF xyzfile
|  2>
|  3> *xyzfile 0 1 D1.xyz
|  4>
|  5> %MaxCore 64000
|  6>
|  7> %pal nprocs 4
|  8> end
|  9>
| 10> %scf
| 11>   MaxIter 150
| 12> end
| 13>
| 14>
| 15>                          ****END OF INPUT****

CARTESIAN COORDINATES (ANGSTROEM)
---------------------------------
  C      3.380928    2.083045   -3.350127
  C      4.535924    1.182447   -3.428518
  C      2.495557    1.816150   -2.136364
  C      1.872181    0.427903   -2.077497
  H      2.614270   -0.365825   -2.198894
  H      1.389953    0.273087   -1.112360
  S      0.579024    0.140472   -3.297943
  C      4.671956    0.122273   -4.220598
  N      5.866023   -0.507849   -4.224284
  N      3.698881   -0.312844   -4.986988
  H      2.731405   -0.050091   -4.849000
  H      3.890046   -1.055172   -5.643730
  H      5.251933    1.303459   -2.721014
  H      6.695165   -0.062322   -3.851596
  H      5.975383   -1.396884   -4.691414
  F      0.228860   -1.246868   -3.127871
  O     -0.439269    1.118966   -3.014550
  O      1.247881    0.403474   -4.595647
  H      1.697003    2.561969   -2.141109
  H      3.080787    1.987436   -1.225838
  H      2.806463    1.986511   -4.268484
  H      3.778714    3.098282   -3.307383

 Total Charge           Charge          ....    0
 Multiplicity           Mult            ....    1
 Number of Electrons    NEL             ....   96
 Basis Dimension        Dim             ....  524

ORBITAL ENERGIES
----------------

  NO   OCC          E(Eh)            E(eV)
   0   2.0000     -88.593163     -2410.7425
   1   2.0000     -24.534370      -667.6141
   2   2.0000     -18.904374      -514.4142
   3   2.0000     -18.899944      -514.2936
   4   2.0000     -14.096009      -383.5719
   5   2.0000     -14.079748      -383.1294
   6   2.0000     -10.034589      -273.0551
   7   2.0000     -10.019018      -272.6313
   8   2.0000      -9.994289      -271.9584
   9   2.0000      -9.962600      -271.0961
  10   2.0000      -9.905606      -269.5452
  11   2.0000      -7.943190      -216.1452
  12   2.0000      -5.926402      -161.2656
  13   2.0000      -5.920034      -161.0923
  14   2.0000      -5.918933      -161.0624
  15   2.0000      -1.309188       -35.6248
  16   2.0000      -1.044632       -28.4259
  17   2.0000      -0.955703       -26.0060
  18   2.0000      -0.887328       -24.1454
  19   2.0000      -0.801590       -21.8124
  20   2.0000      -0.764593       -20.8056
  21   2.0000      -0.706035       -19.2122
  22   2.0000      -0.668297       -18.1853
  23   2.0000      -0.626840       -17.0572
  24   2.0000      -0.574718       -15.6389
  25   2.0000      -0.542690       -14.7673
  26   2.0000      -0.533820       -14.5260
  27   2.0000      -0.525006       -14.2861
  28   2.0000      -0.505132       -13.7453
  29   2.0000      -0.488949       -13.3050
  30   2.0000      -0.468020       -12.7355
  31   2.0000      -0.446844       -12.1592
  32   2.0000      -0.439416       -11.9571
  33   2.0000      -0.422700       -11.5023
  34   2.0000      -0.407494       -11.0885
  35   2.0000      -0.393956       -10.7201
  36   2.0000      -0.367268        -9.9939
  37   2.0000      -0.360240        -9.8026
  38   2.0000      -0.350502        -9.5376
  39   2.0000      -0.339911        -9.2494
  40   2.0000      -0.317787        -8.6474
  41   2.0000      -0.311648        -8.4804
  42   2.0000      -0.298339        -8.1182
  43   2.0000      -0.296368        -8.0646
  44   2.0000      -0.278020        -7.5653
  45   2.0000      -0.274829        -7.4785
  46   2.0000      -0.215760        -5.8711
  47   2.0000      -0.129478        -3.5233
  48   0.0000      -0.027530        -0.7491
  49   0.0000      -0.006512        -0.1772
  50   0.0000       0.000932         0.0254
  51   0.0000       0.012244         0.3332
  52   0.0000       0.019589         0.5330

MULLIKEN ATOMIC CHARGES
-----------------------
   0 C :   -0.445815
   1 C :   -1.193668
   2 C :   -0.266859
   3 C :   -0.436646
   4 H :    0.356315
   5 H :    0.179405
   6 S :    1.207000
   7 C :    1.248282
   8 N :   -0.528047
   9 N :   -0.409112
  10 H :    0.251405
  11 H :    0.127180
  12 H :    0.297159
  13 H :    0.158298
  14 H :    0.140435
  15 F :   -0.128409
  16 O :   -0.594615
  17 O :   -0.737100
  18 H :    0.078375
  19 H :    0.220669
  20 H :    0.394119
  21 H :    0.081630
Sum of atomic charges:   -0.0000000

LOEWDIN ATOMIC CHARGES
----------------------
   0 C :   -0.216065
   1 C :   -0.130452
   2 C :   -0.202676
   3 C :   -0.220187
   4 H :    0.101802
   5 H :    0.098566
   6 S :    0.610919
   7 C :   -0.542874
   8 N :    0.107698
   9 N :    0.147904
  10 H :    0.014378
  11 H :    0.104591
  12 H :    0.065080
  13 H :    0.103569
  14 H :    0.089100
  15 F :   -0.032599
  16 O :   -0.237080
  17 O :   -0.292088
  18 H :    0.107177
  19 H :    0.119256
  20 H :    0.096943
  21 H :    0.107038

  Mayer bond orders larger than 0.100000
B(  0-C ,  1-C ) :   0.8293 B(  0-C ,  2-C ) :   0.8428 B(  0-C , 20-H ) :   0.8203
B(  0-C , 21-H ) :   1.0543 B(  1-C ,  3-C ) :   0.1348 B(  1-C ,  7-C ) :   1.1050
B(  1-C ,  8-N ) :   0.2468 B(  1-C ,  9-N ) :   0.1488 B(  1-C , 12-H ) :   0.9631
B(  2-C ,  3-C ) :   1.2941 B(  2-C ,  6-S ) :   0.1597 B(  2-C , 18-H ) :   0.9012
B(  2-C , 19-H ) :   0.8597 B(  3-C ,  4-H ) :   0.7827 B(  3-C ,  5-H ) :   0.8744
B(  3-C ,  6-S ) :   0.8087 B(  6-S , 15-F ) :   0.9523 B(  6-S , 16-O ) :   1.6064
B(  6-S , 17-O ) :   1.5557 B(  7-C ,  8-N ) :   0.6579 B(  7-C ,  9-N ) :   0.8070
B(  7-C , 10-H ) :  -0.1150 B(  8-N , 13-H ) :   1.0375 B(  8-N , 14-H ) :   1.0954
B(  9-N , 10-H ) :   0.8404 B(  9-N , 11-H ) :   1.0766

Dispersion correction           -0.031812200
FINAL SINGLE POINT ENERGY      -955.437947310390

DIPOLE MOMENT
-------------
                                X             Y             Z
Electronic contribution:    -15.31119      -6.65905      -1.20183
Nuclear contribution   :     15.92508       5.34175       1.81950
                        -----------------------------------------
Total Dipole Moment    :      0.61389      -1.31729       0.61767
                        -----------------------------------------
Magnitude (a.u.)       :      1.57913
Magnitude (Debye)      :      4.01382

Rotational constants in cm-1:     0.058561     0.020662     0.017762
Rotational constants in MHz :  1755.621534   619.433801   532.501507

                             ****ORCA TERMINATED NORMALLY****
TOTAL RUN TIME: 0 days 0 hours 1 minutes 24 seconds 385 msec
