                         Program Version 5.0.0 -  RELEASE  -
|  1> !TPSS D3BJ RIJCOSX def2-TZVPD def2/J TightSCF xyzfile
|  2>
|  3> *xyzfile 0 1 D2.xyz
|  4>
|  5> %MaxCore 64000
|  6>
|  7> %pal nprocs 4
|  8> end
|  9>
| 10> %scf
| 11>   MaxIter 150
| 12> end
| 13>
| 14>
| 15>                          ****END OF INPUT****

CARTESIAN COORDINATES (ANGSTROEM)
---------------------------------
  C      3.380928    2.083045   -3.350127
  N      4.535924    1.182447   -3.428518
  C      2.495557    1.816150   -2.136364
  C      1.872181    0.427903   -2.077497
  H      2.614270   -0.365825   -2.198894
  H      1.389953    0.273087   -1.112360
  S      0.579024    0.140472   -3.297943
  C      4.671956    0.122273   -4.220598
  C      5.866023   -0.507849   -4.224284
  N      3.698881   -0.312844   -4.986988
  H      2.731405   -0.050091   -4.849000
  H      3.890046   -1.055172   -5.643730
  H      5.251933    1.303459   -2.721014
  H      6.695165   -0.062322   -3.851596
  H      5.975383   -1.396884   -4.691414
  F      0.228860   -1.246868   -3.127871
  O     -0.439269    1.118966   -3.014550
  O      1.247881    0.403474   -4.595647
  H      1.697003    2.561969   -2.141109
  H      3.080787    1.987436   -1.225838
  H      2.806463    1.986511   -4.268484
  H      3.778714    3.098282   -3.307383

 Total Charge           Charge          ....    0
 Multiplicity           Mult            ....    1
 Number of Electrons    NEL             ....   96
 Basis Dimension        Dim             ....  524

ORBITAL ENERGIES
----------------

  NO   OCC          E(Eh)            E(eV)
   0   2.0000     -88.606769     -2411.1128
   1   2.0000     -24.545800      -667.9252
   2   2.0000     -18.917138      -514.7615
   3   2.0000     -18.911715      -514.6139
   4   2.0000     -14.102272      -383.7423
   5   2.0000     -14.076571      -383.0430
   6   2.0000     -10.053238      -273.5625
   7   2.0000     -10.028794      -272.8974
   8   2.0000     -10.021622      -272.7022
   9   2.0000     -10.017444      -272.5885
  10   2.0000      -9.887834      -269.0616
  11   2.0000      -7.956635      -216.5111
  12   2.0000      -5.939777      -161.6295
  13   2.0000      -5.933443      -161.4572
  14   2.0000      -5.932544      -161.4327
  15   2.0000      -1.320406       -35.9301
  16   2.0000      -1.057283       -28.7701
  17   2.0000      -0.967963       -26.3396
  18   2.0000      -0.896379       -24.3917
  19   2.0000      -0.820282       -22.3210
  20   2.0000      -0.776574       -21.1317
  21   2.0000      -0.712840       -19.3974
  22   2.0000      -0.669367       -18.2144
  23   2.0000      -0.633205       -17.2304
  24   2.0000      -0.585519       -15.9328
  25   2.0000      -0.549460       -14.9516
  26   2.0000      -0.547355       -14.8943
  27   2.0000      -0.541265       -14.7286
  28   2.0000      -0.531600       -14.4656
  29   2.0000      -0.495315       -13.4782
  30   2.0000      -0.463964       -12.6251
  31   2.0000      -0.447494       -12.1769
  32   2.0000      -0.442207       -12.0331
  33   2.0000      -0.438133       -11.9222
  34   2.0000      -0.418868       -11.3980
  35   2.0000      -0.404204       -10.9989
  36   2.0000      -0.375096       -10.2069
  37   2.0000      -0.368764       -10.0346
  38   2.0000      -0.364380        -9.9153
  39   2.0000      -0.349037        -9.4978
  40   2.0000      -0.343685        -9.3521
  41   2.0000      -0.329235        -8.9589
  42   2.0000      -0.315624        -8.5886
  43   2.0000      -0.307121        -8.3572
  44   2.0000      -0.301008        -8.1908
  45   2.0000      -0.284469        -7.7408
  46   2.0000      -0.209777        -5.7083
  47   2.0000      -0.122269        -3.3271
  48   0.0000      -0.036910        -1.0044
  49   0.0000      -0.018199        -0.4952
  50   0.0000       0.001467         0.0399
  51   0.0000       0.006197         0.1686
  52   0.0000       0.011172         0.3040

MULLIKEN ATOMIC CHARGES
-----------------------
   0 C :   -0.541751
   1 N :   -0.300471
   2 C :   -0.258967
   3 C :   -0.453431
   4 H :    0.345800
   5 H :    0.182599
   6 S :    1.211769
   7 C :    0.980413
   8 C :   -1.380491
   9 N :   -0.406104
  10 H :    0.297719
  11 H :    0.112883
  12 H :    0.175989
  13 H :    0.273087
  14 H :    0.271649
  15 F :   -0.122417
  16 O :   -0.591784
  17 O :   -0.732912
  18 H :    0.184642
  19 H :    0.150059
  20 H :    0.493537
  21 H :    0.108185
Sum of atomic charges:    0.0000000

LOEWDIN ATOMIC CHARGES
----------------------
   0 C :   -0.172262
   1 N :    0.036897
   2 C :   -0.186682
   3 C :   -0.217117
   4 H :    0.105058
   5 H :    0.100859
   6 S :    0.612215
   7 C :   -0.574225
   8 C :   -0.007439
   9 N :    0.143986
  10 H :    0.008661
  11 H :    0.117001
  12 H :    0.144428
  13 H :   -0.004407
  14 H :   -0.006256
  15 F :   -0.026136
  16 O :   -0.234874
  17 O :   -0.292065
  18 H :    0.112303
  19 H :    0.118520
  20 H :    0.106095
  21 H :    0.115441

  Mayer bond orders larger than 0.100000
B(  0-C ,  1-N ) :   0.8733 B(  0-C ,  2-C ) :   0.9891 B(  0-C ,  7-C ) :  -0.1067
B(  0-C , 20-H ) :   0.7090 B(  0-C , 21-H ) :   0.9846 B(  1-N ,  7-C ) :   1.0223
B(  1-N ,  8-C ) :   0.2016 B(  1-N , 12-H ) :   1.0004 B(  2-C ,  3-C ) :   1.2674
B(  2-C ,  6-S ) :   0.1562 B(  2-C , 18-H ) :   0.9127 B(  2-C , 19-H ) :   0.8753
B(  3-C ,  4-H ) :   0.7823 B(  3-C ,  5-H ) :   0.8935 B(  3-C ,  6-S ) :   0.8127
B(  6-S , 15-F ) :   0.9618 B(  6-S , 16-O ) :   1.6087 B(  6-S , 17-O ) :   1.5550
B(  7-C ,  8-C ) :   1.0115 B(  7-C ,  9-N ) :   0.9316 B(  8-C ,  9-N ) :   0.1205
B(  8-C , 13-H ) :   1.0009 B(  8-C , 14-H ) :   1.0406 B(  9-N , 10-H ) :   0.7752
B(  9-N , 11-H ) :   1.0742

Dispersion correction           -0.031520597
FINAL SINGLE POINT ENERGY      -955.424355163914

DIPOLE MOMENT
-------------
                                X             Y             Z
Electronic contribution:    -16.78073      -5.21635      -0.43903
Nuclear contribution   :     16.05479       5.17692       1.74190
                        -----------------------------------------
Total Dipole Moment    :     -0.72595      -0.03943       1.30287
                        -----------------------------------------
Magnitude (a.u.)       :      1.49198
Magnitude (Debye)      :      3.79232

Rotational constants in cm-1:     0.058652     0.021107     0.018077
Rotational constants in MHz :  1758.344290   632.763813   541.920558

                             ****ORCA TERMINATED NORMALLY****
TOTAL RUN TIME: 0 days 0 hours 1 minutes 24 seconds 467 msec
