                         Program Version 5.0.0 -  RELEASE  -
|  1> !TPSS D3BJ RIJCOSX def2-TZVPD def2/J TightSCF xyzfile
|  2>
|  3> *xyzfile 0 1 D3.xyz
|  4>
|  5> %MaxCore 64000
|  6>
|  7> %pal nprocs 4
|  8> end
|  9>
| 10> %scf
| 11>   MaxIter 150
| 12> end
| 13>
| 14>
| 15>                          ****END OF INPUT****

CARTESIAN COORDINATES (ANGSTROEM)
---------------------------------
  C      3.380928    2.083045   -3.350127
  N      4.535924    1.182447   -3.428518
  C      2.495557    1.816150   -2.136364
  C      1.872181    0.427903   -2.077497
  H      2.614270   -0.365825   -2.198894
  H      1.389953    0.273087   -1.112360
  S      0.579024    0.140472   -3.297943
  C      4.671956    0.122273   -4.220598
  N      5.866023   -0.507849   -4.224284
  C      3.698881   -0.312844   -4.986988
  H      2.731405   -0.050091   -4.849000
  H      3.890046   -1.055172   -5.643730
  H      5.251933    1.303459   -2.721014
  H      6.695165   -0.062322   -3.851596
  H      5.975383   -1.396884   -4.691414
  F      0.228860   -1.246868   -3.127871
  O     -0.439269    1.118966   -3.014550
  O      1.247881    0.403474   -4.595647
  H      1.697003    2.561969   -2.141109
  H      3.080787    1.987436   -1.225838
  H      2.806463    1.986511   -4.268484
  H      3.778714    3.098282   -3.307383

 Total Charge           Charge          ....    0
 Multiplicity           Mult            ....    1
 Number of Electrons    NEL             ....   96
 Basis Dimension        Dim             ....  524

ORBITAL ENERGIES
----------------

  NO   OCC          E(Eh)            E(eV)
   0   2.0000     -88.584566     -2410.5086
   1   2.0000     -24.526896      -667.4108
   2   2.0000     -18.896917      -514.2112
   3   2.0000     -18.882857      -513.8287
   4   2.0000     -14.103442      -383.7742
   5   2.0000     -14.094747      -383.5376
   6   2.0000     -10.038929      -273.1732
   7   2.0000     -10.023104      -272.7425
   8   2.0000     -10.015850      -272.5451
   9   2.0000     -10.013447      -272.4797
  10   2.0000      -9.876949      -268.7654
  11   2.0000      -7.934460      -215.9076
  12   2.0000      -5.917679      -161.0282
  13   2.0000      -5.911071      -160.8484
  14   2.0000      -5.910473      -160.8321
  15   2.0000      -1.301407       -35.4131
  16   2.0000      -1.034853       -28.1598
  17   2.0000      -0.942632       -25.6503
  18   2.0000      -0.896020       -24.3819
  19   2.0000      -0.819758       -22.3067
  20   2.0000      -0.763664       -20.7804
  21   2.0000      -0.695550       -18.9269
  22   2.0000      -0.659863       -17.9558
  23   2.0000      -0.639791       -17.4096
  24   2.0000      -0.590510       -16.0686
  25   2.0000      -0.533065       -14.5054
  26   2.0000      -0.527897       -14.3648
  27   2.0000      -0.519964       -14.1489
  28   2.0000      -0.506433       -13.7807
  29   2.0000      -0.490426       -13.3452
  30   2.0000      -0.470416       -12.8007
  31   2.0000      -0.449040       -12.2190
  32   2.0000      -0.444942       -12.1075
  33   2.0000      -0.410035       -11.1576
  34   2.0000      -0.407486       -11.0883
  35   2.0000      -0.402875       -10.9628
  36   2.0000      -0.365196        -9.9375
  37   2.0000      -0.356124        -9.6906
  38   2.0000      -0.349524        -9.5110
  39   2.0000      -0.341372        -9.2892
  40   2.0000      -0.338494        -9.2109
  41   2.0000      -0.330616        -8.9965
  42   2.0000      -0.309167        -8.4129
  43   2.0000      -0.293808        -7.9949
  44   2.0000      -0.278111        -7.5678
  45   2.0000      -0.242609        -6.6017
  46   2.0000      -0.209440        -5.6991
  47   2.0000      -0.133670        -3.6374
  48   0.0000      -0.021971        -0.5979
  49   0.0000      -0.014768        -0.4019
  50   0.0000       0.000969         0.0264
  51   0.0000       0.009411         0.2561
  52   0.0000       0.025046         0.6815

MULLIKEN ATOMIC CHARGES
-----------------------
   0 C :   -0.524646
   1 N :   -0.345271
   2 C :   -0.291766
   3 C :   -0.432982
   4 H :    0.349782
   5 H :    0.189538
   6 S :    1.186177
   7 C :    1.393240
   8 N :   -0.527198
   9 C :   -1.926118
  10 H :    0.677677
  11 H :    0.219914
  12 H :    0.189850
  13 H :    0.144389
  14 H :    0.144521
  15 F :   -0.134339
  16 O :   -0.607894
  17 O :   -0.617961
  18 H :    0.172427
  19 H :    0.156646
  20 H :    0.483929
  21 H :    0.100086
Sum of atomic charges:    0.0000000

LOEWDIN ATOMIC CHARGES
----------------------
   0 C :   -0.166063
   1 N :    0.027848
   2 C :   -0.185934
   3 C :   -0.218293
   4 H :    0.101975
   5 H :    0.098055
   6 S :    0.601854
   7 C :   -0.556813
   8 N :    0.106078
   9 C :    0.021333
  10 H :   -0.056761
  11 H :    0.021488
  12 H :    0.135197
  13 H :    0.090024
  14 H :    0.101706
  15 F :   -0.031159
  16 O :   -0.246797
  17 O :   -0.297961
  18 H :    0.112253
  19 H :    0.115207
  20 H :    0.110902
  21 H :    0.115862

  Mayer bond orders larger than 0.100000
B(  0-C ,  1-N ) :   0.9341 B(  0-C ,  2-C ) :   0.9969 B(  0-C ,  9-C ) :   0.1395
B(  0-C , 20-H ) :   0.7060 B(  0-C , 21-H ) :   0.9645 B(  1-N ,  7-C ) :   0.9671
B(  1-N , 12-H ) :   1.0030 B(  2-C ,  3-C ) :   1.2843 B(  2-C ,  6-S ) :   0.1697
B(  2-C , 18-H ) :   0.8957 B(  2-C , 19-H ) :   0.8772 B(  3-C ,  4-H ) :   0.7992
B(  3-C ,  5-H ) :   0.8939 B(  3-C ,  6-S ) :   0.7828 B(  3-C , 15-F ) :   0.1002
B(  6-S , 15-F ) :   0.9402 B(  6-S , 16-O ) :   1.5997 B(  6-S , 17-O ) :   1.6424
B(  7-C ,  8-N ) :   0.7121 B(  7-C ,  9-C ) :   0.5004 B(  7-C , 11-H ) :  -0.1560
B(  8-N ,  9-C ) :   0.1634 B(  8-N , 13-H ) :   1.0723 B(  8-N , 14-H ) :   1.0613
B(  9-C , 10-H ) :   0.8921 B(  9-C , 11-H ) :   1.1366 B(  9-C , 17-O ) :   0.2076
B( 10-H , 17-O ) :  -0.4613

Dispersion correction           -0.031793928
FINAL SINGLE POINT ENERGY      -955.408901409987

DIPOLE MOMENT
-------------
                                X             Y             Z
Electronic contribution:    -14.72129      -5.45638      -0.02786
Nuclear contribution   :     15.84345       5.19593       1.66752
                        -----------------------------------------
Total Dipole Moment    :      1.12217      -0.26044       1.63966
                        -----------------------------------------
Magnitude (a.u.)       :      2.00389
Magnitude (Debye)      :      5.09348

Rotational constants in cm-1:     0.059060     0.020573     0.017713
Rotational constants in MHz :  1770.576058   616.749938   531.036486

                             ****ORCA TERMINATED NORMALLY****
TOTAL RUN TIME: 0 days 0 hours 1 minutes 22 seconds 253 msec
