                         Program Version 5.0.0 -  RELEASE  -
|  1> !TPSS D3BJ RIJCOSX def2-TZVPD def2/J TightSCF xyzfile
|  2>
|  3> *xyzfile 0 1 D4.xyz
|  4>
|  5> %MaxCore 64000
|  6>
|  7> %pal nprocs 4
|  8> end
|  9>
| 10> %scf
| 11>   MaxIter 150
| 12> end
| 13>
| 14>
| 15>                          ****END OF INPUT****

CARTESIAN COORDINATES (ANGSTROEM)
---------------------------------
  C      3.380928    2.083045   -3.350127
  C      4.535924    1.182447   -3.428518
  C      2.495557    1.816150   -2.136364
  C      1.872181    0.427903   -2.077497
  H      2.614270   -0.365825   -2.198894
  H      1.389953    0.273087   -1.112360
  S      0.579024    0.140472   -3.297943
  C      4.671956    0.122273   -4.220598
  N      5.866023   -0.507849   -4.224284
  N      3.698881   -0.312844   -4.986988
  H      2.731405   -0.050091   -4.849000
  H      3.890046   -1.055172   -5.643730
  H      5.251933    1.303459   -2.721014
  H      6.695165   -0.062322   -3.851596
  H      5.975383   -1.396884   -4.691414
  O      0.228860   -1.246868   -3.127871
  F     -0.439269    1.118966   -3.014550
  O      1.247881    0.403474   -4.595647
  H      1.697003    2.561969   -2.141109
  H      3.080787    1.987436   -1.225838
  H      2.806463    1.986511   -4.268484
  H      3.778714    3.098282   -3.307383

 Total Charge           Charge          ....    0
 Multiplicity           Mult            ....    1
 Number of Electrons    NEL             ....   96
 Basis Dimension        Dim             ....  524

ORBITAL ENERGIES
----------------

  NO   OCC          E(Eh)            E(eV)
   0   2.0000     -88.593436     -2410.7500
   1   2.0000     -24.534036      -667.6051
   2   2.0000     -18.904632      -514.4212
   3   2.0000     -18.899290      -514.2758
   4   2.0000     -14.095731      -383.5643
   5   2.0000     -14.079507      -383.1229
   6   2.0000     -10.033957      -273.0378
   7   2.0000     -10.019532      -272.6453
   8   2.0000      -9.995549      -271.9927
   9   2.0000      -9.964318      -271.1429
  10   2.0000      -9.906204      -269.5615
  11   2.0000      -7.943329      -216.1490
  12   2.0000      -5.926586      -161.2706
  13   2.0000      -5.920218      -161.0973
  14   2.0000      -5.919017      -161.0646
  15   2.0000      -1.308874       -35.6163
  16   2.0000      -1.044221       -28.4147
  17   2.0000      -0.955734       -26.0068
  18   2.0000      -0.886946       -24.1350
  19   2.0000      -0.801118       -21.7995
  20   2.0000      -0.766745       -20.8642
  21   2.0000      -0.704187       -19.1619
  22   2.0000      -0.667738       -18.1701
  23   2.0000      -0.628840       -17.1116
  24   2.0000      -0.573997       -15.6192
  25   2.0000      -0.545133       -14.8338
  26   2.0000      -0.536275       -14.5928
  27   2.0000      -0.526993       -14.3402
  28   2.0000      -0.501110       -13.6359
  29   2.0000      -0.486800       -13.2465
  30   2.0000      -0.467777       -12.7289
  31   2.0000      -0.444073       -12.0838
  32   2.0000      -0.435864       -11.8605
  33   2.0000      -0.428742       -11.6667
  34   2.0000      -0.408680       -11.1207
  35   2.0000      -0.395599       -10.7648
  36   2.0000      -0.369897       -10.0654
  37   2.0000      -0.361160        -9.8277
  38   2.0000      -0.353962        -9.6318
  39   2.0000      -0.338075        -9.1995
  40   2.0000      -0.318412        -8.6644
  41   2.0000      -0.310800        -8.4573
  42   2.0000      -0.298983        -8.1357
  43   2.0000      -0.296072        -8.0565
  44   2.0000      -0.284248        -7.7348
  45   2.0000      -0.270789        -7.3685
  46   2.0000      -0.214966        -5.8495
  47   2.0000      -0.129876        -3.5341
  48   0.0000      -0.028949        -0.7877
  49   0.0000      -0.002880        -0.0784
  50   0.0000       0.000501         0.0136
  51   0.0000       0.015471         0.4210
  52   0.0000       0.016535         0.4499

MULLIKEN ATOMIC CHARGES
-----------------------
   0 C :   -0.427525
   1 C :   -1.224751
   2 C :   -0.250930
   3 C :   -0.393139
   4 H :    0.321436
   5 H :    0.195876
   6 S :    1.190558
   7 C :    1.260591
   8 N :   -0.526574
   9 N :   -0.394696
  10 H :    0.209677
  11 H :    0.129218
  12 H :    0.298336
  13 H :    0.158655
  14 H :    0.141977
  15 O :   -0.601096
  16 F :   -0.122475
  17 O :   -0.733001
  18 H :    0.084564
  19 H :    0.203509
  20 H :    0.397709
  21 H :    0.082084
Sum of atomic charges:   -0.0000000

LOEWDIN ATOMIC CHARGES
----------------------
   0 C :   -0.221766
   1 C :   -0.130350
   2 C :   -0.215087
   3 C :   -0.214123
   4 H :    0.112751
   5 H :    0.098934
   6 S :    0.608770
   7 C :   -0.539199
   8 N :    0.109523
   9 N :    0.154278
  10 H :    0.020412
  11 H :    0.107456
  12 H :    0.064967
  13 H :    0.103832
  14 H :    0.090569
  15 O :   -0.243464
  16 F :   -0.026548
  17 O :   -0.297245
  18 H :    0.100518
  19 H :    0.116230
  20 H :    0.093903
  21 H :    0.105638

  Mayer bond orders larger than 0.100000
B(  0-C ,  1-C ) :   0.8406 B(  0-C ,  2-C ) :   0.8627 B(  0-C , 20-H ) :   0.8076
B(  0-C , 21-H ) :   1.0614 B(  1-C ,  2-C ) :   0.1121 B(  1-C ,  3-C ) :   0.1406
B(  1-C ,  7-C ) :   1.0901 B(  1-C ,  8-N ) :   0.2424 B(  1-C ,  9-N ) :   0.1497
B(  1-C , 12-H ) :   0.9609 B(  2-C ,  3-C ) :   1.2240 B(  2-C ,  6-S ) :   0.1391
B(  2-C , 18-H ) :   0.8862 B(  2-C , 19-H ) :   0.8795 B(  3-C ,  4-H ) :   0.8280
B(  3-C ,  5-H ) :   0.8969 B(  3-C ,  6-S ) :   0.8033 B(  3-C , 15-O ) :   0.1200
B(  6-S , 15-O ) :   1.5715 B(  6-S , 16-F ) :   1.0050 B(  6-S , 17-O ) :   1.5542
B(  7-C ,  8-N ) :   0.6661 B(  7-C ,  9-N ) :   0.8115 B(  7-C , 10-H ) :  -0.1211
B(  8-N , 13-H ) :   1.0370 B(  8-N , 14-H ) :   1.0934 B(  9-N , 10-H ) :   0.8474
B(  9-N , 11-H ) :   1.0688 B( 15-O , 17-O ) :   0.1080

Dispersion correction           -0.031774200
FINAL SINGLE POINT ENERGY      -955.438164470597

DIPOLE MOMENT
-------------
                                X             Y             Z
Electronic contribution:    -16.39527      -2.69948      -1.04075
Nuclear contribution   :     16.65743       2.74852       1.69529
                        -----------------------------------------
Total Dipole Moment    :      0.26216       0.04903       0.65453
                        -----------------------------------------
Magnitude (a.u.)       :      0.70678
Magnitude (Debye)      :      1.79650

Rotational constants in cm-1:     0.059907     0.020458     0.017675
Rotational constants in MHz :  1795.978106   613.328205   529.885290

                             ****ORCA TERMINATED NORMALLY****
TOTAL RUN TIME: 0 days 0 hours 1 minutes 17 seconds 847 msec
