                         Program Version 5.0.0 -  RELEASE  -
|  1> !TPSS D3BJ RIJCOSX def2-TZVPD def2/J TightSCF xyzfile
|  2>
|  3> *xyzfile 0 1 D5.xyz
|  4>
|  5> %MaxCore 64000
|  6>
|  7> %pal nprocs 4
|  8> end
|  9>
| 10> %scf
| 11>   MaxIter 150
| 12> end
| 13>
| 14>
| 15>                          ****END OF INPUT****

CARTESIAN COORDINATES (ANGSTROEM)
---------------------------------
  C      3.380928    2.083045   -3.350127
  N      4.535924    1.182447   -3.428518
  C      2.495557    1.816150   -2.136364
  C      1.872181    0.427903   -2.077497
  H      2.614270   -0.365825   -2.198894
  H      1.389953    0.273087   -1.112360
  S      0.579024    0.140472   -3.297943
  C      4.671956    0.122273   -4.220598
  C      5.866023   -0.507849   -4.224284
  N      3.698881   -0.312844   -4.986988
  H      2.731405   -0.050091   -4.849000
  H      3.890046   -1.055172   -5.643730
  H      5.251933    1.303459   -2.721014
  H      6.695165   -0.062322   -3.851596
  H      5.975383   -1.396884   -4.691414
  O      0.228860   -1.246868   -3.127871
  F     -0.439269    1.118966   -3.014550
  O      1.247881    0.403474   -4.595647
  H      1.697003    2.561969   -2.141109
  H      3.080787    1.987436   -1.225838
  H      2.806463    1.986511   -4.268484
  H      3.778714    3.098282   -3.307383

 Total Charge           Charge          ....    0
 Multiplicity           Mult            ....    1
 Number of Electrons    NEL             ....   96
 Basis Dimension        Dim             ....  524

ORBITAL ENERGIES
----------------

  NO   OCC          E(Eh)            E(eV)
   0   2.0000     -88.606296     -2411.0999
   1   2.0000     -24.546469      -667.9434
   2   2.0000     -18.916207      -514.7362
   3   2.0000     -18.911505      -514.6082
   4   2.0000     -14.103259      -383.7692
   5   2.0000     -14.075903      -383.0248
   6   2.0000     -10.052882      -273.5528
   7   2.0000     -10.030610      -272.9468
   8   2.0000     -10.023089      -272.7421
   9   2.0000     -10.016931      -272.5745
  10   2.0000      -9.887239      -269.0455
  11   2.0000      -7.956112      -216.4968
  12   2.0000      -5.939325      -161.6173
  13   2.0000      -5.932925      -161.4431
  14   2.0000      -5.931955      -161.4167
  15   2.0000      -1.321364       -35.9561
  16   2.0000      -1.055960       -28.7341
  17   2.0000      -0.967481       -26.3265
  18   2.0000      -0.896447       -24.3936
  19   2.0000      -0.820287       -22.3212
  20   2.0000      -0.778461       -21.1830
  21   2.0000      -0.710710       -19.3394
  22   2.0000      -0.670592       -18.2477
  23   2.0000      -0.634600       -17.2683
  24   2.0000      -0.585008       -15.9189
  25   2.0000      -0.553937       -15.0734
  26   2.0000      -0.551438       -15.0054
  27   2.0000      -0.546026       -14.8581
  28   2.0000      -0.522712       -14.2237
  29   2.0000      -0.491753       -13.3813
  30   2.0000      -0.463759       -12.6195
  31   2.0000      -0.451515       -12.2863
  32   2.0000      -0.443317       -12.0633
  33   2.0000      -0.435756       -11.8575
  34   2.0000      -0.415612       -11.3094
  35   2.0000      -0.409106       -11.1323
  36   2.0000      -0.376690       -10.2503
  37   2.0000      -0.373513       -10.1638
  38   2.0000      -0.364708        -9.9242
  39   2.0000      -0.353340        -9.6149
  40   2.0000      -0.341000        -9.2791
  41   2.0000      -0.326789        -8.8924
  42   2.0000      -0.312257        -8.4969
  43   2.0000      -0.303336        -8.2542
  44   2.0000      -0.299330        -8.1452
  45   2.0000      -0.289942        -7.8897
  46   2.0000      -0.209476        -5.7001
  47   2.0000      -0.121665        -3.3107
  48   0.0000      -0.039857        -1.0846
  49   0.0000      -0.015824        -0.4306
  50   0.0000       0.002588         0.0704
  51   0.0000       0.004110         0.1118
  52   0.0000       0.004917         0.1338

MULLIKEN ATOMIC CHARGES
-----------------------
   0 C :   -0.531984
   1 N :   -0.310668
   2 C :   -0.251142
   3 C :   -0.415656
   4 H :    0.314642
   5 H :    0.198565
   6 S :    1.198829
   7 C :    0.987707
   8 C :   -1.382567
   9 N :   -0.393384
  10 H :    0.260482
  11 H :    0.114983
  12 H :    0.178196
  13 H :    0.274179
  14 H :    0.270796
  15 O :   -0.591408
  16 F :   -0.123194
  17 O :   -0.730757
  18 H :    0.184873
  19 H :    0.141270
  20 H :    0.494979
  21 H :    0.111262
Sum of atomic charges:   -0.0000000

LOEWDIN ATOMIC CHARGES
----------------------
   0 C :   -0.177723
   1 N :    0.037538
   2 C :   -0.198506
   3 C :   -0.210521
   4 H :    0.116132
   5 H :    0.101264
   6 S :    0.608559
   7 C :   -0.571794
   8 C :   -0.005571
   9 N :    0.149527
  10 H :    0.014327
  11 H :    0.119323
  12 H :    0.144542
  13 H :   -0.004127
  14 H :   -0.004883
  15 O :   -0.234987
  16 F :   -0.025293
  17 O :   -0.296648
  18 H :    0.106076
  19 H :    0.115620
  20 H :    0.102975
  21 H :    0.114173

  Mayer bond orders larger than 0.100000
B(  0-C ,  1-N ) :   0.8812 B(  0-C ,  2-C ) :   1.0095 B(  0-C ,  7-C ) :  -0.1022
B(  0-C , 20-H ) :   0.7058 B(  0-C , 21-H ) :   0.9890 B(  1-N ,  7-C ) :   1.0117
B(  1-N ,  8-C ) :   0.2021 B(  1-N , 12-H ) :   1.0012 B(  2-C ,  3-C ) :   1.1962
B(  2-C ,  6-S ) :   0.1377 B(  2-C , 18-H ) :   0.9093 B(  2-C , 19-H ) :   0.8921
B(  3-C ,  4-H ) :   0.8245 B(  3-C ,  5-H ) :   0.9162 B(  3-C ,  6-S ) :   0.8121
B(  3-C , 15-O ) :   0.1228 B(  6-S , 15-O ) :   1.5824 B(  6-S , 16-F ) :   1.0068
B(  6-S , 17-O ) :   1.5517 B(  7-C ,  8-C ) :   1.0074 B(  7-C ,  9-N ) :   0.9318
B(  8-C ,  9-N ) :   0.1205 B(  8-C , 13-H ) :   1.0014 B(  8-C , 14-H ) :   1.0396
B(  9-N , 10-H ) :   0.7799 B(  9-N , 11-H ) :   1.0662 B( 15-O , 17-O ) :   0.1084

Dispersion correction           -0.031483100
FINAL SINGLE POINT ENERGY      -955.423335785567

DIPOLE MOMENT
-------------
                                X             Y             Z
Electronic contribution:    -17.86705      -1.25459      -0.26292
Nuclear contribution   :     16.78714       2.58368       1.61768
                        -----------------------------------------
Total Dipole Moment    :     -1.07991       1.32909       1.35476
                        -----------------------------------------
Magnitude (a.u.)       :      2.18360
Magnitude (Debye)      :      5.55026

Rotational constants in cm-1:     0.059928     0.020911     0.017993
Rotational constants in MHz :  1796.610847   626.896941   539.414615

                             ****ORCA TERMINATED NORMALLY****
TOTAL RUN TIME: 0 days 0 hours 1 minutes 28 seconds 575 msec
