                         Program Version 5.0.0 -  RELEASE  -
|  1> !TPSS D3BJ RIJCOSX def2-TZVPD def2/J TightSCF xyzfile
|  2>
|  3> *xyzfile 0 1 D6.xyz
|  4>
|  5> %MaxCore 64000
|  6>
|  7> %pal nprocs 4
|  8> end
|  9>
| 10> %scf
| 11>   MaxIter 150
| 12> end
| 13>
| 14>
| 15>                          ****END OF INPUT****

CARTESIAN COORDINATES (ANGSTROEM)
---------------------------------
  C      3.380928    2.083045   -3.350127
  N      4.535924    1.182447   -3.428518
  C      2.495557    1.816150   -2.136364
  C      1.872181    0.427903   -2.077497
  H      2.614270   -0.365825   -2.198894
  H      1.389953    0.273087   -1.112360
  S      0.579024    0.140472   -3.297943
  C      4.671956    0.122273   -4.220598
  N      5.866023   -0.507849   -4.224284
  C      3.698881   -0.312844   -4.986988
  H      2.731405   -0.050091   -4.849000
  H      3.890046   -1.055172   -5.643730
  H      5.251933    1.303459   -2.721014
  H      6.695165   -0.062322   -3.851596
  H      5.975383   -1.396884   -4.691414
  O      0.228860   -1.246868   -3.127871
  F     -0.439269    1.118966   -3.014550
  O      1.247881    0.403474   -4.595647
  H      1.697003    2.561969   -2.141109
  H      3.080787    1.987436   -1.225838
  H      2.806463    1.986511   -4.268484
  H      3.778714    3.098282   -3.307383

 Total Charge           Charge          ....    0
 Multiplicity           Mult            ....    1
 Number of Electrons    NEL             ....   96
 Basis Dimension        Dim             ....  524

ORBITAL ENERGIES
----------------

  NO   OCC          E(Eh)            E(eV)
   0   2.0000     -88.583555     -2410.4811
   1   2.0000     -24.526674      -667.4047
   2   2.0000     -18.896366      -514.1963
   3   2.0000     -18.884390      -513.8704
   4   2.0000     -14.103853      -383.7853
   5   2.0000     -14.093478      -383.5030
   6   2.0000     -10.038775      -273.1689
   7   2.0000     -10.024853      -272.7901
   8   2.0000     -10.015087      -272.5244
   9   2.0000     -10.014640      -272.5122
  10   2.0000      -9.876820      -268.7619
  11   2.0000      -7.933508      -215.8817
  12   2.0000      -5.916823      -161.0050
  13   2.0000      -5.910030      -160.8201
  14   2.0000      -5.909527      -160.8064
  15   2.0000      -1.301976       -35.4286
  16   2.0000      -1.033531       -28.1238
  17   2.0000      -0.942928       -25.6584
  18   2.0000      -0.895715       -24.3736
  19   2.0000      -0.819485       -22.2993
  20   2.0000      -0.766036       -20.8449
  21   2.0000      -0.692834       -18.8530
  22   2.0000      -0.660846       -17.9825
  23   2.0000      -0.640304       -17.4236
  24   2.0000      -0.591534       -16.0965
  25   2.0000      -0.540717       -14.7137
  26   2.0000      -0.529772       -14.4158
  27   2.0000      -0.518422       -14.1070
  28   2.0000      -0.504393       -13.7252
  29   2.0000      -0.486513       -13.2387
  30   2.0000      -0.469825       -12.7846
  31   2.0000      -0.449289       -12.2258
  32   2.0000      -0.441594       -12.0164
  33   2.0000      -0.418444       -11.3864
  34   2.0000      -0.404351       -11.0030
  35   2.0000      -0.401262       -10.9189
  36   2.0000      -0.371357       -10.1051
  37   2.0000      -0.357489        -9.7278
  38   2.0000      -0.353795        -9.6272
  39   2.0000      -0.346796        -9.4368
  40   2.0000      -0.337286        -9.1780
  41   2.0000      -0.324930        -8.8418
  42   2.0000      -0.309035        -8.4093
  43   2.0000      -0.284386        -7.7385
  44   2.0000      -0.267967        -7.2917
  45   2.0000      -0.258011        -7.0208
  46   2.0000      -0.209297        -5.6953
  47   2.0000      -0.132268        -3.5992
  48   0.0000      -0.026155        -0.7117
  49   0.0000      -0.011108        -0.3023
  50   0.0000       0.000170         0.0046
  51   0.0000       0.010050         0.2735
  52   0.0000       0.017325         0.4714

MULLIKEN ATOMIC CHARGES
-----------------------
   0 C :   -0.513685
   1 N :   -0.354001
   2 C :   -0.276769
   3 C :   -0.385090
   4 H :    0.310444
   5 H :    0.195563
   6 S :    1.179100
   7 C :    1.372234
   8 N :   -0.526801
   9 C :   -1.848422
  10 H :    0.598705
  11 H :    0.220778
  12 H :    0.190768
  13 H :    0.143623
  14 H :    0.145121
  15 O :   -0.614440
  16 F :   -0.130470
  17 O :   -0.609784
  18 H :    0.170163
  19 H :    0.148269
  20 H :    0.481879
  21 H :    0.102816
Sum of atomic charges:   -0.0000000

LOEWDIN ATOMIC CHARGES
----------------------
   0 C :   -0.171614
   1 N :    0.027802
   2 C :   -0.197469
   3 C :   -0.211476
   4 H :    0.113180
   5 H :    0.098567
   6 S :    0.597891
   7 C :   -0.554830
   8 N :    0.106641
   9 C :    0.028331
  10 H :   -0.050755
  11 H :    0.024360
  12 H :    0.135102
  13 H :    0.089876
  14 H :    0.102513
  15 O :   -0.243400
  16 F :   -0.034496
  17 O :   -0.301275
  18 H :    0.106183
  19 H :    0.112437
  20 H :    0.107793
  21 H :    0.114639

  Mayer bond orders larger than 0.100000
B(  0-C ,  1-N ) :   0.9395 B(  0-C ,  2-C ) :   1.0157 B(  0-C ,  9-C ) :   0.1384
B(  0-C , 20-H ) :   0.7067 B(  0-C , 21-H ) :   0.9675 B(  1-N ,  7-C ) :   0.9533
B(  1-N ,  8-N ) :   0.1010 B(  1-N , 12-H ) :   1.0049 B(  2-C ,  3-C ) :   1.2136
B(  2-C ,  6-S ) :   0.1578 B(  2-C , 18-H ) :   0.8932 B(  2-C , 19-H ) :   0.8933
B(  3-C ,  4-H ) :   0.8458 B(  3-C ,  5-H ) :   0.9196 B(  3-C ,  6-S ) :   0.7732
B(  3-C , 15-O ) :   0.1430 B(  6-S , 15-O ) :   1.5433 B(  6-S , 16-F ) :   1.0023
B(  6-S , 17-O ) :   1.6247 B(  7-C ,  8-N ) :   0.7072 B(  7-C ,  9-C ) :   0.5360
B(  7-C , 11-H ) :  -0.1495 B(  8-N ,  9-C ) :   0.1689 B(  8-N , 13-H ) :   1.0730
B(  8-N , 14-H ) :   1.0617 B(  9-C , 10-H ) :   0.9346 B(  9-C , 11-H ) :   1.1056
B(  9-C , 17-O ) :   0.1352 B( 10-H , 17-O ) :  -0.3391 B( 15-O , 17-O ) :   0.1154

Dispersion correction           -0.031760789
FINAL SINGLE POINT ENERGY      -955.408573025002

DIPOLE MOMENT
-------------
                                X             Y             Z
Electronic contribution:    -15.83077      -1.48016       0.14978
Nuclear contribution   :     16.57580       2.60270       1.54331
                        -----------------------------------------
Total Dipole Moment    :      0.74503       1.12254       1.69309
                        -----------------------------------------
Magnitude (a.u.)       :      2.16373
Magnitude (Debye)      :      5.49976

Rotational constants in cm-1:     0.060402     0.020377     0.017632
Rotational constants in MHz :  1810.792194   610.900365   528.582827

                             ****ORCA TERMINATED NORMALLY****
TOTAL RUN TIME: 0 days 0 hours 1 minutes 23 seconds 698 msec
