                         Program Version 5.0.0 -  RELEASE  -
|  1> !TPSS D3BJ RIJCOSX def2-TZVPD def2/J TightSCF xyzfile
|  2>
|  3> *xyzfile 0 1 D7.xyz
|  4>
|  5> %MaxCore 64000
|  6>
|  7> %pal nprocs 4
|  8> end
|  9>
| 10> %scf
| 11>   MaxIter 150
| 12> end
| 13>
| 14>
| 15>                          ****END OF INPUT****

CARTESIAN COORDINATES (ANGSTROEM)
---------------------------------
  C      3.380928    2.083045   -3.350127
  C      4.535924    1.182447   -3.428518
  C      2.495557    1.816150   -2.136364
  C      1.872181    0.427903   -2.077497
  H      2.614270   -0.365825   -2.198894
  H      1.389953    0.273087   -1.112360
  S      0.579024    0.140472   -3.297943
  C      4.671956    0.122273   -4.220598
  N      5.866023   -0.507849   -4.224284
  N      3.698881   -0.312844   -4.986988
  H      2.731405   -0.050091   -4.849000
  H      3.890046   -1.055172   -5.643730
  H      5.251933    1.303459   -2.721014
  H      6.695165   -0.062322   -3.851596
  H      5.975383   -1.396884   -4.691414
  O      0.228860   -1.246868   -3.127871
  O     -0.439269    1.118966   -3.014550
  F      1.247881    0.403474   -4.595647
  H      1.697003    2.561969   -2.141109
  H      3.080787    1.987436   -1.225838
  H      2.806463    1.986511   -4.268484
  H      3.778714    3.098282   -3.307383

 Total Charge           Charge          ....    0
 Multiplicity           Mult            ....    1
 Number of Electrons    NEL             ....   96
 Basis Dimension        Dim             ....  524

ORBITAL ENERGIES
----------------

  NO   OCC          E(Eh)            E(eV)
   0   2.0000     -88.583022     -2410.4666
   1   2.0000     -24.522529      -667.2919
   2   2.0000     -18.899353      -514.2775
   3   2.0000     -18.898853      -514.2639
   4   2.0000     -14.108399      -383.9090
   5   2.0000     -14.107484      -383.8842
   6   2.0000     -10.034563      -273.0543
   7   2.0000     -10.030760      -272.9509
   8   2.0000      -9.995251      -271.9846
   9   2.0000      -9.978171      -271.5198
  10   2.0000      -9.919856      -269.9330
  11   2.0000      -7.933484      -215.8811
  12   2.0000      -5.917224      -161.0159
  13   2.0000      -5.909689      -160.8108
  14   2.0000      -5.909279      -160.7997
  15   2.0000      -1.288312       -35.0568
  16   2.0000      -1.045918       -28.4609
  17   2.0000      -0.959589       -26.1117
  18   2.0000      -0.905943       -24.6519
  19   2.0000      -0.820434       -22.3251
  20   2.0000      -0.767726       -20.8909
  21   2.0000      -0.708422       -19.2772
  22   2.0000      -0.672196       -18.2914
  23   2.0000      -0.633238       -17.2313
  24   2.0000      -0.591109       -16.0849
  25   2.0000      -0.544197       -14.8083
  26   2.0000      -0.533568       -14.5191
  27   2.0000      -0.518499       -14.1091
  28   2.0000      -0.504925       -13.7397
  29   2.0000      -0.497548       -13.5390
  30   2.0000      -0.470792       -12.8109
  31   2.0000      -0.446430       -12.1480
  32   2.0000      -0.433646       -11.8001
  33   2.0000      -0.429116       -11.6768
  34   2.0000      -0.414301       -11.2737
  35   2.0000      -0.407224       -11.0811
  36   2.0000      -0.372032       -10.1235
  37   2.0000      -0.367155        -9.9908
  38   2.0000      -0.361968        -9.8496
  39   2.0000      -0.344099        -9.3634
  40   2.0000      -0.325861        -8.8671
  41   2.0000      -0.313758        -8.5378
  42   2.0000      -0.303435        -8.2569
  43   2.0000      -0.298675        -8.1273
  44   2.0000      -0.287875        -7.8335
  45   2.0000      -0.280528        -7.6335
  46   2.0000      -0.233456        -6.3527
  47   2.0000      -0.143533        -3.9057
  48   0.0000      -0.024640        -0.6705
  49   0.0000      -0.010210        -0.2778
  50   0.0000       0.002781         0.0757
  51   0.0000       0.014779         0.4022
  52   0.0000       0.019463         0.5296

MULLIKEN ATOMIC CHARGES
-----------------------
   0 C :   -0.421984
   1 C :   -1.135436
   2 C :   -0.256141
   3 C :   -0.357904
   4 H :    0.319283
   5 H :    0.164699
   6 S :    1.163872
   7 C :    1.246176
   8 N :   -0.526900
   9 N :   -0.441840
  10 H :    0.271655
  11 H :    0.133501
  12 H :    0.292820
  13 H :    0.161892
  14 H :    0.142718
  15 O :   -0.603611
  16 O :   -0.593971
  17 F :   -0.274166
  18 H :    0.085158
  19 H :    0.216622
  20 H :    0.348498
  21 H :    0.065058
Sum of atomic charges:   -0.0000000

LOEWDIN ATOMIC CHARGES
----------------------
   0 C :   -0.217897
   1 C :   -0.126751
   2 C :   -0.213648
   3 C :   -0.215517
   4 H :    0.103127
   5 H :    0.109690
   6 S :    0.579674
   7 C :   -0.538309
   8 N :    0.113026
   9 N :    0.152918
  10 H :    0.046196
  11 H :    0.110300
  12 H :    0.069245
  13 H :    0.106817
  14 H :    0.092220
  15 O :   -0.249240
  16 O :   -0.240770
  17 F :   -0.106666
  18 H :    0.105119
  19 H :    0.117196
  20 H :    0.094534
  21 H :    0.108735

  Mayer bond orders larger than 0.100000
B(  0-C ,  1-C ) :   0.8426 B(  0-C ,  2-C ) :   0.8320 B(  0-C , 20-H ) :   0.8052
B(  0-C , 21-H ) :   1.0715 B(  1-C ,  3-C ) :   0.1338 B(  1-C ,  7-C ) :   1.1346
B(  1-C ,  8-N ) :   0.2416 B(  1-C ,  9-N ) :   0.1448 B(  1-C , 12-H ) :   0.9574
B(  2-C ,  3-C ) :   1.2708 B(  2-C ,  6-S ) :   0.1529 B(  2-C , 18-H ) :   0.9378
B(  2-C , 19-H ) :   0.8557 B(  3-C ,  4-H ) :   0.8499 B(  3-C ,  5-H ) :   0.8879
B(  3-C ,  6-S ) :   0.7831 B(  3-C , 15-O ) :   0.1222 B(  6-S , 15-O ) :   1.5607
B(  6-S , 16-O ) :   1.5955 B(  6-S , 17-F ) :   0.9926 B(  7-C ,  8-N ) :   0.6648
B(  7-C ,  9-N ) :   0.8001 B(  7-C , 10-H ) :  -0.1113 B(  8-N , 13-H ) :   1.0350
B(  8-N , 14-H ) :   1.0917 B(  9-N , 10-H ) :   0.8450 B(  9-N , 11-H ) :   1.0722
B( 15-O , 16-O ) :   0.1130

Dispersion correction           -0.031482339
FINAL SINGLE POINT ENERGY      -955.442804168326

DIPOLE MOMENT
-------------
                                X             Y             Z
Electronic contribution:    -13.26669      -3.86175      -3.66615
Nuclear contribution   :     14.80811       3.53278       3.42836
                        -----------------------------------------
Total Dipole Moment    :      1.54142      -0.32897      -0.23779
                        -----------------------------------------
Magnitude (a.u.)       :      1.59397
Magnitude (Debye)      :      4.05155

Rotational constants in cm-1:     0.059173     0.020923     0.018056
Rotational constants in MHz :  1773.956621   627.264018   541.303397

                             ****ORCA TERMINATED NORMALLY****
TOTAL RUN TIME: 0 days 0 hours 1 minutes 23 seconds 665 msec
