                         Program Version 5.0.0 -  RELEASE  -
|  1> !TPSS D3BJ RIJCOSX def2-TZVPD def2/J TightSCF xyzfile
|  2>
|  3> *xyzfile 0 1 D8.xyz
|  4>
|  5> %MaxCore 64000
|  6>
|  7> %pal nprocs 4
|  8> end
|  9>
| 10> %scf
| 11>   MaxIter 150
| 12> end
| 13>
| 14>
| 15>                          ****END OF INPUT****

CARTESIAN COORDINATES (ANGSTROEM)
---------------------------------
  C      3.380928    2.083045   -3.350127
  N      4.535924    1.182447   -3.428518
  C      2.495557    1.816150   -2.136364
  C      1.872181    0.427903   -2.077497
  H      2.614270   -0.365825   -2.198894
  H      1.389953    0.273087   -1.112360
  S      0.579024    0.140472   -3.297943
  C      4.671956    0.122273   -4.220598
  C      5.866023   -0.507849   -4.224284
  N      3.698881   -0.312844   -4.986988
  H      2.731405   -0.050091   -4.849000
  H      3.890046   -1.055172   -5.643730
  H      5.251933    1.303459   -2.721014
  H      6.695165   -0.062322   -3.851596
  H      5.975383   -1.396884   -4.691414
  O      0.228860   -1.246868   -3.127871
  O     -0.439269    1.118966   -3.014550
  F      1.247881    0.403474   -4.595647
  H      1.697003    2.561969   -2.141109
  H      3.080787    1.987436   -1.225838
  H      2.806463    1.986511   -4.268484
  H      3.778714    3.098282   -3.307383

 Total Charge           Charge          ....    0
 Multiplicity           Mult            ....    1
 Number of Electrons    NEL             ....   96
 Basis Dimension        Dim             ....  524

ORBITAL ENERGIES
----------------

  NO   OCC          E(Eh)            E(eV)
   0   2.0000     -88.595901     -2410.8170
   1   2.0000     -24.533762      -667.5976
   2   2.0000     -18.911418      -514.6059
   3   2.0000     -18.910527      -514.5816
   4   2.0000     -14.115041      -384.0898
   5   2.0000     -14.104640      -383.8068
   6   2.0000     -10.048976      -273.4465
   7   2.0000     -10.043546      -273.2988
   8   2.0000     -10.033108      -273.0147
   9   2.0000     -10.021824      -272.7077
  10   2.0000      -9.902070      -269.4490
  11   2.0000      -7.946245      -216.2283
  12   2.0000      -5.929930      -161.3616
  13   2.0000      -5.922396      -161.1566
  14   2.0000      -5.922193      -161.1511
  15   2.0000      -1.299732       -35.3675
  16   2.0000      -1.057734       -28.7824
  17   2.0000      -0.971278       -26.4298
  18   2.0000      -0.913878       -24.8679
  19   2.0000      -0.839190       -22.8355
  20   2.0000      -0.778950       -21.1963
  21   2.0000      -0.714168       -19.4335
  22   2.0000      -0.668736       -18.1972
  23   2.0000      -0.648600       -17.6493
  24   2.0000      -0.592294       -16.1171
  25   2.0000      -0.565667       -15.3926
  26   2.0000      -0.554196       -15.0804
  27   2.0000      -0.535637       -14.5754
  28   2.0000      -0.512566       -13.9476
  29   2.0000      -0.490023       -13.3342
  30   2.0000      -0.470431       -12.8011
  31   2.0000      -0.455156       -12.3854
  32   2.0000      -0.447632       -12.1807
  33   2.0000      -0.438960       -11.9447
  34   2.0000      -0.424462       -11.5502
  35   2.0000      -0.414864       -11.2890
  36   2.0000      -0.385587       -10.4924
  37   2.0000      -0.370532       -10.0827
  38   2.0000      -0.364316        -9.9135
  39   2.0000      -0.356530        -9.7017
  40   2.0000      -0.347844        -9.4653
  41   2.0000      -0.340061        -9.2535
  42   2.0000      -0.323549        -8.8042
  43   2.0000      -0.312109        -8.4929
  44   2.0000      -0.302858        -8.2412
  45   2.0000      -0.292842        -7.9686
  46   2.0000      -0.226934        -6.1752
  47   2.0000      -0.136820        -3.7231
  48   0.0000      -0.033271        -0.9054
  49   0.0000      -0.013549        -0.3687
  50   0.0000      -0.001208        -0.0329
  51   0.0000       0.003730         0.1015
  52   0.0000       0.014224         0.3871

MULLIKEN ATOMIC CHARGES
-----------------------
   0 C :   -0.537609
   1 N :   -0.284832
   2 C :   -0.238785
   3 C :   -0.377065
   4 H :    0.311816
   5 H :    0.165596
   6 S :    1.170035
   7 C :    1.024664
   8 C :   -1.363423
   9 N :   -0.436727
  10 H :    0.317603
  11 H :    0.118774
  12 H :    0.178499
  13 H :    0.268266
  14 H :    0.265585
  15 O :   -0.593290
  16 O :   -0.592008
  17 F :   -0.280028
  18 H :    0.189905
  19 H :    0.150088
  20 H :    0.448425
  21 H :    0.094509
Sum of atomic charges:   -0.0000000

LOEWDIN ATOMIC CHARGES
----------------------
   0 C :   -0.175210
   1 N :    0.037939
   2 C :   -0.198545
   3 C :   -0.213176
   4 H :    0.105906
   5 H :    0.111752
   6 S :    0.580465
   7 C :   -0.569080
   8 C :    0.003121
   9 N :    0.148251
  10 H :    0.039530
  11 H :    0.122000
  12 H :    0.147507
  13 H :    0.000959
  14 H :   -0.001705
  15 O :   -0.240940
  16 O :   -0.238659
  17 F :   -0.107309
  18 H :    0.110014
  19 H :    0.116423
  20 H :    0.104164
  21 H :    0.116595

  Mayer bond orders larger than 0.100000
B(  0-C ,  1-N ) :   0.8942 B(  0-C ,  2-C ) :   0.9565 B(  0-C ,  7-C ) :  -0.1158
B(  0-C , 20-H ) :   0.7006 B(  0-C , 21-H ) :   1.0124 B(  1-N ,  7-C ) :   1.0108
B(  1-N ,  8-C ) :   0.2026 B(  1-N , 12-H ) :   0.9958 B(  2-C ,  3-C ) :   1.2276
B(  2-C ,  6-S ) :   0.1466 B(  2-C , 18-H ) :   0.9424 B(  2-C , 19-H ) :   0.8749
B(  3-C ,  4-H ) :   0.8422 B(  3-C ,  5-H ) :   0.9085 B(  3-C ,  6-S ) :   0.7953
B(  3-C , 15-O ) :   0.1239 B(  6-S , 15-O ) :   1.5741 B(  6-S , 16-O ) :   1.5964
B(  6-S , 17-F ) :   0.9896 B(  7-C ,  8-C ) :   0.9871 B(  7-C ,  9-N ) :   0.9072
B(  8-C ,  9-N ) :   0.1166 B(  8-C , 13-H ) :   1.0000 B(  8-C , 14-H ) :   1.0448
B(  9-N , 10-H ) :   0.7775 B(  9-N , 11-H ) :   1.0660 B( 15-O , 16-O ) :   0.1150

Dispersion correction           -0.031197629
FINAL SINGLE POINT ENERGY      -955.429010376200

DIPOLE MOMENT
-------------
                                X             Y             Z
Electronic contribution:    -14.70103      -2.45462      -2.91346
Nuclear contribution   :     14.93782       3.36795       3.35075
                        -----------------------------------------
Total Dipole Moment    :      0.23679       0.91333       0.43730
                        -----------------------------------------
Magnitude (a.u.)       :      1.03993
Magnitude (Debye)      :      2.64330

Rotational constants in cm-1:     0.059219     0.021387     0.018380
Rotational constants in MHz :  1775.354399   641.172207   551.019443

                             ****ORCA TERMINATED NORMALLY****
TOTAL RUN TIME: 0 days 0 hours 1 minutes 18 seconds 891 msec
