                         Program Version 5.0.0 -  RELEASE  -
|  1> !TPSS D3BJ RIJCOSX def2-TZVPD def2/J TightSCF xyzfile
|  2>
|  3> *xyzfile 0 1 D9.xyz
|  4>
|  5> %MaxCore 64000
|  6>
|  7> %pal nprocs 4
|  8> end
|  9>
| 10> %scf
| 11>   MaxIter 150
| 12> end
| 13>
| 14>
| 15>                          ****END OF INPUT****

CARTESIAN COORDINATES (ANGSTROEM)
---------------------------------
  C      3.380928    2.083045   -3.350127
  N      4.535924    1.182447   -3.428518
  C      2.495557    1.816150   -2.136364
  C      1.872181    0.427903   -2.077497
  H      2.614270   -0.365825   -2.198894
  H      1.389953    0.273087   -1.112360
  S      0.579024    0.140472   -3.297943
  C      4.671956    0.122273   -4.220598
  N      5.866023   -0.507849   -4.224284
  C      3.698881   -0.312844   -4.986988
  H      2.731405   -0.050091   -4.849000
  H      3.890046   -1.055172   -5.643730
  H      5.251933    1.303459   -2.721014
  H      6.695165   -0.062322   -3.851596
  H      5.975383   -1.396884   -4.691414
  O      0.228860   -1.246868   -3.127871
  O     -0.439269    1.118966   -3.014550
  F      1.247881    0.403474   -4.595647
  H      1.697003    2.561969   -2.141109
  H      3.080787    1.987436   -1.225838
  H      2.806463    1.986511   -4.268484
  H      3.778714    3.098282   -3.307383

 Total Charge           Charge          ....    0
 Multiplicity           Mult            ....    1
 Number of Electrons    NEL             ....   96
 Basis Dimension        Dim             ....  524

ORBITAL ENERGIES
----------------

  NO   OCC          E(Eh)            E(eV)
   0   2.0000     -88.578343     -2410.3393
   1   2.0000     -24.503589      -666.7766
   2   2.0000     -18.894481      -514.1450
   3   2.0000     -18.892995      -514.1045
   4   2.0000     -14.116901      -384.1404
   5   2.0000     -14.107938      -383.8965
   6   2.0000     -10.037688      -273.1394
   7   2.0000     -10.035693      -273.0851
   8   2.0000     -10.033277      -273.0193
   9   2.0000     -10.014478      -272.5078
  10   2.0000      -9.900882      -269.4167
  11   2.0000      -7.928378      -215.7421
  12   2.0000      -5.911770      -160.8674
  13   2.0000      -5.904723      -160.6757
  14   2.0000      -5.904569      -160.6715
  15   2.0000      -1.270899       -34.5829
  16   2.0000      -1.039950       -28.2985
  17   2.0000      -0.954385       -25.9701
  18   2.0000      -0.910228       -24.7686
  19   2.0000      -0.832776       -22.6610
  20   2.0000      -0.766212       -20.8497
  21   2.0000      -0.693554       -18.8726
  22   2.0000      -0.674210       -18.3462
  23   2.0000      -0.638410       -17.3720
  24   2.0000      -0.599605       -16.3161
  25   2.0000      -0.537300       -14.6207
  26   2.0000      -0.528500       -14.3812
  27   2.0000      -0.510406       -13.8889
  28   2.0000      -0.504021       -13.7151
  29   2.0000      -0.492330       -13.3970
  30   2.0000      -0.474363       -12.9081
  31   2.0000      -0.450368       -12.2551
  32   2.0000      -0.435195       -11.8423
  33   2.0000      -0.420688       -11.4475
  34   2.0000      -0.419761       -11.4223
  35   2.0000      -0.399789       -10.8788
  36   2.0000      -0.375777       -10.2254
  37   2.0000      -0.368567       -10.0292
  38   2.0000      -0.355247        -9.6668
  39   2.0000      -0.348236        -9.4760
  40   2.0000      -0.343573        -9.3491
  41   2.0000      -0.331269        -9.0143
  42   2.0000      -0.317381        -8.6364
  43   2.0000      -0.295962        -8.0535
  44   2.0000      -0.287475        -7.8226
  45   2.0000      -0.275882        -7.5071
  46   2.0000      -0.221937        -6.0392
  47   2.0000      -0.150883        -4.1057
  48   0.0000      -0.023352        -0.6354
  49   0.0000      -0.010572        -0.2877
  50   0.0000      -0.000124        -0.0034
  51   0.0000       0.008568         0.2332
  52   0.0000       0.025097         0.6829

MULLIKEN ATOMIC CHARGES
-----------------------
   0 C :   -0.528390
   1 N :   -0.324775
   2 C :   -0.274773
   3 C :   -0.349621
   4 H :    0.322228
   5 H :    0.166741
   6 S :    1.178747
   7 C :    1.383703
   8 N :   -0.520699
   9 C :   -1.952443
  10 H :    0.693862
  11 H :    0.213882
  12 H :    0.193235
  13 H :    0.146563
  14 H :    0.147313
  15 O :   -0.612796
  16 O :   -0.604943
  17 F :   -0.154355
  18 H :    0.182275
  19 H :    0.154465
  20 H :    0.453425
  21 H :    0.086354
Sum of atomic charges:    0.0000000

LOEWDIN ATOMIC CHARGES
----------------------
   0 C :   -0.169108
   1 N :    0.030779
   2 C :   -0.197158
   3 C :   -0.213588
   4 H :    0.103763
   5 H :    0.109169
   6 S :    0.577194
   7 C :   -0.551291
   8 N :    0.114259
   9 C :    0.024810
  10 H :   -0.032041
  11 H :    0.024518
  12 H :    0.138887
  13 H :    0.094460
  14 H :    0.105092
  15 O :   -0.246268
  16 O :   -0.247473
  17 F :   -0.115095
  18 H :    0.110053
  19 H :    0.113284
  20 H :    0.108693
  21 H :    0.117062

  Mayer bond orders larger than 0.100000
B(  0-C ,  1-N ) :   0.9490 B(  0-C ,  2-C ) :   0.9705 B(  0-C ,  9-C ) :   0.1408
B(  0-C , 20-H ) :   0.6951 B(  0-C , 21-H ) :   0.9925 B(  1-N ,  7-C ) :   0.9670
B(  1-N ,  8-N ) :   0.1036 B(  1-N , 12-H ) :   0.9983 B(  2-C ,  3-C ) :   1.2487
B(  2-C ,  6-S ) :   0.1580 B(  2-C , 18-H ) :   0.9252 B(  2-C , 19-H ) :   0.8782
B(  3-C ,  4-H ) :   0.8504 B(  3-C ,  5-H ) :   0.9110 B(  3-C ,  6-S ) :   0.7755
B(  3-C , 15-O ) :   0.1430 B(  6-S , 15-O ) :   1.5481 B(  6-S , 16-O ) :   1.5826
B(  6-S , 17-F ) :   1.0425 B(  7-C ,  8-N ) :   0.7155 B(  7-C ,  9-C ) :   0.5659
B(  7-C , 11-H ) :  -0.1296 B(  8-N ,  9-C ) :   0.1671 B(  8-N , 13-H ) :   1.0673
B(  8-N , 14-H ) :   1.0567 B(  9-C , 10-H ) :   0.7254 B(  9-C , 11-H ) :   1.0995
B(  9-C , 17-F ) :   0.1500 B( 10-H , 17-F ) :  -0.3363 B( 15-O , 16-O ) :   0.1026

Dispersion correction           -0.031465074
FINAL SINGLE POINT ENERGY      -955.426531979391

DIPOLE MOMENT
-------------
                                X             Y             Z
Electronic contribution:    -12.70866      -2.66815      -2.45402
Nuclear contribution   :     14.72648       3.38697       3.27638
                        -----------------------------------------
Total Dipole Moment    :      2.01782       0.71881       0.82236
                        -----------------------------------------
Magnitude (a.u.)       :      2.29446
Magnitude (Debye)      :      5.83206

Rotational constants in cm-1:     0.059651     0.020833     0.018010
Rotational constants in MHz :  1788.283887   624.555661   539.921162

                             ****ORCA TERMINATED NORMALLY****
TOTAL RUN TIME: 0 days 0 hours 1 minutes 16 seconds 350 msec
