                         Program Version 5.0.0 -  RELEASE  -
|  1> !LC-PBE RIJCOSX def2-TZVP def2/J TightSCF
|  2> *xyz -1 1
|  3> C         -0.87096        0.24804       -2.66280
|  4> C         -0.47749        0.60819       -4.10105
|  5> H          0.20677        1.45830       -4.11875
|  6> H         -1.36844        0.92942       -4.64785
|  7> C          0.18467       -0.50664       -4.91676
|  8> O         -0.15869       -1.70109       -4.65798
|  9> O          1.05594       -0.17441       -5.74037
| 10> H         -1.54056       -0.58646       -2.67455
| 11> H         -1.35339        1.08600       -2.20455
| 12> H          0.00660       -0.00662       -2.10609
| 13> *
| 14>
| 15> %MaxCore 64000
| 16>
| 17> %pal nprocs 4
| 18> end
| 19>
| 20> %scf
| 21>   MaxIter 150
| 22> end
| 23>
| 24>
| 25>                          ****END OF INPUT****

CARTESIAN COORDINATES (ANGSTROEM)
---------------------------------
  C     -0.870960    0.248040   -2.662800
  C     -0.477490    0.608190   -4.101050
  H      0.206770    1.458300   -4.118750
  H     -1.368440    0.929420   -4.647850
  C      0.184670   -0.506640   -4.916760
  O     -0.158690   -1.701090   -4.657980
  O      1.055940   -0.174410   -5.740370
  H     -1.540560   -0.586460   -2.674550
  H     -1.353390    1.086000   -2.204550
  H      0.006600   -0.006620   -2.106090

 Total Charge           Charge          ....   -1
 Multiplicity           Mult            ....    1
 Number of Electrons    NEL             ....   40
 Basis Dimension        Dim             ....  185

ORBITAL ENERGIES
----------------

  NO   OCC          E(Eh)            E(eV)
   0   2.0000     -18.701024      -508.8807
   1   2.0000     -18.696964      -508.7702
   2   2.0000      -9.995986      -272.0046
   3   2.0000      -9.946643      -270.6619
   4   2.0000      -9.939209      -270.4596
   5   2.0000      -0.981022       -26.6950
   6   2.0000      -0.877265       -23.8716
   7   2.0000      -0.778812       -21.1926
   8   2.0000      -0.637796       -17.3553
   9   2.0000      -0.464382       -12.6365
  10   2.0000      -0.437437       -11.9033
  11   2.0000      -0.400244       -10.8912
  12   2.0000      -0.368229       -10.0200
  13   2.0000      -0.351295        -9.5592
  14   2.0000      -0.341947        -9.3048
  15   2.0000      -0.309393        -8.4190
  16   2.0000      -0.291287        -7.9263
  17   2.0000      -0.169786        -4.6201
  18   2.0000      -0.166616        -4.5339
  19   2.0000      -0.155549        -4.2327
  20   0.0000       0.264664         7.2019
  21   0.0000       0.307809         8.3759
  22   0.0000       0.324411         8.8277
  23   0.0000       0.330830         9.0023
  24   0.0000       0.350524         9.5382

MULLIKEN ATOMIC CHARGES
-----------------------
   0 C :   -0.407698
   1 C :   -0.247659
   2 H :    0.096127
   3 H :    0.083177
   4 C :    0.155181
   5 O :   -0.530601
   6 O :   -0.493917
   7 H :    0.137477
   8 H :    0.089686
   9 H :    0.118228
Sum of atomic charges:   -1.0000000

LOEWDIN ATOMIC CHARGES
----------------------
   0 C :   -0.348150
   1 C :   -0.307317
   2 H :    0.131495
   3 H :    0.132420
   4 C :   -0.708165
   5 O :   -0.137715
   6 O :   -0.099551
   7 H :    0.120438
   8 H :    0.100801
   9 H :    0.115744

  Mayer bond orders larger than 0.100000
B(  0-C ,  1-C ) :   0.9345 B(  0-C ,  7-H ) :   0.9716 B(  0-C ,  8-H ) :   0.9774
B(  0-C ,  9-H ) :   0.9792 B(  1-C ,  2-H ) :   0.9733 B(  1-C ,  3-H ) :   0.9678
B(  1-C ,  4-C ) :   0.9448 B(  4-C ,  5-O ) :   1.8488 B(  4-C ,  6-O ) :   1.9153

FINAL SINGLE POINT ENERGY      -267.152423662255

DIPOLE MOMENT
-------------
                                X             Y             Z
Electronic contribution:      2.60899      -2.87127      -4.54446
Nuclear contribution   :     -3.54611       4.15440       5.90446
                        -----------------------------------------
Total Dipole Moment    :     -0.93713       1.28313       1.36000
                        -----------------------------------------
Magnitude (a.u.)       :      2.09147
Magnitude (Debye)      :      5.31609

Rotational constants in cm-1:     0.332789     0.132085     0.101080
Rotational constants in MHz :  9976.755824  3959.803182  3030.288811

                             ****ORCA TERMINATED NORMALLY****
TOTAL RUN TIME: 0 days 0 hours 0 minutes 29 seconds 405 msec
