                         Program Version 5.0.0 -  RELEASE  -
|  1> !LC-PBE RIJCOSX def2-TZVP def2/J TightSCF
|  2> *xyz 1 1
|  3> C          2.48645       -2.67712       -2.56345
|  4> C          3.03764       -2.36672       -3.92351
|  5> N          2.28036       -2.45441       -4.96769
|  6> N          4.32174       -2.01793       -4.01664
|  7> H          4.87994       -1.91167       -3.17382
|  8> H          4.71015       -1.67088       -4.88356
|  9> H          1.27042       -2.41265       -4.86614
| 10> H          2.58183       -2.05528       -5.84688
| 11> C          2.49799       -1.46946       -1.61030
| 12> H          1.47259       -3.05153       -2.69437
| 13> H          3.08320       -3.49064       -2.14147
| 14> H          1.91240       -0.67831       -2.02991
| 15> H          3.50450       -1.13364       -1.47227
| 16> H          2.08509       -1.75655       -0.66585
| 17> *
| 18>
| 19> %MaxCore 64000
| 20>
| 21> %pal nprocs 4
| 22> end
| 23>
| 24> %scf
| 25>   MaxIter 150
| 26> end
| 27>
| 28>
| 29>                          ****END OF INPUT****

CARTESIAN COORDINATES (ANGSTROEM)
---------------------------------
  C      2.486450   -2.677120   -2.563450
  C      3.037640   -2.366720   -3.923510
  N      2.280360   -2.454410   -4.967690
  N      4.321740   -2.017930   -4.016640
  H      4.879940   -1.911670   -3.173820
  H      4.710150   -1.670880   -4.883560
  H      1.270420   -2.412650   -4.866140
  H      2.581830   -2.055280   -5.846880
  C      2.497990   -1.469460   -1.610300
  H      1.472590   -3.051530   -2.694370
  H      3.083200   -3.490640   -2.141470
  H      1.912400   -0.678310   -2.029910
  H      3.504500   -1.133640   -1.472270
  H      2.085090   -1.756550   -0.665850

 Total Charge           Charge          ....    1
 Multiplicity           Mult            ....    1
 Number of Electrons    NEL             ....   40
 Basis Dimension        Dim             ....  209

ORBITAL ENERGIES
----------------

  NO   OCC          E(Eh)            E(eV)
   0   2.0000     -14.463898      -393.5827
   1   2.0000     -14.458056      -393.4237
   2   2.0000     -10.449498      -284.3453
   3   2.0000     -10.315509      -280.6993
   4   2.0000     -10.270669      -279.4791
   5   2.0000      -1.387093       -37.7447
   6   2.0000      -1.280873       -34.8543
   7   2.0000      -1.147664       -31.2295
   8   2.0000      -1.029044       -28.0017
   9   2.0000      -0.974580       -26.5197
  10   2.0000      -0.924192       -25.1485
  11   2.0000      -0.901240       -24.5240
  12   2.0000      -0.841796       -22.9064
  13   2.0000      -0.802654       -21.8413
  14   2.0000      -0.765467       -20.8294
  15   2.0000      -0.752188       -20.4681
  16   2.0000      -0.682959       -18.5842
  17   2.0000      -0.670737       -18.2517
  18   2.0000      -0.659149       -17.9364
  19   2.0000      -0.627254       -17.0684
  20   0.0000      -0.119091        -3.2406
  21   0.0000      -0.071473        -1.9449
  22   0.0000      -0.028140        -0.7657
  23   0.0000      -0.027083        -0.7370
  24   0.0000       0.008651         0.2354

MULLIKEN ATOMIC CHARGES
-----------------------
   0 C :   -0.365487
   1 C :    0.314722
   2 N :   -0.333914
   3 N :   -0.372348
   4 H :    0.322431
   5 H :    0.302681
   6 H :    0.321861
   7 H :    0.298055
   8 C :   -0.426815
   9 H :    0.183224
  10 H :    0.223741
  11 H :    0.175216
  12 H :    0.151742
  13 H :    0.204891
Sum of atomic charges:    1.0000000

LOEWDIN ATOMIC CHARGES
----------------------
   0 C :   -0.235542
   1 C :   -0.291747
   2 N :    0.117547
   3 N :    0.094172
   4 H :    0.212925
   5 H :    0.201844
   6 H :    0.218794
   7 H :    0.206827
   8 C :   -0.283075
   9 H :    0.166248
  10 H :    0.180205
  11 H :    0.136628
  12 H :    0.128699
  13 H :    0.146476

  Mayer bond orders larger than 0.100000
B(  0-C ,  1-C ) :   0.9480 B(  0-C ,  8-C ) :   0.9442 B(  0-C ,  9-H ) :   0.9755
B(  0-C , 10-H ) :   0.9328 B(  1-C ,  2-N ) :   1.4845 B(  1-C ,  3-N ) :   1.4264
B(  2-N ,  6-H ) :   0.8754 B(  2-N ,  7-H ) :   0.8881 B(  3-N ,  4-H ) :   0.8818
B(  3-N ,  5-H ) :   0.8880 B(  8-C , 11-H ) :   0.9556 B(  8-C , 12-H ) :   0.9653
B(  8-C , 13-H ) :   0.9619

FINAL SINGLE POINT ENERGY      -228.364113783194

DIPOLE MOMENT
-------------
                                X             Y             Z
Electronic contribution:      1.04654      -1.06283      -3.92520
Nuclear contribution   :     -0.84604       1.34287       2.92710
                        -----------------------------------------
Total Dipole Moment    :      0.20050       0.28004      -0.99810
                        -----------------------------------------
Magnitude (a.u.)       :      1.05585
Magnitude (Debye)      :      2.68377

Rotational constants in cm-1:     0.265816     0.126189     0.097583
Rotational constants in MHz :  7968.948902  3783.040103  2925.457702

                             ****ORCA TERMINATED NORMALLY****
TOTAL RUN TIME: 0 days 0 hours 0 minutes 33 seconds 375 msec
