                         Program Version 5.0.0 -  RELEASE  -
|  1> !LC-PBE RIJCOSX def2-TZVP def2/J TightSCF xyzfile
|  2>
|  3> *xyzfile 0 1 B.xyz
|  4>
|  5> %MaxCore 64000
|  6>
|  7> %pal nprocs 18
|  8> end
|  9>
| 10> %scf
| 11>   MaxIter 150
| 12> end
| 13>
| 14>
| 15>                          ****END OF INPUT****

CARTESIAN COORDINATES (ANGSTROEM)
---------------------------------
  C      2.486452   -2.677121   -2.563447
  C     -0.870963    0.248043   -2.662804
  C     -0.477492    0.608191   -4.101052
  H      0.206773    1.458299   -4.118748
  H     -1.368442    0.929419   -4.647855
  C      0.184673   -0.506640   -4.916760
  C      3.037640   -2.366715   -3.923509
  N      2.280360   -2.454408   -4.967692
  N      4.321736   -2.017932   -4.016641
  H      4.879940   -1.911668   -3.173823
  H      4.710148   -1.670882   -4.883561
  H      1.270423   -2.412650   -4.866143
  H      2.581829   -2.055282   -5.846878
  O     -0.158685   -1.701088   -4.657981
  O      1.055938   -0.174410   -5.740373
  C      2.497991   -1.469464   -1.610303
  C      1.582841   -0.321986   -2.042619
  H      2.193083   -1.833912   -0.625420
  H      3.523356   -1.103982   -1.490392
  C      0.100160   -0.673551   -1.915815
  H      1.822311   -0.040361   -3.072834
  H      1.813180    0.557019   -1.433266
  H     -0.063284   -1.679120   -2.301112
  H     -0.168820   -0.691680   -0.853831
  H     -1.001048    1.181040   -2.104071
  H     -1.844645   -0.246592   -2.663281
  H      1.472592   -3.051527   -2.694366
  H      3.083201   -3.490638   -2.141472

 Total Charge           Charge          ....    0
 Multiplicity           Mult            ....    1
 Number of Electrons    NEL             ....   94
 Basis Dimension        Dim             ....  468

ORBITAL ENERGIES
----------------

  NO   OCC          E(Eh)            E(eV)
   0   2.0000     -18.884356      -513.8694
   1   2.0000     -18.876710      -513.6614
   2   2.0000     -14.297418      -389.0525
   3   2.0000     -14.260379      -388.0446
   4   2.0000     -10.274465      -279.5824
   5   2.0000     -10.168842      -276.7083
   6   2.0000     -10.161828      -276.5174
   7   2.0000     -10.143631      -276.0222
   8   2.0000     -10.111818      -275.1566
   9   2.0000     -10.093259      -274.6515
  10   2.0000     -10.088980      -274.5351
  11   2.0000     -10.076505      -274.1956
  12   2.0000      -1.211999       -32.9802
  13   2.0000      -1.166457       -31.7409
  14   2.0000      -1.103057       -30.0157
  15   2.0000      -1.061582       -28.8871
  16   2.0000      -1.013752       -27.5856
  17   2.0000      -0.956762       -26.0348
  18   2.0000      -0.907128       -24.6842
  19   2.0000      -0.845100       -22.9963
  20   2.0000      -0.821603       -22.3570
  21   2.0000      -0.777040       -21.1443
  22   2.0000      -0.758471       -20.6390
  23   2.0000      -0.732492       -19.9321
  24   2.0000      -0.711047       -19.3486
  25   2.0000      -0.670835       -18.2543
  26   2.0000      -0.650731       -17.7073
  27   2.0000      -0.626063       -17.0360
  28   2.0000      -0.604596       -16.4519
  29   2.0000      -0.598813       -16.2945
  30   2.0000      -0.591791       -16.1035
  31   2.0000      -0.565671       -15.3927
  32   2.0000      -0.552268       -15.0280
  33   2.0000      -0.548541       -14.9266
  34   2.0000      -0.533176       -14.5085
  35   2.0000      -0.517513       -14.0823
  36   2.0000      -0.507629       -13.8133
  37   2.0000      -0.490665       -13.3517
  38   2.0000      -0.482738       -13.1360
  39   2.0000      -0.467204       -12.7133
  40   2.0000      -0.452869       -12.3232
  41   2.0000      -0.440955       -11.9990
  42   2.0000      -0.433063       -11.7842
  43   2.0000      -0.422119       -11.4864
  44   2.0000      -0.353920        -9.6307
  45   2.0000      -0.342281        -9.3139
  46   2.0000      -0.332783        -9.0555
  47   0.0000       0.049560         1.3486
  48   0.0000       0.071798         1.9537
  49   0.0000       0.111412         3.0317
  50   0.0000       0.131198         3.5701
  51   0.0000       0.138582         3.7710

MULLIKEN ATOMIC CHARGES
-----------------------
   0 C :   -0.399104
   1 C :   -0.223307
   2 C :   -0.336424
   3 H :    0.161223
   4 H :    0.150668
   5 C :    0.188966
   6 C :    0.262269
   7 N :   -0.285875
   8 N :   -0.415177
   9 H :    0.288383
  10 H :    0.284470
  11 H :    0.308378
  12 H :    0.278770
  13 O :   -0.522284
  14 O :   -0.467869
  15 C :   -0.292497
  16 C :   -0.330271
  17 H :    0.167179
  18 H :    0.149315
  19 C :   -0.335049
  20 H :    0.198707
  21 H :    0.152695
  22 H :    0.177534
  23 H :    0.141957
  24 H :    0.132877
  25 H :    0.141364
  26 H :    0.222880
  27 H :    0.200222
Sum of atomic charges:    0.0000000

LOEWDIN ATOMIC CHARGES
----------------------
   0 C :   -0.221830
   1 C :   -0.282091
   2 C :   -0.266477
   3 H :    0.147914
   4 H :    0.153744
   5 C :   -0.670121
   6 C :   -0.318446
   7 N :    0.143992
   8 N :    0.046776
   9 H :    0.194820
  10 H :    0.190690
  11 H :    0.165707
  12 H :    0.194612
  13 O :   -0.084785
  14 O :   -0.062229
  15 C :   -0.273400
  16 C :   -0.274727
  17 H :    0.154140
  18 H :    0.137952
  19 C :   -0.290025
  20 H :    0.158078
  21 H :    0.145203
  22 H :    0.147995
  23 H :    0.139279
  24 H :    0.139531
  25 H :    0.147895
  26 H :    0.171147
  27 H :    0.164657

  Mayer bond orders larger than 0.100000
B(  0-C ,  6-C ) :   0.9369 B(  0-C , 15-C ) :   0.9153 B(  0-C , 26-H ) :   0.9756
B(  0-C , 27-H ) :   0.9620 B(  1-C ,  2-C ) :   0.9169 B(  1-C , 19-C ) :   0.9565
B(  1-C , 24-H ) :   0.9816 B(  1-C , 25-H ) :   0.9764 B(  2-C ,  3-H ) :   0.9755
B(  2-C ,  4-H ) :   0.9623 B(  2-C ,  5-C ) :   0.9458 B(  5-C , 13-O ) :   1.6412
B(  5-C , 14-O ) :   1.8638 B(  6-C ,  7-N ) :   1.6152 B(  6-C ,  8-N ) :   1.3021
B(  7-N , 11-H ) :   0.7368 B(  7-N , 12-H ) :   0.8918 B(  8-N ,  9-H ) :   0.8994
B(  8-N , 10-H ) :   0.9011 B( 11-H , 13-O ) :   0.2300 B( 15-C , 16-C ) :   0.9176
B( 15-C , 17-H ) :   0.9709 B( 15-C , 18-H ) :   0.9898 B( 16-C , 19-C ) :   0.8915
B( 16-C , 20-H ) :   0.9699 B( 16-C , 21-H ) :   0.9710 B( 19-C , 22-H ) :   0.9817
B( 19-C , 23-H ) :   0.9659

FINAL SINGLE POINT ENERGY      -572.880701381808

DIPOLE MOMENT
-------------
                                X             Y             Z
Electronic contribution:      1.77382      -2.90591      -8.76603
Nuclear contribution   :      1.39386       1.90489      10.36520
                        -----------------------------------------
Total Dipole Moment    :      3.16768      -1.00102       1.59917
                        -----------------------------------------
Magnitude (a.u.)       :      3.68695
Magnitude (Debye)      :      9.37148

Rotational constants in cm-1:     0.041165     0.025922     0.019001
Rotational constants in MHz :  1234.086888   777.109255   569.639629

                             ****ORCA TERMINATED NORMALLY****
TOTAL RUN TIME: 0 days 0 hours 1 minutes 1 seconds 719 msec
