                         Program Version 5.0.0 -  RELEASE  -
|  1> !LC-PBE RIJCOSX def2-TZVP def2/J TightSCF
|  2> *xyz 0 1
|  3> C         -0.87096        0.24804       -2.66280
|  4> C         -0.47749        0.60819       -4.10105
|  5> H          0.20677        1.45830       -4.11875
|  6> H         -1.36844        0.92942       -4.64785
|  7> C          0.18467       -0.50664       -4.91676
|  8> F         -0.15869       -1.70109       -4.65798
|  9> O          1.05594       -0.17441       -5.74037
| 10> H         -1.54056       -0.58646       -2.67455
| 11> H         -1.35339        1.08600       -2.20455
| 12> H          0.00660       -0.00662       -2.10609
| 13> *
| 14>
| 15> %MaxCore 64000
| 16>
| 17> %pal nprocs 4
| 18> end
| 19>
| 20> %scf
| 21>   MaxIter 150
| 22> end
| 23>
| 24>
| 25>                          ****END OF INPUT****

CARTESIAN COORDINATES (ANGSTROEM)
---------------------------------
  C     -0.870960    0.248040   -2.662800
  C     -0.477490    0.608190   -4.101050
  H      0.206770    1.458300   -4.118750
  H     -1.368440    0.929420   -4.647850
  C      0.184670   -0.506640   -4.916760
  F     -0.158690   -1.701090   -4.657980
  O      1.055940   -0.174410   -5.740370
  H     -1.540560   -0.586460   -2.674550
  H     -1.353390    1.086000   -2.204550
  H      0.006600   -0.006620   -2.106090

 Total Charge           Charge          ....    0
 Multiplicity           Mult            ....    1
 Number of Electrons    NEL             ....   40
 Basis Dimension        Dim             ....  185

ORBITAL ENERGIES
----------------

  NO   OCC          E(Eh)            E(eV)
   0   2.0000     -24.556503      -668.2164
   1   2.0000     -18.984676      -516.5993
   2   2.0000     -10.300893      -280.3015
   3   2.0000     -10.150048      -276.1969
   4   2.0000     -10.122032      -275.4345
   5   2.0000      -1.468397       -39.9571
   6   2.0000      -1.205537       -32.8043
   7   2.0000      -0.982615       -26.7383
   8   2.0000      -0.850254       -23.1366
   9   2.0000      -0.800349       -21.7786
  10   2.0000      -0.702977       -19.1290
  11   2.0000      -0.694804       -18.9066
  12   2.0000      -0.645631       -17.5685
  13   2.0000      -0.612840       -16.6762
  14   2.0000      -0.575558       -15.6617
  15   2.0000      -0.542931       -14.7739
  16   2.0000      -0.525391       -14.2966
  17   2.0000      -0.512412       -13.9434
  18   2.0000      -0.483443       -13.1552
  19   2.0000      -0.429583       -11.6895
  20   0.0000       0.073038         1.9875
  21   0.0000       0.110887         3.0174
  22   0.0000       0.157491         4.2855
  23   0.0000       0.177760         4.8371
  24   0.0000       0.184109         5.0099

MULLIKEN ATOMIC CHARGES
-----------------------
   0 C :   -0.438385
   1 C :   -0.304902
   2 H :    0.177332
   3 H :    0.162098
   4 C :    0.305536
   5 F :   -0.082134
   6 O :   -0.288806
   7 H :    0.154471
   8 H :    0.157997
   9 H :    0.156792
Sum of atomic charges:   -0.0000000

LOEWDIN ATOMIC CHARGES
----------------------
   0 C :   -0.318808
   1 C :   -0.274378
   2 H :    0.162866
   3 H :    0.161453
   4 C :   -0.507281
   5 F :    0.314798
   6 O :    0.077915
   7 H :    0.127117
   8 H :    0.128397
   9 H :    0.127921

  Mayer bond orders larger than 0.100000
B(  0-C ,  1-C ) :   0.9495 B(  0-C ,  7-H ) :   0.9646 B(  0-C ,  8-H ) :   0.9706
B(  0-C ,  9-H ) :   0.9692 B(  1-C ,  2-H ) :   0.9617 B(  1-C ,  3-H ) :   0.9415
B(  1-C ,  4-C ) :   0.9928 B(  4-C ,  5-F ) :   1.1835 B(  4-C ,  6-O ) :   2.1014

FINAL SINGLE POINT ENERGY      -291.698203754640

DIPOLE MOMENT
-------------
                                X             Y             Z
Electronic contribution:      2.58317      -5.33756      -5.27285
Nuclear contribution   :     -3.42837       5.66737       6.17046
                        -----------------------------------------
Total Dipole Moment    :     -0.84520       0.32982       0.89761
                        -----------------------------------------
Magnitude (a.u.)       :      1.27626
Magnitude (Debye)      :      3.24399

Rotational constants in cm-1:     0.304660     0.130969     0.097716
Rotational constants in MHz :  9133.464515  3926.366384  2929.457090

                             ****ORCA TERMINATED NORMALLY****
TOTAL RUN TIME: 0 days 0 hours 0 minutes 31 seconds 585 msec
