                         Program Version 5.0.0 -  RELEASE  -
|  1> !LC-PBE RIJCOSX def2-TZVP def2/J TightSCF
|  2> *xyz 0 1
|  3> C          2.48645       -2.67712       -2.56345
|  4> C          3.03764       -2.36672       -3.92351
|  5> C          2.28036       -2.45441       -4.96769
|  6> N          4.32174       -2.01793       -4.01664
|  7> H          4.87994       -1.91167       -3.17382
|  8> H          4.71015       -1.67088       -4.88356
|  9> H          1.27042       -2.41265       -4.86614
| 10> H          2.58183       -2.05528       -5.84688
| 11> C          2.49799       -1.46946       -1.61030
| 12> H          1.47259       -3.05153       -2.69437
| 13> H          3.08320       -3.49064       -2.14147
| 14> H          1.91240       -0.67831       -2.02991
| 15> H          3.50450       -1.13364       -1.47227
| 16> H          2.08509       -1.75655       -0.66585
| 17> *
| 18>
| 19> %MaxCore 64000
| 20>
| 21> %pal nprocs 4
| 22> end
| 23>
| 24> %scf
| 25>   MaxIter 150
| 26> end
| 27>
| 28>
| 29>                          ****END OF INPUT****

CARTESIAN COORDINATES (ANGSTROEM)
---------------------------------
  C      2.486450   -2.677120   -2.563450
  C      3.037640   -2.366720   -3.923510
  C      2.280360   -2.454410   -4.967690
  N      4.321740   -2.017930   -4.016640
  H      4.879940   -1.911670   -3.173820
  H      4.710150   -1.670880   -4.883560
  H      1.270420   -2.412650   -4.866140
  H      2.581830   -2.055280   -5.846880
  C      2.497990   -1.469460   -1.610300
  H      1.472590   -3.051530   -2.694370
  H      3.083200   -3.490640   -2.141470
  H      1.912400   -0.678310   -2.029910
  H      3.504500   -1.133640   -1.472270
  H      2.085090   -1.756550   -0.665850

 Total Charge           Charge          ....    0
 Multiplicity           Mult            ....    1
 Number of Electrons    NEL             ....   40
 Basis Dimension        Dim             ....  209

ORBITAL ENERGIES
----------------

  NO   OCC          E(Eh)            E(eV)
   0   2.0000     -14.211258      -386.7080
   1   2.0000     -10.139664      -275.9143
   2   2.0000     -10.114570      -275.2314
   3   2.0000     -10.101801      -274.8840
   4   2.0000     -10.041254      -273.2364
   5   2.0000      -1.100017       -29.9330
   6   2.0000      -0.955825       -26.0093
   7   2.0000      -0.896324       -24.3902
   8   2.0000      -0.800006       -21.7693
   9   2.0000      -0.718944       -19.5635
  10   2.0000      -0.671086       -18.2612
  11   2.0000      -0.624988       -17.0068
  12   2.0000      -0.578274       -15.7356
  13   2.0000      -0.573589       -15.6081
  14   2.0000      -0.524372       -14.2689
  15   2.0000      -0.520186       -14.1550
  16   2.0000      -0.484505       -13.1841
  17   2.0000      -0.466261       -12.6876
  18   2.0000      -0.456306       -12.4167
  19   2.0000      -0.316825        -8.6213
  20   0.0000       0.109767         2.9869
  21   0.0000       0.131616         3.5815
  22   0.0000       0.156444         4.2571
  23   0.0000       0.162448         4.4204
  24   0.0000       0.174478         4.7478

MULLIKEN ATOMIC CHARGES
-----------------------
   0 C :   -0.311069
   1 C :    0.195120
   2 C :   -0.449682
   3 N :   -0.491181
   4 H :    0.253038
   5 H :    0.254828
   6 H :    0.126949
   7 H :    0.105061
   8 C :   -0.413841
   9 H :    0.151353
  10 H :    0.150563
  11 H :    0.154310
  12 H :    0.122589
  13 H :    0.151960
Sum of atomic charges:   -0.0000000

LOEWDIN ATOMIC CHARGES
----------------------
   0 C :   -0.252212
   1 C :   -0.371517
   2 C :   -0.286914
   3 N :   -0.018511
   4 H :    0.173412
   5 H :    0.175671
   6 H :    0.116096
   7 H :    0.106914
   8 C :   -0.315546
   9 H :    0.154812
  10 H :    0.149420
  11 H :    0.127392
  12 H :    0.117292
  13 H :    0.123690

  Mayer bond orders larger than 0.100000
B(  0-C ,  1-C ) :   0.9389 B(  0-C ,  8-C ) :   0.9406 B(  0-C ,  9-H ) :   0.9876
B(  0-C , 10-H ) :   0.9723 B(  1-C ,  2-C ) :   1.8162 B(  1-C ,  3-N ) :   1.1265
B(  2-C ,  6-H ) :   0.9879 B(  2-C ,  7-H ) :   0.9971 B(  3-N ,  4-H ) :   0.9272
B(  3-N ,  5-H ) :   0.9212 B(  8-C , 11-H ) :   0.9711 B(  8-C , 12-H ) :   0.9739
B(  8-C , 13-H ) :   0.9800

FINAL SINGLE POINT ENERGY      -211.909111582288

DIPOLE MOMENT
-------------
                                X             Y             Z
Electronic contribution:      1.53784      -0.86742      -2.11114
Nuclear contribution   :     -0.99743       1.27863       2.57190
                        -----------------------------------------
Total Dipole Moment    :      0.54040       0.41121       0.46076
                        -----------------------------------------
Magnitude (a.u.)       :      0.82062
Magnitude (Debye)      :      2.08586

Rotational constants in cm-1:     0.274050     0.130114     0.100964
Rotational constants in MHz :  8215.815505  3900.722919  3026.834930

                             ****ORCA TERMINATED NORMALLY****
TOTAL RUN TIME: 0 days 0 hours 0 minutes 31 seconds 964 msec
