                         Program Version 5.0.0 -  RELEASE  -
|  1> !LC-PBE RIJCOSX def2-TZVP def2/J TightSCF
|  2> *xyz 0 1
|  3> C         -0.87096        0.24804       -2.66280
|  4> C         -0.47749        0.60819       -4.10105
|  5> H          0.20677        1.45830       -4.11875
|  6> H         -1.36844        0.92942       -4.64785
|  7> C          0.18467       -0.50664       -4.91676
|  8> O         -0.15869       -1.70109       -4.65798
|  9> F          1.05594       -0.17441       -5.74037
| 10> H         -1.54056       -0.58646       -2.67455
| 11> H         -1.35339        1.08600       -2.20455
| 12> H          0.00660       -0.00662       -2.10609
| 13> *
| 14>
| 15> %MaxCore 64000
| 16>
| 17> %pal nprocs 4
| 18> end
| 19>
| 20> %scf
| 21>   MaxIter 150
| 22> end
| 23>
| 24>
| 25>                          ****END OF INPUT****

CARTESIAN COORDINATES (ANGSTROEM)
---------------------------------
  C     -0.870960    0.248040   -2.662800
  C     -0.477490    0.608190   -4.101050
  H      0.206770    1.458300   -4.118750
  H     -1.368440    0.929420   -4.647850
  C      0.184670   -0.506640   -4.916760
  O     -0.158690   -1.701090   -4.657980
  F      1.055940   -0.174410   -5.740370
  H     -1.540560   -0.586460   -2.674550
  H     -1.353390    1.086000   -2.204550
  H      0.006600   -0.006620   -2.106090

 Total Charge           Charge          ....    0
 Multiplicity           Mult            ....    1
 Number of Electrons    NEL             ....   40
 Basis Dimension        Dim             ....  185

ORBITAL ENERGIES
----------------

  NO   OCC          E(Eh)            E(eV)
   0   2.0000     -24.566341      -668.4841
   1   2.0000     -18.981035      -516.5002
   2   2.0000     -10.303546      -280.3737
   3   2.0000     -10.151354      -276.2324
   4   2.0000     -10.115707      -275.2624
   5   2.0000      -1.487291       -40.4712
   6   2.0000      -1.190708       -32.4008
   7   2.0000      -0.978273       -26.6202
   8   2.0000      -0.860034       -23.4027
   9   2.0000      -0.799362       -21.7518
  10   2.0000      -0.711655       -19.3651
  11   2.0000      -0.694392       -18.8954
  12   2.0000      -0.658774       -17.9262
  13   2.0000      -0.612044       -16.6546
  14   2.0000      -0.574716       -15.6388
  15   2.0000      -0.532070       -14.4784
  16   2.0000      -0.510020       -13.8783
  17   2.0000      -0.508304       -13.8317
  18   2.0000      -0.479428       -13.0459
  19   2.0000      -0.427959       -11.6454
  20   0.0000       0.070113         1.9079
  21   0.0000       0.115684         3.1479
  22   0.0000       0.157486         4.2854
  23   0.0000       0.174938         4.7603
  24   0.0000       0.184940         5.0325

MULLIKEN ATOMIC CHARGES
-----------------------
   0 C :   -0.432970
   1 C :   -0.304011
   2 H :    0.155831
   3 H :    0.163806
   4 C :    0.318736
   5 O :   -0.320787
   6 F :   -0.057864
   7 H :    0.171808
   8 H :    0.152886
   9 H :    0.152565
Sum of atomic charges:    0.0000000

LOEWDIN ATOMIC CHARGES
----------------------
   0 C :   -0.308741
   1 C :   -0.278928
   2 H :    0.150845
   3 H :    0.162822
   4 C :   -0.511804
   5 O :    0.044760
   6 F :    0.353037
   7 H :    0.133333
   8 H :    0.126166
   9 H :    0.128510

  Mayer bond orders larger than 0.100000
B(  0-C ,  1-C ) :   0.9653 B(  0-C ,  7-H ) :   0.9614 B(  0-C ,  8-H ) :   0.9694
B(  0-C ,  9-H ) :   0.9719 B(  1-C ,  2-H ) :   0.9635 B(  1-C ,  3-H ) :   0.9343
B(  1-C ,  4-C ) :   0.9868 B(  4-C ,  5-O ) :   2.0544 B(  4-C ,  6-F ) :   1.2194

FINAL SINGLE POINT ENERGY      -291.691006225747

DIPOLE MOMENT
-------------
                                X             Y             Z
Electronic contribution:      4.64226      -2.78810      -7.12050
Nuclear contribution   :     -4.75269       4.00281       7.35060
                        -----------------------------------------
Total Dipole Moment    :     -0.11043       1.21471       0.23010
                        -----------------------------------------
Magnitude (a.u.)       :      1.24124
Magnitude (Debye)      :      3.15497

Rotational constants in cm-1:     0.323805     0.124913     0.096140
Rotational constants in MHz :  9707.430323  3744.789513  2882.191141

                             ****ORCA TERMINATED NORMALLY****
TOTAL RUN TIME: 0 days 0 hours 0 minutes 25 seconds 460 msec
