                         Program Version 5.0.0 -  RELEASE  -
|  1> !LC-PBE RIJCOSX def2-TZVP def2/J TightSCF
|  2> *xyz 0 1
|  3> C          2.48645       -2.67712       -2.56345
|  4> C          3.03764       -2.36672       -3.92351
|  5> N          2.28036       -2.45441       -4.96769
|  6> C          4.32174       -2.01793       -4.01664
|  7> H          4.87994       -1.91167       -3.17382
|  8> H          4.71015       -1.67088       -4.88356
|  9> H          1.27042       -2.41265       -4.86614
| 10> H          2.58183       -2.05528       -5.84688
| 11> C          2.49799       -1.46946       -1.61030
| 12> H          1.47259       -3.05153       -2.69437
| 13> H          3.08320       -3.49064       -2.14147
| 14> H          1.91240       -0.67831       -2.02991
| 15> H          3.50450       -1.13364       -1.47227
| 16> H          2.08509       -1.75655       -0.66585
| 17> *
| 18>
| 19> %MaxCore 64000
| 20>
| 21> %pal nprocs 4
| 22> end
| 23>
| 24> %scf
| 25>   MaxIter 150
| 26> end
| 27>
| 28>
| 29>                          ****END OF INPUT****

CARTESIAN COORDINATES (ANGSTROEM)
---------------------------------
  C      2.486450   -2.677120   -2.563450
  C      3.037640   -2.366720   -3.923510
  N      2.280360   -2.454410   -4.967690
  C      4.321740   -2.017930   -4.016640
  H      4.879940   -1.911670   -3.173820
  H      4.710150   -1.670880   -4.883560
  H      1.270420   -2.412650   -4.866140
  H      2.581830   -2.055280   -5.846880
  C      2.497990   -1.469460   -1.610300
  H      1.472590   -3.051530   -2.694370
  H      3.083200   -3.490640   -2.141470
  H      1.912400   -0.678310   -2.029910
  H      3.504500   -1.133640   -1.472270
  H      2.085090   -1.756550   -0.665850

 Total Charge           Charge          ....    0
 Multiplicity           Mult            ....    1
 Number of Electrons    NEL             ....   40
 Basis Dimension        Dim             ....  209

ORBITAL ENERGIES
----------------

  NO   OCC          E(Eh)            E(eV)
   0   2.0000     -14.215226      -386.8160
   1   2.0000     -10.140340      -275.9327
   2   2.0000     -10.115148      -275.2472
   3   2.0000     -10.097782      -274.7746
   4   2.0000     -10.041823      -273.2519
   5   2.0000      -1.114931       -30.3388
   6   2.0000      -0.958318       -26.0771
   7   2.0000      -0.879088       -23.9212
   8   2.0000      -0.805923       -21.9303
   9   2.0000      -0.722025       -19.6473
  10   2.0000      -0.668256       -18.1842
  11   2.0000      -0.629601       -17.1323
  12   2.0000      -0.589891       -16.0518
  13   2.0000      -0.547013       -14.8850
  14   2.0000      -0.534410       -14.5420
  15   2.0000      -0.513390       -13.9701
  16   2.0000      -0.483797       -13.1648
  17   2.0000      -0.468691       -12.7537
  18   2.0000      -0.464547       -12.6410
  19   2.0000      -0.306104        -8.3295
  20   0.0000       0.111401         3.0314
  21   0.0000       0.125618         3.4182
  22   0.0000       0.154922         4.2156
  23   0.0000       0.161049         4.3824
  24   0.0000       0.177229         4.8227

MULLIKEN ATOMIC CHARGES
-----------------------
   0 C :   -0.315649
   1 C :    0.196892
   2 N :   -0.454784
   3 C :   -0.496065
   4 H :    0.128236
   5 H :    0.124499
   6 H :    0.248739
   7 H :    0.253587
   8 C :   -0.414843
   9 H :    0.125987
  10 H :    0.166340
  11 H :    0.142248
  12 H :    0.149384
  13 H :    0.145428
Sum of atomic charges:   -0.0000000

LOEWDIN ATOMIC CHARGES
----------------------
   0 C :   -0.252943
   1 C :   -0.383448
   2 N :    0.002045
   3 C :   -0.292848
   4 H :    0.110342
   5 H :    0.101325
   6 H :    0.175655
   7 H :    0.180060
   8 C :   -0.310390
   9 H :    0.140270
  10 H :    0.158696
  11 H :    0.124259
  12 H :    0.125799
  13 H :    0.121177

  Mayer bond orders larger than 0.100000
B(  0-C ,  1-C ) :   0.8966 B(  0-C ,  8-C ) :   0.9520 B(  0-C ,  9-H ) :   1.0019
B(  0-C , 10-H ) :   0.9775 B(  1-C ,  2-N ) :   1.1830 B(  1-C ,  3-C ) :   1.7329
B(  2-N ,  6-H ) :   0.9218 B(  2-N ,  7-H ) :   0.9221 B(  3-C ,  4-H ) :   0.9973
B(  3-C ,  5-H ) :   0.9929 B(  8-C , 11-H ) :   0.9729 B(  8-C , 12-H ) :   0.9715
B(  8-C , 13-H ) :   0.9793

FINAL SINGLE POINT ENERGY      -211.908986324647

DIPOLE MOMENT
-------------
                                X             Y             Z
Electronic contribution:     -0.29300      -1.18299      -2.96461
Nuclear contribution   :     -0.52463       1.37972       2.79217
                        -----------------------------------------
Total Dipole Moment    :     -0.81763       0.19673      -0.17244
                        -----------------------------------------
Magnitude (a.u.)       :      0.85846
Magnitude (Debye)      :      2.18203

Rotational constants in cm-1:     0.281086     0.127387     0.100311
Rotational constants in MHz :  8426.743103  3818.969834  3007.238026

                             ****ORCA TERMINATED NORMALLY****
TOTAL RUN TIME: 0 days 0 hours 0 minutes 25 seconds 195 msec
