                         Program Version 5.0.0 -  RELEASE  -
|  1> !PBE D3BJ RIJCOSX def2-SVP def2/J TightSCF
|  2> *xyz -1 1
|  3> C         -2.79070       -0.78527        5.70281
|  4> C         -2.45380        0.05510        6.94145
|  5> C         -2.07842        1.48042        6.56410
|  6> H         -1.62558       -0.38216        7.49891
|  7> H         -3.32527        0.08775        7.59917
|  8> O         -0.90125        1.85816        6.82810
|  9> O         -2.93658        2.17731        5.96415
| 10> H         -1.94052       -0.82114        5.05412
| 11> H         -3.61590       -0.34261        5.18514
| 12> H         -3.05063       -1.77815        6.00536
| 13> *
| 14> %MaxCore 64000
| 15>
| 16> %pal nprocs 4
| 17> end
| 18>
| 19> %scf
| 20>   MaxIter 150
| 21> end
| 22>
| 23>
| 24>                          ****END OF INPUT****

CARTESIAN COORDINATES (ANGSTROEM)
---------------------------------
  C     -2.790700   -0.785270    5.702810
  C     -2.453800    0.055100    6.941450
  C     -2.078420    1.480420    6.564100
  H     -1.625580   -0.382160    7.498910
  H     -3.325270    0.087750    7.599170
  O     -0.901250    1.858160    6.828100
  O     -2.936580    2.177310    5.964150
  H     -1.940520   -0.821140    5.054120
  H     -3.615900   -0.342610    5.185140
  H     -3.050630   -1.778150    6.005360

 Total Charge           Charge          ....   -1
 Multiplicity           Mult            ....    1
 Number of Electrons    NEL             ....   40
 Basis Dimension        Dim             ....   95

ORBITAL ENERGIES
----------------

  NO   OCC          E(Eh)            E(eV)
   0   2.0000     -18.457583      -502.2564
   1   2.0000     -18.454878      -502.1828
   2   2.0000      -9.732906      -264.8458
   3   2.0000      -9.722156      -264.5533
   4   2.0000      -9.700129      -263.9539
   5   2.0000      -0.681255       -18.5379
   6   2.0000      -0.590875       -16.0785
   7   2.0000      -0.511193       -13.9103
   8   2.0000      -0.387328       -10.5397
   9   2.0000      -0.244950        -6.6654
  10   2.0000      -0.227176        -6.1818
  11   2.0000      -0.183475        -4.9926
  12   2.0000      -0.162200        -4.4137
  13   2.0000      -0.144523        -3.9327
  14   2.0000      -0.126368        -3.4386
  15   2.0000      -0.094116        -2.5610
  16   2.0000      -0.087527        -2.3817
  17   2.0000       0.030248         0.8231
  18   2.0000       0.040517         1.1025
  19   2.0000       0.062017         1.6876
  20   0.0000       0.196701         5.3525
  21   0.0000       0.244079         6.6417
  22   0.0000       0.251377         6.8403
  23   0.0000       0.260213         7.0808
  24   0.0000       0.264846         7.2068

MULLIKEN ATOMIC CHARGES
-----------------------
   0 C :    0.007490
   1 C :    0.021000
   2 C :   -0.051707
   3 H :   -0.063901
   4 H :   -0.047971
   5 O :   -0.396006
   6 O :   -0.393366
   7 H :   -0.013093
   8 H :   -0.013930
   9 H :   -0.048515
Sum of atomic charges:   -1.0000000

LOEWDIN ATOMIC CHARGES
----------------------
   0 C :   -0.068446
   1 C :   -0.097382
   2 C :   -0.093150
   3 H :   -0.007206
   4 H :    0.000334
   5 O :   -0.373126
   6 O :   -0.370412
   7 H :    0.010114
   8 H :    0.006903
   9 H :   -0.007629

  Mayer bond orders larger than 0.100000
B(  0-C ,  1-C ) :   1.1077 B(  0-C ,  7-H ) :   0.9668 B(  0-C ,  8-H ) :   0.9529
B(  0-C ,  9-H ) :   0.9568 B(  1-C ,  2-C ) :   0.9152 B(  1-C ,  3-H ) :   0.9180
B(  1-C ,  4-H ) :   0.9179 B(  2-C ,  5-O ) :   1.8720 B(  2-C ,  6-O ) :   1.8445
B(  5-O ,  6-O ) :   0.1400

Dispersion correction           -0.006548795
FINAL SINGLE POINT ENERGY      -267.308652624551

DIPOLE MOMENT
-------------
                                X             Y             Z
Electronic contribution:      1.75016       5.91134       0.61778
Nuclear contribution   :     -2.24498      -7.51881      -0.57245
                        -----------------------------------------
Total Dipole Moment    :     -0.49482      -1.60747       0.04533
                        -----------------------------------------
Magnitude (a.u.)       :      1.68251
Magnitude (Debye)      :      4.27661

Rotational constants in cm-1:     0.305589     0.135336     0.107479
Rotational constants in MHz :  9161.317320  4057.276612  3222.126231

                             ****ORCA TERMINATED NORMALLY****
TOTAL RUN TIME: 0 days 0 hours 0 minutes 6 seconds 768 msec
