                         Program Version 5.0.0 -  RELEASE  -
|  1> !PBE D3BJ RIJCOSX def2-SVP def2/J TightSCF
|  2> *xyz 1 1
|  3> C         -0.69912        3.48945        3.75516
|  4> H         -0.96672        4.34901        3.14049
|  5> N         -1.08067        3.79296        5.15686
|  6> C          0.77696        3.13839        3.61741
|  7> H         -1.33146        2.65651        3.44632
|  8> H         -0.87449        4.76274        5.42734
|  9> H         -0.68079        3.13476        5.83900
| 10> H         -2.05755        3.53169        5.34620
| 11> H          0.99957        2.92898        2.59199
| 12> H          0.99576        2.27685        4.21303
| 13> H          1.37223        3.96279        3.95046
| 14> *
| 15> %MaxCore 64000
| 16>
| 17> %pal nprocs 4
| 18> end
| 19>
| 20> %scf
| 21>   MaxIter 150
| 22> end
| 23>
| 24>
| 25>                          ****END OF INPUT****

CARTESIAN COORDINATES (ANGSTROEM)
---------------------------------
  C     -0.699120    3.489450    3.755160
  H     -0.966720    4.349010    3.140490
  N     -1.080670    3.792960    5.156860
  C      0.776960    3.138390    3.617410
  H     -1.331460    2.656510    3.446320
  H     -0.874490    4.762740    5.427340
  H     -0.680790    3.134760    5.839000
  H     -2.057550    3.531690    5.346200
  H      0.999570    2.928980    2.591990
  H      0.995760    2.276850    4.213030
  H      1.372230    3.962790    3.950460

 Total Charge           Charge          ....    1
 Multiplicity           Mult            ....    1
 Number of Electrons    NEL             ....   26
 Basis Dimension        Dim             ....   82

ORBITAL ENERGIES
----------------

  NO   OCC          E(Eh)            E(eV)
   0   2.0000     -14.336524      -390.1167
   1   2.0000     -10.148698      -276.1601
   2   2.0000     -10.070844      -274.0416
   3   2.0000      -1.132725       -30.8230
   4   2.0000      -0.893064       -24.3015
   5   2.0000      -0.782127       -21.2828
   6   2.0000      -0.765482       -20.8298
   7   2.0000      -0.717955       -19.5365
   8   2.0000      -0.652092       -17.7443
   9   2.0000      -0.594886       -16.1877
  10   2.0000      -0.537922       -14.6376
  11   2.0000      -0.523662       -14.2496
  12   2.0000      -0.505623       -13.7587
  13   0.0000      -0.210340        -5.7237
  14   0.0000      -0.156211        -4.2507
  15   0.0000      -0.151765        -4.1297
  16   0.0000      -0.114943        -3.1277
  17   0.0000      -0.079765        -2.1705

MULLIKEN ATOMIC CHARGES
-----------------------
   0 C :   -0.061232
   1 H :    0.108442
   2 N :    0.041257
   3 C :   -0.035649
   4 H :    0.099000
   5 H :    0.218557
   6 H :    0.193867
   7 H :    0.203743
   8 H :    0.100107
   9 H :    0.065195
  10 H :    0.066714
Sum of atomic charges:    1.0000000

LOEWDIN ATOMIC CHARGES
----------------------
   0 C :    0.039540
   1 H :    0.059324
   2 N :    0.299130
   3 C :   -0.045172
   4 H :    0.055877
   5 H :    0.147012
   6 H :    0.142574
   7 H :    0.148974
   8 H :    0.067171
   9 H :    0.042198
  10 H :    0.043373

  Mayer bond orders larger than 0.100000
B(  0-C ,  1-H ) :   0.9427 B(  0-C ,  2-N ) :   0.9437 B(  0-C ,  3-C ) :   1.1192
B(  0-C ,  4-H ) :   0.9454 B(  2-N ,  5-H ) :   0.9312 B(  2-N ,  6-H ) :   0.9302
B(  2-N ,  7-H ) :   0.9320 B(  3-C ,  8-H ) :   0.9505 B(  3-C ,  9-H ) :   0.9618
B(  3-C , 10-H ) :   0.9661

Dispersion correction           -0.006131728
FINAL SINGLE POINT ENERGY      -135.243101916691

DIPOLE MOMENT
-------------
                                X             Y             Z
Electronic contribution:     -1.34534       0.58414       1.13848
Nuclear contribution   :      0.33986      -0.24565       0.10678
                        -----------------------------------------
Total Dipole Moment    :     -1.00549       0.33848       1.24526
                        -----------------------------------------
Magnitude (a.u.)       :      1.63592
Magnitude (Debye)      :      4.15819

Rotational constants in cm-1:     1.016237     0.277523     0.247812
Rotational constants in MHz : 30466.024354  8319.937961  7429.230177

                             ****ORCA TERMINATED NORMALLY****
TOTAL RUN TIME: 0 days 0 hours 0 minutes 6 seconds 585 msec
