                         Program Version 5.0.0 -  RELEASE  -
|  1> !PBE D3BJ RIJCOSX def2-TZVP def2/J TightSCF xyzfile
|  2>
|  3> *xyzfile 0 1 B.xyz
|  4>
|  5> %MaxCore 64000
|  6>
|  7> %pal nprocs 18
|  8> end
|  9>
| 10> %scf
| 11>   MaxIter 150
| 12> end
| 13>
| 14>
| 15>                          ****END OF INPUT****

CARTESIAN COORDINATES (ANGSTROEM)
---------------------------------
  C     -0.699123    3.489451    3.755163
  H     -0.966716    4.349013    3.140491
  N     -1.080669    3.792957    5.156857
  C      0.776956    3.138391    3.617408
  H     -1.331455    2.656510    3.446323
  H      1.371398    3.888342    4.149744
  H      1.046926    3.232057    2.561331
  C      1.118917    1.731170    4.115155
  H      2.200573    1.654226    4.254882
  C      0.659466    0.635182    3.153306
  H      0.677024    1.576674    5.103150
  H      1.312288    0.638870    2.274207
  H     -0.339563    0.868049    2.772876
  C      0.639957   -0.771175    3.755619
  C     -0.341821   -0.965537    4.915046
  H      1.648266   -1.028665    4.097015
  H      0.398568   -1.482386    2.958453
  H     -0.279892   -2.005646    5.252547
  C     -1.789164   -0.639231    4.557496
  H     -0.032380   -0.352918    5.765118
  H     -2.107151   -1.270102    3.719619
  H     -1.856352    0.391636    4.197604
  C     -2.790700   -0.785275    5.702812
  H     -2.867308   -1.835651    6.001675
  H     -3.774554   -0.486577    5.334807
  C     -2.453797    0.055101    6.941445
  C     -2.078419    1.480421    6.564098
  H     -1.625584   -0.382163    7.498914
  H     -3.325274    0.087746    7.599175
  H     -0.874488    4.762737    5.427344
  H     -0.680793    3.134762    5.839000
  H     -2.057550    3.531691    5.346197
  O     -0.901252    1.858156    6.828104
  O     -2.936582    2.177309    5.964151

 Total Charge           Charge          ....    0
 Multiplicity           Mult            ....    1
 Number of Electrons    NEL             ....  104
 Basis Dimension        Dim             ....  529

ORBITAL ENERGIES
----------------

  NO   OCC          E(Eh)            E(eV)
   0   2.0000     -18.685866      -508.4683
   1   2.0000     -18.684005      -508.4176
   2   2.0000     -14.061306      -382.6276
   3   2.0000      -9.948207      -270.7045
   4   2.0000      -9.944151      -270.5941
   5   2.0000      -9.903786      -269.4957
   6   2.0000      -9.879923      -268.8464
   7   2.0000      -9.876755      -268.7602
   8   2.0000      -9.870371      -268.5865
   9   2.0000      -9.860993      -268.3313
  10   2.0000      -9.860806      -268.3262
  11   2.0000      -9.859776      -268.2981
  12   2.0000      -9.852492      -268.0999
  13   2.0000      -0.939813       -25.5736
  14   2.0000      -0.900456       -24.5027
  15   2.0000      -0.844505       -22.9802
  16   2.0000      -0.748339       -20.3633
  17   2.0000      -0.720968       -19.6185
  18   2.0000      -0.694541       -18.8994
  19   2.0000      -0.651691       -17.7334
  20   2.0000      -0.621394       -16.9090
  21   2.0000      -0.585315       -15.9272
  22   2.0000      -0.550506       -14.9800
  23   2.0000      -0.538644       -14.6573
  24   2.0000      -0.518482       -14.1086
  25   2.0000      -0.496252       -13.5037
  26   2.0000      -0.487864       -13.2754
  27   2.0000      -0.453173       -12.3315
  28   2.0000      -0.428646       -11.6641
  29   2.0000      -0.424508       -11.5514
  30   2.0000      -0.421264       -11.4632
  31   2.0000      -0.397040       -10.8040
  32   2.0000      -0.392526       -10.6812
  33   2.0000      -0.385247       -10.4831
  34   2.0000      -0.372321       -10.1314
  35   2.0000      -0.363351        -9.8873
  36   2.0000      -0.352533        -9.5929
  37   2.0000      -0.349545        -9.5116
  38   2.0000      -0.342211        -9.3120
  39   2.0000      -0.333049        -9.0627
  40   2.0000      -0.319162        -8.6848
  41   2.0000      -0.314135        -8.5480
  42   2.0000      -0.307206        -8.3595
  43   2.0000      -0.293515        -7.9870
  44   2.0000      -0.285208        -7.7609
  45   2.0000      -0.280326        -7.6281
  46   2.0000      -0.267908        -7.2902
  47   2.0000      -0.262251        -7.1362
  48   2.0000      -0.256466        -6.9788
  49   2.0000      -0.209506        -5.7010
  50   2.0000      -0.192313        -5.2331
  51   2.0000      -0.185250        -5.0409
  52   0.0000      -0.019760        -0.5377
  53   0.0000       0.014693         0.3998
  54   0.0000       0.016132         0.4390
  55   0.0000       0.026105         0.7104
  56   0.0000       0.030037         0.8174

MULLIKEN ATOMIC CHARGES
-----------------------
   0 C :   -0.205244
   1 H :    0.131986
   2 N :   -0.199885
   3 C :   -0.132030
   4 H :    0.142882
   5 H :    0.096688
   6 H :    0.099368
   7 C :   -0.231140
   8 H :    0.089970
   9 C :   -0.236258
  10 H :    0.147502
  11 H :    0.093920
  12 H :    0.099008
  13 C :   -0.093629
  14 C :   -0.263380
  15 H :    0.082180
  16 H :    0.084116
  17 H :    0.080874
  18 C :   -0.159409
  19 H :    0.141190
  20 H :    0.074837
  21 H :    0.080602
  22 C :   -0.152632
  23 H :    0.080063
  24 H :    0.089561
  25 C :   -0.150039
  26 C :    0.211733
  27 H :    0.095888
  28 H :    0.091931
  29 H :    0.237797
  30 H :    0.245985
  31 H :    0.259065
  32 O :   -0.469003
  33 O :   -0.464495
Sum of atomic charges:   -0.0000000

LOEWDIN ATOMIC CHARGES
----------------------
   0 C :   -0.283743
   1 H :    0.134361
   2 N :    0.137435
   3 C :   -0.274540
   4 H :    0.142017
   5 H :    0.138495
   6 H :    0.146495
   7 C :   -0.268327
   8 H :    0.139321
   9 C :   -0.274564
  10 H :    0.146537
  11 H :    0.135997
  12 H :    0.133413
  13 C :   -0.269917
  14 C :   -0.271305
  15 H :    0.137403
  16 H :    0.137107
  17 H :    0.136650
  18 C :   -0.273343
  19 H :    0.143003
  20 H :    0.135106
  21 H :    0.134656
  22 C :   -0.266038
  23 H :    0.134330
  24 H :    0.140826
  25 C :   -0.245092
  26 C :   -0.652038
  27 H :    0.139136
  28 H :    0.144477
  29 H :    0.181080
  30 H :    0.155724
  31 H :    0.168719
  32 O :   -0.035735
  33 O :   -0.027647

  Mayer bond orders larger than 0.100000
B(  0-C ,  1-H ) :   0.9552 B(  0-C ,  2-N ) :   0.9528 B(  0-C ,  3-C ) :   1.0077
B(  0-C ,  4-H ) :   0.9506 B(  2-N , 29-H ) :   0.8970 B(  2-N , 30-H ) :   0.7540
B(  2-N , 31-H ) :   0.7750 B(  3-C ,  5-H ) :   0.9470 B(  3-C ,  6-H ) :   0.9383
B(  3-C ,  7-C ) :   0.9963 B(  7-C ,  8-H ) :   0.9372 B(  7-C ,  9-C ) :   0.9809
B(  7-C , 10-H ) :   0.9644 B(  9-C , 11-H ) :   0.9394 B(  9-C , 12-H ) :   0.9684
B(  9-C , 13-C ) :   0.9989 B( 13-C , 14-C ) :   1.0109 B( 13-C , 15-H ) :   0.9476
B( 13-C , 16-H ) :   0.9452 B( 14-C , 17-H ) :   0.9412 B( 14-C , 18-C ) :   0.9790
B( 14-C , 19-H ) :   0.9630 B( 18-C , 20-H ) :   0.9431 B( 18-C , 21-H ) :   0.9556
B( 18-C , 22-C ) :   1.0286 B( 22-C , 23-H ) :   0.9457 B( 22-C , 24-H ) :   0.9377
B( 22-C , 25-C ) :   0.9981 B( 25-C , 26-C ) :   0.9706 B( 25-C , 27-H ) :   0.9590
B( 25-C , 28-H ) :   0.9245 B( 26-C , 32-O ) :   1.6550 B( 26-C , 33-O ) :   1.7185
B( 30-H , 32-O ) :   0.2480 B( 31-H , 33-O ) :   0.2076

Dispersion correction           -0.038482729
FINAL SINGLE POINT ENERGY      -598.425997624428

DIPOLE MOMENT
-------------
                                X             Y             Z
Electronic contribution:     -4.69737       4.84088       6.75818
Nuclear contribution   :      5.60885      -3.40606      -8.06960
                        -----------------------------------------
Total Dipole Moment    :      0.91148       1.43482      -1.31142
                        -----------------------------------------
Magnitude (a.u.)       :      2.14693
Magnitude (Debye)      :      5.45707

Rotational constants in cm-1:     0.028465     0.023505     0.015110
Rotational constants in MHz :   853.363165   704.655786   452.976312

                             ****ORCA TERMINATED NORMALLY****
TOTAL RUN TIME: 0 days 0 hours 0 minutes 25 seconds 40 msec
