                         Program Version 5.0.0 -  RELEASE  -
|  1> !PBE D3BJ RIJCOSX def2-SVP def2/J TightSCF
|  2> *xyz 0 1
|  3> C         -2.79070       -0.78527        5.70281
|  4> C         -2.45380        0.05510        6.94145
|  5> C         -2.07842        1.48042        6.56410
|  6> H         -1.62558       -0.38216        7.49891
|  7> H         -3.32527        0.08775        7.59917
|  8> F         -0.90125        1.85816        6.82810
|  9> O         -2.93658        2.17731        5.96415
| 10> H         -1.94052       -0.82114        5.05412
| 11> H         -3.61590       -0.34261        5.18514
| 12> H         -3.05063       -1.77815        6.00536
| 13> *
| 14> %MaxCore 64000
| 15>
| 16> %pal nprocs 4
| 17> end
| 18>
| 19> %scf
| 20>   MaxIter 150
| 21> end
| 22>
| 23>
| 24>                          ****END OF INPUT****

CARTESIAN COORDINATES (ANGSTROEM)
---------------------------------
  C     -2.790700   -0.785270    5.702810
  C     -2.453800    0.055100    6.941450
  C     -2.078420    1.480420    6.564100
  H     -1.625580   -0.382160    7.498910
  H     -3.325270    0.087750    7.599170
  F     -0.901250    1.858160    6.828100
  O     -2.936580    2.177310    5.964150
  H     -1.940520   -0.821140    5.054120
  H     -3.615900   -0.342610    5.185140
  H     -3.050630   -1.778150    6.005360

 Total Charge           Charge          ....    0
 Multiplicity           Mult            ....    1
 Number of Electrons    NEL             ....   40
 Basis Dimension        Dim             ....   95

ORBITAL ENERGIES
----------------

  NO   OCC          E(Eh)            E(eV)
   0   2.0000     -24.321731      -661.8279
   1   2.0000     -18.754034      -510.3232
   2   2.0000     -10.050473      -273.4873
   3   2.0000      -9.920910      -269.9617
   4   2.0000      -9.899939      -269.3910
   5   2.0000      -1.183285       -32.1988
   6   2.0000      -0.923787       -25.1375
   7   2.0000      -0.718329       -19.5467
   8   2.0000      -0.610316       -16.6075
   9   2.0000      -0.561879       -15.2895
  10   2.0000      -0.477696       -12.9988
  11   2.0000      -0.462094       -12.5742
  12   2.0000      -0.438210       -11.9243
  13   2.0000      -0.408432       -11.1140
  14   2.0000      -0.375945       -10.2300
  15   2.0000      -0.350126        -9.5274
  16   2.0000      -0.327945        -8.9238
  17   2.0000      -0.321858        -8.7582
  18   2.0000      -0.297532        -8.0963
  19   2.0000      -0.232812        -6.3351
  20   0.0000      -0.057964        -1.5773
  21   0.0000       0.040710         1.1078
  22   0.0000       0.081943         2.2298
  23   0.0000       0.085511         2.3269
  24   0.0000       0.103110         2.8058

MULLIKEN ATOMIC CHARGES
-----------------------
   0 C :   -0.012200
   1 C :   -0.073009
   2 C :    0.164837
   3 H :    0.023408
   4 H :    0.060911
   5 F :   -0.043262
   6 O :   -0.224699
   7 H :    0.028181
   8 H :    0.045942
   9 H :    0.029892
Sum of atomic charges:   -0.0000000

LOEWDIN ATOMIC CHARGES
----------------------
   0 C :   -0.042771
   1 C :   -0.077481
   2 C :    0.065808
   3 H :    0.027935
   4 H :    0.051939
   5 F :    0.057911
   6 O :   -0.173362
   7 H :    0.027712
   8 H :    0.032473
   9 H :    0.029836

  Mayer bond orders larger than 0.100000
B(  0-C ,  1-C ) :   1.1038 B(  0-C ,  7-H ) :   0.9726 B(  0-C ,  8-H ) :   0.9656
B(  0-C ,  9-H ) :   0.9633 B(  1-C ,  2-C ) :   1.0049 B(  1-C ,  3-H ) :   0.9268
B(  1-C ,  4-H ) :   0.9226 B(  2-C ,  5-F ) :   1.2254 B(  2-C ,  6-O ) :   2.0761

Dispersion correction           -0.006221859
FINAL SINGLE POINT ENERGY      -291.852209698285

DIPOLE MOMENT
-------------
                                X             Y             Z
Electronic contribution:      3.96971       7.57354       1.44314
Nuclear contribution   :     -3.69486      -8.49563      -1.04945
                        -----------------------------------------
Total Dipole Moment    :      0.27486      -0.92209       0.39369
                        -----------------------------------------
Magnitude (a.u.)       :      1.03961
Magnitude (Debye)      :      2.64247

Rotational constants in cm-1:     0.293725     0.129218     0.102393
Rotational constants in MHz :  8805.653529  3873.869810  3069.666716

                             ****ORCA TERMINATED NORMALLY****
TOTAL RUN TIME: 0 days 0 hours 0 minutes 6 seconds 577 msec
