                         Program Version 5.0.0 -  RELEASE  -
|  1> !PBE D3BJ RIJCOSX def2-SVP def2/J TightSCF
|  2> *xyz 0 1
|  3> C         -0.69912        3.48945        3.75516
|  4> H         -0.96672        4.34901        3.14049
|  5> C         -1.08067        3.79296        5.15686
|  6> C          0.77696        3.13839        3.61741
|  7> H         -1.33146        2.65651        3.44632
|  8> H         -0.87449        4.76274        5.42734
|  9> H         -0.68079        3.13476        5.83900
| 10> H         -2.05755        3.53169        5.34620
| 11> H          0.99957        2.92898        2.59199
| 12> H          0.99576        2.27685        4.21303
| 13> H          1.37223        3.96279        3.95046
| 14> *
| 15> %MaxCore 64000
| 16>
| 17> %pal nprocs 4
| 18> end
| 19>
| 20> %scf
| 21>   MaxIter 150
| 22> end
| 23>
| 24>
| 25>                          ****END OF INPUT****

CARTESIAN COORDINATES (ANGSTROEM)
---------------------------------
  C     -0.699120    3.489450    3.755160
  H     -0.966720    4.349010    3.140490
  C     -1.080670    3.792960    5.156860
  C      0.776960    3.138390    3.617410
  H     -1.331460    2.656510    3.446320
  H     -0.874490    4.762740    5.427340
  H     -0.680790    3.134760    5.839000
  H     -2.057550    3.531690    5.346200
  H      0.999570    2.928980    2.591990
  H      0.995760    2.276850    4.213030
  H      1.372230    3.962790    3.950460

 Total Charge           Charge          ....    0
 Multiplicity           Mult            ....    1
 Number of Electrons    NEL             ....   26
 Basis Dimension        Dim             ....   82

ORBITAL ENERGIES
----------------

  NO   OCC          E(Eh)            E(eV)
   0   2.0000      -9.881554      -268.8907
   1   2.0000      -9.873296      -268.6660
   2   2.0000      -9.857063      -268.2243
   3   2.0000      -0.709362       -19.3027
   4   2.0000      -0.615974       -16.7615
   5   2.0000      -0.520293       -14.1579
   6   2.0000      -0.418700       -11.3934
   7   2.0000      -0.388239       -10.5645
   8   2.0000      -0.351639        -9.5686
   9   2.0000      -0.347254        -9.4492
  10   2.0000      -0.295451        -8.0396
  11   2.0000      -0.283301        -7.7090
  12   2.0000      -0.280901        -7.6437
  13   0.0000       0.043526         1.1844
  14   0.0000       0.087633         2.3846
  15   0.0000       0.092489         2.5168
  16   0.0000       0.094821         2.5802
  17   0.0000       0.123099         3.3497

MULLIKEN ATOMIC CHARGES
-----------------------
   0 C :   -0.090650
   1 H :    0.013974
   2 C :    0.060528
   3 C :   -0.001763
   4 H :    0.008410
   5 H :    0.006130
   6 H :   -0.021763
   7 H :   -0.017537
   8 H :    0.013617
   9 H :    0.014341
  10 H :    0.014714
Sum of atomic charges:   -0.0000000

LOEWDIN ATOMIC CHARGES
----------------------
   0 C :   -0.046819
   1 H :    0.022838
   2 C :   -0.057924
   3 C :   -0.058925
   4 H :    0.022143
   5 H :    0.015794
   6 H :    0.017080
   7 H :    0.020769
   8 H :    0.021935
   9 H :    0.021447
  10 H :    0.021662

  Mayer bond orders larger than 0.100000
B(  0-C ,  1-H ) :   0.9482 B(  0-C ,  2-C ) :   1.1315 B(  0-C ,  3-C ) :   1.1188
B(  0-C ,  4-H ) :   0.9479 B(  2-C ,  5-H ) :   0.9701 B(  2-C ,  6-H ) :   0.9514
B(  2-C ,  7-H ) :   0.9495 B(  3-C ,  8-H ) :   0.9642 B(  3-C ,  9-H ) :   0.9683
B(  3-C , 10-H ) :   0.9718

Dispersion correction           -0.006129553
FINAL SINGLE POINT ENERGY      -118.850515953976

DIPOLE MOMENT
-------------
                                X             Y             Z
Electronic contribution:     -0.13517       0.12015      -0.39195
Nuclear contribution   :      0.10024      -0.14218       0.41628
                        -----------------------------------------
Total Dipole Moment    :     -0.03493      -0.02204       0.02433
                        -----------------------------------------
Magnitude (a.u.)       :      0.04793
Magnitude (Debye)      :      0.12183

Rotational constants in cm-1:     1.024179     0.291605     0.259489
Rotational constants in MHz : 30704.103454  8742.106283  7779.285909

                             ****ORCA TERMINATED NORMALLY****
TOTAL RUN TIME: 0 days 0 hours 0 minutes 6 seconds 348 msec
