                         Program Version 5.0.0 -  RELEASE  -
|  1> !PBE D3BJ RIJCOSX def2-SVP def2/J TightSCF
|  2> *xyz 0 1
|  3> C         -2.79070       -0.78527        5.70281
|  4> C         -2.45380        0.05510        6.94145
|  5> C         -2.07842        1.48042        6.56410
|  6> H         -1.62558       -0.38216        7.49891
|  7> H         -3.32527        0.08775        7.59917
|  8> O         -0.90125        1.85816        6.82810
|  9> F         -2.93658        2.17731        5.96415
| 10> H         -1.94052       -0.82114        5.05412
| 11> H         -3.61590       -0.34261        5.18514
| 12> H         -3.05063       -1.77815        6.00536
| 13> *
| 14> %MaxCore 64000
| 15>
| 16> %pal nprocs 4
| 17> end
| 18>
| 19> %scf
| 20>   MaxIter 150
| 21> end
| 22>
| 23>
| 24>                          ****END OF INPUT****

CARTESIAN COORDINATES (ANGSTROEM)
---------------------------------
  C     -2.790700   -0.785270    5.702810
  C     -2.453800    0.055100    6.941450
  C     -2.078420    1.480420    6.564100
  H     -1.625580   -0.382160    7.498910
  H     -3.325270    0.087750    7.599170
  O     -0.901250    1.858160    6.828100
  F     -2.936580    2.177310    5.964150
  H     -1.940520   -0.821140    5.054120
  H     -3.615900   -0.342610    5.185140
  H     -3.050630   -1.778150    6.005360

 Total Charge           Charge          ....    0
 Multiplicity           Mult            ....    1
 Number of Electrons    NEL             ....   40
 Basis Dimension        Dim             ....   95

ORBITAL ENERGIES
----------------

  NO   OCC          E(Eh)            E(eV)
   0   2.0000     -24.325495      -661.9304
   1   2.0000     -18.751370      -510.2507
   2   2.0000     -10.049960      -273.4733
   3   2.0000      -9.920147      -269.9409
   4   2.0000      -9.903739      -269.4944
   5   2.0000      -1.188888       -32.3513
   6   2.0000      -0.918405       -24.9911
   7   2.0000      -0.721303       -19.6277
   8   2.0000      -0.608132       -16.5481
   9   2.0000      -0.568217       -15.4620
  10   2.0000      -0.481530       -13.1031
  11   2.0000      -0.467486       -12.7209
  12   2.0000      -0.434531       -11.8242
  13   2.0000      -0.407597       -11.0913
  14   2.0000      -0.378871       -10.3096
  15   2.0000      -0.351702        -9.5703
  16   2.0000      -0.330174        -8.9845
  17   2.0000      -0.324308        -8.8249
  18   2.0000      -0.298859        -8.1324
  19   2.0000      -0.225927        -6.1478
  20   0.0000      -0.055141        -1.5005
  21   0.0000       0.036717         0.9991
  22   0.0000       0.080469         2.1897
  23   0.0000       0.087237         2.3739
  24   0.0000       0.107873         2.9354

MULLIKEN ATOMIC CHARGES
-----------------------
   0 C :   -0.032332
   1 C :   -0.064121
   2 C :    0.163147
   3 H :    0.049561
   4 H :    0.043292
   5 O :   -0.226506
   6 F :   -0.039734
   7 H :    0.039343
   8 H :    0.032386
   9 H :    0.034965
Sum of atomic charges:    0.0000000

LOEWDIN ATOMIC CHARGES
----------------------
   0 C :   -0.050676
   1 C :   -0.073857
   2 C :    0.063853
   3 H :    0.044677
   4 H :    0.040616
   5 O :   -0.176920
   6 F :    0.064066
   7 H :    0.030152
   8 H :    0.026118
   9 H :    0.031972

  Mayer bond orders larger than 0.100000
B(  0-C ,  1-C ) :   1.0878 B(  0-C ,  7-H ) :   0.9722 B(  0-C ,  8-H ) :   0.9691
B(  0-C ,  9-H ) :   0.9629 B(  1-C ,  2-C ) :   1.0149 B(  1-C ,  3-H ) :   0.9398
B(  1-C ,  4-H ) :   0.9173 B(  2-C ,  5-O ) :   2.0852 B(  2-C ,  6-F ) :   1.2202

Dispersion correction           -0.006189703
FINAL SINGLE POINT ENERGY      -291.849553014903

DIPOLE MOMENT
-------------
                                X             Y             Z
Electronic contribution:      0.65704       8.07870       0.03443
Nuclear contribution   :     -1.47571      -8.84360      -0.10748
                        -----------------------------------------
Total Dipole Moment    :     -0.81867      -0.76491      -0.07305
                        -----------------------------------------
Magnitude (a.u.)       :      1.12279
Magnitude (Debye)      :      2.85390

Rotational constants in cm-1:     0.283081     0.133379     0.103386
Rotational constants in MHz :  8486.545774  3998.599544  3099.448040

                             ****ORCA TERMINATED NORMALLY****
TOTAL RUN TIME: 0 days 0 hours 0 minutes 6 seconds 888 msec
