                         Program Version 5.0.0 -  RELEASE  -
|  1> !PBE D3BJ RIJCOSX def2-TZVP def2/J TightSCF xyzfile
|  2>
|  3> *xyzfile 0 1 D1.xyz
|  4>
|  5> %MaxCore 64000
|  6>
|  7> %pal nprocs 18
|  8> end
|  9>
| 10> %scf
| 11>   MaxIter 150
| 12> end
| 13>
| 14>
| 15>                          ****END OF INPUT****

CARTESIAN COORDINATES (ANGSTROEM)
---------------------------------
  C     -0.699123    3.489451    3.755163
  H     -0.966716    4.349013    3.140491
  C     -1.080669    3.792957    5.156857
  C      0.776956    3.138391    3.617408
  H     -1.331455    2.656510    3.446323
  H      1.371398    3.888342    4.149744
  H      1.046926    3.232057    2.561331
  C      1.118917    1.731170    4.115155
  H      2.200573    1.654226    4.254882
  C      0.659466    0.635182    3.153306
  H      0.677024    1.576674    5.103150
  H      1.312288    0.638870    2.274207
  H     -0.339563    0.868049    2.772876
  C      0.639957   -0.771175    3.755619
  C     -0.341821   -0.965537    4.915046
  H      1.648266   -1.028665    4.097015
  H      0.398568   -1.482386    2.958453
  H     -0.279892   -2.005646    5.252547
  C     -1.789164   -0.639231    4.557496
  H     -0.032380   -0.352918    5.765118
  H     -2.107151   -1.270102    3.719619
  H     -1.856352    0.391636    4.197604
  C     -2.790700   -0.785275    5.702812
  H     -2.867308   -1.835651    6.001675
  H     -3.774554   -0.486577    5.334807
  C     -2.453797    0.055101    6.941445
  C     -2.078419    1.480421    6.564098
  H     -1.625584   -0.382163    7.498914
  H     -3.325274    0.087746    7.599175
  H     -0.874488    4.762737    5.427344
  H     -0.680793    3.134762    5.839000
  H     -2.057550    3.531691    5.346197
  F     -0.901252    1.858156    6.828104
  O     -2.936582    2.177309    5.964151

 Total Charge           Charge          ....    0
 Multiplicity           Mult            ....    1
 Number of Electrons    NEL             ....  104
 Basis Dimension        Dim             ....  529

ORBITAL ENERGIES
----------------

  NO   OCC          E(Eh)            E(eV)
   0   2.0000     -24.333219      -662.1405
   1   2.0000     -18.760351      -510.4951
   2   2.0000     -10.057171      -273.6695
   3   2.0000      -9.914167      -269.7782
   4   2.0000      -9.898465      -269.3509
   5   2.0000      -9.884000      -268.9573
   6   2.0000      -9.881072      -268.8776
   7   2.0000      -9.876101      -268.7424
   8   2.0000      -9.869136      -268.5529
   9   2.0000      -9.866543      -268.4823
  10   2.0000      -9.859442      -268.2890
  11   2.0000      -9.849993      -268.0319
  12   2.0000      -9.795970      -266.5619
  13   2.0000      -1.225863       -33.3574
  14   2.0000      -0.958056       -26.0700
  15   2.0000      -0.757041       -20.6001
  16   2.0000      -0.733845       -19.9689
  17   2.0000      -0.705604       -19.2005
  18   2.0000      -0.679059       -18.4781
  19   2.0000      -0.640392       -17.4260
  20   2.0000      -0.618913       -16.8415
  21   2.0000      -0.593515       -16.1504
  22   2.0000      -0.562951       -15.3187
  23   2.0000      -0.546546       -14.8723
  24   2.0000      -0.508480       -13.8364
  25   2.0000      -0.501308       -13.6413
  26   2.0000      -0.494211       -13.4482
  27   2.0000      -0.476113       -12.9557
  28   2.0000      -0.463867       -12.6225
  29   2.0000      -0.429220       -11.6797
  30   2.0000      -0.426369       -11.6021
  31   2.0000      -0.410791       -11.1782
  32   2.0000      -0.407688       -11.0938
  33   2.0000      -0.390408       -10.6235
  34   2.0000      -0.379284       -10.3208
  35   2.0000      -0.365333        -9.9412
  36   2.0000      -0.361679        -9.8418
  37   2.0000      -0.354544        -9.6476
  38   2.0000      -0.344870        -9.3844
  39   2.0000      -0.333996        -9.0885
  40   2.0000      -0.323905        -8.8139
  41   2.0000      -0.317615        -8.6427
  42   2.0000      -0.310887        -8.4597
  43   2.0000      -0.303316        -8.2537
  44   2.0000      -0.295157        -8.0316
  45   2.0000      -0.287944        -7.8353
  46   2.0000      -0.282460        -7.6861
  47   2.0000      -0.272277        -7.4090
  48   2.0000      -0.267920        -7.2905
  49   2.0000      -0.259199        -7.0532
  50   2.0000      -0.253893        -6.9088
  51   2.0000      -0.222252        -6.0478
  52   0.0000      -0.079807        -2.1717
  53   0.0000       0.008411         0.2289
  54   0.0000       0.025966         0.7066
  55   0.0000       0.028353         0.7715
  56   0.0000       0.036356         0.9893

MULLIKEN ATOMIC CHARGES
-----------------------
   0 C :   -0.187749
   1 H :    0.079384
   2 C :   -0.379161
   3 C :   -0.074831
   4 H :    0.083331
   5 H :    0.078677
   6 H :    0.071376
   7 C :   -0.211851
   8 H :    0.083384
   9 C :   -0.237810
  10 H :    0.080944
  11 H :    0.092680
  12 H :    0.111150
  13 C :   -0.088247
  14 C :   -0.257672
  15 H :    0.083794
  16 H :    0.087740
  17 H :    0.090199
  18 C :   -0.209415
  19 H :    0.105517
  20 H :    0.091133
  21 H :    0.115475
  22 C :   -0.151067
  23 H :    0.098870
  24 H :    0.112240
  25 C :   -0.201142
  26 C :    0.304775
  27 H :    0.121066
  28 H :    0.132965
  29 H :    0.093211
  30 H :    0.096898
  31 H :    0.144425
  32 F :   -0.069348
  33 O :   -0.290940
Sum of atomic charges:   -0.0000000

LOEWDIN ATOMIC CHARGES
----------------------
   0 C :   -0.306789
   1 H :    0.134124
   2 C :   -0.336650
   3 C :   -0.269722
   4 H :    0.131204
   5 H :    0.136309
   6 H :    0.134565
   7 C :   -0.269518
   8 H :    0.135408
   9 C :   -0.273273
  10 H :    0.132244
  11 H :    0.137592
  12 H :    0.135894
  13 C :   -0.269814
  14 C :   -0.273527
  15 H :    0.137961
  16 H :    0.137938
  17 H :    0.137944
  18 C :   -0.271613
  19 H :    0.132866
  20 H :    0.141909
  21 H :    0.141962
  22 C :   -0.256264
  23 H :    0.141704
  24 H :    0.146854
  25 C :   -0.238187
  26 C :   -0.510247
  27 H :    0.143539
  28 H :    0.159792
  29 H :    0.101155
  30 H :    0.100072
  31 H :    0.111203
  32 F :    0.348823
  33 O :    0.114542

  Mayer bond orders larger than 0.100000
B(  0-C ,  1-H ) :   0.9467 B(  0-C ,  2-C ) :   0.9976 B(  0-C ,  3-C ) :   0.9933
B(  0-C ,  4-H ) :   0.9800 B(  2-C , 29-H ) :   0.9415 B(  2-C , 30-H ) :   0.9845
B(  2-C , 31-H ) :   0.9478 B(  3-C ,  5-H ) :   0.9430 B(  3-C ,  6-H ) :   0.9417
B(  3-C ,  7-C ) :   1.0118 B(  7-C ,  8-H ) :   0.9378 B(  7-C ,  9-C ) :   1.0045
B(  7-C , 10-H ) :   0.9707 B(  9-C , 11-H ) :   0.9418 B(  9-C , 12-H ) :   0.9679
B(  9-C , 13-C ) :   0.9874 B( 13-C , 14-C ) :   1.0144 B( 13-C , 15-H ) :   0.9472
B( 13-C , 16-H ) :   0.9466 B( 14-C , 17-H ) :   0.9426 B( 14-C , 18-C ) :   0.9825
B( 14-C , 19-H ) :   0.9657 B( 18-C , 20-H ) :   0.9430 B( 18-C , 21-H ) :   0.9566
B( 18-C , 22-C ) :   1.0165 B( 22-C , 23-H ) :   0.9457 B( 22-C , 24-H ) :   0.9416
B( 22-C , 25-C ) :   0.9858 B( 25-C , 26-C ) :   1.0022 B( 25-C , 27-H ) :   0.9503
B( 25-C , 28-H ) :   0.9256 B( 26-C , 32-F ) :   1.1419 B( 26-C , 33-O ) :   2.0077

Dispersion correction           -0.037706765
FINAL SINGLE POINT ENERGY      -606.315280590014

DIPOLE MOMENT
-------------
                                X             Y             Z
Electronic contribution:     -5.48849       2.53651      10.82962
Nuclear contribution   :      5.54676      -3.70047     -10.28793
                        -----------------------------------------
Total Dipole Moment    :      0.05827      -1.16396       0.54169
                        -----------------------------------------
Magnitude (a.u.)       :      1.28516
Magnitude (Debye)      :      3.26661

Rotational constants in cm-1:     0.028503     0.023389     0.015214
Rotational constants in MHz :   854.502405   701.197575   456.108322

                             ****ORCA TERMINATED NORMALLY****
TOTAL RUN TIME: 0 days 0 hours 0 minutes 20 seconds 81 msec
