                         Program Version 5.0.0 -  RELEASE  -
|  1> !B3LYP D3BJ RIJCOSX def2-SVPD def2/J TightSCF
|  2> *xyz -1 1
|  3> C          1.22302        2.46987       -3.75691
|  4> O          2.35381        1.71203       -3.93448
|  5> H          1.26998        3.33359       -4.38673
|  6> H          1.15671        2.77738       -2.73420
|  7> H          0.36099        1.88932       -4.01140
|  8> *
|  9>
| 10> %MaxCore 64000
| 11>
| 12> %pal nprocs 4
| 13> end
| 14>
| 15> %scf
| 16>   MaxIter 150
| 17> end
| 18>
| 19>
| 20>                          ****END OF INPUT****

CARTESIAN COORDINATES (ANGSTROEM)
---------------------------------
  C      1.223020    2.469870   -3.756910
  O      2.353810    1.712030   -3.934480
  H      1.269980    3.333590   -4.386730
  H      1.156710    2.777380   -2.734200
  H      0.360990    1.889320   -4.011400

 Total Charge           Charge          ....   -1
 Multiplicity           Mult            ....    1
 Number of Electrons    NEL             ....   18
 Basis Dimension        Dim             ....   67

ORBITAL ENERGIES
----------------

  NO   OCC          E(Eh)            E(eV)
   0   2.0000     -18.786264      -511.2002
   1   2.0000      -9.970175      -271.3023
   2   2.0000      -0.646824       -17.6010
   3   2.0000      -0.390403       -10.6234
   4   2.0000      -0.195757        -5.3268
   5   2.0000      -0.195737        -5.3263
   6   2.0000      -0.098090        -2.6692
   7   2.0000       0.050815         1.3827
   8   2.0000       0.050829         1.3831
   9   0.0000       0.196729         5.3533
  10   0.0000       0.267982         7.2922
  11   0.0000       0.267984         7.2922
  12   0.0000       0.276438         7.5222
  13   0.0000       0.312802         8.5118

MULLIKEN ATOMIC CHARGES
-----------------------
   0 C :    1.031420
   1 O :   -1.027525
   2 H :   -0.334837
   3 H :   -0.334682
   4 H :   -0.334376
Sum of atomic charges:   -1.0000000

LOEWDIN ATOMIC CHARGES
----------------------
   0 C :   -0.106655
   1 O :   -0.643920
   2 H :   -0.083150
   3 H :   -0.083167
   4 H :   -0.083107

  Mayer bond orders larger than 0.100000
B(  0-C ,  1-O ) :   1.1517 B(  0-C ,  2-H ) :   0.8688 B(  0-C ,  3-H ) :   0.8683
B(  0-C ,  4-H ) :   0.8688

Dispersion correction           -0.002430574
FINAL SINGLE POINT ENERGY      -114.957978222816

DIPOLE MOMENT
-------------
                                X             Y             Z
Electronic contribution:      1.52919      -1.02483      -0.23995
Nuclear contribution   :     -2.37854       1.59406       0.37350
                        -----------------------------------------
Total Dipole Moment    :     -0.84935       0.56923       0.13355
                        -----------------------------------------
Magnitude (a.u.)       :      1.03114
Magnitude (Debye)      :      2.62096

Rotational constants in cm-1:     5.477743     0.935515     0.935515
Rotational constants in MHz : 164218.600605 28046.042741 28046.034116

                             ****ORCA TERMINATED NORMALLY****
TOTAL RUN TIME: 0 days 0 hours 0 minutes 3 seconds 319 msec
