                         Program Version 5.0.0 -  RELEASE  -
|  1> !B3LYP D3BJ RIJCOSX def2-SVPD def2/J TightSCF
|  2> *xyz 1 1
|  3> C          1.63556       -1.67040       -5.29211
|  4> N          2.48451       -0.50741       -5.14039
|  5> C          3.45115       -0.14953       -5.95259
|  6> N          3.92267        1.08956       -5.85071
|  7> N          3.96616       -1.00618       -6.86788
|  8> H          3.52139       -1.90647       -6.99527
|  9> H          4.44482       -0.62347       -7.67035
| 10> H          2.25200        0.24080       -4.49879
| 11> H          3.46428        1.64078       -5.13639
| 12> H          4.83447        1.31375       -6.22465
| 13> H          2.06372       -2.33262       -6.01532
| 14> H          0.66479       -1.36293       -5.62068
| 15> H          1.55078       -2.17513       -4.35245
| 16> *
| 17>
| 18> %MaxCore 64000
| 19>
| 20> %pal nprocs 4
| 21> end
| 22>
| 23> %scf
| 24>   MaxIter 150
| 25> end
| 26>
| 27>
| 28>                          ****END OF INPUT****

CARTESIAN COORDINATES (ANGSTROEM)
---------------------------------
  C      1.635560   -1.670400   -5.292110
  N      2.484510   -0.507410   -5.140390
  C      3.451150   -0.149530   -5.952590
  N      3.922670    1.089560   -5.850710
  N      3.966160   -1.006180   -6.867880
  H      3.521390   -1.906470   -6.995270
  H      4.444820   -0.623470   -7.670350
  H      2.252000    0.240800   -4.498790
  H      3.464280    1.640780   -5.136390
  H      4.834470    1.313750   -6.224650
  H      2.063720   -2.332620   -6.015320
  H      0.664790   -1.362930   -5.620680
  H      1.550780   -2.175130   -4.352450

 Total Charge           Charge          ....    1
 Multiplicity           Mult            ....    1
 Number of Electrons    NEL             ....   40
 Basis Dimension        Dim             ....  164

ORBITAL ENERGIES
----------------

  NO   OCC          E(Eh)            E(eV)
   0   2.0000     -14.565637      -396.3511
   1   2.0000     -14.558275      -396.1508
   2   2.0000     -14.555304      -396.0700
   3   2.0000     -10.522032      -286.3190
   4   2.0000     -10.395627      -282.8794
   5   2.0000      -1.216605       -33.1055
   6   2.0000      -1.103685       -30.0328
   7   2.0000      -1.089995       -29.6603
   8   2.0000      -0.910885       -24.7864
   9   2.0000      -0.828710       -22.5503
  10   2.0000      -0.787654       -21.4332
  11   2.0000      -0.762183       -20.7401
  12   2.0000      -0.697923       -18.9915
  13   2.0000      -0.693524       -18.8717
  14   2.0000      -0.663517       -18.0552
  15   2.0000      -0.650644       -17.7049
  16   2.0000      -0.596381       -16.2284
  17   2.0000      -0.589547       -16.0424
  18   2.0000      -0.483365       -13.1530
  19   2.0000      -0.463562       -12.6142
  20   0.0000      -0.177592        -4.8325
  21   0.0000      -0.163168        -4.4400
  22   0.0000      -0.131014        -3.5651
  23   0.0000      -0.115048        -3.1306
  24   0.0000      -0.088048        -2.3959

MULLIKEN ATOMIC CHARGES
-----------------------
   0 C :    1.516377
   1 N :   -0.537783
   2 C :    1.085727
   3 N :    0.113575
   4 N :    0.136507
   5 H :   -0.093888
   6 H :   -0.113371
   7 H :   -0.269241
   8 H :   -0.008620
   9 H :   -0.121331
  10 H :   -0.375547
  11 H :   -0.164757
  12 H :   -0.167648
Sum of atomic charges:    1.0000000

LOEWDIN ATOMIC CHARGES
----------------------
   0 C :    0.284010
   1 N :    0.021853
   2 C :   -0.039096
   3 N :    0.271413
   4 N :    0.284610
   5 H :    0.002549
   6 H :    0.035253
   7 H :    0.055672
   8 H :    0.031612
   9 H :    0.043334
  10 H :   -0.018549
  11 H :    0.013327
  12 H :    0.014012

  Mayer bond orders larger than 0.100000
B(  0-C ,  1-N ) :   0.9709 B(  0-C ,  7-H ) :  -0.1885 B(  0-C , 10-H ) :   0.7403
B(  0-C , 11-H ) :   0.6991 B(  0-C , 12-H ) :   0.6722 B(  1-N ,  2-C ) :   1.0501
B(  1-N ,  3-N ) :   0.2613 B(  1-N ,  4-N ) :   0.1553 B(  1-N ,  7-H ) :   1.3318
B(  1-N , 10-H ) :   0.2506 B(  1-N , 11-H ) :   0.1997 B(  1-N , 12-H ) :   0.2304
B(  2-C ,  3-N ) :   0.9966 B(  2-C ,  4-N ) :   1.0489 B(  2-C ,  6-H ) :  -0.1290
B(  2-C ,  7-H ) :  -0.2542 B(  2-C ,  9-H ) :  -0.1097 B(  3-N ,  4-N ) :   0.1511
B(  3-N ,  8-H ) :   1.0739 B(  3-N ,  9-H ) :   1.2125 B(  4-N ,  5-H ) :   1.0502
B(  4-N ,  6-H ) :   1.2007 B(  5-H ,  6-H ) :  -0.1611 B(  5-H , 10-H ) :   0.1083
B(  8-H ,  9-H ) :  -0.1470

Dispersion correction           -0.015014544
FINAL SINGLE POINT ENERGY      -244.784014196292

DIPOLE MOMENT
-------------
                                X             Y             Z
Electronic contribution:      1.95810       1.90956      -0.25924
Nuclear contribution   :     -1.83770      -1.53167       0.12165
                        -----------------------------------------
Total Dipole Moment    :      0.12039       0.37789      -0.13758
                        -----------------------------------------
Magnitude (a.u.)       :      0.41979
Magnitude (Debye)      :      1.06703

Rotational constants in cm-1:     0.307545     0.135665     0.096412
Rotational constants in MHz :  9219.967860  4067.145400  2890.348280

                             ****ORCA TERMINATED NORMALLY****
TOTAL RUN TIME: 0 days 0 hours 0 minutes 13 seconds 894 msec
