                         Program Version 5.0.0 -  RELEASE  -
|  1> !B3LYP D3BJ RIJCOSX def2-SVPD def2/J TightSCF
|  2> *xyz 0 1
|  3> C          1.22302        2.46987       -3.75691
|  4> F          2.35381        1.71203       -3.93448
|  5> H          1.26998        3.33359       -4.38673
|  6> H          1.15671        2.77738       -2.73420
|  7> H          0.36099        1.88932       -4.01140
|  8> *
|  9>
| 10> %MaxCore 64000
| 11>
| 12> %pal nprocs 4
| 13> end
| 14>
| 15> %scf
| 16>   MaxIter 150
| 17> end
| 18>
| 19>
| 20>                          ****END OF INPUT****

CARTESIAN COORDINATES (ANGSTROEM)
---------------------------------
  C      1.223020    2.469870   -3.756910
  F      2.353810    1.712030   -3.934480
  H      1.269980    3.333590   -4.386730
  H      1.156710    2.777380   -2.734200
  H      0.360990    1.889320   -4.011400

 Total Charge           Charge          ....    0
 Multiplicity           Mult            ....    1
 Number of Electrons    NEL             ....   18
 Basis Dimension        Dim             ....   67

ORBITAL ENERGIES
----------------

  NO   OCC          E(Eh)            E(eV)
   0   2.0000     -24.682010      -671.6316
   1   2.0000     -10.256409      -279.0911
   2   2.0000      -1.181310       -32.1451
   3   2.0000      -0.702219       -19.1084
   4   2.0000      -0.499855       -13.6017
   5   2.0000      -0.491868       -13.3844
   6   2.0000      -0.491848       -13.3839
   7   2.0000      -0.353920        -9.6307
   8   2.0000      -0.353898        -9.6300
   9   0.0000       0.023649         0.6435
  10   0.0000       0.057752         1.5715
  11   0.0000       0.098802         2.6885
  12   0.0000       0.098802         2.6885
  13   0.0000       0.144122         3.9218

MULLIKEN ATOMIC CHARGES
-----------------------
   0 C :    1.087905
   1 F :   -0.482699
   2 H :   -0.202188
   3 H :   -0.201530
   4 H :   -0.201488
Sum of atomic charges:   -0.0000000

LOEWDIN ATOMIC CHARGES
----------------------
   0 C :    0.275733
   1 F :   -0.250179
   2 H :   -0.008540
   3 H :   -0.008526
   4 H :   -0.008488

  Mayer bond orders larger than 0.100000
B(  0-C ,  1-F ) :   0.8425 B(  0-C ,  2-H ) :   0.9055 B(  0-C ,  3-H ) :   0.9050
B(  0-C ,  4-H ) :   0.9055

Dispersion correction           -0.002119869
FINAL SINGLE POINT ENERGY      -139.581826344782

DIPOLE MOMENT
-------------
                                X             Y             Z
Electronic contribution:      2.41133      -1.61592      -0.37860
Nuclear contribution   :     -3.01708       2.02200       0.47377
                        -----------------------------------------
Total Dipole Moment    :     -0.60576       0.40608       0.09517
                        -----------------------------------------
Magnitude (a.u.)       :      0.73546
Magnitude (Debye)      :      1.86939

Rotational constants in cm-1:     5.477743     0.870792     0.870792
Rotational constants in MHz : 164218.600605 26105.683059 26105.675587

                             ****ORCA TERMINATED NORMALLY****
TOTAL RUN TIME: 0 days 0 hours 0 minutes 3 seconds 422 msec
