                         Program Version 5.0.0 -  RELEASE  -
|  1> !B3LYP D3BJ RIJCOSX def2-SVPD def2/J TightSCF
|  2> *xyz 0 1
|  3> C          1.63556       -1.67040       -5.29211
|  4> C          2.48451       -0.50741       -5.14039
|  5> C          3.45115       -0.14953       -5.95259
|  6> N          3.92267        1.08956       -5.85071
|  7> N          3.96616       -1.00618       -6.86788
|  8> H          3.52139       -1.90647       -6.99527
|  9> H          4.44482       -0.62347       -7.67035
| 10> H          2.25200        0.24080       -4.49879
| 11> H          3.46428        1.64078       -5.13639
| 12> H          4.83447        1.31375       -6.22465
| 13> H          2.06372       -2.33262       -6.01532
| 14> H          0.66479       -1.36293       -5.62068
| 15> H          1.55078       -2.17513       -4.35245
| 16> *
| 17>
| 18> %MaxCore 64000
| 19>
| 20> %pal nprocs 4
| 21> end
| 22>
| 23> %scf
| 24>   MaxIter 150
| 25> end
| 26>
| 27>
| 28>                          ****END OF INPUT****

CARTESIAN COORDINATES (ANGSTROEM)
---------------------------------
  C      1.635560   -1.670400   -5.292110
  C      2.484510   -0.507410   -5.140390
  C      3.451150   -0.149530   -5.952590
  N      3.922670    1.089560   -5.850710
  N      3.966160   -1.006180   -6.867880
  H      3.521390   -1.906470   -6.995270
  H      4.444820   -0.623470   -7.670350
  H      2.252000    0.240800   -4.498790
  H      3.464280    1.640780   -5.136390
  H      4.834470    1.313750   -6.224650
  H      2.063720   -2.332620   -6.015320
  H      0.664790   -1.362930   -5.620680
  H      1.550780   -2.175130   -4.352450

 Total Charge           Charge          ....    0
 Multiplicity           Mult            ....    1
 Number of Electrons    NEL             ....   40
 Basis Dimension        Dim             ....  164

ORBITAL ENERGIES
----------------

  NO   OCC          E(Eh)            E(eV)
   0   2.0000     -14.327532      -389.8720
   1   2.0000     -14.325031      -389.8039
   2   2.0000     -10.219836      -278.0959
   3   2.0000     -10.152221      -276.2560
   4   2.0000     -10.108166      -275.0572
   5   2.0000      -0.947160       -25.7735
   6   2.0000      -0.860005       -23.4019
   7   2.0000      -0.749211       -20.3871
   8   2.0000      -0.653115       -17.7722
   9   2.0000      -0.581531       -15.8243
  10   2.0000      -0.537843       -14.6354
  11   2.0000      -0.508883       -13.8474
  12   2.0000      -0.468320       -12.7436
  13   2.0000      -0.425916       -11.5898
  14   2.0000      -0.408745       -11.1225
  15   2.0000      -0.381229       -10.3738
  16   2.0000      -0.360737        -9.8161
  17   2.0000      -0.348141        -9.4734
  18   2.0000      -0.262950        -7.1552
  19   2.0000      -0.161735        -4.4010
  20   0.0000       0.015579         0.4239
  21   0.0000       0.041113         1.1187
  22   0.0000       0.052476         1.4279
  23   0.0000       0.073501         2.0001
  24   0.0000       0.085206         2.3186

MULLIKEN ATOMIC CHARGES
-----------------------
   0 C :    1.206876
   1 C :   -0.587973
   2 C :    0.594802
   3 N :    0.148238
   4 N :    0.137549
   5 H :   -0.094911
   6 H :   -0.209991
   7 H :   -0.387776
   8 H :    0.008061
   9 H :   -0.231633
  10 H :   -0.455046
  11 H :   -0.100340
  12 H :   -0.027856
Sum of atomic charges:    0.0000000

LOEWDIN ATOMIC CHARGES
----------------------
   0 C :    0.116837
   1 C :   -0.061690
   2 C :   -0.231472
   3 N :    0.179508
   4 N :    0.201403
   5 H :   -0.029990
   6 H :   -0.017042
   7 H :   -0.054696
   8 H :   -0.002699
   9 H :   -0.011598
  10 H :   -0.047916
  11 H :   -0.019708
  12 H :   -0.020936

  Mayer bond orders larger than 0.100000
B(  0-C ,  1-C ) :   1.1259 B(  0-C ,  7-H ) :   0.1743 B(  0-C , 10-H ) :   0.6774
B(  0-C , 11-H ) :   0.7238 B(  0-C , 12-H ) :   0.5148 B(  1-C ,  2-C ) :   1.6186
B(  1-C ,  3-N ) :   0.3356 B(  1-C ,  4-N ) :   0.1714 B(  1-C ,  7-H ) :   0.8798
B(  1-C , 10-H ) :   0.4383 B(  1-C , 11-H ) :   0.1415 B(  1-C , 12-H ) :   0.3284
B(  2-C ,  3-N ) :   1.0140 B(  2-C ,  4-N ) :   1.1086 B(  2-C ,  7-H ) :   0.3085
B(  2-C , 10-H ) :  -0.1014 B(  3-N ,  4-N ) :   0.1103 B(  3-N ,  8-H ) :   1.0593
B(  3-N ,  9-H ) :   1.1998 B(  4-N ,  5-H ) :   1.0393 B(  4-N ,  6-H ) :   1.1684
B(  5-H ,  6-H ) :  -0.1342 B(  8-H ,  9-H ) :  -0.1449 B( 10-H , 11-H ) :   0.1115
B( 10-H , 12-H ) :   0.2339

Dispersion correction           -0.015797941
FINAL SINGLE POINT ENERGY      -228.321506833234

DIPOLE MOMENT
-------------
                                X             Y             Z
Electronic contribution:      2.39699       1.86161      -0.76583
Nuclear contribution   :     -1.96139      -1.54412       0.26148
                        -----------------------------------------
Total Dipole Moment    :      0.43560       0.31749      -0.50435
                        -----------------------------------------
Magnitude (a.u.)       :      0.73819
Magnitude (Debye)      :      1.87632

Rotational constants in cm-1:     0.312277     0.136708     0.097371
Rotational constants in MHz :  9361.815989  4098.393303  2919.105491

                             ****ORCA TERMINATED NORMALLY****
TOTAL RUN TIME: 0 days 0 hours 0 minutes 16 seconds 537 msec
