                         Program Version 5.0.0 -  RELEASE  -
|  1> !B3LYP D3BJ RIJCOSX def2-SVPD def2/J TightSCF
|  2> *xyz 0 1
|  3> C          1.63556       -1.67040       -5.29211
|  4> N          2.48451       -0.50741       -5.14039
|  5> C          3.45115       -0.14953       -5.95259
|  6> C          3.92267        1.08956       -5.85071
|  7> N          3.96616       -1.00618       -6.86788
|  8> H          3.52139       -1.90647       -6.99527
|  9> H          4.44482       -0.62347       -7.67035
| 10> H          2.25200        0.24080       -4.49879
| 11> H          3.46428        1.64078       -5.13639
| 12> H          4.83447        1.31375       -6.22465
| 13> H          2.06372       -2.33262       -6.01532
| 14> H          0.66479       -1.36293       -5.62068
| 15> H          1.55078       -2.17513       -4.35245
| 16> *
| 17>
| 18> %MaxCore 64000
| 19>
| 20> %pal nprocs 4
| 21> end
| 22>
| 23> %scf
| 24>   MaxIter 150
| 25> end
| 26>
| 27>
| 28>                          ****END OF INPUT****

CARTESIAN COORDINATES (ANGSTROEM)
---------------------------------
  C      1.635560   -1.670400   -5.292110
  N      2.484510   -0.507410   -5.140390
  C      3.451150   -0.149530   -5.952590
  C      3.922670    1.089560   -5.850710
  N      3.966160   -1.006180   -6.867880
  H      3.521390   -1.906470   -6.995270
  H      4.444820   -0.623470   -7.670350
  H      2.252000    0.240800   -4.498790
  H      3.464280    1.640780   -5.136390
  H      4.834470    1.313750   -6.224650
  H      2.063720   -2.332620   -6.015320
  H      0.664790   -1.362930   -5.620680
  H      1.550780   -2.175130   -4.352450

 Total Charge           Charge          ....    0
 Multiplicity           Mult            ....    1
 Number of Electrons    NEL             ....   40
 Basis Dimension        Dim             ....  164

ORBITAL ENERGIES
----------------

  NO   OCC          E(Eh)            E(eV)
   0   2.0000     -14.331942      -389.9920
   1   2.0000     -14.330017      -389.9396
   2   2.0000     -10.226423      -278.2751
   3   2.0000     -10.219459      -278.0856
   4   2.0000     -10.093534      -274.6590
   5   2.0000      -0.961862       -26.1736
   6   2.0000      -0.873658       -23.7735
   7   2.0000      -0.745032       -20.2733
   8   2.0000      -0.660754       -17.9800
   9   2.0000      -0.597945       -16.2709
  10   2.0000      -0.537617       -14.6293
  11   2.0000      -0.493587       -13.4312
  12   2.0000      -0.477847       -13.0029
  13   2.0000      -0.455955       -12.4072
  14   2.0000      -0.411640       -11.2013
  15   2.0000      -0.392257       -10.6739
  16   2.0000      -0.382235       -10.4011
  17   2.0000      -0.362227        -9.8567
  18   2.0000      -0.257056        -6.9949
  19   2.0000      -0.162305        -4.4165
  20   0.0000       0.009943         0.2706
  21   0.0000       0.042587         1.1589
  22   0.0000       0.045547         1.2394
  23   0.0000       0.072551         1.9742
  24   0.0000       0.086753         2.3607

MULLIKEN ATOMIC CHARGES
-----------------------
   0 C :    1.542012
   1 N :   -0.464910
   2 C :    0.474654
   3 C :    0.633362
   4 N :    0.198073
   5 H :   -0.228036
   6 H :   -0.122173
   7 H :   -0.297865
   8 H :   -0.310643
   9 H :   -0.543429
  10 H :   -0.423363
  11 H :   -0.222308
  12 H :   -0.235374
Sum of atomic charges:    0.0000000

LOEWDIN ATOMIC CHARGES
----------------------
   0 C :    0.230671
   1 N :   -0.041869
   2 C :   -0.237133
   3 C :    0.144163
   4 N :    0.204243
   5 H :   -0.043196
   6 H :    0.002068
   7 H :    0.028752
   8 H :   -0.110238
   9 H :   -0.104101
  10 H :   -0.037995
  11 H :   -0.018610
  12 H :   -0.016755

  Mayer bond orders larger than 0.100000
B(  0-C ,  1-N ) :   0.9405 B(  0-C ,  7-H ) :  -0.1899 B(  0-C , 10-H ) :   0.7266
B(  0-C , 11-H ) :   0.7008 B(  0-C , 12-H ) :   0.6592 B(  1-N ,  2-C ) :   1.0882
B(  1-N ,  3-C ) :   0.2582 B(  1-N ,  7-H ) :   1.2798 B(  1-N , 10-H ) :   0.2777
B(  1-N , 11-H ) :   0.1850 B(  1-N , 12-H ) :   0.2517 B(  2-C ,  3-C ) :   1.6090
B(  2-C ,  4-N ) :   1.0249 B(  2-C ,  6-H ) :  -0.1073 B(  2-C ,  7-H ) :  -0.1919
B(  2-C ,  8-H ) :   0.2563 B(  2-C ,  9-H ) :   0.2607 B(  3-C ,  4-N ) :   0.2360
B(  3-C ,  8-H ) :   0.7537 B(  3-C ,  9-H ) :   0.6101 B(  4-N ,  5-H ) :   1.0464
B(  4-N ,  6-H ) :   1.1721 B(  5-H ,  6-H ) :  -0.1544 B(  5-H , 10-H ) :   0.1112

Dispersion correction           -0.015664767
FINAL SINGLE POINT ENERGY      -228.307738855180

DIPOLE MOMENT
-------------
                                X             Y             Z
Electronic contribution:      1.00970       0.29447      -0.21723
Nuclear contribution   :     -1.67010      -1.22066       0.11760
                        -----------------------------------------
Total Dipole Moment    :     -0.66039      -0.92620      -0.09962
                        -----------------------------------------
Magnitude (a.u.)       :      1.14188
Magnitude (Debye)      :      2.90242

Rotational constants in cm-1:     0.314526     0.141398     0.099973
Rotational constants in MHz :  9429.255015  4239.015262  2997.111162

                             ****ORCA TERMINATED NORMALLY****
TOTAL RUN TIME: 0 days 0 hours 0 minutes 14 seconds 904 msec
