                         Program Version 5.0.0 -  RELEASE  -
|  1> !B3LYP D3BJ RIJCOSX def2-SVPD def2/J TightSCF
|  2> *xyz 0 1
|  3> C          1.63556       -1.67040       -5.29211
|  4> N          2.48451       -0.50741       -5.14039
|  5> C          3.45115       -0.14953       -5.95259
|  6> N          3.92267        1.08956       -5.85071
|  7> C          3.96616       -1.00618       -6.86788
|  8> H          3.52139       -1.90647       -6.99527
|  9> H          4.44482       -0.62347       -7.67035
| 10> H          2.25200        0.24080       -4.49879
| 11> H          3.46428        1.64078       -5.13639
| 12> H          4.83447        1.31375       -6.22465
| 13> H          2.06372       -2.33262       -6.01532
| 14> H          0.66479       -1.36293       -5.62068
| 15> H          1.55078       -2.17513       -4.35245
| 16> *
| 17>
| 18> %MaxCore 64000
| 19>
| 20> %pal nprocs 4
| 21> end
| 22>
| 23> %scf
| 24>   MaxIter 150
| 25> end
| 26>
| 27>
| 28>                          ****END OF INPUT****

CARTESIAN COORDINATES (ANGSTROEM)
---------------------------------
  C      1.635560   -1.670400   -5.292110
  N      2.484510   -0.507410   -5.140390
  C      3.451150   -0.149530   -5.952590
  N      3.922670    1.089560   -5.850710
  C      3.966160   -1.006180   -6.867880
  H      3.521390   -1.906470   -6.995270
  H      4.444820   -0.623470   -7.670350
  H      2.252000    0.240800   -4.498790
  H      3.464280    1.640780   -5.136390
  H      4.834470    1.313750   -6.224650
  H      2.063720   -2.332620   -6.015320
  H      0.664790   -1.362930   -5.620680
  H      1.550780   -2.175130   -4.352450

 Total Charge           Charge          ....    0
 Multiplicity           Mult            ....    1
 Number of Electrons    NEL             ....   40
 Basis Dimension        Dim             ....  164

ORBITAL ENERGIES
----------------

  NO   OCC          E(Eh)            E(eV)
   0   2.0000     -14.336867      -390.1260
   1   2.0000     -14.332894      -390.0179
   2   2.0000     -10.228641      -278.3355
   3   2.0000     -10.210793      -277.8498
   4   2.0000     -10.094080      -274.6739
   5   2.0000      -0.969986       -26.3947
   6   2.0000      -0.878296       -23.8997
   7   2.0000      -0.714071       -19.4308
   8   2.0000      -0.695083       -18.9142
   9   2.0000      -0.564793       -15.3688
  10   2.0000      -0.544927       -14.8282
  11   2.0000      -0.529522       -14.4090
  12   2.0000      -0.460819       -12.5395
  13   2.0000      -0.451307       -12.2807
  14   2.0000      -0.417930       -11.3725
  15   2.0000      -0.385588       -10.4924
  16   2.0000      -0.371609       -10.1120
  17   2.0000      -0.361686        -9.8420
  18   2.0000      -0.254853        -6.9349
  19   2.0000      -0.163536        -4.4500
  20   0.0000       0.009205         0.2505
  21   0.0000       0.036649         0.9973
  22   0.0000       0.051116         1.3909
  23   0.0000       0.069865         1.9011
  24   0.0000       0.086899         2.3647

MULLIKEN ATOMIC CHARGES
-----------------------
   0 C :    1.558912
   1 N :   -0.415463
   2 C :    0.453043
   3 N :    0.199563
   4 C :    0.564395
   5 H :   -0.420502
   6 H :   -0.397704
   7 H :   -0.409932
   8 H :   -0.170659
   9 H :   -0.125236
  10 H :   -0.409775
  11 H :   -0.219799
  12 H :   -0.206839
Sum of atomic charges:    0.0000000

LOEWDIN ATOMIC CHARGES
----------------------
   0 C :    0.239660
   1 N :   -0.045158
   2 C :   -0.243849
   3 N :    0.192827
   4 C :    0.162393
   5 H :   -0.137529
   6 H :   -0.111340
   7 H :    0.014507
   8 H :   -0.017100
   9 H :    0.009838
  10 H :   -0.033504
  11 H :   -0.015410
  12 H :   -0.015333

  Mayer bond orders larger than 0.100000
B(  0-C ,  1-N ) :   0.9433 B(  0-C ,  7-H ) :  -0.1717 B(  0-C , 10-H ) :   0.7192
B(  0-C , 11-H ) :   0.6677 B(  0-C , 12-H ) :   0.6353 B(  1-N ,  2-C ) :   1.0825
B(  1-N ,  3-N ) :   0.1643 B(  1-N ,  4-C ) :   0.2843 B(  1-N ,  7-H ) :   1.2983
B(  1-N , 10-H ) :   0.2418 B(  1-N , 11-H ) :   0.2186 B(  1-N , 12-H ) :   0.2499
B(  2-C ,  3-N ) :   0.9716 B(  2-C ,  4-C ) :   1.7735 B(  2-C ,  5-H ) :   0.2543
B(  2-C ,  6-H ) :   0.2542 B(  2-C ,  7-H ) :  -0.2197 B(  3-N ,  4-C ) :   0.2752
B(  3-N ,  8-H ) :   1.0867 B(  3-N ,  9-H ) :   1.1933 B(  4-C ,  5-H ) :   0.6225
B(  4-C ,  6-H ) :   0.6817 B(  5-H ,  6-H ) :   0.2693 B(  5-H , 10-H ) :   0.1644
B(  8-H ,  9-H ) :  -0.1358

Dispersion correction           -0.015748389
FINAL SINGLE POINT ENERGY      -228.307096619058

DIPOLE MOMENT
-------------
                                X             Y             Z
Electronic contribution:      1.05194       2.33226       0.85507
Nuclear contribution   :     -1.66129      -1.64514      -0.08842
                        -----------------------------------------
Total Dipole Moment    :     -0.60935       0.68711       0.76665
                        -----------------------------------------
Magnitude (a.u.)       :      1.19632
Magnitude (Debye)      :      3.04081

Rotational constants in cm-1:     0.330436     0.136339     0.098902
Rotational constants in MHz :  9906.231858  4087.333233  2964.994979

                             ****ORCA TERMINATED NORMALLY****
TOTAL RUN TIME: 0 days 0 hours 0 minutes 15 seconds 572 msec
