                         Program Version 5.0.0 -  RELEASE  -
|  1> !B3LYP D3BJ RIJCOSX def2-SVPD def2/J TightSCF xyzfile
|  2>
|  3> *xyzfile 0 1 D1.xyz
|  4>
|  5> %MaxCore 64000
|  6>
|  7> %pal nprocs 4
|  8> end
|  9>
| 10> %scf
| 11>   MaxIter 150
| 12> end
| 13>
| 14>
| 15>                          ****END OF INPUT****

CARTESIAN COORDINATES (ANGSTROEM)
---------------------------------
  C      1.635557   -1.670396   -5.292109
  C      0.338484   -1.500907   -4.505398
  C      2.484511   -0.507410   -5.140392
  C     -0.684873   -0.528026   -5.099889
  C     -0.290406    0.951335   -5.153423
  H      0.607991    1.070692   -5.764412
  C     -0.055168    1.619420   -3.788577
  H     -1.080912    1.483775   -5.689436
  H      0.045006    0.862302   -3.003015
  H     -0.922936    2.230329   -3.517028
  C      1.223022    2.469865   -3.756911
  H      1.114701    3.258074   -4.532999
  H      1.237732    3.011242   -2.792157
  F      2.353815    1.712032   -3.934477
  H      1.398337   -1.829239   -6.352591
  H      2.155864   -2.565398   -4.932091
  C      3.451149   -0.149530   -5.952589
  N      3.922667    1.089559   -5.850711
  N      3.966162   -1.006183   -6.867880
  H      3.521391   -1.906467   -6.995270
  H      4.444824   -0.623472   -7.670348
  H      2.251995    0.240804   -4.498792
  H      3.464277    1.640782   -5.136392
  H      4.834470    1.313745   -6.224653
  H     -0.937999   -0.869056   -6.110838
  H     -1.604638   -0.622496   -4.513132
  H      0.594887   -1.211578   -3.482312
  H     -0.126530   -2.487656   -4.434176

 Total Charge           Charge          ....    0
 Multiplicity           Mult            ....    1
 Number of Electrons    NEL             ....   88
 Basis Dimension        Dim             ....  359

ORBITAL ENERGIES
----------------

  NO   OCC          E(Eh)            E(eV)
   0   2.0000     -24.712406      -672.4588
   1   2.0000     -14.317047      -389.5867
   2   2.0000     -14.300731      -389.1427
   3   2.0000     -10.273418      -279.5539
   4   2.0000     -10.202470      -277.6233
   5   2.0000     -10.189623      -277.2737
   6   2.0000     -10.171858      -276.7903
   7   2.0000     -10.168807      -276.7073
   8   2.0000     -10.159091      -276.4429
   9   2.0000     -10.148890      -276.1653
  10   2.0000     -10.078080      -274.2385
  11   2.0000      -1.219592       -33.1868
  12   2.0000      -0.931047       -25.3351
  13   2.0000      -0.844911       -22.9912
  14   2.0000      -0.801664       -21.8144
  15   2.0000      -0.768687       -20.9170
  16   2.0000      -0.719876       -19.5888
  17   2.0000      -0.685875       -18.6636
  18   2.0000      -0.635790       -17.3007
  19   2.0000      -0.603085       -16.4108
  20   2.0000      -0.576523       -15.6880
  21   2.0000      -0.551470       -15.0063
  22   2.0000      -0.536535       -14.5999
  23   2.0000      -0.522314       -14.2129
  24   2.0000      -0.506490       -13.7823
  25   2.0000      -0.503973       -13.7138
  26   2.0000      -0.484435       -13.1821
  27   2.0000      -0.457274       -12.4431
  28   2.0000      -0.440149       -11.9771
  29   2.0000      -0.438999       -11.9458
  30   2.0000      -0.417725       -11.3669
  31   2.0000      -0.402349       -10.9485
  32   2.0000      -0.391381       -10.6500
  33   2.0000      -0.378045       -10.2871
  34   2.0000      -0.362509        -9.8644
  35   2.0000      -0.358967        -9.7680
  36   2.0000      -0.350432        -9.5357
  37   2.0000      -0.338191        -9.2026
  38   2.0000      -0.320921        -8.7327
  39   2.0000      -0.310002        -8.4356
  40   2.0000      -0.304086        -8.2746
  41   2.0000      -0.292689        -7.9645
  42   2.0000      -0.247712        -6.7406
  43   2.0000      -0.145886        -3.9698
  44   0.0000       0.017986         0.4894
  45   0.0000       0.027096         0.7373
  46   0.0000       0.035016         0.9528
  47   0.0000       0.044743         1.2175
  48   0.0000       0.054225         1.4755

MULLIKEN ATOMIC CHARGES
-----------------------
   0 C :    0.562831
   1 C :    0.532348
   2 C :    0.104240
   3 C :    0.377885
   4 C :    0.268319
   5 H :   -0.079199
   6 C :    0.196121
   7 H :   -0.352466
   8 H :   -0.093662
   9 H :   -0.337387
  10 C :    1.243567
  11 H :   -0.157165
  12 H :   -0.182543
  13 F :   -0.768498
  14 H :   -0.052251
  15 H :   -0.269971
  16 C :    0.404920
  17 N :    0.329846
  18 N :    0.017155
  19 H :   -0.076595
  20 H :   -0.197867
  21 H :   -0.485358
  22 H :   -0.057415
  23 H :   -0.349553
  24 H :    0.014656
  25 H :   -0.218573
  26 H :   -0.063894
  27 H :   -0.309492
Sum of atomic charges:    0.0000000

LOEWDIN ATOMIC CHARGES
----------------------
   0 C :   -0.053356
   1 C :   -0.032008
   2 C :   -0.016798
   3 C :   -0.017505
   4 C :   -0.015747
   5 H :    0.007228
   6 C :    0.006962
   7 H :    0.013334
   8 H :    0.014380
   9 H :    0.025072
  10 C :    0.161951
  11 H :    0.042555
  12 H :    0.032588
  13 F :   -0.217562
  14 H :    0.012975
  15 H :    0.012627
  16 C :   -0.204627
  17 N :    0.201891
  18 N :    0.206958
  19 H :   -0.021387
  20 H :   -0.020518
  21 H :   -0.113756
  22 H :   -0.068649
  23 H :   -0.013448
  24 H :    0.019792
  25 H :    0.015110
  26 H :    0.010190
  27 H :    0.011750

  Mayer bond orders larger than 0.100000
B(  0-C ,  1-C ) :   1.1566 B(  0-C ,  2-C ) :   0.7368 B(  0-C , 14-H ) :   0.7177
B(  0-C , 15-H ) :   0.5358 B(  0-C , 21-H ) :   0.5005 B(  0-C , 26-H ) :   0.1646
B(  0-C , 27-H ) :   0.2512 B(  1-C ,  2-C ) :   0.2680 B(  1-C ,  3-C ) :   1.2013
B(  1-C , 21-H ) :  -0.1696 B(  1-C , 24-H ) :   0.1780 B(  1-C , 25-H ) :   0.2139
B(  1-C , 26-H ) :   0.6605 B(  1-C , 27-H ) :   0.6328 B(  2-C , 14-H ) :   0.2486
B(  2-C , 15-H ) :   0.3834 B(  2-C , 16-C ) :   1.7450 B(  2-C , 17-N ) :   0.4362
B(  2-C , 18-N ) :   0.3146 B(  2-C , 19-H ) :  -0.1683 B(  2-C , 21-H ) :   0.1330
B(  3-C ,  4-C ) :   1.2658 B(  3-C ,  5-H ) :   0.1720 B(  3-C ,  7-H ) :   0.1577
B(  3-C , 24-H ) :   0.6233 B(  3-C , 25-H ) :   0.7574 B(  3-C , 26-H ) :   0.1770
B(  3-C , 27-H ) :   0.1692 B(  4-C ,  5-H ) :   0.7655 B(  4-C ,  6-C ) :   1.1919
B(  4-C ,  7-H ) :   0.7264 B(  4-C ,  8-H ) :   0.1445 B(  4-C ,  9-H ) :   0.1790
B(  4-C , 24-H ) :   0.2381 B(  4-C , 25-H ) :   0.1293 B(  5-H ,  6-C ) :   0.1068
B(  5-H ,  7-H ) :  -0.1278 B(  5-H , 21-H ) :   0.1399 B(  6-C ,  7-H ) :   0.1010
B(  6-C ,  8-H ) :   0.8238 B(  6-C ,  9-H ) :   0.8538 B(  6-C , 10-C ) :   1.1489
B(  6-C , 11-H ) :   0.1319 B(  6-C , 12-H ) :   0.2033 B(  6-C , 13-F ) :   0.1546
B(  7-H , 21-H ) :  -0.1190 B(  8-H ,  9-H ) :  -0.1087 B(  8-H , 26-H ) :   0.1064
B( 10-C , 11-H ) :   0.7410 B( 10-C , 12-H ) :   0.7159 B( 10-C , 13-F ) :   0.5981
B( 11-H , 13-F ) :   0.3114 B( 13-F , 22-H ) :   0.1246 B( 14-H , 21-H ) :   0.1508
B( 14-H , 25-H ) :  -0.1020 B( 16-C , 17-N ) :   0.7744 B( 16-C , 18-N ) :   0.9499
B( 16-C , 21-H ) :   0.2819 B( 16-C , 23-H ) :  -0.1759 B( 17-N , 18-N ) :   0.1028
B( 17-N , 22-H ) :   1.0800 B( 17-N , 23-H ) :   1.2847 B( 18-N , 19-H ) :   1.0981
B( 18-N , 20-H ) :   1.2172 B( 18-N , 21-H ) :  -0.1467 B( 19-H , 20-H ) :  -0.1399
B( 21-H , 22-H ) :  -0.1209 B( 21-H , 27-H ) :  -0.1238 B( 22-H , 23-H ) :  -0.1818
B( 24-H , 25-H ) :  -0.1218 B( 26-H , 27-H ) :  -0.1310

Dispersion correction           -0.047298686
FINAL SINGLE POINT ENERGY      -523.744799366654

DIPOLE MOMENT
-------------
                                X             Y             Z
Electronic contribution:      7.82441       3.84451       1.15790
Nuclear contribution   :     -8.11591      -2.99033      -1.35383
                        -----------------------------------------
Total Dipole Moment    :     -0.29150       0.85418      -0.19594
                        -----------------------------------------
Magnitude (a.u.)       :      0.92357
Magnitude (Debye)      :      2.34753

Rotational constants in cm-1:     0.043530     0.028984     0.019589
Rotational constants in MHz :  1305.007140   868.923804   587.262638

                             ****ORCA TERMINATED NORMALLY****
TOTAL RUN TIME: 0 days 0 hours 1 minutes 40 seconds 403 msec
