                         Program Version 5.0.0 -  RELEASE  -
|  1> !LC-BLYP RIJCOSX def2-SVPD def2/J TightSCF
|  2> *xyz -1 1
|  3> C          0.64866        1.00359       -3.64560
|  4> C          0.13297        2.38587       -4.02462
|  5> C         -1.36646        2.47911       -4.31393
|  6> C         -2.35773        2.30686       -3.13675
|  7> H         -1.63680        1.72709       -5.06399
|  8> H         -1.58235        3.44561       -4.76869
|  9> O         -3.44376        2.84652       -3.25274
| 10> O         -1.97092        1.58304       -2.15123
| 11> H          0.41484        3.10285       -3.24517
| 12> H          0.68317        2.68756       -4.91972
| 13> H          0.37534        0.30051       -4.40446
| 14> H          0.21856        0.70606       -2.71212
| 15> H          1.71431        1.03324       -3.55398
| 16> *
| 17> %MaxCore 64000
| 18>
| 19> %pal nprocs 4
| 20> end
| 21>
| 22> %scf
| 23>   MaxIter 150
| 24> end
| 25>
| 26>
| 27>                          ****END OF INPUT****

CARTESIAN COORDINATES (ANGSTROEM)
---------------------------------
  C      0.648660    1.003590   -3.645600
  C      0.132970    2.385870   -4.024620
  C     -1.366460    2.479110   -4.313930
  C     -2.357730    2.306860   -3.136750
  H     -1.636800    1.727090   -5.063990
  H     -1.582350    3.445610   -4.768690
  O     -3.443760    2.846520   -3.252740
  O     -1.970920    1.583040   -2.151230
  H      0.414840    3.102850   -3.245170
  H      0.683170    2.687560   -4.919720
  H      0.375340    0.300510   -4.404460
  H      0.218560    0.706060   -2.712120
  H      1.714310    1.033240   -3.553980

 Total Charge           Charge          ....   -1
 Multiplicity           Mult            ....    1
 Number of Electrons    NEL             ....   48
 Basis Dimension        Dim             ....  182

ORBITAL ENERGIES
----------------

  NO   OCC          E(Eh)            E(eV)
   0   2.0000     -18.706124      -509.0195
   1   2.0000     -18.695066      -508.7186
   2   2.0000      -9.979916      -271.5673
   3   2.0000      -9.937122      -270.4028
   4   2.0000      -9.923486      -270.0318
   5   2.0000      -9.915164      -269.8053
   6   2.0000      -0.918333       -24.9891
   7   2.0000      -0.817048       -22.2330
   8   2.0000      -0.740555       -20.1515
   9   2.0000      -0.645054       -17.5528
  10   2.0000      -0.549361       -14.9489
  11   2.0000      -0.435608       -11.8535
  12   2.0000      -0.403404       -10.9772
  13   2.0000      -0.394182       -10.7262
  14   2.0000      -0.366280        -9.9670
  15   2.0000      -0.334865        -9.1121
  16   2.0000      -0.322555        -8.7772
  17   2.0000      -0.312066        -8.4917
  18   2.0000      -0.291526        -7.9328
  19   2.0000      -0.279720        -7.6116
  20   2.0000      -0.267827        -7.2879
  21   2.0000      -0.155723        -4.2375
  22   2.0000      -0.146461        -3.9854
  23   2.0000      -0.134503        -3.6600
  24   0.0000       0.197494         5.3741
  25   0.0000       0.222762         6.0617
  26   0.0000       0.233730         6.3601
  27   0.0000       0.245548         6.6817
  28   0.0000       0.277610         7.5541

MULLIKEN ATOMIC CHARGES
-----------------------
   0 C :    0.981901
   1 C :   -0.159350
   2 C :    0.139829
   3 C :    0.140694
   4 H :   -0.021776
   5 H :   -0.093563
   6 O :   -0.501079
   7 O :   -0.622226
   8 H :   -0.180036
   9 H :   -0.141024
  10 H :   -0.151547
  11 H :   -0.252705
  12 H :   -0.139117
Sum of atomic charges:   -1.0000000

LOEWDIN ATOMIC CHARGES
----------------------
   0 C :    0.090402
   1 C :   -0.105538
   2 C :   -0.007615
   3 C :   -0.334065
   4 H :    0.019642
   5 H :    0.004587
   6 O :   -0.281565
   7 O :   -0.310069
   8 H :    0.022268
   9 H :    0.001179
  10 H :   -0.024059
  11 H :   -0.040105
  12 H :   -0.035061

  Mayer bond orders larger than 0.100000
B(  0-C ,  1-C ) :   1.2671 B(  0-C ,  8-H ) :   0.1155 B(  0-C , 10-H ) :   0.7232
B(  0-C , 11-H ) :   0.7737 B(  0-C , 12-H ) :   0.6808 B(  1-C ,  2-C ) :   1.2051
B(  1-C ,  4-H ) :   0.1420 B(  1-C ,  5-H ) :   0.1441 B(  1-C ,  8-H ) :   0.8960
B(  1-C ,  9-H ) :   0.8128 B(  1-C , 10-H ) :   0.2265 B(  1-C , 11-H ) :   0.2480
B(  1-C , 12-H ) :   0.2620 B(  2-C ,  3-C ) :   0.9986 B(  2-C ,  4-H ) :   0.8125
B(  2-C ,  5-H ) :   0.8993 B(  2-C ,  8-H ) :   0.1446 B(  2-C ,  9-H ) :   0.1394
B(  3-C ,  5-H ) :   0.1570 B(  3-C ,  6-O ) :   1.6729 B(  3-C ,  7-O ) :   1.5819

FINAL SINGLE POINT ENERGY      -306.228886084255

DIPOLE MOMENT
-------------
                                X             Y             Z
Electronic contribution:     -7.16688       1.47569       3.07912
Nuclear contribution   :      9.31936      -1.53308      -4.48293
                        -----------------------------------------
Total Dipole Moment    :      2.15248      -0.05738      -1.40382
                        -----------------------------------------
Magnitude (a.u.)       :      2.57044
Magnitude (Debye)      :      6.53354

Rotational constants in cm-1:     0.250458     0.077448     0.063252
Rotational constants in MHz :  7508.538874  2321.842942  1896.252250

                             ****ORCA TERMINATED NORMALLY****
TOTAL RUN TIME: 0 days 0 hours 0 minutes 21 seconds 378 msec
