                         Program Version 5.0.0 -  RELEASE  -
|  1> !LC-BLYP RIJCOSX def2-SVPD def2/J TightSCF
|  2> *xyz 1 1
|  3> C          0.64866        1.00359       -3.64560
|  4> N          0.28128        0.67645       -2.24018
|  5> C          0.13297        2.38587       -4.02462
|  6> C         -1.36646        2.47911       -4.31393
|  7> H          0.39079       -0.31925       -2.02649
|  8> H         -0.69269        0.99010       -2.13812
|  9> H          0.85421        1.21221       -1.57528
| 10> H          0.19099        0.23965       -4.27575
| 11> H          1.73157        0.93173       -3.75075
| 12> H          0.41484        3.10285       -3.24517
| 13> H          0.68317        2.68756       -4.91972
| 14> H         -1.62719        1.77449       -5.07580
| 15> H         -1.60483        3.46796       -4.64597
| 16> H         -1.91603        2.26007       -3.42236
| 17> *
| 18> %MaxCore 64000
| 19>
| 20> %pal nprocs 4
| 21> end
| 22>
| 23> %scf
| 24>   MaxIter 150
| 25> end
| 26>
| 27>
| 28>                          ****END OF INPUT****

CARTESIAN COORDINATES (ANGSTROEM)
---------------------------------
  C      0.648660    1.003590   -3.645600
  N      0.281280    0.676450   -2.240180
  C      0.132970    2.385870   -4.024620
  C     -1.366460    2.479110   -4.313930
  H      0.390790   -0.319250   -2.026490
  H     -0.692690    0.990100   -2.138120
  H      0.854210    1.212210   -1.575280
  H      0.190990    0.239650   -4.275750
  H      1.731570    0.931730   -3.750750
  H      0.414840    3.102850   -3.245170
  H      0.683170    2.687560   -4.919720
  H     -1.627190    1.774490   -5.075800
  H     -1.604830    3.467960   -4.645970
  H     -1.916030    2.260070   -3.422360

 Total Charge           Charge          ....    1
 Multiplicity           Mult            ....    1
 Number of Electrons    NEL             ....   34
 Basis Dimension        Dim             ....  160

ORBITAL ENERGIES
----------------

  NO   OCC          E(Eh)            E(eV)
   0   2.0000     -14.515763      -394.9940
   1   2.0000     -10.331910      -281.1456
   2   2.0000     -10.265069      -279.3267
   3   2.0000     -10.231794      -278.4213
   4   2.0000      -1.304975       -35.5102
   5   2.0000      -1.077417       -29.3180
   6   2.0000      -0.986759       -26.8511
   7   2.0000      -0.910520       -24.7765
   8   2.0000      -0.902005       -24.5448
   9   2.0000      -0.870932       -23.6993
  10   2.0000      -0.794085       -21.6081
  11   2.0000      -0.733312       -19.9544
  12   2.0000      -0.713386       -19.4122
  13   2.0000      -0.688494       -18.7349
  14   2.0000      -0.628962       -17.1149
  15   2.0000      -0.617598       -16.8057
  16   2.0000      -0.612601       -16.6697
  17   0.0000      -0.126698        -3.4476
  18   0.0000      -0.069131        -1.8812
  19   0.0000      -0.066826        -1.8184
  20   0.0000      -0.058330        -1.5872
  21   0.0000      -0.030321        -0.8251

MULLIKEN ATOMIC CHARGES
-----------------------
   0 C :    0.724443
   1 N :   -0.664801
   2 C :   -0.131367
   3 C :    1.034710
   4 H :    0.293841
   5 H :    0.343461
   6 H :    0.388523
   7 H :   -0.109398
   8 H :   -0.191371
   9 H :   -0.128189
  10 H :   -0.111230
  11 H :   -0.058222
  12 H :   -0.106108
  13 H :   -0.284291
Sum of atomic charges:    1.0000000

LOEWDIN ATOMIC CHARGES
----------------------
   0 C :    0.069627
   1 N :    0.336806
   2 C :   -0.061134
   3 C :    0.142917
   4 H :    0.111143
   5 H :    0.086089
   6 H :    0.113111
   7 H :    0.058719
   8 H :    0.057732
   9 H :    0.040082
  10 H :    0.049571
  11 H :    0.003673
  12 H :    0.012017
  13 H :   -0.020354

  Mayer bond orders larger than 0.100000
B(  0-C ,  1-N ) :   0.8232 B(  0-C ,  2-C ) :   1.1912 B(  0-C ,  7-H ) :   0.8550
B(  0-C ,  8-H ) :   0.8514 B(  0-C , 10-H ) :   0.1301 B(  1-N ,  4-H ) :   0.8259
B(  1-N ,  5-H ) :   0.7491 B(  1-N ,  6-H ) :   0.7664 B(  1-N ,  8-H ) :   0.1382
B(  2-C ,  3-C ) :   1.2585 B(  2-C ,  9-H ) :   0.9152 B(  2-C , 10-H ) :   0.8733
B(  2-C , 11-H ) :   0.2065 B(  2-C , 12-H ) :   0.2611 B(  2-C , 13-H ) :   0.2110
B(  3-C , 11-H ) :   0.7259 B(  3-C , 12-H ) :   0.7176 B(  3-C , 13-H ) :   0.7313
B( 11-H , 13-H ) :   0.1065

FINAL SINGLE POINT ENERGY      -174.213969681987

DIPOLE MOMENT
-------------
                                X             Y             Z
Electronic contribution:      1.31943      -1.47264       1.58959
Nuclear contribution   :     -0.74670       0.28200      -0.02386
                        -----------------------------------------
Total Dipole Moment    :      0.57273      -1.19065       1.56573
                        -----------------------------------------
Magnitude (a.u.)       :      2.04870
Magnitude (Debye)      :      5.20738

Rotational constants in cm-1:     0.472563     0.149855     0.132807
Rotational constants in MHz : 14167.078489  4492.544970  3981.441276

                             ****ORCA TERMINATED NORMALLY****
TOTAL RUN TIME: 0 days 0 hours 0 minutes 14 seconds 5 msec
