                         Program Version 5.0.0 -  RELEASE  -
|  1> !LC-BLYP RIJCOSX def2-SVPD def2/J TightSCF xyzfile
|  2>
|  3> *xyzfile 0 1 B.xyz
|  4>
|  5> %MaxCore 64000
|  6>
|  7> %pal nprocs 4
|  8> end
|  9>
| 10> %scf
| 11>   MaxIter 150
| 12> end
| 13>
| 14>
| 15>                          ****END OF INPUT****

CARTESIAN COORDINATES (ANGSTROEM)
---------------------------------
  C      0.648656    1.003595   -3.645601
  N      0.281280    0.676454   -2.240179
  C      0.132968    2.385869   -4.024618
  C     -1.366462    2.479106   -4.313932
  C     -2.357732    2.306858   -3.136753
  H     -1.636802    1.727095   -5.063993
  H     -1.582347    3.445605   -4.768687
  H      0.390790   -0.319253   -2.026495
  H     -0.692686    0.990104   -2.138123
  H      0.854206    1.212214   -1.575279
  O     -3.443763    2.846518   -3.252744
  O     -1.970922    1.583042   -2.151229
  H      0.190993    0.239655   -4.275752
  H      1.731572    0.931729   -3.750751
  H      0.414839    3.102847   -3.245165
  H      0.683167    2.687560   -4.919721

 Total Charge           Charge          ....    0
 Multiplicity           Mult            ....    1
 Number of Electrons    NEL             ....   56
 Basis Dimension        Dim             ....  218

ORBITAL ENERGIES
----------------

  NO   OCC          E(Eh)            E(eV)
   0   2.0000     -18.886654      -513.9320
   1   2.0000     -18.868244      -513.4310
   2   2.0000     -14.297996      -389.0683
   3   2.0000     -10.175512      -276.8898
   4   2.0000     -10.154027      -276.3051
   5   2.0000     -10.116048      -275.2717
   6   2.0000     -10.078426      -274.2479
   7   2.0000      -1.116165       -30.3724
   8   2.0000      -1.089164       -29.6377
   9   2.0000      -1.004289       -27.3281
  10   2.0000      -0.918226       -24.9862
  11   2.0000      -0.822987       -22.3946
  12   2.0000      -0.745681       -20.2910
  13   2.0000      -0.714020       -19.4295
  14   2.0000      -0.700888       -19.0721
  15   2.0000      -0.631268       -17.1777
  16   2.0000      -0.588097       -16.0029
  17   2.0000      -0.587194       -15.9784
  18   2.0000      -0.544358       -14.8127
  19   2.0000      -0.524508       -14.2726
  20   2.0000      -0.495005       -13.4698
  21   2.0000      -0.490124       -13.3369
  22   2.0000      -0.481496       -13.1022
  23   2.0000      -0.461461       -12.5570
  24   2.0000      -0.439909       -11.9705
  25   2.0000      -0.337085        -9.1726
  26   2.0000      -0.335237        -9.1223
  27   2.0000      -0.305213        -8.3053
  28   0.0000       0.025695         0.6992
  29   0.0000       0.064269         1.7489
  30   0.0000       0.068606         1.8669
  31   0.0000       0.090949         2.4748
  32   0.0000       0.109750         2.9864

MULLIKEN ATOMIC CHARGES
-----------------------
   0 C :    0.800970
   1 N :   -0.131619
   2 C :    0.283038
   3 C :    0.192471
   4 C :    0.152015
   5 H :    0.038897
   6 H :   -0.070379
   7 H :    0.242044
   8 H :   -0.371035
   9 H :    0.393298
  10 O :   -0.379743
  11 O :   -0.465365
  12 H :   -0.095807
  13 H :   -0.316017
  14 H :   -0.140991
  15 H :   -0.131777
Sum of atomic charges:   -0.0000000

LOEWDIN ATOMIC CHARGES
----------------------
   0 C :    0.067762
   1 N :    0.318207
   2 C :   -0.028086
   3 C :    0.030835
   4 C :   -0.240341
   5 H :    0.037675
   6 H :    0.030158
   7 H :    0.091201
   8 H :   -0.164835
   9 H :    0.096732
  10 O :   -0.186054
  11 O :   -0.206737
  12 H :    0.048538
  13 H :    0.034044
  14 H :    0.039241
  15 H :    0.031662

  Mayer bond orders larger than 0.100000
B(  0-C ,  1-N ) :   0.8864 B(  0-C ,  2-C ) :   1.1657 B(  0-C , 12-H ) :   0.8096
B(  0-C , 13-H ) :   0.7831 B(  0-C , 15-H ) :   0.1167 B(  1-N ,  7-H ) :   0.8631
B(  1-N ,  8-H ) :   1.2061 B(  1-N ,  9-H ) :   0.7973 B(  1-N , 12-H ) :   0.1108
B(  1-N , 13-H ) :   0.1586 B(  2-C ,  3-C ) :   1.1957 B(  2-C ,  5-H ) :   0.1336
B(  2-C ,  6-H ) :   0.1612 B(  2-C , 13-H ) :   0.1374 B(  2-C , 14-H ) :   0.8438
B(  2-C , 15-H ) :   0.7856 B(  3-C ,  4-C ) :   1.0289 B(  3-C ,  5-H ) :   0.7761
B(  3-C ,  6-H ) :   0.8731 B(  3-C , 14-H ) :   0.1171 B(  3-C , 15-H ) :   0.1130
B(  4-C ,  6-H ) :   0.1414 B(  4-C , 10-O ) :   1.7626 B(  4-C , 11-O ) :   1.3752
B(  8-H , 11-O ) :   0.4694 B( 10-O , 11-O ) :   0.1357 B( 12-H , 13-H ) :  -0.1309

FINAL SINGLE POINT ENERGY      -361.959224609003

DIPOLE MOMENT
-------------
                                X             Y             Z
Electronic contribution:     -5.73658       0.92258       2.49901
Nuclear contribution   :      9.92875      -2.62114      -2.63866
                        -----------------------------------------
Total Dipole Moment    :      4.19217      -1.69857      -0.13965
                        -----------------------------------------
Magnitude (a.u.)       :      4.52537
Magnitude (Debye)      :     11.50257

Rotational constants in cm-1:     0.159108     0.062474     0.047603
Rotational constants in MHz :  4769.938632  1872.932224  1427.103830

                             ****ORCA TERMINATED NORMALLY****
TOTAL RUN TIME: 0 days 0 hours 0 minutes 37 seconds 22 msec
