                         Program Version 5.0.0 -  RELEASE  -
|  1> !LC-BLYP RIJCOSX def2-SVPD def2/J TightSCF
|  2> *xyz 0 1
|  3> C          0.64866        1.00359       -3.64560
|  4> C          0.13297        2.38587       -4.02462
|  5> C         -1.36646        2.47911       -4.31393
|  6> C         -2.35773        2.30686       -3.13675
|  7> H         -1.63680        1.72709       -5.06399
|  8> H         -1.58235        3.44561       -4.76869
|  9> F         -3.44376        2.84652       -3.25274
| 10> O         -1.97092        1.58304       -2.15123
| 11> H          0.41484        3.10285       -3.24517
| 12> H          0.68317        2.68756       -4.91972
| 13> H          0.37534        0.30051       -4.40446
| 14> H          0.21856        0.70606       -2.71212
| 15> H          1.71431        1.03324       -3.55398
| 16> *
| 17> %MaxCore 64000
| 18>
| 19> %pal nprocs 4
| 20> end
| 21>
| 22> %scf
| 23>   MaxIter 150
| 24> end
| 25>
| 26>
| 27>                          ****END OF INPUT****

CARTESIAN COORDINATES (ANGSTROEM)
---------------------------------
  C      0.648660    1.003590   -3.645600
  C      0.132970    2.385870   -4.024620
  C     -1.366460    2.479110   -4.313930
  C     -2.357730    2.306860   -3.136750
  H     -1.636800    1.727090   -5.063990
  H     -1.582350    3.445610   -4.768690
  F     -3.443760    2.846520   -3.252740
  O     -1.970920    1.583040   -2.151230
  H      0.414840    3.102850   -3.245170
  H      0.683170    2.687560   -4.919720
  H      0.375340    0.300510   -4.404460
  H      0.218560    0.706060   -2.712120
  H      1.714310    1.033240   -3.553980

 Total Charge           Charge          ....    0
 Multiplicity           Mult            ....    1
 Number of Electrons    NEL             ....   48
 Basis Dimension        Dim             ....  182

ORBITAL ENERGIES
----------------

  NO   OCC          E(Eh)            E(eV)
   0   2.0000     -24.564201      -668.4259
   1   2.0000     -18.965468      -516.0766
   2   2.0000     -10.276942      -279.6498
   3   2.0000     -10.119924      -275.3771
   4   2.0000     -10.097080      -274.7555
   5   2.0000     -10.065341      -273.8919
   6   2.0000      -1.419036       -38.6139
   7   2.0000      -1.106422       -30.1073
   8   2.0000      -0.914431       -24.8829
   9   2.0000      -0.835645       -22.7390
  10   2.0000      -0.776155       -21.1202
  11   2.0000      -0.719362       -19.5748
  12   2.0000      -0.678842       -18.4722
  13   2.0000      -0.651304       -17.7229
  14   2.0000      -0.612136       -16.6571
  15   2.0000      -0.569057       -15.4848
  16   2.0000      -0.560045       -15.2396
  17   2.0000      -0.524849       -14.2819
  18   2.0000      -0.491726       -13.3805
  19   2.0000      -0.463919       -12.6239
  20   2.0000      -0.457425       -12.4472
  21   2.0000      -0.445556       -12.1242
  22   2.0000      -0.441717       -12.0197
  23   2.0000      -0.387586       -10.5467
  24   0.0000       0.047067         1.2808
  25   0.0000       0.066540         1.8107
  26   0.0000       0.089180         2.4267
  27   0.0000       0.102789         2.7970
  28   0.0000       0.106218         2.8903

MULLIKEN ATOMIC CHARGES
-----------------------
   0 C :    1.015976
   1 C :   -0.148607
   2 C :    0.110325
   3 C :    0.472426
   4 H :    0.049309
   5 H :   -0.060258
   6 F :   -0.238561
   7 O :   -0.382771
   8 H :   -0.163814
   9 H :   -0.126845
  10 H :   -0.138866
  11 H :   -0.269637
  12 H :   -0.118679
Sum of atomic charges:    0.0000000

LOEWDIN ATOMIC CHARGES
----------------------
   0 C :    0.114768
   1 C :   -0.078060
   2 C :    0.031017
   3 C :   -0.042507
   4 H :    0.047011
   5 H :    0.027706
   6 F :    0.016750
   7 O :   -0.123930
   8 H :    0.035175
   9 H :    0.026433
  10 H :   -0.011242
  11 H :   -0.030843
  12 H :   -0.012278

  Mayer bond orders larger than 0.100000
B(  0-C ,  1-C ) :   1.2877 B(  0-C ,  8-H ) :   0.1134 B(  0-C , 10-H ) :   0.7128
B(  0-C , 11-H ) :   0.7667 B(  0-C , 12-H ) :   0.6850 B(  1-C ,  2-C ) :   1.2570
B(  1-C ,  4-H ) :   0.1365 B(  1-C ,  5-H ) :   0.1497 B(  1-C ,  8-H ) :   0.8984
B(  1-C ,  9-H ) :   0.8179 B(  1-C , 10-H ) :   0.2212 B(  1-C , 11-H ) :   0.2400
B(  1-C , 12-H ) :   0.2556 B(  2-C ,  3-C ) :   1.0671 B(  2-C ,  4-H ) :   0.7948
B(  2-C ,  5-H ) :   0.8643 B(  2-C ,  8-H ) :   0.1339 B(  2-C ,  9-H ) :   0.1324
B(  3-C ,  5-H ) :   0.1154 B(  3-C ,  6-F ) :   0.9218 B(  3-C ,  7-O ) :   1.9234
B(  6-F ,  7-O ) :   0.1122 B( 10-H , 11-H ) :   0.1020

FINAL SINGLE POINT ENERGY      -330.733944493270

DIPOLE MOMENT
-------------
                                X             Y             Z
Electronic contribution:    -11.45044       2.91680       3.59581
Nuclear contribution   :     11.62992      -2.38586      -4.66016
                        -----------------------------------------
Total Dipole Moment    :      0.17949       0.53093      -1.06435
                        -----------------------------------------
Magnitude (a.u.)       :      1.20289
Magnitude (Debye)      :      3.05751

Rotational constants in cm-1:     0.249088     0.072929     0.060128
Rotational constants in MHz :  7467.482637  2186.350475  1802.579568

                             ****ORCA TERMINATED NORMALLY****
TOTAL RUN TIME: 0 days 0 hours 0 minutes 21 seconds 46 msec
