                         Program Version 5.0.0 -  RELEASE  -
|  1> !LC-BLYP RIJCOSX def2-SVPD def2/J TightSCF
|  2> *xyz 0 1
|  3> C          0.64866        1.00359       -3.64560
|  4> C          0.28128        0.67645       -2.24018
|  5> C          0.13297        2.38587       -4.02462
|  6> C         -1.36646        2.47911       -4.31393
|  7> H          0.39079       -0.31925       -2.02649
|  8> H         -0.69269        0.99010       -2.13812
|  9> H          0.85421        1.21221       -1.57528
| 10> H          0.19099        0.23965       -4.27575
| 11> H          1.73157        0.93173       -3.75075
| 12> H          0.41484        3.10285       -3.24517
| 13> H          0.68317        2.68756       -4.91972
| 14> H         -1.62719        1.77449       -5.07580
| 15> H         -1.60483        3.46796       -4.64597
| 16> H         -1.91603        2.26007       -3.42236
| 17> *
| 18> %MaxCore 64000
| 19>
| 20> %pal nprocs 4
| 21> end
| 22>
| 23> %scf
| 24>   MaxIter 150
| 25> end
| 26>
| 27>
| 28>                          ****END OF INPUT****

CARTESIAN COORDINATES (ANGSTROEM)
---------------------------------
  C      0.648660    1.003590   -3.645600
  C      0.281280    0.676450   -2.240180
  C      0.132970    2.385870   -4.024620
  C     -1.366460    2.479110   -4.313930
  H      0.390790   -0.319250   -2.026490
  H     -0.692690    0.990100   -2.138120
  H      0.854210    1.212210   -1.575280
  H      0.190990    0.239650   -4.275750
  H      1.731570    0.931730   -3.750750
  H      0.414840    3.102850   -3.245170
  H      0.683170    2.687560   -4.919720
  H     -1.627190    1.774490   -5.075800
  H     -1.604830    3.467960   -4.645970
  H     -1.916030    2.260070   -3.422360

 Total Charge           Charge          ....    0
 Multiplicity           Mult            ....    1
 Number of Electrons    NEL             ....   34
 Basis Dimension        Dim             ....  160

ORBITAL ENERGIES
----------------

  NO   OCC          E(Eh)            E(eV)
   0   2.0000     -10.074518      -274.1416
   1   2.0000     -10.070025      -274.0193
   2   2.0000     -10.066538      -273.9244
   3   2.0000     -10.046350      -273.3751
   4   2.0000      -0.908280       -24.7155
   5   2.0000      -0.832997       -22.6670
   6   2.0000      -0.745674       -20.2908
   7   2.0000      -0.671899       -18.2833
   8   2.0000      -0.578089       -15.7306
   9   2.0000      -0.565144       -15.3783
  10   2.0000      -0.531602       -14.4656
  11   2.0000      -0.495860       -13.4930
  12   2.0000      -0.480116       -13.0646
  13   2.0000      -0.462917       -12.5966
  14   2.0000      -0.424363       -11.5475
  15   2.0000      -0.421720       -11.4756
  16   2.0000      -0.410742       -11.1769
  17   0.0000       0.079094         2.1523
  18   0.0000       0.102023         2.7762
  19   0.0000       0.105346         2.8666
  20   0.0000       0.111262         3.0276
  21   0.0000       0.158471         4.3122

MULLIKEN ATOMIC CHARGES
-----------------------
   0 C :   -0.058061
   1 C :    1.425043
   2 C :   -0.180461
   3 C :    1.005251
   4 H :   -0.321242
   5 H :   -0.549772
   6 H :   -0.152616
   7 H :   -0.116887
   8 H :   -0.245907
   9 H :   -0.135328
  10 H :   -0.188717
  11 H :   -0.064656
  12 H :   -0.132321
  13 H :   -0.284325
Sum of atomic charges:    0.0000000

LOEWDIN ATOMIC CHARGES
----------------------
   0 C :   -0.090790
   1 C :    0.114439
   2 C :   -0.095234
   3 C :    0.115492
   4 H :   -0.027417
   5 H :   -0.042763
   6 H :   -0.022935
   7 H :    0.028065
   8 H :    0.025894
   9 H :    0.029399
  10 H :    0.018526
  11 H :   -0.012554
  12 H :   -0.014247
  13 H :   -0.025875

  Mayer bond orders larger than 0.100000
B(  0-C ,  1-C ) :   1.1932 B(  0-C ,  2-C ) :   1.2221 B(  0-C ,  4-H ) :   0.2550
B(  0-C ,  5-H ) :   0.3298 B(  0-C ,  6-H ) :   0.2536 B(  0-C ,  7-H ) :   0.8463
B(  0-C ,  8-H ) :   0.8936 B(  0-C ,  9-H ) :   0.1156 B(  0-C , 10-H ) :   0.1112
B(  1-C ,  4-H ) :   0.5575 B(  1-C ,  5-H ) :   0.4238 B(  1-C ,  6-H ) :   0.5584
B(  1-C ,  7-H ) :   0.1151 B(  2-C ,  3-C ) :   1.2407 B(  2-C ,  8-H ) :   0.1249
B(  2-C ,  9-H ) :   0.8904 B(  2-C , 10-H ) :   0.9091 B(  2-C , 11-H ) :   0.2304
B(  2-C , 12-H ) :   0.2635 B(  2-C , 13-H ) :   0.2289 B(  3-C , 11-H ) :   0.7211
B(  3-C , 12-H ) :   0.6894 B(  3-C , 13-H ) :   0.7555 B(  5-H ,  6-H ) :   0.1907

FINAL SINGLE POINT ENERGY      -157.817859944111

DIPOLE MOMENT
-------------
                                X             Y             Z
Electronic contribution:      0.65653       0.02257      -0.39003
Nuclear contribution   :     -0.63302      -0.01177       0.37643
                        -----------------------------------------
Total Dipole Moment    :      0.02351       0.01080      -0.01360
                        -----------------------------------------
Magnitude (a.u.)       :      0.02923
Magnitude (Debye)      :      0.07429

Rotational constants in cm-1:     0.480601     0.156500     0.138605
Rotational constants in MHz : 14408.061205  4691.756081  4155.280646

                             ****ORCA TERMINATED NORMALLY****
TOTAL RUN TIME: 0 days 0 hours 0 minutes 12 seconds 28 msec
