                         Program Version 5.0.0 -  RELEASE  -
|  1> !LC-BLYP RIJCOSX def2-SVPD def2/J TightSCF
|  2> *xyz 0 1
|  3> C          0.64866        1.00359       -3.64560
|  4> C          0.13297        2.38587       -4.02462
|  5> C         -1.36646        2.47911       -4.31393
|  6> C         -2.35773        2.30686       -3.13675
|  7> H         -1.63680        1.72709       -5.06399
|  8> H         -1.58235        3.44561       -4.76869
|  9> O         -3.44376        2.84652       -3.25274
| 10> F         -1.97092        1.58304       -2.15123
| 11> H          0.41484        3.10285       -3.24517
| 12> H          0.68317        2.68756       -4.91972
| 13> H          0.37534        0.30051       -4.40446
| 14> H          0.21856        0.70606       -2.71212
| 15> H          1.71431        1.03324       -3.55398
| 16> *
| 17> %MaxCore 64000
| 18>
| 19> %pal nprocs 4
| 20> end
| 21>
| 22> %scf
| 23>   MaxIter 150
| 24> end
| 25>
| 26>
| 27>                          ****END OF INPUT****

CARTESIAN COORDINATES (ANGSTROEM)
---------------------------------
  C      0.648660    1.003590   -3.645600
  C      0.132970    2.385870   -4.024620
  C     -1.366460    2.479110   -4.313930
  C     -2.357730    2.306860   -3.136750
  H     -1.636800    1.727090   -5.063990
  H     -1.582350    3.445610   -4.768690
  O     -3.443760    2.846520   -3.252740
  F     -1.970920    1.583040   -2.151230
  H      0.414840    3.102850   -3.245170
  H      0.683170    2.687560   -4.919720
  H      0.375340    0.300510   -4.404460
  H      0.218560    0.706060   -2.712120
  H      1.714310    1.033240   -3.553980

 Total Charge           Charge          ....    0
 Multiplicity           Mult            ....    1
 Number of Electrons    NEL             ....   48
 Basis Dimension        Dim             ....  182

ORBITAL ENERGIES
----------------

  NO   OCC          E(Eh)            E(eV)
   0   2.0000     -24.540303      -667.7756
   1   2.0000     -18.974959      -516.3349
   2   2.0000     -10.270655      -279.4787
   3   2.0000     -10.117961      -275.3237
   4   2.0000     -10.101814      -274.8843
   5   2.0000     -10.079444      -274.2756
   6   2.0000      -1.371127       -37.3102
   7   2.0000      -1.144006       -31.1300
   8   2.0000      -0.920281       -25.0421
   9   2.0000      -0.833349       -22.6766
  10   2.0000      -0.756913       -20.5967
  11   2.0000      -0.722784       -19.6680
  12   2.0000      -0.655289       -17.8313
  13   2.0000      -0.640785       -17.4366
  14   2.0000      -0.604078       -16.4378
  15   2.0000      -0.566593       -15.4178
  16   2.0000      -0.563545       -15.3348
  17   2.0000      -0.532949       -14.5023
  18   2.0000      -0.513564       -13.9748
  19   2.0000      -0.480894       -13.0858
  20   2.0000      -0.471268       -12.8239
  21   2.0000      -0.449423       -12.2294
  22   2.0000      -0.447327       -12.1724
  23   2.0000      -0.399995       -10.8844
  24   0.0000       0.051307         1.3961
  25   0.0000       0.067713         1.8426
  26   0.0000       0.092317         2.5121
  27   0.0000       0.095920         2.6101
  28   0.0000       0.103540         2.8175

MULLIKEN ATOMIC CHARGES
-----------------------
   0 C :    1.017201
   1 C :   -0.113054
   2 C :    0.110334
   3 C :    0.449977
   4 H :    0.036498
   5 H :   -0.058535
   6 O :   -0.273643
   7 F :   -0.338438
   8 H :   -0.176318
   9 H :   -0.120526
  10 H :   -0.133955
  11 H :   -0.283628
  12 H :   -0.115911
Sum of atomic charges:    0.0000000

LOEWDIN ATOMIC CHARGES
----------------------
   0 C :    0.111281
   1 C :   -0.087618
   2 C :    0.040388
   3 C :   -0.042850
   4 H :    0.048167
   5 H :    0.037661
   6 O :   -0.090844
   7 F :   -0.026503
   8 H :    0.032574
   9 H :    0.027212
  10 H :   -0.010167
  11 H :   -0.028960
  12 H :   -0.010341

  Mayer bond orders larger than 0.100000
B(  0-C ,  1-C ) :   1.2785 B(  0-C ,  8-H ) :   0.1058 B(  0-C , 10-H ) :   0.7196
B(  0-C , 11-H ) :   0.7570 B(  0-C , 12-H ) :   0.6958 B(  1-C ,  2-C ) :   1.2342
B(  1-C ,  4-H ) :   0.1425 B(  1-C ,  5-H ) :   0.1387 B(  1-C ,  8-H ) :   0.8927
B(  1-C ,  9-H ) :   0.8065 B(  1-C , 10-H ) :   0.2235 B(  1-C , 11-H ) :   0.2352
B(  1-C , 12-H ) :   0.2550 B(  2-C ,  3-C ) :   1.0471 B(  2-C ,  4-H ) :   0.7908
B(  2-C ,  5-H ) :   0.8936 B(  2-C ,  8-H ) :   0.1417 B(  2-C ,  9-H ) :   0.1481
B(  3-C ,  5-H ) :   0.1386 B(  3-C ,  6-O ) :   2.0120 B(  3-C ,  7-F ) :   0.8281
B(  6-O ,  7-F ) :   0.1219 B( 10-H , 11-H ) :   0.1025

FINAL SINGLE POINT ENERGY      -330.751288387246

DIPOLE MOMENT
-------------
                                X             Y             Z
Electronic contribution:     -8.86393       0.75698       5.43015
Nuclear contribution   :      9.96624      -0.95867      -5.90440
                        -----------------------------------------
Total Dipole Moment    :      1.10232      -0.20169      -0.47424
                        -----------------------------------------
Magnitude (a.u.)       :      1.21684
Magnitude (Debye)      :      3.09295

Rotational constants in cm-1:     0.233484     0.076940     0.061803
Rotational constants in MHz :  6999.682494  2306.588565  1852.797552

                             ****ORCA TERMINATED NORMALLY****
TOTAL RUN TIME: 0 days 0 hours 0 minutes 19 seconds 901 msec
