                         Program Version 5.0.0 -  RELEASE  -
|  1> !LC-BLYP RIJCOSX def2-TZVPD def2/J TightSCF
|  2> *xyz -1 1
|  3> C         -7.33044       -2.67899       -3.20681
|  4> S         -6.01966       -2.92697       -4.41913
|  5> O         -5.64583       -1.58838       -4.91931
|  6> O         -4.88196       -3.50370       -3.66724
|  7> O         -6.54927       -3.80515       -5.42507
|  8> C         -7.46900       -1.24615       -2.71383
|  9> H         -7.11825       -3.37982       -2.39805
| 10> H         -8.24184       -3.00474       -3.70651
| 11> H         -7.67580       -0.60214       -3.54292
| 12> H         -6.55749       -0.94096       -2.24382
| 13> H         -8.27114       -1.18777       -2.00810
| 14> *
| 15> %MaxCore 64000
| 16>
| 17> %pal nprocs 4
| 18> end
| 19>
| 20> %scf
| 21>   MaxIter 150
| 22> end
| 23>
| 24>
| 25>                          ****END OF INPUT****

CARTESIAN COORDINATES (ANGSTROEM)
---------------------------------
  C     -7.330440   -2.678990   -3.206810
  S     -6.019660   -2.926970   -4.419130
  O     -5.645830   -1.588380   -4.919310
  O     -4.881960   -3.503700   -3.667240
  O     -6.549270   -3.805150   -5.425070
  C     -7.469000   -1.246150   -2.713830
  H     -7.118250   -3.379820   -2.398050
  H     -8.241840   -3.004740   -3.706510
  H     -7.675800   -0.602140   -3.542920
  H     -6.557490   -0.940960   -2.243820
  H     -8.271140   -1.187770   -2.008100

 Total Charge           Charge          ....   -1
 Multiplicity           Mult            ....    1
 Number of Electrons    NEL             ....   58
 Basis Dimension        Dim             ....  285

ORBITAL ENERGIES
----------------

  NO   OCC          E(Eh)            E(eV)
   0   2.0000     -88.260823     -2401.6991
   1   2.0000     -18.723701      -509.4978
   2   2.0000     -18.712822      -509.2018
   3   2.0000     -18.709570      -509.1133
   4   2.0000      -9.934480      -270.3309
   5   2.0000      -9.925305      -270.0813
   6   2.0000      -7.802985      -212.3300
   7   2.0000      -5.831040      -158.6707
   8   2.0000      -5.830051      -158.6438
   9   2.0000      -5.829775      -158.6362
  10   2.0000      -1.019555       -27.7435
  11   2.0000      -0.883683       -24.0462
  12   2.0000      -0.861785       -23.4504
  13   2.0000      -0.747250       -20.3337
  14   2.0000      -0.619036       -16.8448
  15   2.0000      -0.489444       -13.3185
  16   2.0000      -0.429529       -11.6881
  17   2.0000      -0.421495       -11.4695
  18   2.0000      -0.381093       -10.3701
  19   2.0000      -0.361507        -9.8371
  20   2.0000      -0.358252        -9.7485
  21   2.0000      -0.330461        -8.9923
  22   2.0000      -0.320742        -8.7278
  23   2.0000      -0.253646        -6.9020
  24   2.0000      -0.252557        -6.8724
  25   2.0000      -0.214912        -5.8481
  26   2.0000      -0.208633        -5.6772
  27   2.0000      -0.199999        -5.4423
  28   2.0000      -0.161769        -4.4020
  29   0.0000       0.160408         4.3649
  30   0.0000       0.173910         4.7323
  31   0.0000       0.176699         4.8082
  32   0.0000       0.184548         5.0218
  33   0.0000       0.207493         5.6462

MULLIKEN ATOMIC CHARGES
-----------------------
   0 C :   -0.727421
   1 S :    1.106323
   2 O :   -0.696943
   3 O :   -0.703717
   4 O :   -0.657616
   5 C :   -1.255463
   6 H :    0.390726
   7 H :    0.389955
   8 H :    0.370111
   9 H :    0.351627
  10 H :    0.432418
Sum of atomic charges:   -1.0000000

LOEWDIN ATOMIC CHARGES
----------------------
   0 C :   -0.334335
   1 S :    0.327026
   2 O :   -0.398185
   3 O :   -0.411216
   4 O :   -0.376097
   5 C :   -0.165103
   6 H :    0.086903
   7 H :    0.082510
   8 H :    0.062625
   9 H :    0.070258
  10 H :    0.055616

  Mayer bond orders larger than 0.100000
B(  0-C ,  1-S ) :   0.9524 B(  0-C ,  3-O ) :   0.1242 B(  0-C ,  4-O ) :   0.1163
B(  0-C ,  5-C ) :   0.3861 B(  0-C ,  6-H ) :   0.9160 B(  0-C ,  7-H ) :   0.9084
B(  1-S ,  2-O ) :   1.4829 B(  1-S ,  3-O ) :   1.4878 B(  1-S ,  4-O ) :   1.5168
B(  5-C ,  8-H ) :   0.9463 B(  5-C ,  9-H ) :   0.9572 B(  5-C , 10-H ) :   0.8508

FINAL SINGLE POINT ENERGY      -702.481341851558

DIPOLE MOMENT
-------------
                                X             Y             Z
Electronic contribution:      4.63972      -3.50169      -5.06512
Nuclear contribution   :     -6.18165       4.01759       6.33106
                        -----------------------------------------
Total Dipole Moment    :     -1.54193       0.51590       1.26594
                        -----------------------------------------
Magnitude (a.u.)       :      2.06066
Magnitude (Debye)      :      5.23778

Rotational constants in cm-1:     0.161711     0.082788     0.081165
Rotational constants in MHz :  4847.971521  2481.906910  2433.276832

                             ****ORCA TERMINATED NORMALLY****
TOTAL RUN TIME: 0 days 0 hours 0 minutes 48 seconds 964 msec
