                         Program Version 5.0.0 -  RELEASE  -
|  1> !LC-BLYP RIJCOSX def2-TZVPD def2/J TightSCF
|  2> *xyz 1 1
|  3> C         -2.16038       -1.36949       -3.46710
|  4> N         -3.03011       -1.91086       -4.54107
|  5> C         -2.04772        0.14658       -3.51177
|  6> H         -3.47744       -2.79151       -4.25710
|  7> H         -2.53801       -2.01786       -5.43808
|  8> H         -3.89159       -1.37604       -4.71437
|  9> H         -1.18444       -1.84400       -3.56639
| 10> H         -2.59819       -1.70838       -2.52848
| 11> H         -1.61525        0.44478       -4.44395
| 12> H         -1.42718        0.48198       -2.70720
| 13> H         -3.02145        0.57958       -3.41560
| 14> *
| 15> %MaxCore 64000
| 16>
| 17> %pal nprocs 4
| 18> end
| 19>
| 20> %scf
| 21>   MaxIter 150
| 22> end
| 23>
| 24>
| 25>                          ****END OF INPUT****

CARTESIAN COORDINATES (ANGSTROEM)
---------------------------------
  C     -2.160380   -1.369490   -3.467100
  N     -3.030110   -1.910860   -4.541070
  C     -2.047720    0.146580   -3.511770
  H     -3.477440   -2.791510   -4.257100
  H     -2.538010   -2.017860   -5.438080
  H     -3.891590   -1.376040   -4.714370
  H     -1.184440   -1.844000   -3.566390
  H     -2.598190   -1.708380   -2.528480
  H     -1.615250    0.444780   -4.443950
  H     -1.427180    0.481980   -2.707200
  H     -3.021450    0.579580   -3.415600

 Total Charge           Charge          ....    1
 Multiplicity           Mult            ....    1
 Number of Electrons    NEL             ....   26
 Basis Dimension        Dim             ....  183

ORBITAL ENERGIES
----------------

  NO   OCC          E(Eh)            E(eV)
   0   2.0000     -14.503143      -394.6506
   1   2.0000     -10.322087      -280.8783
   2   2.0000     -10.240460      -278.6571
   3   2.0000      -1.318379       -35.8749
   4   2.0000      -1.076577       -29.2952
   5   2.0000      -0.955338       -25.9961
   6   2.0000      -0.914091       -24.8737
   7   2.0000      -0.873990       -23.7825
   8   2.0000      -0.803430       -21.8624
   9   2.0000      -0.746699       -20.3187
  10   2.0000      -0.682578       -18.5739
  11   2.0000      -0.667536       -18.1646
  12   2.0000      -0.647971       -17.6322
  13   0.0000      -0.142739        -3.8841
  14   0.0000      -0.086030        -2.3410
  15   0.0000      -0.083761        -2.2793
  16   0.0000      -0.076266        -2.0753
  17   0.0000      -0.045415        -1.2358

MULLIKEN ATOMIC CHARGES
-----------------------
   0 C :   -0.459259
   1 N :   -0.412125
   2 C :   -1.347034
   3 H :    0.374906
   4 H :    0.369081
   5 H :    0.370075
   6 H :    0.403856
   7 H :    0.399182
   8 H :    0.434468
   9 H :    0.420785
  10 H :    0.446066
Sum of atomic charges:    1.0000000

LOEWDIN ATOMIC CHARGES
----------------------
   0 C :   -0.215720
   1 N :    0.175297
   2 C :   -0.066823
   3 H :    0.182549
   4 H :    0.187931
   5 H :    0.182123
   6 H :    0.142383
   7 H :    0.139877
   8 H :    0.088133
   9 H :    0.097193
  10 H :    0.087057

  Mayer bond orders larger than 0.100000
B(  0-C ,  1-N ) :   0.8357 B(  0-C ,  2-C ) :   0.4893 B(  0-C ,  6-H ) :   0.8899
B(  0-C ,  7-H ) :   0.8618 B(  1-N ,  3-H ) :   0.8661 B(  1-N ,  4-H ) :   0.8602
B(  1-N ,  5-H ) :   0.8557 B(  2-C ,  8-H ) :   0.8814 B(  2-C ,  9-H ) :   0.9100
B(  2-C , 10-H ) :   0.8414

FINAL SINGLE POINT ENERGY      -135.188732738619

DIPOLE MOMENT
-------------
                                X             Y             Z
Electronic contribution:     -0.64654      -1.48809      -0.76989
Nuclear contribution   :     -0.15215       0.37393      -0.04773
                        -----------------------------------------
Total Dipole Moment    :     -0.79869      -1.11415      -0.81762
                        -----------------------------------------
Magnitude (a.u.)       :      1.59617
Magnitude (Debye)      :      4.05713

Rotational constants in cm-1:     1.020762     0.277172     0.247319
Rotational constants in MHz : 30601.664035  8309.399682  7414.438136

                             ****ORCA TERMINATED NORMALLY****
TOTAL RUN TIME: 0 days 0 hours 0 minutes 19 seconds 198 msec
