                         Program Version 5.0.0 -  RELEASE  -
|  1> !LC-BLYP RIJCOSX def2-TZVPD def2/J TightSCF xyzfile
|  2>
|  3> *xyzfile 0 1 B.xyz
|  4>
|  5> %MaxCore 64000
|  6>
|  7> %pal nprocs 4
|  8> end
|  9>
| 10> %scf
| 11>   MaxIter 150
| 12> end
| 13>
| 14>
| 15>                          ****END OF INPUT****

CARTESIAN COORDINATES (ANGSTROEM)
---------------------------------
  C     -2.160376   -1.369486   -3.467104
  N     -3.030108   -1.910857   -4.541074
  C     -2.047717    0.146583   -3.511774
  C     -7.330440   -2.678991   -3.206811
  S     -6.019659   -2.926965   -4.419128
  H     -3.477443   -2.791513   -4.257096
  H     -2.538013   -2.017860   -5.438075
  H     -3.891589   -1.376039   -4.714365
  O     -5.645830   -1.588384   -4.919307
  O     -4.881961   -3.503697   -3.667235
  H     -1.184438   -1.843997   -3.566393
  H     -2.598195   -1.708376   -2.528477
  O     -6.549267   -3.805150   -5.425071
  C     -3.328755    0.875037   -3.103669
  H     -1.740034    0.452343   -4.517126
  H     -1.232611    0.434938   -2.842208
  C     -3.628487    0.771601   -1.609363
  H     -4.175106    0.490791   -3.682203
  H     -3.237812    1.928663   -3.381480
  C     -4.975718    1.361432   -1.190644
  H     -2.830700    1.276234   -1.054766
  H     -3.594312   -0.275838   -1.294603
  C     -6.184720    0.784347   -1.926464
  H     -4.956292    2.445725   -1.342200
  H     -5.097256    1.205252   -0.114136
  C     -6.286921   -0.735882   -1.893531
  H     -6.163994    1.100199   -2.974250
  H     -7.094530    1.223459   -1.504509
  C     -7.468999   -1.246153   -2.713833
  H     -6.360641   -1.090347   -0.859176
  H     -5.369848   -1.171853   -2.295982
  H     -7.601914   -0.601349   -3.585329
  H     -8.389791   -1.173436   -2.126922
  H     -7.118254   -3.379818   -2.398055
  H     -8.241838   -3.004745   -3.706513

 Total Charge           Charge          ....    0
 Multiplicity           Mult            ....    1
 Number of Electrons    NEL             ....  122
 Basis Dimension        Dim             ....  725

ORBITAL ENERGIES
----------------

  NO   OCC          E(Eh)            E(eV)
   0   2.0000     -88.428264     -2406.2554
   1   2.0000     -18.893401      -514.1156
   2   2.0000     -18.893260      -514.1117
   3   2.0000     -18.878717      -513.7160
   4   2.0000     -14.271851      -388.3568
   5   2.0000     -10.151879      -276.2467
   6   2.0000     -10.104773      -274.9649
   7   2.0000     -10.084513      -274.4136
   8   2.0000     -10.076273      -274.1893
   9   2.0000     -10.071556      -274.0610
  10   2.0000     -10.068590      -273.9803
  11   2.0000     -10.061063      -273.7754
  12   2.0000     -10.060912      -273.7713
  13   2.0000     -10.057542      -273.6796
  14   2.0000      -7.971395      -216.9127
  15   2.0000      -5.999594      -163.2573
  16   2.0000      -5.998551      -163.2289
  17   2.0000      -5.997657      -163.2045
  18   2.0000      -1.194440       -32.5024
  19   2.0000      -1.107616       -30.1398
  20   2.0000      -1.051113       -28.6022
  21   2.0000      -1.048891       -28.5418
  22   2.0000      -0.948552       -25.8114
  23   2.0000      -0.919380       -25.0176
  24   2.0000      -0.893622       -24.3167
  25   2.0000      -0.848813       -23.0974
  26   2.0000      -0.816673       -22.2228
  27   2.0000      -0.772366       -21.0171
  28   2.0000      -0.734432       -19.9849
  29   2.0000      -0.717267       -19.5178
  30   2.0000      -0.703726       -19.1494
  31   2.0000      -0.679098       -18.4792
  32   2.0000      -0.669321       -18.2132
  33   2.0000      -0.643751       -17.5173
  34   2.0000      -0.618995       -16.8437
  35   2.0000      -0.599164       -16.3041
  36   2.0000      -0.596621       -16.2349
  37   2.0000      -0.581867       -15.8334
  38   2.0000      -0.564919       -15.3722
  39   2.0000      -0.552354       -15.0303
  40   2.0000      -0.543919       -14.8008
  41   2.0000      -0.540098       -14.6968
  42   2.0000      -0.533324       -14.5125
  43   2.0000      -0.517336       -14.0774
  44   2.0000      -0.513224       -13.9655
  45   2.0000      -0.502418       -13.6715
  46   2.0000      -0.489052       -13.3078
  47   2.0000      -0.474997       -12.9253
  48   2.0000      -0.469517       -12.7762
  49   2.0000      -0.454069       -12.3558
  50   2.0000      -0.445108       -12.1120
  51   2.0000      -0.438494       -11.9320
  52   2.0000      -0.426005       -11.5922
  53   2.0000      -0.423638       -11.5278
  54   2.0000      -0.419285       -11.4093
  55   2.0000      -0.413900       -11.2628
  56   2.0000      -0.409216       -11.1353
  57   2.0000      -0.384299       -10.4573
  58   2.0000      -0.375841       -10.2271
  59   2.0000      -0.366749        -9.9797
  60   2.0000      -0.341126        -9.2825
  61   0.0000       0.022938         0.6242
  62   0.0000       0.045201         1.2300
  63   0.0000       0.049577         1.3491
  64   0.0000       0.057630         1.5682
  65   0.0000       0.064766         1.7624

MULLIKEN ATOMIC CHARGES
-----------------------
   0 C :   -0.774074
   1 N :   -0.256040
   2 C :   -0.829494
   3 C :   -1.172688
   4 S :    1.268209
   5 H :    0.432213
   6 H :    0.295383
   7 H :    0.343846
   8 O :   -0.815850
   9 O :   -0.823982
  10 H :    0.467604
  11 H :    0.386426
  12 O :   -0.620919
  13 C :   -0.512726
  14 H :    0.396032
  15 H :    0.445211
  16 C :   -0.769720
  17 H :    0.281797
  18 H :    0.380641
  19 C :   -0.966457
  20 H :    0.413174
  21 H :    0.378353
  22 C :   -1.039014
  23 H :    0.396827
  24 H :    0.407605
  25 C :   -0.117721
  26 H :    0.441563
  27 H :    0.429823
  28 C :   -0.931037
  29 H :    0.359023
  30 H :    0.223887
  31 H :    0.463118
  32 H :    0.488240
  33 H :    0.445336
  34 H :    0.485411
Sum of atomic charges:   -0.0000000

LOEWDIN ATOMIC CHARGES
----------------------
   0 C :   -0.172062
   1 N :    0.146007
   2 C :   -0.198177
   3 C :   -0.243606
   4 S :    0.430702
   5 H :    0.072662
   6 H :    0.178306
   7 H :    0.080006
   8 O :   -0.361259
   9 O :   -0.366893
  10 H :    0.132427
  11 H :    0.128231
  12 O :   -0.305967
  13 C :   -0.213380
  14 H :    0.122141
  15 H :    0.124411
  16 C :   -0.228355
  17 H :    0.101801
  18 H :    0.128380
  19 C :   -0.219542
  20 H :    0.121610
  21 H :    0.105249
  22 C :   -0.227698
  23 H :    0.116888
  24 H :    0.117405
  25 C :   -0.228643
  26 H :    0.115839
  27 H :    0.123093
  28 C :   -0.248525
  29 H :    0.132662
  30 H :    0.088160
  31 H :    0.113645
  32 H :    0.122717
  33 H :    0.108799
  34 H :    0.102965

  Mayer bond orders larger than 0.100000
B(  0-C ,  1-N ) :   0.7906 B(  0-C ,  2-C ) :   0.6359 B(  0-C , 10-H ) :   0.8107
B(  0-C , 11-H ) :   0.8803 B(  1-N ,  5-H ) :   0.7544 B(  1-N ,  6-H ) :   0.8853
B(  1-N ,  7-H ) :   0.8588 B(  2-C , 13-C ) :   0.6314 B(  2-C , 14-H ) :   0.9364
B(  2-C , 15-H ) :   0.8773 B(  3-C ,  4-S ) :   1.0504 B(  3-C ,  9-O ) :   0.1146
B(  3-C , 12-O ) :   0.1563 B(  3-C , 28-C ) :   0.5339 B(  3-C , 33-H ) :   0.8377
B(  3-C , 34-H ) :   0.9239 B(  4-S ,  8-O ) :   1.3393 B(  4-S ,  9-O ) :   1.3027
B(  4-S , 12-O ) :   1.4045 B(  8-O ,  9-O ) :   0.1055 B( 13-C , 16-C ) :   0.2432
B( 13-C , 17-H ) :   1.0123 B( 13-C , 18-H ) :   0.9376 B( 13-C , 21-H ) :  -0.1378
B( 16-C , 19-C ) :   0.6825 B( 16-C , 20-H ) :   0.9146 B( 16-C , 21-H ) :   1.0175
B( 16-C , 25-C ) :   0.1161 B( 17-H , 18-H ) :   0.1100 B( 19-C , 22-C ) :   0.6262
B( 19-C , 23-H ) :   0.9758 B( 19-C , 24-H ) :   0.9471 B( 22-C , 25-C ) :   0.2548
B( 22-C , 26-H ) :   0.9577 B( 22-C , 27-H ) :   0.8615 B( 22-C , 28-C ) :   0.2234
B( 25-C , 28-C ) :   0.4045 B( 25-C , 29-H ) :   0.8965 B( 25-C , 30-H ) :   1.0916
B( 28-C , 31-H ) :   0.8309 B( 28-C , 32-H ) :   0.8601 B( 28-C , 34-H ) :  -0.1187
B( 29-H , 30-H ) :   0.1922

FINAL SINGLE POINT ENERGY     -1032.731964916800

DIPOLE MOMENT
-------------
                                X             Y             Z
Electronic contribution:     -5.98488     -15.20070     -11.39797
Nuclear contribution   :      8.59301      16.99497      12.41069
                        -----------------------------------------
Total Dipole Moment    :      2.60813       1.79428       1.01272
                        -----------------------------------------
Magnitude (a.u.)       :      3.32376
Magnitude (Debye)      :      8.44832

Rotational constants in cm-1:     0.025617     0.015295     0.010641
Rotational constants in MHz :   767.991150   458.522408   319.013093

                             ****ORCA TERMINATED NORMALLY****
TOTAL RUN TIME: 0 days 0 hours 8 minutes 18 seconds 503 msec
