                         Program Version 5.0.0 -  RELEASE  -
|  1> !LC-BLYP RIJCOSX def2-TZVPD def2/J TightSCF
|  2> *xyz 0 1
|  3> C         -7.33044       -2.67899       -3.20681
|  4> S         -6.01966       -2.92697       -4.41913
|  5> F         -5.64583       -1.58838       -4.91931
|  6> O         -4.88196       -3.50370       -3.66724
|  7> O         -6.54927       -3.80515       -5.42507
|  8> C         -7.46900       -1.24615       -2.71383
|  9> H         -7.11825       -3.37982       -2.39805
| 10> H         -8.24184       -3.00474       -3.70651
| 11> H         -7.67580       -0.60214       -3.54292
| 12> H         -6.55749       -0.94096       -2.24382
| 13> H         -8.27114       -1.18777       -2.00810
| 14> *
| 15> %MaxCore 64000
| 16>
| 17> %pal nprocs 4
| 18> end
| 19>
| 20> %scf
| 21>   MaxIter 150
| 22> end
| 23>
| 24>
| 25>                          ****END OF INPUT****

CARTESIAN COORDINATES (ANGSTROEM)
---------------------------------
  C     -7.330440   -2.678990   -3.206810
  S     -6.019660   -2.926970   -4.419130
  F     -5.645830   -1.588380   -4.919310
  O     -4.881960   -3.503700   -3.667240
  O     -6.549270   -3.805150   -5.425070
  C     -7.469000   -1.246150   -2.713830
  H     -7.118250   -3.379820   -2.398050
  H     -8.241840   -3.004740   -3.706510
  H     -7.675800   -0.602140   -3.542920
  H     -6.557490   -0.940960   -2.243820
  H     -8.271140   -1.187770   -2.008100

 Total Charge           Charge          ....    0
 Multiplicity           Mult            ....    1
 Number of Electrons    NEL             ....   58
 Basis Dimension        Dim             ....  285

ORBITAL ENERGIES
----------------

  NO   OCC          E(Eh)            E(eV)
   0   2.0000     -88.519204     -2408.7300
   1   2.0000     -24.561369      -668.3488
   2   2.0000     -18.957175      -515.8509
   3   2.0000     -18.942618      -515.4548
   4   2.0000     -10.134871      -275.7839
   5   2.0000     -10.096092      -274.7286
   6   2.0000      -8.061916      -219.3759
   7   2.0000      -6.093859      -165.8223
   8   2.0000      -6.086647      -165.6261
   9   2.0000      -6.086540      -165.6232
  10   2.0000      -1.439588       -39.1732
  11   2.0000      -1.205241       -32.7963
  12   2.0000      -1.104348       -30.0508
  13   2.0000      -0.942020       -25.6337
  14   2.0000      -0.831910       -22.6374
  15   2.0000      -0.785845       -21.3839
  16   2.0000      -0.695612       -18.9286
  17   2.0000      -0.673772       -18.3343
  18   2.0000      -0.647300       -17.6139
  19   2.0000      -0.608025       -16.5452
  20   2.0000      -0.578544       -15.7430
  21   2.0000      -0.556464       -15.1422
  22   2.0000      -0.546670       -14.8757
  23   2.0000      -0.519298       -14.1308
  24   2.0000      -0.500519       -13.6198
  25   2.0000      -0.491278       -13.3684
  26   2.0000      -0.437771       -11.9123
  27   2.0000      -0.425036       -11.5658
  28   2.0000      -0.412573       -11.2267
  29   0.0000       0.032948         0.8966
  30   0.0000       0.051262         1.3949
  31   0.0000       0.056923         1.5489
  32   0.0000       0.059710         1.6248
  33   0.0000       0.087209         2.3731

MULLIKEN ATOMIC CHARGES
-----------------------
   0 C :   -0.646211
   1 S :    1.104170
   2 F :   -0.150269
   3 O :   -0.560971
   4 O :   -0.522080
   5 C :   -1.356760
   6 H :    0.433926
   7 H :    0.439512
   8 H :    0.425671
   9 H :    0.408409
  10 H :    0.424603
Sum of atomic charges:    0.0000000

LOEWDIN ATOMIC CHARGES
----------------------
   0 C :   -0.282631
   1 S :    0.571438
   2 F :   -0.065185
   3 O :   -0.292476
   4 O :   -0.259257
   5 C :   -0.127912
   6 H :    0.113117
   7 H :    0.104866
   8 H :    0.075113
   9 H :    0.081921
  10 H :    0.081007

  Mayer bond orders larger than 0.100000
B(  0-C ,  1-S ) :   0.9245 B(  0-C ,  5-C ) :   0.3796 B(  0-C ,  6-H ) :   0.8649
B(  0-C ,  7-H ) :   0.8592 B(  1-S ,  2-F ) :   1.0042 B(  1-S ,  3-O ) :   1.6778
B(  1-S ,  4-O ) :   1.7129 B(  5-C ,  8-H ) :   0.8707 B(  5-C ,  9-H ) :   0.9097
B(  5-C , 10-H ) :   0.8790

FINAL SINGLE POINT ENERGY      -726.995605182792

DIPOLE MOMENT
-------------
                                X             Y             Z
Electronic contribution:      5.62201      -1.70628      -6.36117
Nuclear contribution   :     -6.81251       2.87933       7.15058
                        -----------------------------------------
Total Dipole Moment    :     -1.19050       1.17305       0.78941
                        -----------------------------------------
Magnitude (a.u.)       :      1.84838
Magnitude (Debye)      :      4.69821

Rotational constants in cm-1:     0.152543     0.082494     0.078987
Rotational constants in MHz :  4573.135887  2473.116216  2367.980829

                             ****ORCA TERMINATED NORMALLY****
TOTAL RUN TIME: 0 days 0 hours 0 minutes 49 seconds 577 msec
