                         Program Version 5.0.0 -  RELEASE  -
|  1> !LC-BLYP RIJCOSX def2-TZVPD def2/J TightSCF
|  2> *xyz 0 1
|  3> C         -2.16038       -1.36949       -3.46710
|  4> C         -3.03011       -1.91086       -4.54107
|  5> C         -2.04772        0.14658       -3.51177
|  6> H         -3.47744       -2.79151       -4.25710
|  7> H         -2.53801       -2.01786       -5.43808
|  8> H         -3.89159       -1.37604       -4.71437
|  9> H         -1.18444       -1.84400       -3.56639
| 10> H         -2.59819       -1.70838       -2.52848
| 11> H         -1.61525        0.44478       -4.44395
| 12> H         -1.42718        0.48198       -2.70720
| 13> H         -3.02145        0.57958       -3.41560
| 14> *
| 15> %MaxCore 64000
| 16>
| 17> %pal nprocs 4
| 18> end
| 19>
| 20> %scf
| 21>   MaxIter 150
| 22> end
| 23>
| 24>
| 25>                          ****END OF INPUT****

CARTESIAN COORDINATES (ANGSTROEM)
---------------------------------
  C     -2.160380   -1.369490   -3.467100
  C     -3.030110   -1.910860   -4.541070
  C     -2.047720    0.146580   -3.511770
  H     -3.477440   -2.791510   -4.257100
  H     -2.538010   -2.017860   -5.438080
  H     -3.891590   -1.376040   -4.714370
  H     -1.184440   -1.844000   -3.566390
  H     -2.598190   -1.708380   -2.528480
  H     -1.615250    0.444780   -4.443950
  H     -1.427180    0.481980   -2.707200
  H     -3.021450    0.579580   -3.415600

 Total Charge           Charge          ....    0
 Multiplicity           Mult            ....    1
 Number of Electrons    NEL             ....   26
 Basis Dimension        Dim             ....  183

ORBITAL ENERGIES
----------------

  NO   OCC          E(Eh)            E(eV)
   0   2.0000     -10.054218      -273.5892
   1   2.0000     -10.044173      -273.3158
   2   2.0000     -10.026515      -272.8353
   3   2.0000      -0.900681       -24.5088
   4   2.0000      -0.800248       -21.7759
   5   2.0000      -0.696168       -18.9437
   6   2.0000      -0.577192       -15.7062
   7   2.0000      -0.545695       -14.8491
   8   2.0000      -0.504261       -13.7216
   9   2.0000      -0.494715       -13.4619
  10   2.0000      -0.438074       -11.9206
  11   2.0000      -0.425807       -11.5868
  12   2.0000      -0.423732       -11.5303
  13   0.0000       0.060181         1.6376
  14   0.0000       0.079833         2.1724
  15   0.0000       0.082810         2.2534
  16   0.0000       0.110090         2.9957
  17   0.0000       0.133438         3.6310

MULLIKEN ATOMIC CHARGES
-----------------------
   0 C :   -0.402449
   1 C :   -1.444057
   2 C :   -1.264451
   3 H :    0.452117
   4 H :    0.397496
   5 H :    0.443759
   6 H :    0.331543
   7 H :    0.349874
   8 H :    0.371309
   9 H :    0.384827
  10 H :    0.380032
Sum of atomic charges:   -0.0000000

LOEWDIN ATOMIC CHARGES
----------------------
   0 C :   -0.330208
   1 C :   -0.145175
   2 C :   -0.128050
   3 H :    0.055903
   4 H :    0.062119
   5 H :    0.058616
   6 H :    0.109658
   7 H :    0.107989
   8 H :    0.072386
   9 H :    0.065695
  10 H :    0.071068

  Mayer bond orders larger than 0.100000
B(  0-C ,  1-C ) :   0.4819 B(  0-C ,  2-C ) :   0.5234 B(  0-C ,  6-H ) :   0.9509
B(  0-C ,  7-H ) :   0.9414 B(  1-C ,  3-H ) :   0.8659 B(  1-C ,  4-H ) :   0.8999
B(  1-C ,  5-H ) :   0.8687 B(  2-C ,  8-H ) :   0.9318 B(  2-C ,  9-H ) :   0.9369
B(  2-C , 10-H ) :   0.9210

FINAL SINGLE POINT ENERGY      -118.781699397397

DIPOLE MOMENT
-------------
                                X             Y             Z
Electronic contribution:      0.31535      -0.13348       0.27640
Nuclear contribution   :     -0.34625       0.09603      -0.26933
                        -----------------------------------------
Total Dipole Moment    :     -0.03089      -0.03744       0.00706
                        -----------------------------------------
Magnitude (a.u.)       :      0.04905
Magnitude (Debye)      :      0.12468

Rotational constants in cm-1:     1.028617     0.291238     0.258956
Rotational constants in MHz : 30837.159054  8731.095379  7763.318586

                             ****ORCA TERMINATED NORMALLY****
TOTAL RUN TIME: 0 days 0 hours 0 minutes 19 seconds 774 msec
