                         Program Version 5.0.0 -  RELEASE  -
|  1> !LC-BLYP RIJCOSX def2-TZVPD def2/J TightSCF
|  2> *xyz 0 1
|  3> C         -7.33044       -2.67899       -3.20681
|  4> S         -6.01966       -2.92697       -4.41913
|  5> O         -5.64583       -1.58838       -4.91931
|  6> F         -4.88196       -3.50370       -3.66724
|  7> O         -6.54927       -3.80515       -5.42507
|  8> C         -7.46900       -1.24615       -2.71383
|  9> H         -7.11825       -3.37982       -2.39805
| 10> H         -8.24184       -3.00474       -3.70651
| 11> H         -7.67580       -0.60214       -3.54292
| 12> H         -6.55749       -0.94096       -2.24382
| 13> H         -8.27114       -1.18777       -2.00810
| 14> *
| 15> %MaxCore 64000
| 16>
| 17> %pal nprocs 4
| 18> end
| 19>
| 20> %scf
| 21>   MaxIter 150
| 22> end
| 23>
| 24>
| 25>                          ****END OF INPUT****

CARTESIAN COORDINATES (ANGSTROEM)
---------------------------------
  C     -7.330440   -2.678990   -3.206810
  S     -6.019660   -2.926970   -4.419130
  O     -5.645830   -1.588380   -4.919310
  F     -4.881960   -3.503700   -3.667240
  O     -6.549270   -3.805150   -5.425070
  C     -7.469000   -1.246150   -2.713830
  H     -7.118250   -3.379820   -2.398050
  H     -8.241840   -3.004740   -3.706510
  H     -7.675800   -0.602140   -3.542920
  H     -6.557490   -0.940960   -2.243820
  H     -8.271140   -1.187770   -2.008100

 Total Charge           Charge          ....    0
 Multiplicity           Mult            ....    1
 Number of Electrons    NEL             ....   58
 Basis Dimension        Dim             ....  285

ORBITAL ENERGIES
----------------

  NO   OCC          E(Eh)            E(eV)
   0   2.0000     -88.519254     -2408.7314
   1   2.0000     -24.558589      -668.2732
   2   2.0000     -18.957172      -515.8509
   3   2.0000     -18.945730      -515.5395
   4   2.0000     -10.135257      -275.7944
   5   2.0000     -10.087069      -274.4831
   6   2.0000      -8.061958      -219.3770
   7   2.0000      -6.093827      -165.8215
   8   2.0000      -6.086907      -165.6332
   9   2.0000      -6.086443      -165.6205
  10   2.0000      -1.436083       -39.0778
  11   2.0000      -1.206183       -32.8219
  12   2.0000      -1.107612       -30.1396
  13   2.0000      -0.937556       -25.5122
  14   2.0000      -0.833319       -22.6758
  15   2.0000      -0.778663       -21.1885
  16   2.0000      -0.685533       -18.6543
  17   2.0000      -0.669773       -18.2255
  18   2.0000      -0.656579       -17.8664
  19   2.0000      -0.602405       -16.3923
  20   2.0000      -0.587643       -15.9906
  21   2.0000      -0.558246       -15.1906
  22   2.0000      -0.532881       -14.5004
  23   2.0000      -0.506640       -13.7864
  24   2.0000      -0.503003       -13.6874
  25   2.0000      -0.486760       -13.2454
  26   2.0000      -0.436945       -11.8899
  27   2.0000      -0.431522       -11.7423
  28   2.0000      -0.415428       -11.3044
  29   0.0000       0.034342         0.9345
  30   0.0000       0.051115         1.3909
  31   0.0000       0.055548         1.5115
  32   0.0000       0.060201         1.6381
  33   0.0000       0.085773         2.3340

MULLIKEN ATOMIC CHARGES
-----------------------
   0 C :   -0.730013
   1 S :    1.102174
   2 O :   -0.557460
   3 F :   -0.141962
   4 O :   -0.526862
   5 C :   -1.262363
   6 H :    0.457453
   7 H :    0.425130
   8 H :    0.404447
   9 H :    0.387167
  10 H :    0.442290
Sum of atomic charges:    0.0000000

LOEWDIN ATOMIC CHARGES
----------------------
   0 C :   -0.285583
   1 S :    0.574677
   2 O :   -0.283750
   3 F :   -0.070316
   4 O :   -0.259825
   5 C :   -0.127052
   6 H :    0.104415
   7 H :    0.108102
   8 H :    0.078575
   9 H :    0.080772
  10 H :    0.079987

  Mayer bond orders larger than 0.100000
B(  0-C ,  1-S ) :   0.9320 B(  0-C ,  5-C ) :   0.4315 B(  0-C ,  6-H ) :   0.8156
B(  0-C ,  7-H ) :   0.8762 B(  1-S ,  2-O ) :   1.6692 B(  1-S ,  3-F ) :   1.0012
B(  1-S ,  4-O ) :   1.7101 B(  5-C ,  8-H ) :   0.9226 B(  5-C ,  9-H ) :   0.9123
B(  5-C , 10-H ) :   0.8539

FINAL SINGLE POINT ENERGY      -726.998674173949

DIPOLE MOMENT
-------------
                                X             Y             Z
Electronic contribution:      6.96464      -4.97315      -4.25068
Nuclear contribution   :     -7.60849       4.87515       5.84588
                        -----------------------------------------
Total Dipole Moment    :     -0.64385      -0.09799       1.59520
                        -----------------------------------------
Magnitude (a.u.)       :      1.72302
Magnitude (Debye)      :      4.37958

Rotational constants in cm-1:     0.153704     0.080342     0.079431
Rotational constants in MHz :  4607.928650  2408.599360  2381.267225

                             ****ORCA TERMINATED NORMALLY****
TOTAL RUN TIME: 0 days 0 hours 0 minutes 48 seconds 821 msec
