                         Program Version 5.0.0 -  RELEASE  -
|  1> !LC-BLYP RIJCOSX def2-TZVPD def2/J TightSCF
|  2> *xyz 0 1
|  3> C         -7.33044       -2.67899       -3.20681
|  4> S         -6.01966       -2.92697       -4.41913
|  5> O         -5.64583       -1.58838       -4.91931
|  6> O         -4.88196       -3.50370       -3.66724
|  7> F         -6.54927       -3.80515       -5.42507
|  8> C         -7.46900       -1.24615       -2.71383
|  9> H         -7.11825       -3.37982       -2.39805
| 10> H         -8.24184       -3.00474       -3.70651
| 11> H         -7.67580       -0.60214       -3.54292
| 12> H         -6.55749       -0.94096       -2.24382
| 13> H         -8.27114       -1.18777       -2.00810
| 14> *
| 15> %MaxCore 64000
| 16>
| 17> %pal nprocs 4
| 18> end
| 19>
| 20> %scf
| 21>   MaxIter 150
| 22> end
| 23>
| 24>
| 25>                          ****END OF INPUT****

CARTESIAN COORDINATES (ANGSTROEM)
---------------------------------
  C     -7.330440   -2.678990   -3.206810
  S     -6.019660   -2.926970   -4.419130
  O     -5.645830   -1.588380   -4.919310
  O     -4.881960   -3.503700   -3.667240
  F     -6.549270   -3.805150   -5.425070
  C     -7.469000   -1.246150   -2.713830
  H     -7.118250   -3.379820   -2.398050
  H     -8.241840   -3.004740   -3.706510
  H     -7.675800   -0.602140   -3.542920
  H     -6.557490   -0.940960   -2.243820
  H     -8.271140   -1.187770   -2.008100

 Total Charge           Charge          ....    0
 Multiplicity           Mult            ....    1
 Number of Electrons    NEL             ....   58
 Basis Dimension        Dim             ....  285

ORBITAL ENERGIES
----------------

  NO   OCC          E(Eh)            E(eV)
   0   2.0000     -88.521774     -2408.7999
   1   2.0000     -24.580815      -668.8780
   2   2.0000     -18.946190      -515.5520
   3   2.0000     -18.943302      -515.4734
   4   2.0000     -10.136022      -275.8152
   5   2.0000     -10.087184      -274.4862
   6   2.0000      -8.064444      -219.4447
   7   2.0000      -6.096192      -165.8858
   8   2.0000      -6.089296      -165.6982
   9   2.0000      -6.089005      -165.6902
  10   2.0000      -1.472235       -40.0616
  11   2.0000      -1.191348       -32.4182
  12   2.0000      -1.091119       -29.6909
  13   2.0000      -0.937768       -25.5180
  14   2.0000      -0.846550       -23.0358
  15   2.0000      -0.786597       -21.4044
  16   2.0000      -0.699117       -19.0239
  17   2.0000      -0.695967       -18.9382
  18   2.0000      -0.662256       -18.0209
  19   2.0000      -0.604217       -16.4416
  20   2.0000      -0.587213       -15.9789
  21   2.0000      -0.547436       -14.8965
  22   2.0000      -0.529816       -14.4170
  23   2.0000      -0.509475       -13.8635
  24   2.0000      -0.491547       -13.3757
  25   2.0000      -0.485220       -13.2035
  26   2.0000      -0.430114       -11.7040
  27   2.0000      -0.422914       -11.5081
  28   2.0000      -0.401978       -10.9384
  29   0.0000       0.032186         0.8758
  30   0.0000       0.048793         1.3277
  31   0.0000       0.055608         1.5132
  32   0.0000       0.061030         1.6607
  33   0.0000       0.085806         2.3349

MULLIKEN ATOMIC CHARGES
-----------------------
   0 C :   -0.721814
   1 S :    1.090092
   2 O :   -0.555158
   3 O :   -0.554062
   4 F :   -0.094843
   5 C :   -1.293529
   6 H :    0.436127
   7 H :    0.450766
   8 H :    0.406450
   9 H :    0.394858
  10 H :    0.441114
Sum of atomic charges:    0.0000000

LOEWDIN ATOMIC CHARGES
----------------------
   0 C :   -0.290522
   1 S :    0.573598
   2 O :   -0.284676
   3 O :   -0.291202
   4 F :   -0.036220
   5 C :   -0.122004
   6 H :    0.107650
   7 H :    0.099717
   8 H :    0.076934
   9 H :    0.085716
  10 H :    0.081009

  Mayer bond orders larger than 0.100000
B(  0-C ,  1-S ) :   0.9330 B(  0-C ,  5-C ) :   0.4548 B(  0-C ,  6-H ) :   0.8795
B(  0-C ,  7-H ) :   0.8084 B(  1-S ,  2-O ) :   1.6763 B(  1-S ,  3-O ) :   1.6822
B(  1-S ,  4-F ) :   1.0396 B(  5-C ,  8-H ) :   0.9024 B(  5-C ,  9-H ) :   0.9217
B(  5-C , 10-H ) :   0.8467

FINAL SINGLE POINT ENERGY      -726.980435253075

DIPOLE MOMENT
-------------
                                X             Y             Z
Electronic contribution:      4.12066      -5.46846      -7.25078
Nuclear contribution   :     -5.87110       5.18927       7.67759
                        -----------------------------------------
Total Dipole Moment    :     -1.75044      -0.27919       0.42682
                        -----------------------------------------
Magnitude (a.u.)       :      1.82322
Magnitude (Debye)      :      4.63427

Rotational constants in cm-1:     0.155988     0.080452     0.078187
Rotational constants in MHz :  4676.405251  2411.902056  2343.983816

                             ****ORCA TERMINATED NORMALLY****
TOTAL RUN TIME: 0 days 0 hours 0 minutes 50 seconds 15 msec
