                         Program Version 5.0.0 -  RELEASE  -
|  1> !LC-BLYP RIJCOSX def2-TZVPD def2/J TightSCF xyzfile
|  2>
|  3> *xyzfile 0 1 D1.xyz
|  4>
|  5> %MaxCore 64000
|  6>
|  7> %pal nprocs 4
|  8> end
|  9>
| 10> %scf
| 11>   MaxIter 150
| 12> end
| 13>
| 14>
| 15>                          ****END OF INPUT****

CARTESIAN COORDINATES (ANGSTROEM)
---------------------------------
  C     -2.160376   -1.369486   -3.467104
  C     -3.030108   -1.910857   -4.541074
  C     -2.047717    0.146583   -3.511774
  C     -7.330440   -2.678991   -3.206811
  S     -6.019659   -2.926965   -4.419128
  H     -3.477443   -2.791513   -4.257096
  H     -2.538013   -2.017860   -5.438075
  H     -3.891589   -1.376039   -4.714365
  F     -5.645830   -1.588384   -4.919307
  O     -4.881961   -3.503697   -3.667235
  H     -1.184438   -1.843997   -3.566393
  H     -2.598195   -1.708376   -2.528477
  O     -6.549267   -3.805150   -5.425071
  C     -3.328755    0.875037   -3.103669
  H     -1.740034    0.452343   -4.517126
  H     -1.232611    0.434938   -2.842208
  C     -3.628487    0.771601   -1.609363
  H     -4.175106    0.490791   -3.682203
  H     -3.237812    1.928663   -3.381480
  C     -4.975718    1.361432   -1.190644
  H     -2.830700    1.276234   -1.054766
  H     -3.594312   -0.275838   -1.294603
  C     -6.184720    0.784347   -1.926464
  H     -4.956292    2.445725   -1.342200
  H     -5.097256    1.205252   -0.114136
  C     -6.286921   -0.735882   -1.893531
  H     -6.163994    1.100199   -2.974250
  H     -7.094530    1.223459   -1.504509
  C     -7.468999   -1.246153   -2.713833
  H     -6.360641   -1.090347   -0.859176
  H     -5.369848   -1.171853   -2.295982
  H     -7.601914   -0.601349   -3.585329
  H     -8.389791   -1.173436   -2.126922
  H     -7.118254   -3.379818   -2.398055
  H     -8.241838   -3.004745   -3.706513

 Total Charge           Charge          ....    0
 Multiplicity           Mult            ....    1
 Number of Electrons    NEL             ....  122
 Basis Dimension        Dim             ....  725

ORBITAL ENERGIES
----------------

  NO   OCC          E(Eh)            E(eV)
   0   2.0000     -88.523629     -2408.8504
   1   2.0000     -24.565294      -668.4556
   2   2.0000     -18.961406      -515.9661
   3   2.0000     -18.945704      -515.5388
   4   2.0000     -10.133912      -275.7578
   5   2.0000     -10.102521      -274.9036
   6   2.0000     -10.080922      -274.3158
   7   2.0000     -10.073165      -274.1048
   8   2.0000     -10.066239      -273.9163
   9   2.0000     -10.059172      -273.7240
  10   2.0000     -10.056833      -273.6603
  11   2.0000     -10.049407      -273.4583
  12   2.0000     -10.039512      -273.1890
  13   2.0000      -9.992411      -271.9073
  14   2.0000      -8.066670      -219.5052
  15   2.0000      -6.098574      -165.9506
  16   2.0000      -6.091393      -165.7552
  17   2.0000      -6.091228      -165.7507
  18   2.0000      -1.447501       -39.3885
  19   2.0000      -1.211312       -32.9615
  20   2.0000      -1.113489       -30.2996
  21   2.0000      -0.959648       -26.1133
  22   2.0000      -0.928116       -25.2553
  23   2.0000      -0.898872       -24.4596
  24   2.0000      -0.870835       -23.6966
  25   2.0000      -0.829586       -22.5742
  26   2.0000      -0.815579       -22.1930
  27   2.0000      -0.780600       -21.2412
  28   2.0000      -0.747327       -20.3358
  29   2.0000      -0.731718       -19.9111
  30   2.0000      -0.701096       -19.0778
  31   2.0000      -0.690211       -18.7816
  32   2.0000      -0.674991       -18.3674
  33   2.0000      -0.657368       -17.8879
  34   2.0000      -0.653409       -17.7802
  35   2.0000      -0.606682       -16.5087
  36   2.0000      -0.598624       -16.2894
  37   2.0000      -0.584901       -15.9160
  38   2.0000      -0.576996       -15.7009
  39   2.0000      -0.569105       -15.4861
  40   2.0000      -0.555716       -15.1218
  41   2.0000      -0.543203       -14.7813
  42   2.0000      -0.536508       -14.5991
  43   2.0000      -0.532039       -14.4775
  44   2.0000      -0.515739       -14.0340
  45   2.0000      -0.500375       -13.6159
  46   2.0000      -0.493538       -13.4298
  47   2.0000      -0.492427       -13.3996
  48   2.0000      -0.476486       -12.9658
  49   2.0000      -0.468350       -12.7445
  50   2.0000      -0.456208       -12.4141
  51   2.0000      -0.453112       -12.3298
  52   2.0000      -0.439633       -11.9630
  53   2.0000      -0.435012       -11.8373
  54   2.0000      -0.428763       -11.6672
  55   2.0000      -0.422286       -11.4910
  56   2.0000      -0.415501       -11.3064
  57   2.0000      -0.411028       -11.1846
  58   2.0000      -0.400873       -10.9083
  59   2.0000      -0.397611       -10.8195
  60   2.0000      -0.374309       -10.1855
  61   0.0000       0.031641         0.8610
  62   0.0000       0.045181         1.2294
  63   0.0000       0.053188         1.4473
  64   0.0000       0.057769         1.5720
  65   0.0000       0.068753         1.8709

MULLIKEN ATOMIC CHARGES
-----------------------
   0 C :   -0.496599
   1 C :   -2.112868
   2 C :   -0.869794
   3 C :   -1.048430
   4 S :    1.242278
   5 H :    0.831167
   6 H :    0.569627
   7 H :    0.561561
   8 F :   -0.215938
   9 O :   -0.609645
  10 H :    0.396025
  11 H :    0.343223
  12 O :   -0.547463
  13 C :   -0.484897
  14 H :    0.405575
  15 H :    0.392660
  16 C :   -0.751075
  17 H :    0.222256
  18 H :    0.368834
  19 C :   -0.978650
  20 H :    0.426939
  21 H :    0.331852
  22 C :   -0.998018
  23 H :    0.400019
  24 H :    0.406815
  25 C :   -0.183593
  26 H :    0.455766
  27 H :    0.421802
  28 C :   -0.999599
  29 H :    0.361093
  30 H :    0.278903
  31 H :    0.441174
  32 H :    0.492058
  33 H :    0.459636
  34 H :    0.487304
Sum of atomic charges:    0.0000000

LOEWDIN ATOMIC CHARGES
----------------------
   0 C :   -0.248606
   1 C :   -0.144355
   2 C :   -0.221638
   3 C :   -0.218267
   4 S :    0.614015
   5 H :    0.001852
   6 H :    0.078649
   7 H :    0.019943
   8 F :   -0.079539
   9 O :   -0.287239
  10 H :    0.117738
  11 H :    0.107931
  12 O :   -0.238350
  13 C :   -0.219702
  14 H :    0.119842
  15 H :    0.113544
  16 C :   -0.228278
  17 H :    0.096010
  18 H :    0.122834
  19 C :   -0.220656
  20 H :    0.122057
  21 H :    0.105107
  22 C :   -0.229115
  23 H :    0.117190
  24 H :    0.116393
  25 C :   -0.223340
  26 H :    0.113621
  27 H :    0.122695
  28 C :   -0.242348
  29 H :    0.137225
  30 H :    0.095600
  31 H :    0.116522
  32 H :    0.129800
  33 H :    0.122513
  34 H :    0.110352

  Mayer bond orders larger than 0.100000
B(  0-C ,  1-C ) :   0.1520 B(  0-C ,  2-C ) :   0.6167 B(  0-C ,  7-H ) :  -0.1160
B(  0-C , 10-H ) :   0.9189 B(  0-C , 11-H ) :   0.9846 B(  1-C ,  5-H ) :   0.3914
B(  1-C ,  6-H ) :   0.6954 B(  1-C ,  7-H ) :   0.7432 B(  1-C ,  8-F ) :   0.2306
B(  1-C ,  9-O ) :   0.1486 B(  2-C , 13-C ) :   0.6866 B(  2-C , 14-H ) :   0.9261
B(  2-C , 15-H ) :   0.9189 B(  3-C ,  4-S ) :   0.9979 B(  3-C , 12-O ) :   0.1450
B(  3-C , 28-C ) :   0.5507 B(  3-C , 33-H ) :   0.8206 B(  3-C , 34-H ) :   0.9390
B(  4-S ,  8-F ) :   1.0420 B(  4-S ,  9-O ) :   1.5756 B(  4-S , 12-O ) :   1.4744
B(  5-H ,  6-H ) :   0.1195 B(  5-H ,  9-O ) :  -0.2353 B(  7-H ,  8-F ) :  -0.2522
B( 13-C , 16-C ) :   0.2582 B( 13-C , 17-H ) :   1.0728 B( 13-C , 18-H ) :   0.9382
B( 13-C , 21-H ) :  -0.1397 B( 16-C , 19-C ) :   0.6404 B( 16-C , 20-H ) :   0.8778
B( 16-C , 21-H ) :   1.0746 B( 19-C , 22-C ) :   0.6673 B( 19-C , 23-H ) :   0.9745
B( 19-C , 24-H ) :   0.9533 B( 22-C , 25-C ) :   0.2620 B( 22-C , 26-H ) :   0.9448
B( 22-C , 27-H ) :   0.8701 B( 22-C , 28-C ) :   0.1794 B( 25-C , 28-C ) :   0.2396
B( 25-C , 29-H ) :   0.9110 B( 25-C , 30-H ) :   1.0645 B( 28-C , 31-H ) :   0.8961
B( 28-C , 32-H ) :   0.8465 B( 28-C , 34-H ) :  -0.1231 B( 29-H , 30-H ) :   0.1987

FINAL SINGLE POINT ENERGY     -1040.614998732464

DIPOLE MOMENT
-------------
                                X             Y             Z
Electronic contribution:    -10.86707     -16.18288     -13.15606
Nuclear contribution   :      9.63012      17.20461      14.03552
                        -----------------------------------------
Total Dipole Moment    :     -1.23695       1.02173       0.87945
                        -----------------------------------------
Magnitude (a.u.)       :      1.82959
Magnitude (Debye)      :      4.65045

Rotational constants in cm-1:     0.025899     0.015189     0.010690
Rotational constants in MHz :   776.424978   455.369614   320.488876

                             ****ORCA TERMINATED NORMALLY****
TOTAL RUN TIME: 0 days 0 hours 9 minutes 4 seconds 270 msec
