                         Program Version 5.0.0 -  RELEASE  -
|  1> !LC-BLYP RIJCOSX def2-TZVPD def2/J TightSCF xyzfile
|  2>
|  3> *xyzfile 0 1 D2.xyz
|  4>
|  5> %MaxCore 64000
|  6>
|  7> %pal nprocs 4
|  8> end
|  9>
| 10> %scf
| 11>   MaxIter 150
| 12> end
| 13>
| 14>
| 15>                          ****END OF INPUT****

CARTESIAN COORDINATES (ANGSTROEM)
---------------------------------
  C     -2.160376   -1.369486   -3.467104
  C     -3.030108   -1.910857   -4.541074
  C     -2.047717    0.146583   -3.511774
  C     -7.330440   -2.678991   -3.206811
  S     -6.019659   -2.926965   -4.419128
  H     -3.477443   -2.791513   -4.257096
  H     -2.538013   -2.017860   -5.438075
  H     -3.891589   -1.376039   -4.714365
  O     -5.645830   -1.588384   -4.919307
  F     -4.881961   -3.503697   -3.667235
  H     -1.184438   -1.843997   -3.566393
  H     -2.598195   -1.708376   -2.528477
  O     -6.549267   -3.805150   -5.425071
  C     -3.328755    0.875037   -3.103669
  H     -1.740034    0.452343   -4.517126
  H     -1.232611    0.434938   -2.842208
  C     -3.628487    0.771601   -1.609363
  H     -4.175106    0.490791   -3.682203
  H     -3.237812    1.928663   -3.381480
  C     -4.975718    1.361432   -1.190644
  H     -2.830700    1.276234   -1.054766
  H     -3.594312   -0.275838   -1.294603
  C     -6.184720    0.784347   -1.926464
  H     -4.956292    2.445725   -1.342200
  H     -5.097256    1.205252   -0.114136
  C     -6.286921   -0.735882   -1.893531
  H     -6.163994    1.100199   -2.974250
  H     -7.094530    1.223459   -1.504509
  C     -7.468999   -1.246153   -2.713833
  H     -6.360641   -1.090347   -0.859176
  H     -5.369848   -1.171853   -2.295982
  H     -7.601914   -0.601349   -3.585329
  H     -8.389791   -1.173436   -2.126922
  H     -7.118254   -3.379818   -2.398055
  H     -8.241838   -3.004745   -3.706513

 Total Charge           Charge          ....    0
 Multiplicity           Mult            ....    1
 Number of Electrons    NEL             ....  122
 Basis Dimension        Dim             ....  725

ORBITAL ENERGIES
----------------

  NO   OCC          E(Eh)            E(eV)
   0   2.0000     -88.523868     -2408.8569
   1   2.0000     -24.562893      -668.3903
   2   2.0000     -18.961547      -515.9699
   3   2.0000     -18.949144      -515.6324
   4   2.0000     -10.134770      -275.7811
   5   2.0000     -10.095388      -274.7095
   6   2.0000     -10.077678      -274.2276
   7   2.0000     -10.067516      -273.9510
   8   2.0000     -10.062549      -273.8159
   9   2.0000     -10.056479      -273.6507
  10   2.0000     -10.051001      -273.5016
  11   2.0000     -10.048297      -273.4281
  12   2.0000     -10.042217      -273.2626
  13   2.0000      -9.995640      -271.9952
  14   2.0000      -8.066881      -219.5110
  15   2.0000      -6.098727      -165.9548
  16   2.0000      -6.091734      -165.7645
  17   2.0000      -6.091375      -165.7547
  18   2.0000      -1.445569       -39.3359
  19   2.0000      -1.212223       -32.9863
  20   2.0000      -1.115824       -30.3631
  21   2.0000      -0.954637       -25.9770
  22   2.0000      -0.925327       -25.1794
  23   2.0000      -0.897760       -24.4293
  24   2.0000      -0.871200       -23.7066
  25   2.0000      -0.829224       -22.5643
  26   2.0000      -0.815318       -22.1859
  27   2.0000      -0.776780       -21.1373
  28   2.0000      -0.743759       -20.2387
  29   2.0000      -0.730384       -19.8748
  30   2.0000      -0.689640       -18.7661
  31   2.0000      -0.684349       -18.6221
  32   2.0000      -0.679660       -18.4945
  33   2.0000      -0.663806       -18.0631
  34   2.0000      -0.651113       -17.7177
  35   2.0000      -0.611982       -16.6529
  36   2.0000      -0.593587       -16.1523
  37   2.0000      -0.583821       -15.8866
  38   2.0000      -0.578075       -15.7302
  39   2.0000      -0.568137       -15.4598
  40   2.0000      -0.549914       -14.9639
  41   2.0000      -0.537807       -14.6345
  42   2.0000      -0.535061       -14.5597
  43   2.0000      -0.531056       -14.4508
  44   2.0000      -0.510047       -13.8791
  45   2.0000      -0.503024       -13.6880
  46   2.0000      -0.491747       -13.3811
  47   2.0000      -0.484124       -13.1737
  48   2.0000      -0.474198       -12.9036
  49   2.0000      -0.464627       -12.6431
  50   2.0000      -0.458066       -12.4646
  51   2.0000      -0.444784       -12.1032
  52   2.0000      -0.437417       -11.9027
  53   2.0000      -0.432866       -11.7789
  54   2.0000      -0.427186       -11.6243
  55   2.0000      -0.424851       -11.5608
  56   2.0000      -0.416185       -11.3250
  57   2.0000      -0.410195       -11.1620
  58   2.0000      -0.397955       -10.8289
  59   2.0000      -0.395199       -10.7539
  60   2.0000      -0.383141       -10.4258
  61   0.0000       0.032280         0.8784
  62   0.0000       0.046372         1.2618
  63   0.0000       0.053152         1.4463
  64   0.0000       0.058117         1.5814
  65   0.0000       0.069165         1.8821

MULLIKEN ATOMIC CHARGES
-----------------------
   0 C :   -0.464187
   1 C :   -2.156495
   2 C :   -0.879997
   3 C :   -1.184876
   4 S :    1.255310
   5 H :    0.707116
   6 H :    0.559096
   7 H :    0.710461
   8 O :   -0.626753
   9 F :   -0.188139
  10 H :    0.383204
  11 H :    0.345072
  12 O :   -0.545201
  13 C :   -0.509600
  14 H :    0.409425
  15 H :    0.394838
  16 C :   -0.764704
  17 H :    0.275851
  18 H :    0.359424
  19 C :   -0.963413
  20 H :    0.427561
  21 H :    0.327393
  22 C :   -1.086019
  23 H :    0.397865
  24 H :    0.404293
  25 C :   -0.096541
  26 H :    0.476547
  27 H :    0.430624
  28 C :   -0.885075
  29 H :    0.376005
  30 H :    0.153793
  31 H :    0.474738
  32 H :    0.505734
  33 H :    0.495340
  34 H :    0.481308
Sum of atomic charges:    0.0000000

LOEWDIN ATOMIC CHARGES
----------------------
   0 C :   -0.253074
   1 C :   -0.139251
   2 C :   -0.219270
   3 C :   -0.221447
   4 S :    0.614684
   5 H :    0.021192
   6 H :    0.080432
   7 H :    0.006203
   8 O :   -0.279713
   9 F :   -0.090380
  10 H :    0.115385
  11 H :    0.104406
  12 O :   -0.239234
  13 C :   -0.216246
  14 H :    0.121087
  15 H :    0.113100
  16 C :   -0.229981
  17 H :    0.100487
  18 H :    0.123175
  19 C :   -0.221160
  20 H :    0.121099
  21 H :    0.102539
  22 C :   -0.225301
  23 H :    0.117151
  24 H :    0.115290
  25 C :   -0.225658
  26 H :    0.117468
  27 H :    0.122725
  28 C :   -0.239985
  29 H :    0.133757
  30 H :    0.093536
  31 H :    0.119297
  32 H :    0.129795
  33 H :    0.114429
  34 H :    0.113461

  Mayer bond orders larger than 0.100000
B(  0-C ,  2-C ) :   0.6588 B(  0-C ,  7-H ) :  -0.1197 B(  0-C , 10-H ) :   0.9499
B(  0-C , 11-H ) :   0.9752 B(  1-C ,  5-H ) :   0.5061 B(  1-C ,  6-H ) :   0.7237
B(  1-C ,  7-H ) :   0.5326 B(  1-C ,  8-O ) :   0.2480 B(  1-C ,  9-F ) :   0.1493
B(  2-C , 13-C ) :   0.6711 B(  2-C , 14-H ) :   0.9148 B(  2-C , 15-H ) :   0.9236
B(  3-C ,  4-S ) :   1.0090 B(  3-C , 12-O ) :   0.1495 B(  3-C , 28-C ) :   0.4858
B(  3-C , 33-H ) :   0.7805 B(  3-C , 34-H ) :   0.9345 B(  4-S ,  8-O ) :   1.6538
B(  4-S ,  9-F ) :   0.9205 B(  4-S , 12-O ) :   1.5007 B(  5-H ,  6-H ) :   0.1170
B(  5-H ,  9-F ) :  -0.1306 B(  7-H ,  8-O ) :  -0.2683 B( 13-C , 16-C ) :   0.2439
B( 13-C , 17-H ) :   1.0433 B( 13-C , 18-H ) :   0.9552 B( 13-C , 21-H ) :  -0.1427
B( 16-C , 19-C ) :   0.6399 B( 16-C , 20-H ) :   0.8802 B( 16-C , 21-H ) :   1.0800
B( 16-C , 25-C ) :   0.1051 B( 19-C , 22-C ) :   0.6542 B( 19-C , 23-H ) :   0.9721
B( 19-C , 24-H ) :   0.9552 B( 22-C , 25-C ) :   0.3012 B( 22-C , 26-H ) :   0.9098
B( 22-C , 27-H ) :   0.8651 B( 22-C , 28-C ) :   0.2151 B( 25-C , 28-C ) :   0.3811
B( 25-C , 29-H ) :   0.9108 B( 25-C , 30-H ) :   1.0540 B( 28-C , 31-H ) :   0.8367
B( 28-C , 32-H ) :   0.8352 B( 28-C , 34-H ) :  -0.1102 B( 29-H , 30-H ) :   0.1689

FINAL SINGLE POINT ENERGY     -1040.618407989443

DIPOLE MOMENT
-------------
                                X             Y             Z
Electronic contribution:     -9.53478     -19.50096     -11.07383
Nuclear contribution   :      8.71934      19.48829      12.54264
                        -----------------------------------------
Total Dipole Moment    :     -0.81544      -0.01268       1.46881
                        -----------------------------------------
Magnitude (a.u.)       :      1.68003
Magnitude (Debye)      :      4.27030

Rotational constants in cm-1:     0.025810     0.015137     0.010647
Rotational constants in MHz :   773.773140   453.802427   319.195213

                             ****ORCA TERMINATED NORMALLY****
TOTAL RUN TIME: 0 days 0 hours 9 minutes 4 seconds 317 msec
