                         Program Version 5.0.0 -  RELEASE  -
|  1> !LC-BLYP RIJCOSX def2-TZVPD def2/J TightSCF xyzfile
|  2>
|  3> *xyzfile 0 1 D3.xyz
|  4>
|  5> %MaxCore 64000
|  6>
|  7> %pal nprocs 4
|  8> end
|  9>
| 10> %scf
| 11>   MaxIter 150
| 12> end
| 13>
| 14>
| 15>                          ****END OF INPUT****

CARTESIAN COORDINATES (ANGSTROEM)
---------------------------------
  C     -2.160376   -1.369486   -3.467104
  C     -3.030108   -1.910857   -4.541074
  C     -2.047717    0.146583   -3.511774
  C     -7.330440   -2.678991   -3.206811
  S     -6.019659   -2.926965   -4.419128
  H     -3.477443   -2.791513   -4.257096
  H     -2.538013   -2.017860   -5.438075
  H     -3.891589   -1.376039   -4.714365
  O     -5.645830   -1.588384   -4.919307
  O     -4.881961   -3.503697   -3.667235
  H     -1.184438   -1.843997   -3.566393
  H     -2.598195   -1.708376   -2.528477
  F     -6.549267   -3.805150   -5.425071
  C     -3.328755    0.875037   -3.103669
  H     -1.740034    0.452343   -4.517126
  H     -1.232611    0.434938   -2.842208
  C     -3.628487    0.771601   -1.609363
  H     -4.175106    0.490791   -3.682203
  H     -3.237812    1.928663   -3.381480
  C     -4.975718    1.361432   -1.190644
  H     -2.830700    1.276234   -1.054766
  H     -3.594312   -0.275838   -1.294603
  C     -6.184720    0.784347   -1.926464
  H     -4.956292    2.445725   -1.342200
  H     -5.097256    1.205252   -0.114136
  C     -6.286921   -0.735882   -1.893531
  H     -6.163994    1.100199   -2.974250
  H     -7.094530    1.223459   -1.504509
  C     -7.468999   -1.246153   -2.713833
  H     -6.360641   -1.090347   -0.859176
  H     -5.369848   -1.171853   -2.295982
  H     -7.601914   -0.601349   -3.585329
  H     -8.389791   -1.173436   -2.126922
  H     -7.118254   -3.379818   -2.398055
  H     -8.241838   -3.004745   -3.706513

 Total Charge           Charge          ....    0
 Multiplicity           Mult            ....    1
 Number of Electrons    NEL             ....  122
 Basis Dimension        Dim             ....  725

ORBITAL ENERGIES
----------------

  NO   OCC          E(Eh)            E(eV)
   0   2.0000     -88.530232     -2409.0301
   1   2.0000     -24.587653      -669.0641
   2   2.0000     -18.954213      -515.7704
   3   2.0000     -18.951099      -515.6856
   4   2.0000     -10.136821      -275.8369
   5   2.0000     -10.095988      -274.7258
   6   2.0000     -10.069905      -274.0160
   7   2.0000     -10.062119      -273.8042
   8   2.0000     -10.056384      -273.6481
   9   2.0000     -10.048170      -273.4246
  10   2.0000     -10.042324      -273.2655
  11   2.0000     -10.036692      -273.1123
  12   2.0000     -10.025534      -272.8087
  13   2.0000      -9.970453      -271.3098
  14   2.0000      -8.073175      -219.6823
  15   2.0000      -6.104978      -166.1249
  16   2.0000      -6.098010      -165.9353
  17   2.0000      -6.097652      -165.9256
  18   2.0000      -1.479195       -40.2509
  19   2.0000      -1.205197       -32.7951
  20   2.0000      -1.104894       -30.0657
  21   2.0000      -0.953532       -25.9469
  22   2.0000      -0.918915       -25.0050
  23   2.0000      -0.888848       -24.1868
  24   2.0000      -0.867743       -23.6125
  25   2.0000      -0.832131       -22.6434
  26   2.0000      -0.808589       -22.0028
  27   2.0000      -0.772714       -21.0266
  28   2.0000      -0.738557       -20.0972
  29   2.0000      -0.719418       -19.5764
  30   2.0000      -0.705921       -19.2091
  31   2.0000      -0.697825       -18.9888
  32   2.0000      -0.673734       -18.3332
  33   2.0000      -0.667150       -18.1541
  34   2.0000      -0.640651       -17.4330
  35   2.0000      -0.608358       -16.5543
  36   2.0000      -0.595901       -16.2153
  37   2.0000      -0.580497       -15.7961
  38   2.0000      -0.574888       -15.6435
  39   2.0000      -0.567400       -15.4397
  40   2.0000      -0.552042       -15.0218
  41   2.0000      -0.535814       -14.5802
  42   2.0000      -0.524267       -14.2660
  43   2.0000      -0.521187       -14.1822
  44   2.0000      -0.509166       -13.8551
  45   2.0000      -0.490043       -13.3348
  46   2.0000      -0.486015       -13.2251
  47   2.0000      -0.478784       -13.0284
  48   2.0000      -0.464932       -12.6514
  49   2.0000      -0.455081       -12.3834
  50   2.0000      -0.447770       -12.1844
  51   2.0000      -0.437135       -11.8950
  52   2.0000      -0.433673       -11.8008
  53   2.0000      -0.429858       -11.6970
  54   2.0000      -0.421683       -11.4746
  55   2.0000      -0.411601       -11.2002
  56   2.0000      -0.405046       -11.0219
  57   2.0000      -0.399783       -10.8786
  58   2.0000      -0.384829       -10.4717
  59   2.0000      -0.376066       -10.2333
  60   2.0000      -0.362253        -9.8574
  61   0.0000       0.024108         0.6560
  62   0.0000       0.047065         1.2807
  63   0.0000       0.047192         1.2842
  64   0.0000       0.060016         1.6331
  65   0.0000       0.070362         1.9146

MULLIKEN ATOMIC CHARGES
-----------------------
   0 C :   -0.483787
   1 C :   -2.129680
   2 C :   -0.870641
   3 C :   -1.198062
   4 S :    1.228364
   5 H :    0.725117
   6 H :    0.557980
   7 H :    0.672681
   8 O :   -0.633048
   9 O :   -0.606402
  10 H :    0.390201
  11 H :    0.338694
  12 F :   -0.062112
  13 C :   -0.504990
  14 H :    0.404536
  15 H :    0.393846
  16 C :   -0.761298
  17 H :    0.259374
  18 H :    0.361934
  19 C :   -0.969470
  20 H :    0.427394
  21 H :    0.331202
  22 C :   -1.049169
  23 H :    0.396723
  24 H :    0.403497
  25 C :   -0.166197
  26 H :    0.473108
  27 H :    0.426281
  28 C :   -0.921084
  29 H :    0.368782
  30 H :    0.233321
  31 H :    0.457659
  32 H :    0.494559
  33 H :    0.459563
  34 H :    0.551126
Sum of atomic charges:   -0.0000000

LOEWDIN ATOMIC CHARGES
----------------------
   0 C :   -0.252500
   1 C :   -0.150166
   2 C :   -0.222320
   3 C :   -0.225451
   4 S :    0.635861
   5 H :    0.000481
   6 H :    0.075753
   7 H :    0.006435
   8 O :   -0.278594
   9 O :   -0.284355
  10 H :    0.114225
  11 H :    0.106198
  12 F :   -0.019005
  13 C :   -0.217488
  14 H :    0.119201
  15 H :    0.111440
  16 C :   -0.229424
  17 H :    0.099858
  18 H :    0.121661
  19 C :   -0.221938
  20 H :    0.120531
  21 H :    0.104354
  22 C :   -0.227093
  23 H :    0.116295
  24 H :    0.114843
  25 C :   -0.221448
  26 H :    0.116432
  27 H :    0.121137
  28 C :   -0.237618
  29 H :    0.134712
  30 H :    0.098031
  31 H :    0.117336
  32 H :    0.129840
  33 H :    0.117320
  34 H :    0.105455

  Mayer bond orders larger than 0.100000
B(  0-C ,  2-C ) :   0.6290 B(  0-C ,  7-H ) :  -0.1111 B(  0-C , 10-H ) :   0.9299
B(  0-C , 11-H ) :   0.9816 B(  1-C ,  5-H ) :   0.5371 B(  1-C ,  6-H ) :   0.7443
B(  1-C ,  7-H ) :   0.6028 B(  1-C ,  8-O ) :   0.2156 B(  1-C ,  9-O ) :   0.1126
B(  2-C , 13-C ) :   0.6724 B(  2-C , 14-H ) :   0.9227 B(  2-C , 15-H ) :   0.9198
B(  3-C ,  4-S ) :   0.9815 B(  3-C ,  9-O ) :   0.1101 B(  3-C , 28-C ) :   0.5637
B(  3-C , 33-H ) :   0.8404 B(  3-C , 34-H ) :   0.8023 B(  4-S ,  8-O ) :   1.6721
B(  4-S ,  9-O ) :   1.6243 B(  4-S , 12-F ) :   0.9078 B(  5-H ,  6-H ) :   0.1204
B(  5-H ,  9-O ) :  -0.2254 B(  7-H ,  8-O ) :  -0.3170 B(  8-O ,  9-O ) :   0.1509
B( 13-C , 16-C ) :   0.2553 B( 13-C , 17-H ) :   1.0528 B( 13-C , 18-H ) :   0.9479
B( 13-C , 21-H ) :  -0.1379 B( 16-C , 19-C ) :   0.6350 B( 16-C , 20-H ) :   0.8789
B( 16-C , 21-H ) :   1.0763 B( 16-C , 22-C ) :  -0.1045 B( 16-C , 25-C ) :   0.1015
B( 17-H , 18-H ) :   0.1001 B( 19-C , 22-C ) :   0.6600 B( 19-C , 23-H ) :   0.9749
B( 19-C , 24-H ) :   0.9546 B( 22-C , 25-C ) :   0.2704 B( 22-C , 26-H ) :   0.9209
B( 22-C , 27-H ) :   0.8666 B( 22-C , 28-C ) :   0.2106 B( 25-C , 28-C ) :   0.3839
B( 25-C , 29-H ) :   0.9050 B( 25-C , 30-H ) :   1.0569 B( 28-C , 31-H ) :   0.8439
B( 28-C , 32-H ) :   0.8427 B( 29-H , 30-H ) :   0.1891

FINAL SINGLE POINT ENERGY     -1040.599923517247

DIPOLE MOMENT
-------------
                                X             Y             Z
Electronic contribution:    -12.67183     -20.27998     -14.29395
Nuclear contribution   :     10.70731      19.84772      14.63855
                        -----------------------------------------
Total Dipole Moment    :     -1.96452      -0.43226       0.34460
                        -----------------------------------------
Magnitude (a.u.)       :      2.04082
Magnitude (Debye)      :      5.18735

Rotational constants in cm-1:     0.026014     0.014812     0.010477
Rotational constants in MHz :   779.874765   444.063394   314.081855

                             ****ORCA TERMINATED NORMALLY****
TOTAL RUN TIME: 0 days 0 hours 9 minutes 4 seconds 420 msec
