                         Program Version 5.0.0 -  RELEASE  -
|  1> !wB97X-D3 RIJCOSX def2-SVPD def2/J TightSCF
|  2> *xyz -1 1
|  3> C          3.93993        0.32036       -4.36773
|  4> C          5.10585        0.66802       -5.30546
|  5> O          4.80913        1.15019       -6.41436
|  6> O          6.26737        0.56500       -4.81948
|  7> H          3.01376        0.44480       -4.88890
|  8> H          3.96058        0.96928       -3.51722
|  9> H          4.03331       -0.69517       -4.04388
| 10> *
| 11>
| 12> %MaxCore 64000
| 13>
| 14> %pal nprocs 18
| 15> end
| 16>
| 17> %scf
| 18>   MaxIter 150
| 19> end
| 20>
| 21>
| 22>                          ****END OF INPUT****

CARTESIAN COORDINATES (ANGSTROEM)
---------------------------------
  C      3.939930    0.320360   -4.367730
  C      5.105850    0.668020   -5.305460
  O      4.809130    1.150190   -6.414360
  O      6.267370    0.565000   -4.819480
  H      3.013760    0.444800   -4.888900
  H      3.960580    0.969280   -3.517220
  H      4.033310   -0.695170   -4.043880

 Total Charge           Charge          ....   -1
 Multiplicity           Mult            ....    1
 Number of Electrons    NEL             ....   32
 Basis Dimension        Dim             ....  110

ORBITAL ENERGIES
----------------

  NO   OCC          E(Eh)            E(eV)
   0   2.0000     -18.981329      -516.5082
   1   2.0000     -18.976937      -516.3887
   2   2.0000     -10.176343      -276.9124
   3   2.0000     -10.100539      -274.8497
   4   2.0000      -0.925901       -25.1951
   5   2.0000      -0.830748       -22.6058
   6   2.0000      -0.650519       -17.7015
   7   2.0000      -0.404643       -11.0109
   8   2.0000      -0.360123        -9.7995
   9   2.0000      -0.344788        -9.3821
  10   2.0000      -0.327439        -8.9101
  11   2.0000      -0.284433        -7.7398
  12   2.0000      -0.265327        -7.2199
  13   2.0000      -0.141695        -3.8557
  14   2.0000      -0.134600        -3.6627
  15   2.0000      -0.123491        -3.3604
  16   0.0000       0.239661         6.5215
  17   0.0000       0.274299         7.4641
  18   0.0000       0.298058         8.1106
  19   0.0000       0.309538         8.4230
  20   0.0000       0.335093         9.1183

MULLIKEN ATOMIC CHARGES
-----------------------
   0 C :    0.412932
   1 C :    0.052463
   2 O :   -0.632230
   3 O :   -0.686985
   4 H :   -0.063481
   5 H :   -0.042233
   6 H :   -0.040466
Sum of atomic charges:   -1.0000000

LOEWDIN ATOMIC CHARGES
----------------------
   0 C :    0.136205
   1 C :   -0.332028
   2 O :   -0.336313
   3 O :   -0.354001
   4 H :   -0.042941
   5 H :   -0.033277
   6 H :   -0.037644

  Mayer bond orders larger than 0.100000
B(  0-C ,  1-C ) :   1.2041 B(  0-C ,  4-H ) :   0.8843 B(  0-C ,  5-H ) :   0.8444
B(  0-C ,  6-H ) :   0.8264 B(  1-C ,  2-O ) :   1.5460 B(  1-C ,  3-O ) :   1.5073
B(  1-C ,  4-H ) :   0.2218 B(  1-C ,  5-H ) :   0.1414 B(  1-C ,  6-H ) :   0.1563

Dispersion correction           -0.000905523
FINAL SINGLE POINT ENERGY      -228.305142240218

DIPOLE MOMENT
-------------
                                X             Y             Z
Electronic contribution:      2.68546       0.85234      -2.20673
Nuclear contribution   :     -3.81330      -1.22874       3.01208
                        -----------------------------------------
Total Dipole Moment    :     -1.12784      -0.37640       0.80535
                        -----------------------------------------
Magnitude (a.u.)       :      1.43607
Magnitude (Debye)      :      3.65020

Rotational constants in cm-1:     0.390282     0.335702     0.186718
Rotational constants in MHz : 11700.346989 10064.094211  5597.661196

                             ****ORCA TERMINATED NORMALLY****
TOTAL RUN TIME: 0 days 0 hours 0 minutes 4 seconds 620 msec
