                         Program Version 5.0.0 -  RELEASE  -
|  1> !wB97X-D3 RIJCOSX def2-SVPD def2/J TightSCF
|  2> *xyz 1 1
|  3> C          3.90595        2.81985       -3.75292
|  4> N          5.29562        3.13151       -4.10533
|  5> C          5.70862        3.46889       -5.32419
|  6> N          6.90470        3.03895       -5.71708
|  7> N          4.98188        4.29357       -6.09746
|  8> H          5.00055        4.10131       -7.08776
|  9> H          4.08469        4.59690       -5.73965
| 10> H          5.96336        2.52611       -3.64239
| 11> H          7.04716        2.06686       -5.47360
| 12> H          7.19815        3.30799       -6.64523
| 13> H          3.24866        3.48801       -4.26909
| 14> H          3.77188        2.93227       -2.69732
| 15> H          3.68381        1.81198       -4.03533
| 16> *
| 17>
| 18> %MaxCore 64000
| 19>
| 20> %pal nprocs 18
| 21> end
| 22>
| 23> %scf
| 24>   MaxIter 150
| 25> end
| 26>
| 27>
| 28>                          ****END OF INPUT****

CARTESIAN COORDINATES (ANGSTROEM)
---------------------------------
  C      3.905950    2.819850   -3.752920
  N      5.295620    3.131510   -4.105330
  C      5.708620    3.468890   -5.324190
  N      6.904700    3.038950   -5.717080
  N      4.981880    4.293570   -6.097460
  H      5.000550    4.101310   -7.087760
  H      4.084690    4.596900   -5.739650
  H      5.963360    2.526110   -3.642390
  H      7.047160    2.066860   -5.473600
  H      7.198150    3.307990   -6.645230
  H      3.248660    3.488010   -4.269090
  H      3.771880    2.932270   -2.697320
  H      3.683810    1.811980   -4.035330

 Total Charge           Charge          ....    1
 Multiplicity           Mult            ....    1
 Number of Electrons    NEL             ....   40
 Basis Dimension        Dim             ....  164

ORBITAL ENERGIES
----------------

  NO   OCC          E(Eh)            E(eV)
   0   2.0000     -14.673347      -399.2821
   1   2.0000     -14.670424      -399.2025
   2   2.0000     -14.670091      -399.1935
   3   2.0000     -10.638252      -289.4816
   4   2.0000     -10.500764      -285.7403
   5   2.0000      -1.339867       -36.4596
   6   2.0000      -1.223077       -33.2816
   7   2.0000      -1.214931       -33.0599
   8   2.0000      -1.020408       -27.7667
   9   2.0000      -0.934096       -25.4180
  10   2.0000      -0.891139       -24.2491
  11   2.0000      -0.864817       -23.5329
  12   2.0000      -0.811127       -22.0719
  13   2.0000      -0.794974       -21.6324
  14   2.0000      -0.751384       -20.4462
  15   2.0000      -0.744633       -20.2625
  16   2.0000      -0.690807       -18.7978
  17   2.0000      -0.681790       -18.5524
  18   2.0000      -0.592325       -16.1180
  19   2.0000      -0.562820       -15.3151
  20   0.0000      -0.120044        -3.2666
  21   0.0000      -0.084279        -2.2933
  22   0.0000      -0.042225        -1.1490
  23   0.0000      -0.036698        -0.9986
  24   0.0000      -0.007672        -0.2088

MULLIKEN ATOMIC CHARGES
-----------------------
   0 C :    1.051853
   1 N :   -0.513197
   2 C :    0.809643
   3 N :   -0.041835
   4 N :    0.030474
   5 H :    0.014842
   6 H :    0.000747
   7 H :   -0.133955
   8 H :    0.042995
   9 H :    0.045546
  10 H :   -0.148158
  11 H :   -0.112986
  12 H :   -0.045967
Sum of atomic charges:    1.0000000

LOEWDIN ATOMIC CHARGES
----------------------
   0 C :    0.265315
   1 N :    0.021032
   2 C :   -0.041025
   3 N :    0.264826
   4 N :    0.276573
   5 H :    0.041376
   6 H :    0.021602
   7 H :    0.053227
   8 H :    0.041844
   9 H :    0.040660
  10 H :   -0.011154
  11 H :    0.014526
  12 H :    0.011199

  Mayer bond orders larger than 0.100000
B(  0-C ,  1-N ) :   0.8582 B(  0-C , 10-H ) :   0.8545 B(  0-C , 11-H ) :   0.8324
B(  0-C , 12-H ) :   0.8321 B(  1-N ,  2-C ) :   1.1931 B(  1-N ,  3-N ) :   0.1676
B(  1-N ,  7-H ) :   1.1721 B(  1-N , 10-H ) :   0.1338 B(  1-N , 11-H ) :   0.1828
B(  1-N , 12-H ) :   0.1141 B(  2-C ,  3-N ) :   1.0454 B(  2-C ,  4-N ) :   1.0454
B(  2-C ,  7-H ) :  -0.1313 B(  3-N ,  4-N ) :   0.1099 B(  3-N ,  8-H ) :   1.0326
B(  3-N ,  9-H ) :   0.9635 B(  4-N ,  5-H ) :   1.1001 B(  4-N ,  6-H ) :   0.9873
B(  5-H ,  6-H ) :  -0.1139

Dispersion correction           -0.002448326
FINAL SINGLE POINT ENERGY      -244.843198135786

DIPOLE MOMENT
-------------
                                X             Y             Z
Electronic contribution:      2.50290       1.07772      -1.19972
Nuclear contribution   :     -2.62204      -1.73043       0.52001
                        -----------------------------------------
Total Dipole Moment    :     -0.11913      -0.65272      -0.67971
                        -----------------------------------------
Magnitude (a.u.)       :      0.94986
Magnitude (Debye)      :      2.41436

Rotational constants in cm-1:     0.299316     0.133886     0.097604
Rotational constants in MHz :  8973.254382  4013.798371  2926.103660

                             ****ORCA TERMINATED NORMALLY****
TOTAL RUN TIME: 0 days 0 hours 0 minutes 8 seconds 551 msec
