                         Program Version 5.0.0 -  RELEASE  -
|  1> !wB97X-D3 RIJCOSX def2-SVPD def2/J TightSCF
|  2> *xyz 0 1
|  3> C          3.93993        0.32036       -4.36773
|  4> C          5.10585        0.66802       -5.30546
|  5> F          4.80913        1.15019       -6.41436
|  6> O          6.26737        0.56500       -4.81948
|  7> H          3.01376        0.44480       -4.88890
|  8> H          3.96058        0.96928       -3.51722
|  9> H          4.03331       -0.69517       -4.04388
| 10> *
| 11>
| 12> %MaxCore 64000
| 13>
| 14> %pal nprocs 18
| 15> end
| 16>
| 17> %scf
| 18>   MaxIter 150
| 19> end
| 20>
| 21>
| 22>                          ****END OF INPUT****

CARTESIAN COORDINATES (ANGSTROEM)
---------------------------------
  C      3.939930    0.320360   -4.367730
  C      5.105850    0.668020   -5.305460
  F      4.809130    1.150190   -6.414360
  O      6.267370    0.565000   -4.819480
  H      3.013760    0.444800   -4.888900
  H      3.960580    0.969280   -3.517220
  H      4.033310   -0.695170   -4.043880

 Total Charge           Charge          ....    0
 Multiplicity           Mult            ....    1
 Number of Electrons    NEL             ....   32
 Basis Dimension        Dim             ....  110

ORBITAL ENERGIES
----------------

  NO   OCC          E(Eh)            E(eV)
   0   2.0000     -24.882687      -677.0923
   1   2.0000     -19.256933      -524.0078
   2   2.0000     -10.482658      -285.2476
   3   2.0000     -10.317751      -280.7603
   4   2.0000      -1.436900       -39.1000
   5   2.0000      -1.140342       -31.0303
   6   2.0000      -0.883134       -24.0313
   7   2.0000      -0.775469       -21.1016
   8   2.0000      -0.665934       -18.1210
   9   2.0000      -0.660129       -17.9630
  10   2.0000      -0.609492       -16.5851
  11   2.0000      -0.547064       -14.8864
  12   2.0000      -0.533938       -14.5292
  13   2.0000      -0.504287       -13.7223
  14   2.0000      -0.452329       -12.3085
  15   2.0000      -0.395006       -10.7487
  16   0.0000       0.047947         1.3047
  17   0.0000       0.083216         2.2644
  18   0.0000       0.123602         3.3634
  19   0.0000       0.159465         4.3393
  20   0.0000       0.161844         4.4040

MULLIKEN ATOMIC CHARGES
-----------------------
   0 C :    0.266159
   1 C :    0.441834
   2 F :   -0.337074
   3 O :   -0.495545
   4 H :    0.007398
   5 H :    0.063374
   6 H :    0.053854
Sum of atomic charges:   -0.0000000

LOEWDIN ATOMIC CHARGES
----------------------
   0 C :    0.208714
   1 C :   -0.020985
   2 F :   -0.033887
   3 O :   -0.151943
   4 H :   -0.012623
   5 H :    0.006588
   6 H :    0.004135

  Mayer bond orders larger than 0.100000
B(  0-C ,  1-C ) :   1.2448 B(  0-C ,  4-H ) :   0.9015 B(  0-C ,  5-H ) :   0.8414
B(  0-C ,  6-H ) :   0.8276 B(  1-C ,  2-F ) :   0.8208 B(  1-C ,  3-O ) :   1.8155
B(  1-C ,  4-H ) :   0.1307 B(  1-C ,  5-H ) :   0.1124 B(  1-C ,  6-H ) :   0.1322

Dispersion correction           -0.000910951
FINAL SINGLE POINT ENERGY      -252.833878870619

DIPOLE MOMENT
-------------
                                X             Y             Z
Electronic contribution:      2.38025       1.62566      -4.17023
Nuclear contribution   :     -3.58567      -1.71656       4.24175
                        -----------------------------------------
Total Dipole Moment    :     -1.20542      -0.09090       0.07152
                        -----------------------------------------
Magnitude (a.u.)       :      1.21096
Magnitude (Debye)      :      3.07800

Rotational constants in cm-1:     0.365806     0.323297     0.177262
Rotational constants in MHz : 10966.600844  9692.195205  5314.176777

                             ****ORCA TERMINATED NORMALLY****
TOTAL RUN TIME: 0 days 0 hours 0 minutes 4 seconds 953 msec
