                         Program Version 5.0.0 -  RELEASE  -
|  1> !wB97X-D3 RIJCOSX def2-SVPD def2/J TightSCF
|  2> *xyz 0 1
|  3> C          3.90595        2.81985       -3.75292
|  4> C          5.29562        3.13151       -4.10533
|  5> C          5.70862        3.46889       -5.32419
|  6> N          6.90470        3.03895       -5.71708
|  7> N          4.98188        4.29357       -6.09746
|  8> H          5.00055        4.10131       -7.08776
|  9> H          4.08469        4.59690       -5.73965
| 10> H          5.96336        2.52611       -3.64239
| 11> H          7.04716        2.06686       -5.47360
| 12> H          7.19815        3.30799       -6.64523
| 13> H          3.24866        3.48801       -4.26909
| 14> H          3.77188        2.93227       -2.69732
| 15> H          3.68381        1.81198       -4.03533
| 16> *
| 17>
| 18> %MaxCore 64000
| 19>
| 20> %pal nprocs 18
| 21> end
| 22>
| 23> %scf
| 24>   MaxIter 150
| 25> end
| 26>
| 27>
| 28>                          ****END OF INPUT****

CARTESIAN COORDINATES (ANGSTROEM)
---------------------------------
  C      3.905950    2.819850   -3.752920
  C      5.295620    3.131510   -4.105330
  C      5.708620    3.468890   -5.324190
  N      6.904700    3.038950   -5.717080
  N      4.981880    4.293570   -6.097460
  H      5.000550    4.101310   -7.087760
  H      4.084690    4.596900   -5.739650
  H      5.963360    2.526110   -3.642390
  H      7.047160    2.066860   -5.473600
  H      7.198150    3.307990   -6.645230
  H      3.248660    3.488010   -4.269090
  H      3.771880    2.932270   -2.697320
  H      3.683810    1.811980   -4.035330

 Total Charge           Charge          ....    0
 Multiplicity           Mult            ....    1
 Number of Electrons    NEL             ....   40
 Basis Dimension        Dim             ....  164

ORBITAL ENERGIES
----------------

  NO   OCC          E(Eh)            E(eV)
   0   2.0000     -14.440640      -392.9498
   1   2.0000     -14.438729      -392.8978
   2   2.0000     -10.333986      -281.2020
   3   2.0000     -10.258417      -279.1457
   4   2.0000     -10.216198      -277.9969
   5   2.0000      -1.076276       -29.2870
   6   2.0000      -0.984585       -26.7919
   7   2.0000      -0.865166       -23.5424
   8   2.0000      -0.764814       -20.8117
   9   2.0000      -0.686352       -18.6766
  10   2.0000      -0.641526       -17.4568
  11   2.0000      -0.610287       -16.6068
  12   2.0000      -0.578871       -15.7519
  13   2.0000      -0.530716       -14.4415
  14   2.0000      -0.503509       -13.7012
  15   2.0000      -0.480072       -13.0634
  16   2.0000      -0.452045       -12.3008
  17   2.0000      -0.428954       -11.6724
  18   2.0000      -0.371258       -10.1024
  19   2.0000      -0.255638        -6.9563
  20   0.0000       0.086138         2.3439
  21   0.0000       0.113114         3.0780
  22   0.0000       0.127801         3.4776
  23   0.0000       0.133579         3.6349
  24   0.0000       0.158974         4.3259

MULLIKEN ATOMIC CHARGES
-----------------------
   0 C :    0.769883
   1 C :   -0.417918
   2 C :    0.205796
   3 N :    0.015103
   4 N :    0.022865
   5 H :   -0.064884
   6 H :   -0.014825
   7 H :   -0.196576
   8 H :    0.019044
   9 H :   -0.065694
  10 H :   -0.227319
  11 H :    0.020988
  12 H :   -0.066462
Sum of atomic charges:    0.0000000

LOEWDIN ATOMIC CHARGES
----------------------
   0 C :    0.092917
   1 C :   -0.058249
   2 C :   -0.245219
   3 N :    0.179091
   4 N :    0.189338
   5 H :   -0.009103
   6 H :   -0.010839
   7 H :   -0.054276
   8 H :    0.005667
   9 H :   -0.008832
  10 H :   -0.041947
  11 H :   -0.020804
  12 H :   -0.017743

  Mayer bond orders larger than 0.100000
B(  0-C ,  1-C ) :   1.1170 B(  0-C ,  7-H ) :   0.1813 B(  0-C , 10-H ) :   0.7607
B(  0-C , 11-H ) :   0.7187 B(  0-C , 12-H ) :   0.8448 B(  1-C ,  2-C ) :   1.9960
B(  1-C ,  3-N ) :   0.2851 B(  1-C ,  4-N ) :   0.1356 B(  1-C ,  7-H ) :   0.7192
B(  1-C , 10-H ) :   0.2825 B(  1-C , 11-H ) :   0.2152 B(  2-C ,  3-N ) :   0.9977
B(  2-C ,  4-N ) :   1.0486 B(  2-C ,  7-H ) :   0.3168 B(  3-N ,  8-H ) :   1.0132
B(  3-N ,  9-H ) :   0.9385 B(  4-N ,  5-H ) :   1.0681 B(  4-N ,  6-H ) :   0.9699
B( 10-H , 11-H ) :   0.1191

Dispersion correction           -0.002449451
FINAL SINGLE POINT ENERGY      -228.381386731425

DIPOLE MOMENT
-------------
                                X             Y             Z
Electronic contribution:      2.50662       1.33630      -1.81931
Nuclear contribution   :     -2.63304      -1.77161       0.70501
                        -----------------------------------------
Total Dipole Moment    :     -0.12642      -0.43532      -1.11430
                        -----------------------------------------
Magnitude (a.u.)       :      1.20297
Magnitude (Debye)      :      3.05771

Rotational constants in cm-1:     0.303572     0.135185     0.098519
Rotational constants in MHz :  9100.846149  4052.756012  2953.539431

                             ****ORCA TERMINATED NORMALLY****
TOTAL RUN TIME: 0 days 0 hours 0 minutes 8 seconds 175 msec
