                         Program Version 5.0.0 -  RELEASE  -
|  1> !wB97X-D3 RIJCOSX def2-SVPD def2/J TightSCF
|  2> *xyz 0 1
|  3> C          3.93993        0.32036       -4.36773
|  4> C          5.10585        0.66802       -5.30546
|  5> O          4.80913        1.15019       -6.41436
|  6> F          6.26737        0.56500       -4.81948
|  7> H          3.01376        0.44480       -4.88890
|  8> H          3.96058        0.96928       -3.51722
|  9> H          4.03331       -0.69517       -4.04388
| 10> *
| 11>
| 12> %MaxCore 64000
| 13>
| 14> %pal nprocs 18
| 15> end
| 16>
| 17> %scf
| 18>   MaxIter 150
| 19> end
| 20>
| 21>
| 22>                          ****END OF INPUT****

CARTESIAN COORDINATES (ANGSTROEM)
---------------------------------
  C      3.939930    0.320360   -4.367730
  C      5.105850    0.668020   -5.305460
  O      4.809130    1.150190   -6.414360
  F      6.267370    0.565000   -4.819480
  H      3.013760    0.444800   -4.888900
  H      3.960580    0.969280   -3.517220
  H      4.033310   -0.695170   -4.043880

 Total Charge           Charge          ....    0
 Multiplicity           Mult            ....    1
 Number of Electrons    NEL             ....   32
 Basis Dimension        Dim             ....  110

ORBITAL ENERGIES
----------------

  NO   OCC          E(Eh)            E(eV)
   0   2.0000     -24.875869      -676.9068
   1   2.0000     -19.260145      -524.0952
   2   2.0000     -10.480995      -285.2024
   3   2.0000     -10.317385      -280.7503
   4   2.0000      -1.422871       -38.7183
   5   2.0000      -1.152065       -31.3493
   6   2.0000      -0.882415       -24.0117
   7   2.0000      -0.767751       -20.8916
   8   2.0000      -0.658482       -17.9182
   9   2.0000      -0.653113       -17.7721
  10   2.0000      -0.609740       -16.5919
  11   2.0000      -0.545781       -14.8514
  12   2.0000      -0.535181       -14.5630
  13   2.0000      -0.506863       -13.7924
  14   2.0000      -0.461738       -12.5645
  15   2.0000      -0.397346       -10.8123
  16   0.0000       0.052722         1.4346
  17   0.0000       0.083680         2.2770
  18   0.0000       0.123773         3.3680
  19   0.0000       0.156745         4.2652
  20   0.0000       0.164022         4.4633

MULLIKEN ATOMIC CHARGES
-----------------------
   0 C :    0.279585
   1 C :    0.447156
   2 O :   -0.451273
   3 F :   -0.378677
   4 H :   -0.012641
   5 H :    0.061279
   6 H :    0.054571
Sum of atomic charges:   -0.0000000

LOEWDIN ATOMIC CHARGES
----------------------
   0 C :    0.208627
   1 C :   -0.021543
   2 O :   -0.139145
   3 F :   -0.046182
   4 H :   -0.000180
   5 H :    0.001695
   6 H :   -0.003273

  Mayer bond orders larger than 0.100000
B(  0-C ,  1-C ) :   1.2251 B(  0-C ,  4-H ) :   0.9172 B(  0-C ,  5-H ) :   0.8354
B(  0-C ,  6-H ) :   0.8268 B(  1-C ,  2-O ) :   1.8687 B(  1-C ,  3-F ) :   0.7588
B(  1-C ,  4-H ) :   0.1828 B(  1-C ,  5-H ) :   0.1027 B(  1-C ,  6-H ) :   0.1109

Dispersion correction           -0.000899961
FINAL SINGLE POINT ENERGY      -252.839664103399

DIPOLE MOMENT
-------------
                                X             Y             Z
Electronic contribution:      4.76766       0.66687      -1.55639
Nuclear contribution   :     -5.09247      -1.11188       2.59376
                        -----------------------------------------
Total Dipole Moment    :     -0.32481      -0.44502       1.03737
                        -----------------------------------------
Magnitude (a.u.)       :      1.17460
Magnitude (Debye)      :      2.98559

Rotational constants in cm-1:     0.367940     0.321271     0.177147
Rotational constants in MHz : 11030.570495  9631.458923  5310.737691

                             ****ORCA TERMINATED NORMALLY****
TOTAL RUN TIME: 0 days 0 hours 0 minutes 4 seconds 919 msec
