                         Program Version 5.0.0 -  RELEASE  -
|  1> !wB97X-D3 RIJCOSX def2-SVPD def2/J TightSCF
|  2> *xyz 0 1
|  3> C          3.90595        2.81985       -3.75292
|  4> N          5.29562        3.13151       -4.10533
|  5> C          5.70862        3.46889       -5.32419
|  6> C          6.90470        3.03895       -5.71708
|  7> N          4.98188        4.29357       -6.09746
|  8> H          5.00055        4.10131       -7.08776
|  9> H          4.08469        4.59690       -5.73965
| 10> H          5.96336        2.52611       -3.64239
| 11> H          7.04716        2.06686       -5.47360
| 12> H          7.19815        3.30799       -6.64523
| 13> H          3.24866        3.48801       -4.26909
| 14> H          3.77188        2.93227       -2.69732
| 15> H          3.68381        1.81198       -4.03533
| 16> *
| 17>
| 18> %MaxCore 64000
| 19>
| 20> %pal nprocs 18
| 21> end
| 22>
| 23> %scf
| 24>   MaxIter 150
| 25> end
| 26>
| 27>
| 28>                          ****END OF INPUT****

CARTESIAN COORDINATES (ANGSTROEM)
---------------------------------
  C      3.905950    2.819850   -3.752920
  N      5.295620    3.131510   -4.105330
  C      5.708620    3.468890   -5.324190
  C      6.904700    3.038950   -5.717080
  N      4.981880    4.293570   -6.097460
  H      5.000550    4.101310   -7.087760
  H      4.084690    4.596900   -5.739650
  H      5.963360    2.526110   -3.642390
  H      7.047160    2.066860   -5.473600
  H      7.198150    3.307990   -6.645230
  H      3.248660    3.488010   -4.269090
  H      3.771880    2.932270   -2.697320
  H      3.683810    1.811980   -4.035330

 Total Charge           Charge          ....    0
 Multiplicity           Mult            ....    1
 Number of Electrons    NEL             ....   40
 Basis Dimension        Dim             ....  164

ORBITAL ENERGIES
----------------

  NO   OCC          E(Eh)            E(eV)
   0   2.0000     -14.442633      -393.0040
   1   2.0000     -14.442569      -393.0023
   2   2.0000     -10.341212      -281.3987
   3   2.0000     -10.324361      -280.9401
   4   2.0000     -10.202465      -277.6232
   5   2.0000      -1.082364       -29.4526
   6   2.0000      -0.995786       -27.0967
   7   2.0000      -0.857482       -23.3333
   8   2.0000      -0.781202       -21.2576
   9   2.0000      -0.702792       -19.1239
  10   2.0000      -0.639168       -17.3927
  11   2.0000      -0.595490       -16.2041
  12   2.0000      -0.582913       -15.8619
  13   2.0000      -0.554499       -15.0887
  14   2.0000      -0.505872       -13.7655
  15   2.0000      -0.491427       -13.3724
  16   2.0000      -0.484471       -13.1831
  17   2.0000      -0.442923       -12.0526
  18   2.0000      -0.355702        -9.6791
  19   2.0000      -0.264845        -7.2068
  20   0.0000       0.081630         2.2213
  21   0.0000       0.113554         3.0900
  22   0.0000       0.122902         3.3443
  23   0.0000       0.134790         3.6678
  24   0.0000       0.157056         4.2737

MULLIKEN ATOMIC CHARGES
-----------------------
   0 C :    1.060102
   1 N :   -0.546443
   2 C :    0.147848
   3 C :    0.498448
   4 N :    0.087909
   5 H :   -0.029576
   6 H :   -0.105596
   7 H :   -0.125615
   8 H :   -0.238583
   9 H :   -0.301792
  10 H :   -0.197339
  11 H :   -0.172943
  12 H :   -0.076420
Sum of atomic charges:    0.0000000

LOEWDIN ATOMIC CHARGES
----------------------
   0 C :    0.210407
   1 N :   -0.043966
   2 C :   -0.245446
   3 C :    0.135480
   4 N :    0.196186
   5 H :    0.006726
   6 H :   -0.023154
   7 H :    0.023987
   8 H :   -0.100201
   9 H :   -0.101540
  10 H :   -0.030860
  11 H :   -0.013395
  12 H :   -0.014224

  Mayer bond orders larger than 0.100000
B(  0-C ,  1-N ) :   0.8725 B(  0-C , 10-H ) :   0.8455 B(  0-C , 11-H ) :   0.8165
B(  0-C , 12-H ) :   0.8233 B(  1-N ,  2-C ) :   1.1657 B(  1-N ,  3-C ) :   0.1937
B(  1-N ,  7-H ) :   1.1291 B(  1-N , 10-H ) :   0.1404 B(  1-N , 11-H ) :   0.1879
B(  1-N , 12-H ) :   0.1041 B(  2-C ,  3-C ) :   1.8684 B(  2-C ,  4-N ) :   1.0198
B(  2-C ,  8-H ) :   0.2180 B(  2-C ,  9-H ) :   0.3249 B(  3-C ,  4-N ) :   0.2010
B(  3-C ,  8-H ) :   0.8453 B(  3-C ,  9-H ) :   0.6042 B(  4-N ,  5-H ) :   1.0771
B(  4-N ,  6-H ) :   0.9745 B(  5-H ,  6-H ) :  -0.1087 B(  8-H ,  9-H ) :   0.1913

Dispersion correction           -0.002460091
FINAL SINGLE POINT ENERGY      -228.367882972301

DIPOLE MOMENT
-------------
                                X             Y             Z
Electronic contribution:      0.93020       1.44073      -0.29286
Nuclear contribution   :     -2.30713      -1.79036       0.37856
                        -----------------------------------------
Total Dipole Moment    :     -1.37693      -0.34963       0.08570
                        -----------------------------------------
Magnitude (a.u.)       :      1.42321
Magnitude (Debye)      :      3.61751

Rotational constants in cm-1:     0.307513     0.139026     0.101190
Rotational constants in MHz :  9218.994719  4167.905268  3033.592538

                             ****ORCA TERMINATED NORMALLY****
TOTAL RUN TIME: 0 days 0 hours 0 minutes 8 seconds 431 msec
