                         Program Version 5.0.0 -  RELEASE  -
|  1> !wB97X-D3 RIJCOSX def2-SVPD def2/J TightSCF
|  2> *xyz 0 1
|  3> C          3.90595        2.81985       -3.75292
|  4> N          5.29562        3.13151       -4.10533
|  5> C          5.70862        3.46889       -5.32419
|  6> N          6.90470        3.03895       -5.71708
|  7> C          4.98188        4.29357       -6.09746
|  8> H          5.00055        4.10131       -7.08776
|  9> H          4.08469        4.59690       -5.73965
| 10> H          5.96336        2.52611       -3.64239
| 11> H          7.04716        2.06686       -5.47360
| 12> H          7.19815        3.30799       -6.64523
| 13> H          3.24866        3.48801       -4.26909
| 14> H          3.77188        2.93227       -2.69732
| 15> H          3.68381        1.81198       -4.03533
| 16> *
| 17>
| 18> %MaxCore 64000
| 19>
| 20> %pal nprocs 18
| 21> end
| 22>
| 23> %scf
| 24>   MaxIter 150
| 25> end
| 26>
| 27>
| 28>                          ****END OF INPUT****

CARTESIAN COORDINATES (ANGSTROEM)
---------------------------------
  C      3.905950    2.819850   -3.752920
  N      5.295620    3.131510   -4.105330
  C      5.708620    3.468890   -5.324190
  N      6.904700    3.038950   -5.717080
  C      4.981880    4.293570   -6.097460
  H      5.000550    4.101310   -7.087760
  H      4.084690    4.596900   -5.739650
  H      5.963360    2.526110   -3.642390
  H      7.047160    2.066860   -5.473600
  H      7.198150    3.307990   -6.645230
  H      3.248660    3.488010   -4.269090
  H      3.771880    2.932270   -2.697320
  H      3.683810    1.811980   -4.035330

 Total Charge           Charge          ....    0
 Multiplicity           Mult            ....    1
 Number of Electrons    NEL             ....   40
 Basis Dimension        Dim             ....  164

ORBITAL ENERGIES
----------------

  NO   OCC          E(Eh)            E(eV)
   0   2.0000     -14.443907      -393.0387
   1   2.0000     -14.442176      -392.9916
   2   2.0000     -10.340393      -281.3764
   3   2.0000     -10.317845      -280.7628
   4   2.0000     -10.206842      -277.7423
   5   2.0000      -1.087366       -29.5887
   6   2.0000      -0.997555       -27.1448
   7   2.0000      -0.833148       -22.6711
   8   2.0000      -0.806501       -21.9460
   9   2.0000      -0.672328       -18.2950
  10   2.0000      -0.646020       -17.5791
  11   2.0000      -0.625999       -17.0343
  12   2.0000      -0.556883       -15.1536
  13   2.0000      -0.549011       -14.9394
  14   2.0000      -0.518065       -14.0973
  15   2.0000      -0.485430       -13.2092
  16   2.0000      -0.476158       -12.9569
  17   2.0000      -0.446183       -12.1413
  18   2.0000      -0.356751        -9.7077
  19   2.0000      -0.264957        -7.2098
  20   0.0000       0.085134         2.3166
  21   0.0000       0.112940         3.0733
  22   0.0000       0.126064         3.4304
  23   0.0000       0.130463         3.5501
  24   0.0000       0.157160         4.2765

MULLIKEN ATOMIC CHARGES
-----------------------
   0 C :    1.109014
   1 N :   -0.439869
   2 C :    0.064246
   3 N :   -0.045889
   4 C :    0.484057
   5 H :   -0.312071
   6 H :   -0.202731
   7 H :   -0.248622
   8 H :   -0.010551
   9 H :    0.044941
  10 H :   -0.170262
  11 H :   -0.164052
  12 H :   -0.108210
Sum of atomic charges:    0.0000000

LOEWDIN ATOMIC CHARGES
----------------------
   0 C :    0.219187
   1 N :   -0.045001
   2 C :   -0.256714
   3 N :    0.181923
   4 C :    0.155114
   5 H :   -0.101771
   6 H :   -0.113333
   7 H :    0.012777
   8 H :   -0.005436
   9 H :    0.005822
  10 H :   -0.024995
  11 H :   -0.013443
  12 H :   -0.014131

  Mayer bond orders larger than 0.100000
B(  0-C ,  1-N ) :   0.8464 B(  0-C , 10-H ) :   0.8492 B(  0-C , 11-H ) :   0.8032
B(  0-C , 12-H ) :   0.8153 B(  1-N ,  2-C ) :   1.1421 B(  1-N ,  3-N ) :   0.1305
B(  1-N ,  4-C ) :   0.1995 B(  1-N ,  7-H ) :   1.1115 B(  1-N , 10-H ) :   0.1227
B(  1-N , 11-H ) :   0.1780 B(  1-N , 12-H ) :   0.1357 B(  2-C ,  3-N ) :   1.0483
B(  2-C ,  4-C ) :   1.9293 B(  2-C ,  5-H ) :   0.2013 B(  2-C ,  6-H ) :   0.2739
B(  3-N ,  4-C ) :   0.1413 B(  3-N ,  8-H ) :   0.9713 B(  3-N ,  9-H ) :   0.9565
B(  4-C ,  5-H ) :   0.8269 B(  4-C ,  6-H ) :   0.5631 B(  5-H ,  6-H ) :   0.2760

Dispersion correction           -0.002442571
FINAL SINGLE POINT ENERGY      -228.371287364436

DIPOLE MOMENT
-------------
                                X             Y             Z
Electronic contribution:      2.78191       0.25646       0.00092
Nuclear contribution   :     -2.69659      -1.53624       0.30152
                        -----------------------------------------
Total Dipole Moment    :      0.08532      -1.27979       0.30244
                        -----------------------------------------
Magnitude (a.u.)       :      1.31780
Magnitude (Debye)      :      3.34959

Rotational constants in cm-1:     0.320409     0.134796     0.100241
Rotational constants in MHz :  9605.632807  4041.079317  3005.150506

                             ****ORCA TERMINATED NORMALLY****
TOTAL RUN TIME: 0 days 0 hours 0 minutes 8 seconds 560 msec
