                         Program Version 5.0.0 -  RELEASE  -
|  1> !wB97X-D3 RIJCOSX def2-SVPD def2/J TightSCF xyzfile
|  2>
|  3> *xyzfile 0 1 D3.xyz
|  4>
|  5> %MaxCore 64000
|  6>
|  7> %pal nprocs 18
|  8> end
|  9>
| 10> %scf
| 11>   MaxIter 150
| 12> end
| 13>
| 14>
| 15>                          ****END OF INPUT****

CARTESIAN COORDINATES (ANGSTROEM)
---------------------------------
  C      3.905947    2.819855   -3.752920
  N      5.295615    3.131515   -4.105334
  C      3.803511    1.374716   -3.260807
  C      3.939934    0.320362   -4.367729
  H      4.105043   -0.655085   -3.907733
  H      3.022801    0.280517   -4.957117
  C      5.105846    0.668022   -5.305463
  C      5.708619    3.468885   -5.324190
  N      6.904696    3.038954   -5.717084
  C      4.981884    4.293570   -6.097457
  H      5.000546    4.101311   -7.087761
  H      4.084693    4.596899   -5.739652
  H      5.963358    2.526112   -3.642391
  H      7.047164    2.066861   -5.473604
  H      7.198145    3.307994   -6.645225
  H      3.282025    2.949187   -4.640259
  H      3.565254    3.514574   -2.982523
  H      4.574833    1.215157   -2.500443
  H      2.843514    1.260845   -2.751465
  F      4.809132    1.150187   -6.414361
  O      6.267366    0.564999   -4.819481

 Total Charge           Charge          ....    0
 Multiplicity           Mult            ....    1
 Number of Electrons    NEL             ....   78
 Basis Dimension        Dim             ....  294

ORBITAL ENERGIES
----------------

  NO   OCC          E(Eh)            E(eV)
   0   2.0000     -24.896237      -677.4610
   1   2.0000     -19.276412      -524.5378
   2   2.0000     -14.441777      -392.9807
   3   2.0000     -14.418683      -392.3523
   4   2.0000     -10.500911      -285.7443
   5   2.0000     -10.337811      -281.3061
   6   2.0000     -10.336303      -281.2651
   7   2.0000     -10.333517      -281.1893
   8   2.0000     -10.324008      -280.9305
   9   2.0000     -10.200881      -277.5801
  10   2.0000      -1.450007       -39.4567
  11   2.0000      -1.167697       -31.7747
  12   2.0000      -1.082715       -29.4622
  13   2.0000      -0.997227       -27.1359
  14   2.0000      -0.931889       -25.3580
  15   2.0000      -0.850067       -23.1315
  16   2.0000      -0.813679       -22.1413
  17   2.0000      -0.789267       -21.4771
  18   2.0000      -0.743804       -20.2399
  19   2.0000      -0.685183       -18.6448
  20   2.0000      -0.674616       -18.3572
  21   2.0000      -0.666929       -18.1481
  22   2.0000      -0.648486       -17.6462
  23   2.0000      -0.619855       -16.8671
  24   2.0000      -0.608066       -16.5463
  25   2.0000      -0.588092       -16.0028
  26   2.0000      -0.577195       -15.7063
  27   2.0000      -0.538534       -14.6543
  28   2.0000      -0.530673       -14.4404
  29   2.0000      -0.510921       -13.9029
  30   2.0000      -0.493204       -13.4208
  31   2.0000      -0.490443       -13.3456
  32   2.0000      -0.475916       -12.9503
  33   2.0000      -0.468928       -12.7602
  34   2.0000      -0.456092       -12.4109
  35   2.0000      -0.431532       -11.7426
  36   2.0000      -0.413606       -11.2548
  37   2.0000      -0.347557        -9.4575
  38   2.0000      -0.259971        -7.0742
  39   0.0000       0.025608         0.6968
  40   0.0000       0.078557         2.1377
  41   0.0000       0.102826         2.7980
  42   0.0000       0.109728         2.9859
  43   0.0000       0.114175         3.1069

MULLIKEN ATOMIC CHARGES
-----------------------
   0 C :    0.762124
   1 N :   -0.312239
   2 C :    0.106187
   3 C :    0.185290
   4 H :   -0.027417
   5 H :    0.033767
   6 C :    0.798363
   7 C :    0.061215
   8 N :    0.127412
   9 C :    0.448103
  10 H :   -0.396289
  11 H :   -0.158763
  12 H :   -0.184436
  13 H :   -0.130292
  14 H :    0.072354
  15 H :    0.006846
  16 H :   -0.376793
  17 H :    0.054897
  18 H :   -0.108813
  19 F :   -0.381574
  20 O :   -0.579940
Sum of atomic charges:   -0.0000000

LOEWDIN ATOMIC CHARGES
----------------------
   0 C :    0.071821
   1 N :    0.005797
   2 C :   -0.005641
   3 C :    0.065370
   4 H :    0.040913
   5 H :    0.030862
   6 C :    0.024914
   7 C :   -0.265843
   8 N :    0.213799
   9 C :    0.150226
  10 H :   -0.100533
  11 H :   -0.110443
  12 H :    0.006211
  13 H :   -0.083431
  14 H :    0.012951
  15 H :    0.020957
  16 H :    0.022525
  17 H :    0.031680
  18 H :    0.028571
  19 F :   -0.006857
  20 O :   -0.153848

  Mayer bond orders larger than 0.100000
B(  0-C ,  1-N ) :   0.8361 B(  0-C ,  2-C ) :   1.1387 B(  0-C , 15-H ) :   0.7695
B(  0-C , 16-H ) :   0.9454 B(  0-C , 18-H ) :   0.1776 B(  1-N ,  2-C ) :   0.1372
B(  1-N ,  7-C ) :   1.1594 B(  1-N ,  9-C ) :   0.2226 B(  1-N , 12-H ) :   1.0015
B(  1-N , 15-H ) :   0.1443 B(  2-C ,  3-C ) :   1.1912 B(  2-C ,  4-H ) :   0.1709
B(  2-C ,  5-H ) :   0.1111 B(  2-C , 17-H ) :   0.8454 B(  2-C , 18-H ) :   0.9278
B(  3-C ,  4-H ) :   0.8252 B(  3-C ,  5-H ) :   0.8678 B(  3-C ,  6-C ) :   1.1239
B(  4-H ,  6-C ) :   0.1284 B(  5-H ,  6-C ) :   0.1342 B(  6-C , 19-F ) :   0.6923
B(  6-C , 20-O ) :   1.6535 B(  7-C ,  8-N ) :   1.0080 B(  7-C ,  9-C ) :   1.9770
B(  7-C , 10-H ) :   0.2036 B(  7-C , 11-H ) :   0.3163 B(  7-C , 12-H ) :  -0.1412
B(  7-C , 13-H ) :   0.1252 B(  7-C , 14-H ) :   0.1073 B(  8-N ,  9-C ) :   0.1394
B(  8-N , 13-H ) :   0.8459 B(  8-N , 14-H ) :   0.8889 B(  9-C , 10-H ) :   0.8224
B(  9-C , 11-H ) :   0.5640 B( 10-H , 11-H ) :   0.1806 B( 13-H , 20-O ) :   0.1023
B( 15-H , 16-H ) :  -0.1051

Dispersion correction           -0.008980838
FINAL SINGLE POINT ENERGY      -519.291363033148

DIPOLE MOMENT
-------------
                                X             Y             Z
Electronic contribution:      3.53749      -4.88861      -4.87114
Nuclear contribution   :     -4.64021       3.37029       5.31478
                        -----------------------------------------
Total Dipole Moment    :     -1.10272      -1.51832       0.44364
                        -----------------------------------------
Magnitude (a.u.)       :      1.92824
Magnitude (Debye)      :      4.90119

Rotational constants in cm-1:     0.061077     0.043622     0.034103
Rotational constants in MHz :  1831.041375  1307.759852  1022.388536

                             ****ORCA TERMINATED NORMALLY****
TOTAL RUN TIME: 0 days 0 hours 0 minutes 35 seconds 298 msec
