                         Program Version 5.0.0 -  RELEASE  -
|  1> !wB97X-D3 RIJCOSX def2-SVPD def2/J TightSCF xyzfile
|  2>
|  3> *xyzfile 0 1 D5.xyz
|  4>
|  5> %MaxCore 64000
|  6>
|  7> %pal nprocs 18
|  8> end
|  9>
| 10> %scf
| 11>   MaxIter 150
| 12> end
| 13>
| 14>
| 15>                          ****END OF INPUT****

CARTESIAN COORDINATES (ANGSTROEM)
---------------------------------
  C      3.905947    2.819855   -3.752920
  N      5.295615    3.131515   -4.105334
  C      3.803511    1.374716   -3.260807
  C      3.939934    0.320362   -4.367729
  H      4.105043   -0.655085   -3.907733
  H      3.022801    0.280517   -4.957117
  C      5.105846    0.668022   -5.305463
  C      5.708619    3.468885   -5.324190
  C      6.904696    3.038954   -5.717084
  N      4.981884    4.293570   -6.097457
  H      5.000546    4.101311   -7.087761
  H      4.084693    4.596899   -5.739652
  H      5.963358    2.526112   -3.642391
  H      7.047164    2.066861   -5.473604
  H      7.198145    3.307994   -6.645225
  H      3.282025    2.949187   -4.640259
  H      3.565254    3.514574   -2.982523
  H      4.574833    1.215157   -2.500443
  H      2.843514    1.260845   -2.751465
  O      4.809132    1.150187   -6.414361
  F      6.267366    0.564999   -4.819481

 Total Charge           Charge          ....    0
 Multiplicity           Mult            ....    1
 Number of Electrons    NEL             ....   78
 Basis Dimension        Dim             ....  294

ORBITAL ENERGIES
----------------

  NO   OCC          E(Eh)            E(eV)
   0   2.0000     -24.879047      -676.9933
   1   2.0000     -19.260012      -524.0916
   2   2.0000     -14.444718      -393.0608
   3   2.0000     -14.434678      -392.7876
   4   2.0000     -10.479768      -285.1690
   5   2.0000     -10.339451      -281.3508
   6   2.0000     -10.332663      -281.1660
   7   2.0000     -10.330610      -281.1102
   8   2.0000     -10.324543      -280.9451
   9   2.0000     -10.188799      -277.2513
  10   2.0000      -1.428739       -38.8780
  11   2.0000      -1.154295       -31.4100
  12   2.0000      -1.082929       -29.4680
  13   2.0000      -0.998190       -27.1621
  14   2.0000      -0.933290       -25.3961
  15   2.0000      -0.855398       -23.2766
  16   2.0000      -0.811504       -22.0821
  17   2.0000      -0.770207       -20.9584
  18   2.0000      -0.731401       -19.9024
  19   2.0000      -0.706710       -19.2306
  20   2.0000      -0.667639       -18.1674
  21   2.0000      -0.663732       -18.0611
  22   2.0000      -0.627537       -17.0761
  23   2.0000      -0.613104       -16.6834
  24   2.0000      -0.603062       -16.4101
  25   2.0000      -0.591614       -16.0986
  26   2.0000      -0.568801       -15.4779
  27   2.0000      -0.543638       -14.7931
  28   2.0000      -0.524503       -14.2725
  29   2.0000      -0.505939       -13.7673
  30   2.0000      -0.494391       -13.4531
  31   2.0000      -0.484513       -13.1843
  32   2.0000      -0.472255       -12.8507
  33   2.0000      -0.463635       -12.6161
  34   2.0000      -0.457910       -12.4604
  35   2.0000      -0.422494       -11.4967
  36   2.0000      -0.394362       -10.7311
  37   2.0000      -0.356824        -9.7097
  38   2.0000      -0.254446        -6.9238
  39   0.0000       0.046698         1.2707
  40   0.0000       0.078324         2.1313
  41   0.0000       0.098463         2.6793
  42   0.0000       0.106066         2.8862
  43   0.0000       0.114547         3.1170

MULLIKEN ATOMIC CHARGES
-----------------------
   0 C :    0.771215
   1 N :   -0.362293
   2 C :    0.038943
   3 C :    0.187579
   4 H :   -0.028558
   5 H :    0.044970
   6 C :    0.651062
   7 C :    0.050052
   8 C :    0.832896
   9 N :   -0.005337
  10 H :    0.003703
  11 H :   -0.000613
  12 H :   -0.078051
  13 H :   -0.534638
  14 H :   -0.225550
  15 H :   -0.009515
  16 H :   -0.313906
  17 H :    0.022736
  18 H :   -0.117967
  19 O :   -0.437854
  20 F :   -0.488875
Sum of atomic charges:   -0.0000000

LOEWDIN ATOMIC CHARGES
----------------------
   0 C :    0.060749
   1 N :    0.004168
   2 C :   -0.011822
   3 C :    0.063270
   4 H :    0.032796
   5 H :    0.037838
   6 C :   -0.000606
   7 C :   -0.252734
   8 C :    0.154202
   9 N :    0.209873
  10 H :    0.010626
  11 H :   -0.015469
  12 H :    0.013045
  13 H :   -0.136160
  14 H :   -0.084470
  15 H :    0.020706
  16 H :    0.017673
  17 H :    0.028207
  18 H :    0.026767
  19 O :   -0.124619
  20 F :   -0.054040

  Mayer bond orders larger than 0.100000
B(  0-C ,  1-N ) :   0.8107 B(  0-C ,  2-C ) :   1.1562 B(  0-C , 15-H ) :   0.7437
B(  0-C , 16-H ) :   0.8987 B(  0-C , 18-H ) :   0.1663 B(  1-N ,  2-C ) :   0.1415
B(  1-N ,  7-C ) :   1.1128 B(  1-N ,  8-C ) :   0.1627 B(  1-N , 12-H ) :   1.0462
B(  1-N , 15-H ) :   0.1299 B(  2-C ,  3-C ) :   1.1775 B(  2-C ,  4-H ) :   0.1725
B(  2-C ,  5-H ) :   0.1025 B(  2-C , 17-H ) :   0.8516 B(  2-C , 18-H ) :   0.9455
B(  3-C ,  4-H ) :   0.8337 B(  3-C ,  5-H ) :   0.8645 B(  3-C ,  6-C ) :   1.1104
B(  4-H ,  6-C ) :   0.1034 B(  5-H ,  6-C ) :   0.1923 B(  6-C , 19-O ) :   1.8309
B(  6-C , 20-F ) :   0.6056 B(  7-C ,  8-C ) :   1.9351 B(  7-C ,  9-N ) :   0.8896
B(  7-C , 11-H ) :   0.1678 B(  7-C , 12-H ) :  -0.1204 B(  7-C , 13-H ) :   0.1848
B(  7-C , 14-H ) :   0.4462 B(  8-C ,  9-N ) :   0.2695 B(  8-C , 13-H ) :   0.4932
B(  8-C , 14-H ) :   0.3609 B(  9-N , 10-H ) :   1.0358 B(  9-N , 11-H ) :   0.8470
B( 10-H , 11-H ) :  -0.1161 B( 13-H , 14-H ) :   0.1322 B( 13-H , 20-F ) :   0.2169
B( 15-H , 16-H ) :  -0.1039

Dispersion correction           -0.008992253
FINAL SINGLE POINT ENERGY      -519.277738814006

DIPOLE MOMENT
-------------
                                X             Y             Z
Electronic contribution:      4.38675      -4.69514      -2.57794
Nuclear contribution   :     -6.05797       3.87976       3.55209
                        -----------------------------------------
Total Dipole Moment    :     -1.67122      -0.81538       0.97415
                        -----------------------------------------
Magnitude (a.u.)       :      2.09923
Magnitude (Debye)      :      5.33582

Rotational constants in cm-1:     0.061282     0.043164     0.033679
Rotational constants in MHz :  1837.191639  1294.028651  1009.659886

                             ****ORCA TERMINATED NORMALLY****
TOTAL RUN TIME: 0 days 0 hours 0 minutes 47 seconds 908 msec
