                         Program Version 5.0.0 -  RELEASE  -
|  1> !LC-PBE RIJCOSX def2-SVPD def2/J TightSCF
|  2> *xyz -1 1
|  3> C          1.69499        1.54179       -5.57045
|  4> S          1.78029       -0.03313       -6.42874
|  5> O          2.56929        0.21366       -7.60736
|  6> O          0.41688       -0.46297       -6.61859
|  7> O          2.50513       -0.93326       -5.48257
|  8> H          1.18489        2.25500       -6.18367
|  9> H          2.68564        1.89081       -5.36624
| 10> H          1.16361        1.41804       -4.65000
| 11> *
| 12> %MaxCore 64000
| 13>
| 14> %pal nprocs 8
| 15> end
| 16>
| 17> %scf
| 18>   MaxIter 150
| 19> end
| 20>
| 21>
| 22>                          ****END OF INPUT****

CARTESIAN COORDINATES (ANGSTROEM)
---------------------------------
  C      1.694990    1.541790   -5.570450
  S      1.780290   -0.033130   -6.428740
  O      2.569290    0.213660   -7.607360
  O      0.416880   -0.462970   -6.618590
  O      2.505130   -0.933260   -5.482570
  H      1.184890    2.255000   -6.183670
  H      2.685640    1.890810   -5.366240
  H      1.163610    1.418040   -4.650000

 Total Charge           Charge          ....   -1
 Multiplicity           Mult            ....    1
 Number of Electrons    NEL             ....   50
 Basis Dimension        Dim             ....  140

ORBITAL ENERGIES
----------------

  NO   OCC          E(Eh)            E(eV)
   0   2.0000     -88.315671     -2403.1916
   1   2.0000     -18.775513      -510.9077
   2   2.0000     -18.774328      -510.8754
   3   2.0000     -18.756335      -510.3858
   4   2.0000      -9.982648      -271.6417
   5   2.0000      -7.937453      -215.9891
   6   2.0000      -5.959732      -162.1726
   7   2.0000      -5.959673      -162.1709
   8   2.0000      -5.959496      -162.1661
   9   2.0000      -1.109767       -30.1983
  10   2.0000      -0.958627       -26.0856
  11   2.0000      -0.924719       -25.1629
  12   2.0000      -0.756102       -20.5746
  13   2.0000      -0.541146       -14.7253
  14   2.0000      -0.457400       -12.4465
  15   2.0000      -0.438482       -11.9317
  16   2.0000      -0.437141       -11.8952
  17   2.0000      -0.393247       -10.7008
  18   2.0000      -0.390761       -10.6332
  19   2.0000      -0.296130        -8.0581
  20   2.0000      -0.292107        -7.9486
  21   2.0000      -0.254654        -6.9295
  22   2.0000      -0.243867        -6.6360
  23   2.0000      -0.232319        -6.3217
  24   2.0000      -0.196449        -5.3456
  25   0.0000       0.210619         5.7312
  26   0.0000       0.232187         6.3181
  27   0.0000       0.232547         6.3279
  28   0.0000       0.237911         6.4739
  29   0.0000       0.272028         7.4023

MULLIKEN ATOMIC CHARGES
-----------------------
   0 C :    0.230885
   1 S :    0.981999
   2 O :   -0.720036
   3 O :   -0.722113
   4 O :   -0.780785
   5 H :    0.000515
   6 H :    0.006801
   7 H :    0.002734
Sum of atomic charges:   -1.0000000

LOEWDIN ATOMIC CHARGES
----------------------
   0 C :    0.021803
   1 S :    0.813859
   2 O :   -0.578663
   3 O :   -0.577847
   4 O :   -0.608660
   5 H :   -0.025132
   6 H :   -0.022428
   7 H :   -0.022933

  Mayer bond orders larger than 0.100000
B(  0-C ,  1-S ) :   0.9751 B(  0-C ,  5-H ) :   0.9365 B(  0-C ,  6-H ) :   0.9377
B(  0-C ,  7-H ) :   0.9397 B(  1-S ,  2-O ) :   1.3773 B(  1-S ,  3-O ) :   1.3741
B(  1-S ,  4-O ) :   1.3294 B(  1-S ,  6-H ) :   0.1035 B(  1-S ,  7-H ) :   0.1030

FINAL SINGLE POINT ENERGY      -662.427054362811

DIPOLE MOMENT
-------------
                                X             Y             Z
Electronic contribution:      0.10773      -3.58705      -2.13462
Nuclear contribution   :     -0.31747       5.08000       2.69095
                        -----------------------------------------
Total Dipole Moment    :     -0.20975       1.49294       0.55633
                        -----------------------------------------
Magnitude (a.u.)       :      1.60698
Magnitude (Debye)      :      4.08461

Rotational constants in cm-1:     0.172246     0.157831     0.154490
Rotational constants in MHz :  5163.797750  4731.657963  4631.481993

                             ****ORCA TERMINATED NORMALLY****
TOTAL RUN TIME: 0 days 0 hours 0 minutes 7 seconds 963 msec
