                         Program Version 5.0.0 -  RELEASE  -
|  1> !LC-PBE RIJCOSX def2-SVPD def2/J TightSCF
|  2> *xyz 1 1
|  3> C          1.96337       -1.74915       -1.89689
|  4> N          2.73849       -2.01517       -3.09711
|  5> C          4.04974       -2.15472       -3.15204
|  6> N          4.65821       -1.98629       -4.31866
|  7> N          4.76423       -2.45444       -2.05049
|  8> H          4.28736       -2.77626       -1.21750
|  9> H          5.75082       -2.65835       -2.12599
| 10> H          2.34518       -1.69027       -3.97145
| 11> H          4.10900       -1.59268       -5.07176
| 12> H          5.64910       -2.15646       -4.42724
| 13> H          0.92556       -1.68522       -2.14942
| 14> H          2.28268       -0.82430       -1.46378
| 15> H          2.11118       -2.54207       -1.19381
| 16> *
| 17> %MaxCore 64000
| 18>
| 19> %pal nprocs 8
| 20> end
| 21>
| 22> %scf
| 23>   MaxIter 150
| 24> end
| 25>
| 26>
| 27>                          ****END OF INPUT****

CARTESIAN COORDINATES (ANGSTROEM)
---------------------------------
  C      1.963370   -1.749150   -1.896890
  N      2.738490   -2.015170   -3.097110
  C      4.049740   -2.154720   -3.152040
  N      4.658210   -1.986290   -4.318660
  N      4.764230   -2.454440   -2.050490
  H      4.287360   -2.776260   -1.217500
  H      5.750820   -2.658350   -2.125990
  H      2.345180   -1.690270   -3.971450
  H      4.109000   -1.592680   -5.071760
  H      5.649100   -2.156460   -4.427240
  H      0.925560   -1.685220   -2.149420
  H      2.282680   -0.824300   -1.463780
  H      2.111180   -2.542070   -1.193810

 Total Charge           Charge          ....    1
 Multiplicity           Mult            ....    1
 Number of Electrons    NEL             ....   40
 Basis Dimension        Dim             ....  164

ORBITAL ENERGIES
----------------

  NO   OCC          E(Eh)            E(eV)
   0   2.0000     -14.463331      -393.5672
   1   2.0000     -14.459610      -393.4660
   2   2.0000     -14.458105      -393.4250
   3   2.0000     -10.478236      -285.1273
   4   2.0000     -10.331900      -281.1453
   5   2.0000      -1.396858       -38.0104
   6   2.0000      -1.275231       -34.7008
   7   2.0000      -1.260313       -34.2949
   8   2.0000      -1.074243       -29.2316
   9   2.0000      -0.985238       -26.8097
  10   2.0000      -0.942675       -25.6515
  11   2.0000      -0.910415       -24.7736
  12   2.0000      -0.842993       -22.9390
  13   2.0000      -0.833707       -22.6863
  14   2.0000      -0.812184       -22.1006
  15   2.0000      -0.789020       -21.4703
  16   2.0000      -0.736622       -20.0445
  17   2.0000      -0.715845       -19.4791
  18   2.0000      -0.617079       -16.7916
  19   2.0000      -0.588921       -16.0254
  20   0.0000      -0.083589        -2.2746
  21   0.0000      -0.078846        -2.1455
  22   0.0000      -0.039993        -1.0883
  23   0.0000      -0.038148        -1.0381
  24   0.0000      -0.006643        -0.1808

MULLIKEN ATOMIC CHARGES
-----------------------
   0 C :    0.778169
   1 N :   -0.550368
   2 C :    1.284182
   3 N :   -0.163923
   4 N :   -0.099424
   5 H :   -0.008433
   6 H :   -0.050336
   7 H :   -0.105751
   8 H :    0.049087
   9 H :   -0.032092
  10 H :   -0.123811
  11 H :    0.034068
  12 H :   -0.011368
Sum of atomic charges:    1.0000000

LOEWDIN ATOMIC CHARGES
----------------------
   0 C :    0.223983
   1 N :    0.003554
   2 C :   -0.035721
   3 N :    0.247292
   4 N :    0.264393
   5 H :    0.032798
   6 H :    0.046091
   7 H :    0.062373
   8 H :    0.047697
   9 H :    0.053095
  10 H :    0.025045
  11 H :    0.021100
  12 H :    0.008299

  Mayer bond orders larger than 0.100000
B(  0-C ,  1-N ) :   0.9542 B(  0-C , 10-H ) :   0.8755 B(  0-C , 11-H ) :   0.8718
B(  0-C , 12-H ) :   0.8756 B(  1-N ,  2-C ) :   1.0624 B(  1-N ,  3-N ) :   0.2539
B(  1-N ,  4-N ) :   0.2007 B(  1-N ,  7-H ) :   1.2197 B(  1-N , 10-H ) :   0.1541
B(  1-N , 12-H ) :   0.1259 B(  2-C ,  3-N ) :   0.8452 B(  2-C ,  4-N ) :   0.9654
B(  2-C ,  5-H ) :  -0.1345 B(  2-C ,  6-H ) :  -0.1281 B(  2-C ,  7-H ) :  -0.1796
B(  2-C ,  8-H ) :  -0.1211 B(  2-C ,  9-H ) :  -0.1490 B(  3-N ,  4-N ) :   0.1507
B(  3-N ,  8-H ) :   1.1240 B(  3-N ,  9-H ) :   1.2461 B(  4-N ,  5-H ) :   1.1099
B(  4-N ,  6-H ) :   1.2115 B(  5-H ,  6-H ) :  -0.1763 B(  8-H ,  9-H ) :  -0.1626

FINAL SINGLE POINT ENERGY      -244.161322888245

DIPOLE MOMENT
-------------
                                X             Y             Z
Electronic contribution:      2.05539      -0.55392      -1.81125
Nuclear contribution   :     -1.59972       0.59064       1.48941
                        -----------------------------------------
Total Dipole Moment    :      0.45567       0.03672      -0.32184
                        -----------------------------------------
Magnitude (a.u.)       :      0.55907
Magnitude (Debye)      :      1.42104

Rotational constants in cm-1:     0.309236     0.134358     0.096189
Rotational constants in MHz :  9270.657746  4027.948155  2883.671905

                             ****ORCA TERMINATED NORMALLY****
TOTAL RUN TIME: 0 days 0 hours 0 minutes 10 seconds 520 msec
