                         Program Version 5.0.0 -  RELEASE  -
|  1> !LC-PBE RIJCOSX def2-SVPD def2/J TightSCF xyzfile
|  2>
|  3> *xyzfile 0 1 B.xyz
|  4>
|  5> %MaxCore 64000
|  6>
|  7> %pal nprocs 4
|  8> end
|  9>
| 10> %scf
| 11>   MaxIter 150
| 12> end
| 13>
| 14>
| 15>                          ****END OF INPUT****

CARTESIAN COORDINATES (ANGSTROEM)
---------------------------------
  C      1.963365   -1.749150   -1.896887
  N      2.738490   -2.015170   -3.097113
  C      0.611877    1.657634   -4.500288
  C      1.694991    1.541794   -5.570447
  H      2.697326    1.734659   -5.183996
  H      1.506656    2.272239   -6.358076
  S      1.780287   -0.033128   -6.428739
  C      4.049736   -2.154717   -3.152044
  N      4.658206   -1.986293   -4.318655
  N      4.764231   -2.454435   -2.050491
  H      4.287363   -2.776259   -1.217496
  H      5.750825   -2.658351   -2.125988
  H      2.345176   -1.690274   -3.971447
  H      4.109004   -1.592677   -5.071760
  H      5.649095   -2.156462   -4.427237
  O      2.569287    0.213657   -7.607360
  O      0.416880   -0.462969   -6.618595
  C      2.088520   -0.300912   -1.415204
  H      2.231272   -2.451616   -1.102643
  H      0.930249   -1.977801   -2.155438
  C      0.680356    0.655418   -3.348038
  H     -0.356865    1.549231   -4.991128
  H      0.650228    2.675438   -4.096000
  C      1.968993    0.733582   -2.535654
  H      3.051356   -0.168602   -0.911868
  H      1.316501   -0.136231   -0.657252
  O      2.505129   -0.933263   -5.482570
  H      2.824195    0.624726   -3.208464
  H      2.058919    1.730331   -2.093112
  H      0.542252   -0.344731   -3.766662
  H     -0.174219    0.829692   -2.685182

 Total Charge           Charge          ....    0
 Multiplicity           Mult            ....    1
 Number of Electrons    NEL             ....  120
 Basis Dimension        Dim             ....  432

ORBITAL ENERGIES
----------------

  NO   OCC          E(Eh)            E(eV)
   0   2.0000     -88.463747     -2407.2209
   1   2.0000     -18.936499      -515.2883
   2   2.0000     -18.914304      -514.6844
   3   2.0000     -18.913223      -514.6550
   4   2.0000     -14.319939      -389.6654
   5   2.0000     -14.289912      -388.8483
   6   2.0000     -14.287759      -388.7897
   7   2.0000     -10.321992      -280.8757
   8   2.0000     -10.202398      -277.6214
   9   2.0000     -10.152637      -276.2673
  10   2.0000     -10.133528      -275.7473
  11   2.0000     -10.122136      -275.4373
  12   2.0000     -10.121864      -275.4299
  13   2.0000     -10.119195      -275.3573
  14   2.0000      -8.084267      -219.9841
  15   2.0000      -6.107845      -166.2029
  16   2.0000      -6.106052      -166.1541
  17   2.0000      -6.105531      -166.1399
  18   2.0000      -1.259490       -34.2725
  19   2.0000      -1.240115       -33.7453
  20   2.0000      -1.123832       -30.5810
  21   2.0000      -1.108628       -30.1673
  22   2.0000      -1.097447       -29.8631
  23   2.0000      -1.093414       -29.7533
  24   2.0000      -0.998613       -27.1736
  25   2.0000      -0.957559       -26.0565
  26   2.0000      -0.904200       -24.6045
  27   2.0000      -0.860165       -23.4063
  28   2.0000      -0.830587       -22.6014
  29   2.0000      -0.794570       -21.6214
  30   2.0000      -0.786258       -21.3952
  31   2.0000      -0.750597       -20.4248
  32   2.0000      -0.727483       -19.7958
  33   2.0000      -0.708271       -19.2730
  34   2.0000      -0.687296       -18.7023
  35   2.0000      -0.674958       -18.3665
  36   2.0000      -0.653465       -17.7817
  37   2.0000      -0.629975       -17.1425
  38   2.0000      -0.627504       -17.0753
  39   2.0000      -0.620846       -16.8941
  40   2.0000      -0.605818       -16.4852
  41   2.0000      -0.589471       -16.0403
  42   2.0000      -0.577158       -15.7053
  43   2.0000      -0.563455       -15.3324
  44   2.0000      -0.548174       -14.9166
  45   2.0000      -0.535960       -14.5842
  46   2.0000      -0.515549       -14.0288
  47   2.0000      -0.506847       -13.7920
  48   2.0000      -0.499099       -13.5812
  49   2.0000      -0.472655       -12.8616
  50   2.0000      -0.467789       -12.7292
  51   2.0000      -0.462668       -12.5898
  52   2.0000      -0.445574       -12.1247
  53   2.0000      -0.442762       -12.0482
  54   2.0000      -0.439097       -11.9484
  55   2.0000      -0.424799       -11.5594
  56   2.0000      -0.400142       -10.8884
  57   2.0000      -0.391580       -10.6554
  58   2.0000      -0.375572       -10.2198
  59   2.0000      -0.354905        -9.6574
  60   0.0000       0.045026         1.2252
  61   0.0000       0.062421         1.6986
  62   0.0000       0.074037         2.0146
  63   0.0000       0.093732         2.5506
  64   0.0000       0.100332         2.7302

MULLIKEN ATOMIC CHARGES
-----------------------
   0 C :    0.723260
   1 N :   -0.017382
   2 C :    0.262043
   3 C :   -0.053581
   4 H :    0.128961
   5 H :    0.009865
   6 S :    1.209879
   7 C :    1.290972
   8 N :    0.126346
   9 N :   -0.029023
  10 H :   -0.007721
  11 H :   -0.124004
  12 H :   -0.630411
  13 H :   -0.134811
  14 H :   -0.149907
  15 O :   -0.725360
  16 O :   -0.759073
  17 C :    0.275444
  18 H :   -0.321469
  19 H :   -0.006408
  20 C :   -0.126872
  21 H :    0.094777
  22 H :    0.035140
  23 C :   -0.136264
  24 H :    0.013896
  25 H :    0.051841
  26 O :   -0.797567
  27 H :    0.119475
  28 H :   -0.211456
  29 H :   -0.017641
  30 H :   -0.092949
Sum of atomic charges:   -0.0000000

LOEWDIN ATOMIC CHARGES
----------------------
   0 C :    0.053402
   1 N :    0.068011
   2 C :   -0.055151
   3 C :   -0.090080
   4 H :    0.021293
   5 H :    0.030709
   6 S :    0.929570
   7 C :   -0.030718
   8 N :    0.267219
   9 N :    0.238541
  10 H :    0.013934
  11 H :    0.027881
  12 H :   -0.066140
  13 H :   -0.054729
  14 H :    0.038321
  15 O :   -0.518020
  16 O :   -0.514747
  17 C :   -0.035854
  18 H :    0.023090
  19 H :    0.044334
  20 C :   -0.047676
  21 H :    0.038928
  22 H :    0.037974
  23 C :   -0.050474
  24 H :    0.026835
  25 H :    0.039199
  26 O :   -0.551431
  27 H :    0.017847
  28 H :    0.040150
  29 H :    0.016089
  30 H :    0.041692

  Mayer bond orders larger than 0.100000
B(  0-C ,  1-N ) :   0.9294 B(  0-C , 12-H ) :  -0.3247 B(  0-C , 17-C ) :   1.0882
B(  0-C , 18-H ) :   0.9637 B(  0-C , 19-H ) :   0.7296 B(  1-N ,  7-C ) :   1.1264
B(  1-N ,  8-N ) :   0.1350 B(  1-N ,  9-N ) :   0.2138 B(  1-N , 12-H ) :   1.2872
B(  1-N , 19-H ) :   0.1488 B(  2-C ,  3-C ) :   1.2527 B(  2-C ,  5-H ) :   0.1430
B(  2-C , 20-C ) :   1.2723 B(  2-C , 21-H ) :   0.7174 B(  2-C , 22-H ) :   0.8344
B(  3-C ,  4-H ) :   0.8975 B(  3-C ,  5-H ) :   0.9017 B(  3-C ,  6-S ) :   1.0066
B(  3-C , 21-H ) :   0.1127 B(  3-C , 22-H ) :   0.1114 B(  6-S , 15-O ) :   1.4482
B(  6-S , 16-O ) :   1.3504 B(  6-S , 26-O ) :   1.1426 B(  7-C ,  8-N ) :   0.8361
B(  7-C ,  9-N ) :   0.8855 B(  7-C , 10-H ) :  -0.1111 B(  7-C , 11-H ) :  -0.1245
B(  7-C , 12-H ) :  -0.4589 B(  7-C , 13-H ) :  -0.1888 B(  7-C , 14-H ) :  -0.2146
B(  8-N ,  9-N ) :   0.1422 B(  8-N , 13-H ) :   1.1562 B(  8-N , 14-H ) :   1.3466
B(  9-N , 10-H ) :   1.0771 B(  9-N , 11-H ) :   1.2718 B( 10-H , 11-H ) :  -0.2041
B( 12-H , 19-H ) :   0.1354 B( 12-H , 26-O ) :   0.1951 B( 13-H , 14-H ) :  -0.2038
B( 13-H , 26-O ) :   0.2198 B( 17-C , 18-H ) :   0.1219 B( 17-C , 23-C ) :   1.2632
B( 17-C , 24-H ) :   0.8163 B( 17-C , 25-H ) :   0.8725 B( 18-H , 19-H ) :  -0.1130
B( 20-C , 21-H ) :   0.2348 B( 20-C , 23-C ) :   1.1897 B( 20-C , 28-H ) :   0.1281
B( 20-C , 29-H ) :   0.9824 B( 20-C , 30-H ) :   0.9002 B( 23-C , 24-H ) :   0.1789
B( 23-C , 27-H ) :   0.8986 B( 23-C , 28-H ) :   0.9900 B( 23-C , 30-H ) :   0.1340

FINAL SINGLE POINT ENERGY     -1062.172926677316

DIPOLE MOMENT
-------------
                                X             Y             Z
Electronic contribution:      2.27698      -4.90947     -14.06767
Nuclear contribution   :      0.44641       3.59123      19.13564
                        -----------------------------------------
Total Dipole Moment    :      2.72339      -1.31824       5.06796
                        -----------------------------------------
Magnitude (a.u.)       :      5.90245
Magnitude (Debye)      :     15.00283

Rotational constants in cm-1:     0.029186     0.014646     0.011115
Rotational constants in MHz :   874.975540   439.070287   333.231642

                             ****ORCA TERMINATED NORMALLY****
TOTAL RUN TIME: 0 days 0 hours 3 minutes 25 seconds 73 msec
