                         Program Version 5.0.0 -  RELEASE  -
|  1> !LC-PBE RIJCOSX def2-SVPD def2/J TightSCF
|  2> *xyz 0 1
|  3> C          1.69499        1.54179       -5.57045
|  4> S          1.78029       -0.03313       -6.42874
|  5> F          2.56929        0.21366       -7.60736
|  6> O          0.41688       -0.46297       -6.61859
|  7> O          2.50513       -0.93326       -5.48257
|  8> H          1.18489        2.25500       -6.18367
|  9> H          2.68564        1.89081       -5.36624
| 10> H          1.16361        1.41804       -4.65000
| 11> *
| 12> %MaxCore 64000
| 13>
| 14> %pal nprocs 8
| 15> end
| 16>
| 17> %scf
| 18>   MaxIter 150
| 19> end
| 20>
| 21>
| 22>                          ****END OF INPUT****

CARTESIAN COORDINATES (ANGSTROEM)
---------------------------------
  C      1.694990    1.541790   -5.570450
  S      1.780290   -0.033130   -6.428740
  F      2.569290    0.213660   -7.607360
  O      0.416880   -0.462970   -6.618590
  O      2.505130   -0.933260   -5.482570
  H      1.184890    2.255000   -6.183670
  H      2.685640    1.890810   -5.366240
  H      1.163610    1.418040   -4.650000

 Total Charge           Charge          ....    0
 Multiplicity           Mult            ....    1
 Number of Electrons    NEL             ....   50
 Basis Dimension        Dim             ....  140

ORBITAL ENERGIES
----------------

  NO   OCC          E(Eh)            E(eV)
   0   2.0000     -88.584392     -2410.5038
   1   2.0000     -24.638471      -670.4469
   2   2.0000     -19.016251      -517.4585
   3   2.0000     -18.996560      -516.9227
   4   2.0000     -10.193506      -277.3794
   5   2.0000      -8.206788      -223.3180
   6   2.0000      -6.233916      -169.6335
   7   2.0000      -6.226428      -169.4297
   8   2.0000      -6.225591      -169.4069
   9   2.0000      -1.550874       -42.2014
  10   2.0000      -1.286493       -35.0072
  11   2.0000      -1.168994       -31.8099
  12   2.0000      -0.980721       -26.6868
  13   2.0000      -0.885388       -24.0926
  14   2.0000      -0.771514       -20.9940
  15   2.0000      -0.754997       -20.5445
  16   2.0000      -0.713088       -19.4041
  17   2.0000      -0.630431       -17.1549
  18   2.0000      -0.627952       -17.0875
  19   2.0000      -0.613864       -16.7041
  20   2.0000      -0.582805       -15.8589
  21   2.0000      -0.535658       -14.5760
  22   2.0000      -0.481338       -13.0979
  23   2.0000      -0.463945       -12.6246
  24   2.0000      -0.445903       -12.1336
  25   0.0000       0.057529         1.5654
  26   0.0000       0.088533         2.4091
  27   0.0000       0.094130         2.5614
  28   0.0000       0.097101         2.6423
  29   0.0000       0.118689         3.2297

MULLIKEN ATOMIC CHARGES
-----------------------
   0 C :    0.175643
   1 S :    1.151914
   2 F :   -0.328635
   3 O :   -0.580663
   4 O :   -0.638587
   5 H :    0.073797
   6 H :    0.076746
   7 H :    0.069786
Sum of atomic charges:   -0.0000000

LOEWDIN ATOMIC CHARGES
----------------------
   0 C :    0.091105
   1 S :    1.083811
   2 F :   -0.241681
   3 O :   -0.460125
   4 O :   -0.489652
   5 H :   -0.000126
   6 H :    0.001954
   7 H :    0.014713

  Mayer bond orders larger than 0.100000
B(  0-C ,  1-S ) :   1.0279 B(  0-C ,  5-H ) :   0.9252 B(  0-C ,  6-H ) :   0.9268
B(  0-C ,  7-H ) :   0.9321 B(  1-S ,  2-F ) :   0.7545 B(  1-S ,  3-O ) :   1.5833
B(  1-S ,  4-O ) :   1.5392 B(  1-S ,  7-H ) :   0.1014

FINAL SINGLE POINT ENERGY      -686.878705336824

DIPOLE MOMENT
-------------
                                X             Y             Z
Electronic contribution:      1.41307      -3.13473      -4.15132
Nuclear contribution   :     -1.09446       4.91008       3.93848
                        -----------------------------------------
Total Dipole Moment    :      0.31860       1.77535      -0.21284
                        -----------------------------------------
Magnitude (a.u.)       :      1.81623
Magnitude (Debye)      :      4.61648

Rotational constants in cm-1:     0.163326     0.155515     0.146672
Rotational constants in MHz :  4896.387829  4662.220576  4397.127261

                             ****ORCA TERMINATED NORMALLY****
TOTAL RUN TIME: 0 days 0 hours 0 minutes 7 seconds 513 msec
