                         Program Version 5.0.0 -  RELEASE  -
|  1> !LC-PBE RIJCOSX def2-SVPD def2/J TightSCF
|  2> *xyz 0 1
|  3> C          1.96337       -1.74915       -1.89689
|  4> C          2.73849       -2.01517       -3.09711
|  5> C          4.04974       -2.15472       -3.15204
|  6> N          4.65821       -1.98629       -4.31866
|  7> N          4.76423       -2.45444       -2.05049
|  8> H          4.28736       -2.77626       -1.21750
|  9> H          5.75082       -2.65835       -2.12599
| 10> H          2.34518       -1.69027       -3.97145
| 11> H          4.10900       -1.59268       -5.07176
| 12> H          5.64910       -2.15646       -4.42724
| 13> H          0.92556       -1.68522       -2.14942
| 14> H          2.28268       -0.82430       -1.46378
| 15> H          2.11118       -2.54207       -1.19381
| 16> *
| 17> %MaxCore 64000
| 18>
| 19> %pal nprocs 8
| 20> end
| 21>
| 22> %scf
| 23>   MaxIter 150
| 24> end
| 25>
| 26>
| 27>                          ****END OF INPUT****

CARTESIAN COORDINATES (ANGSTROEM)
---------------------------------
  C      1.963370   -1.749150   -1.896890
  C      2.738490   -2.015170   -3.097110
  C      4.049740   -2.154720   -3.152040
  N      4.658210   -1.986290   -4.318660
  N      4.764230   -2.454440   -2.050490
  H      4.287360   -2.776260   -1.217500
  H      5.750820   -2.658350   -2.125990
  H      2.345180   -1.690270   -3.971450
  H      4.109000   -1.592680   -5.071760
  H      5.649100   -2.156460   -4.427240
  H      0.925560   -1.685220   -2.149420
  H      2.282680   -0.824300   -1.463780
  H      2.111180   -2.542070   -1.193810

 Total Charge           Charge          ....    0
 Multiplicity           Mult            ....    1
 Number of Electrons    NEL             ....   40
 Basis Dimension        Dim             ....  164

ORBITAL ENERGIES
----------------

  NO   OCC          E(Eh)            E(eV)
   0   2.0000     -14.230463      -387.2306
   1   2.0000     -14.226354      -387.1188
   2   2.0000     -10.173428      -276.8330
   3   2.0000     -10.089104      -274.5385
   4   2.0000     -10.047334      -273.4019
   5   2.0000      -1.128811       -30.7165
   6   2.0000      -1.029978       -28.0271
   7   2.0000      -0.922146       -25.0929
   8   2.0000      -0.815873       -22.2010
   9   2.0000      -0.737373       -20.0649
  10   2.0000      -0.690774       -18.7969
  11   2.0000      -0.654689       -17.8150
  12   2.0000      -0.611819       -16.6485
  13   2.0000      -0.564273       -15.3546
  14   2.0000      -0.560287       -15.2462
  15   2.0000      -0.518867       -14.1191
  16   2.0000      -0.493964       -13.4414
  17   2.0000      -0.466791       -12.7020
  18   2.0000      -0.400092       -10.8871
  19   2.0000      -0.274299        -7.4641
  20   0.0000       0.090549         2.4640
  21   0.0000       0.115837         3.1521
  22   0.0000       0.127095         3.4584
  23   0.0000       0.153864         4.1869
  24   0.0000       0.155550         4.2327

MULLIKEN ATOMIC CHARGES
-----------------------
   0 C :    0.591272
   1 C :   -0.649303
   2 C :    0.820164
   3 N :   -0.068496
   4 N :   -0.108581
   5 H :   -0.017722
   6 H :   -0.197015
   7 H :   -0.239038
   8 H :    0.029122
   9 H :   -0.141320
  10 H :    0.018916
  11 H :   -0.033887
  12 H :   -0.004113
Sum of atomic charges:   -0.0000000

LOEWDIN ATOMIC CHARGES
----------------------
   0 C :    0.056704
   1 C :   -0.097220
   2 C :   -0.235001
   3 N :    0.157262
   4 N :    0.182564
   5 H :    0.001539
   6 H :   -0.002192
   7 H :   -0.045375
   8 H :    0.014010
   9 H :    0.003129
  10 H :   -0.007707
  11 H :   -0.006490
  12 H :   -0.021222

  Mayer bond orders larger than 0.100000
B(  0-C ,  1-C ) :   1.1889 B(  0-C ,  7-H ) :   0.1608 B(  0-C , 10-H ) :   0.7932
B(  0-C , 11-H ) :   0.8208 B(  0-C , 12-H ) :   0.7706 B(  1-C ,  2-C ) :   1.7349
B(  1-C ,  3-N ) :   0.2951 B(  1-C ,  4-N ) :   0.2511 B(  1-C ,  7-H ) :   1.0061
B(  1-C , 10-H ) :   0.2216 B(  1-C , 12-H ) :   0.2312 B(  2-C ,  3-N ) :   0.9106
B(  2-C ,  4-N ) :   0.8913 B(  2-C ,  6-H ) :  -0.1665 B(  2-C ,  7-H ) :   0.1635
B(  3-N ,  8-H ) :   1.1256 B(  3-N ,  9-H ) :   1.2551 B(  4-N ,  5-H ) :   1.0831
B(  4-N ,  6-H ) :   1.3159 B(  5-H ,  6-H ) :  -0.1749 B(  8-H ,  9-H ) :  -0.1589

FINAL SINGLE POINT ENERGY      -227.712857807704

DIPOLE MOMENT
-------------
                                X             Y             Z
Electronic contribution:      2.72841      -0.66333      -1.57713
Nuclear contribution   :     -1.78367       0.60166       1.44982
                        -----------------------------------------
Total Dipole Moment    :      0.94475      -0.06167      -0.12732
                        -----------------------------------------
Magnitude (a.u.)       :      0.95528
Magnitude (Debye)      :      2.42813

Rotational constants in cm-1:     0.313991     0.135452     0.097139
Rotational constants in MHz :  9413.212964  4060.745953  2912.144668

                             ****ORCA TERMINATED NORMALLY****
TOTAL RUN TIME: 0 days 0 hours 0 minutes 11 seconds 394 msec
