                         Program Version 5.0.0 -  RELEASE  -
|  1> !LC-PBE RIJCOSX def2-SVPD def2/J TightSCF
|  2> *xyz 0 1
|  3> C          1.69499        1.54179       -5.57045
|  4> S          1.78029       -0.03313       -6.42874
|  5> O          2.56929        0.21366       -7.60736
|  6> F          0.41688       -0.46297       -6.61859
|  7> O          2.50513       -0.93326       -5.48257
|  8> H          1.18489        2.25500       -6.18367
|  9> H          2.68564        1.89081       -5.36624
| 10> H          1.16361        1.41804       -4.65000
| 11> *
| 12> %MaxCore 64000
| 13>
| 14> %pal nprocs 8
| 15> end
| 16>
| 17> %scf
| 18>   MaxIter 150
| 19> end
| 20>
| 21>
| 22>                          ****END OF INPUT****

CARTESIAN COORDINATES (ANGSTROEM)
---------------------------------
  C      1.694990    1.541790   -5.570450
  S      1.780290   -0.033130   -6.428740
  O      2.569290    0.213660   -7.607360
  F      0.416880   -0.462970   -6.618590
  O      2.505130   -0.933260   -5.482570
  H      1.184890    2.255000   -6.183670
  H      2.685640    1.890810   -5.366240
  H      1.163610    1.418040   -4.650000

 Total Charge           Charge          ....    0
 Multiplicity           Mult            ....    1
 Number of Electrons    NEL             ....   50
 Basis Dimension        Dim             ....  140

ORBITAL ENERGIES
----------------

  NO   OCC          E(Eh)            E(eV)
   0   2.0000     -88.584101     -2410.4959
   1   2.0000     -24.638826      -670.4565
   2   2.0000     -19.015110      -517.4275
   3   2.0000     -18.996566      -516.9228
   4   2.0000     -10.193525      -277.3799
   5   2.0000      -8.206546      -223.3115
   6   2.0000      -6.233636      -169.6259
   7   2.0000      -6.226197      -169.4234
   8   2.0000      -6.225355      -169.4005
   9   2.0000      -1.549753       -42.1709
  10   2.0000      -1.287459       -35.0336
  11   2.0000      -1.168626       -31.7999
  12   2.0000      -0.980276       -26.6747
  13   2.0000      -0.885487       -24.0953
  14   2.0000      -0.771128       -20.9835
  15   2.0000      -0.754444       -20.5295
  16   2.0000      -0.712692       -19.3933
  17   2.0000      -0.630513       -17.1571
  18   2.0000      -0.627833       -17.0842
  19   2.0000      -0.614436       -16.7196
  20   2.0000      -0.582638       -15.8544
  21   2.0000      -0.535818       -14.5804
  22   2.0000      -0.480605       -13.0779
  23   2.0000      -0.463866       -12.6224
  24   2.0000      -0.445359       -12.1188
  25   0.0000       0.057234         1.5574
  26   0.0000       0.088461         2.4072
  27   0.0000       0.094017         2.5583
  28   0.0000       0.097026         2.6402
  29   0.0000       0.117812         3.2058

MULLIKEN ATOMIC CHARGES
-----------------------
   0 C :    0.176693
   1 S :    1.150979
   2 O :   -0.578795
   3 F :   -0.331814
   4 O :   -0.637568
   5 H :    0.073753
   6 H :    0.073480
   7 H :    0.073271
Sum of atomic charges:    0.0000000

LOEWDIN ATOMIC CHARGES
----------------------
   0 C :    0.091243
   1 S :    1.084059
   2 O :   -0.461121
   3 F :   -0.241241
   4 O :   -0.489413
   5 H :   -0.000140
   6 H :    0.015056
   7 H :    0.001558

  Mayer bond orders larger than 0.100000
B(  0-C ,  1-S ) :   1.0279 B(  0-C ,  5-H ) :   0.9249 B(  0-C ,  6-H ) :   0.9300
B(  0-C ,  7-H ) :   0.9288 B(  1-S ,  2-O ) :   1.5862 B(  1-S ,  3-F ) :   0.7507
B(  1-S ,  4-O ) :   1.5387 B(  1-S ,  6-H ) :   0.1015

FINAL SINGLE POINT ENERGY      -686.877981807862

DIPOLE MOMENT
-------------
                                X             Y             Z
Electronic contribution:     -2.22023      -4.27672      -2.47895
Nuclear contribution   :      1.05593       5.58608       2.95063
                        -----------------------------------------
Total Dipole Moment    :     -1.16429       1.30936       0.47169
                        -----------------------------------------
Magnitude (a.u.)       :      1.81452
Magnitude (Debye)      :      4.61215

Rotational constants in cm-1:     0.163930     0.155251     0.146268
Rotational constants in MHz :  4914.487830  4654.318941  4385.000376

                             ****ORCA TERMINATED NORMALLY****
TOTAL RUN TIME: 0 days 0 hours 0 minutes 7 seconds 889 msec
