                         Program Version 5.0.0 -  RELEASE  -
|  1> !LC-PBE RIJCOSX def2-SVPD def2/J TightSCF
|  2> *xyz 0 1
|  3> C          1.96337       -1.74915       -1.89689
|  4> N          2.73849       -2.01517       -3.09711
|  5> C          4.04974       -2.15472       -3.15204
|  6> C          4.65821       -1.98629       -4.31866
|  7> N          4.76423       -2.45444       -2.05049
|  8> H          4.28736       -2.77626       -1.21750
|  9> H          5.75082       -2.65835       -2.12599
| 10> H          2.34518       -1.69027       -3.97145
| 11> H          4.10900       -1.59268       -5.07176
| 12> H          5.64910       -2.15646       -4.42724
| 13> H          0.92556       -1.68522       -2.14942
| 14> H          2.28268       -0.82430       -1.46378
| 15> H          2.11118       -2.54207       -1.19381
| 16> *
| 17> %MaxCore 64000
| 18>
| 19> %pal nprocs 8
| 20> end
| 21>
| 22> %scf
| 23>   MaxIter 150
| 24> end
| 25>
| 26>
| 27>                          ****END OF INPUT****

CARTESIAN COORDINATES (ANGSTROEM)
---------------------------------
  C      1.963370   -1.749150   -1.896890
  N      2.738490   -2.015170   -3.097110
  C      4.049740   -2.154720   -3.152040
  C      4.658210   -1.986290   -4.318660
  N      4.764230   -2.454440   -2.050490
  H      4.287360   -2.776260   -1.217500
  H      5.750820   -2.658350   -2.125990
  H      2.345180   -1.690270   -3.971450
  H      4.109000   -1.592680   -5.071760
  H      5.649100   -2.156460   -4.427240
  H      0.925560   -1.685220   -2.149420
  H      2.282680   -0.824300   -1.463780
  H      2.111180   -2.542070   -1.193810

 Total Charge           Charge          ....    0
 Multiplicity           Mult            ....    1
 Number of Electrons    NEL             ....   40
 Basis Dimension        Dim             ....  164

ORBITAL ENERGIES
----------------

  NO   OCC          E(Eh)            E(eV)
   0   2.0000     -14.230984      -387.2448
   1   2.0000     -14.229672      -387.2091
   2   2.0000     -10.178416      -276.9688
   3   2.0000     -10.157880      -276.4100
   4   2.0000     -10.037487      -273.1339
   5   2.0000      -1.139455       -31.0061
   6   2.0000      -1.044595       -28.4249
   7   2.0000      -0.912832       -24.8394
   8   2.0000      -0.826366       -22.4866
   9   2.0000      -0.753683       -20.5087
  10   2.0000      -0.684020       -18.6131
  11   2.0000      -0.638808       -17.3828
  12   2.0000      -0.616648       -16.7798
  13   2.0000      -0.605302       -16.4711
  14   2.0000      -0.539213       -14.6727
  15   2.0000      -0.527642       -14.3579
  16   2.0000      -0.525676       -14.3044
  17   2.0000      -0.500863       -13.6292
  18   2.0000      -0.388345       -10.5674
  19   2.0000      -0.281057        -7.6479
  20   0.0000       0.084414         2.2970
  21   0.0000       0.117108         3.1867
  22   0.0000       0.125265         3.4086
  23   0.0000       0.153409         4.1745
  24   0.0000       0.155940         4.2434

MULLIKEN ATOMIC CHARGES
-----------------------
   0 C :    0.795483
   1 N :   -0.519068
   2 C :    0.668068
   3 C :    0.142595
   4 N :   -0.001161
   5 H :   -0.107434
   6 H :   -0.075145
   7 H :   -0.130994
   8 H :   -0.202621
   9 H :   -0.324351
  10 H :   -0.176961
  11 H :   -0.001304
  12 H :   -0.067107
Sum of atomic charges:    0.0000000

LOEWDIN ATOMIC CHARGES
----------------------
   0 C :    0.170837
   1 N :   -0.061106
   2 C :   -0.245869
   3 C :    0.109198
   4 N :    0.180557
   5 H :   -0.011496
   6 H :    0.014115
   7 H :    0.036117
   8 H :   -0.088322
   9 H :   -0.086323
  10 H :   -0.000336
  11 H :   -0.003573
  12 H :   -0.013797

  Mayer bond orders larger than 0.100000
B(  0-C ,  1-N ) :   0.9484 B(  0-C , 10-H ) :   0.8716 B(  0-C , 11-H ) :   0.8704
B(  0-C , 12-H ) :   0.8747 B(  1-N ,  2-C ) :   1.0872 B(  1-N ,  3-C ) :   0.2306
B(  1-N ,  4-N ) :   0.1366 B(  1-N ,  7-H ) :   1.1850 B(  1-N , 10-H ) :   0.1492
B(  1-N , 12-H ) :   0.1386 B(  2-C ,  3-C ) :   1.4970 B(  2-C ,  4-N ) :   0.9690
B(  2-C ,  7-H ) :  -0.1329 B(  2-C ,  9-H ) :   0.1084 B(  3-C ,  4-N ) :   0.1834
B(  3-C ,  8-H ) :   0.9202 B(  3-C ,  9-H ) :   0.8903 B(  4-N ,  5-H ) :   1.1149
B(  4-N ,  6-H ) :   1.1883 B(  5-H ,  6-H ) :  -0.1777

FINAL SINGLE POINT ENERGY      -227.703134361832

DIPOLE MOMENT
-------------
                                X             Y             Z
Electronic contribution:      0.85889      -0.63850      -0.31581
Nuclear contribution   :     -1.39484       0.60751       1.20240
                        -----------------------------------------
Total Dipole Moment    :     -0.53595      -0.03099       0.88658
                        -----------------------------------------
Magnitude (a.u.)       :      1.03645
Magnitude (Debye)      :      2.63445

Rotational constants in cm-1:     0.316419     0.139940     0.099730
Rotational constants in MHz :  9485.991536  4195.289338  2989.818216

                             ****ORCA TERMINATED NORMALLY****
TOTAL RUN TIME: 0 days 0 hours 0 minutes 11 seconds 146 msec
