                         Program Version 5.0.0 -  RELEASE  -
|  1> !LC-PBE RIJCOSX def2-SVPD def2/J TightSCF
|  2> *xyz 0 1
|  3> C          1.69499        1.54179       -5.57045
|  4> S          1.78029       -0.03313       -6.42874
|  5> O          2.56929        0.21366       -7.60736
|  6> O          0.41688       -0.46297       -6.61859
|  7> F          2.50513       -0.93326       -5.48257
|  8> H          1.18489        2.25500       -6.18367
|  9> H          2.68564        1.89081       -5.36624
| 10> H          1.16361        1.41804       -4.65000
| 11> *
| 12> %MaxCore 64000
| 13>
| 14> %pal nprocs 8
| 15> end
| 16>
| 17> %scf
| 18>   MaxIter 150
| 19> end
| 20>
| 21>
| 22>                          ****END OF INPUT****

CARTESIAN COORDINATES (ANGSTROEM)
---------------------------------
  C      1.694990    1.541790   -5.570450
  S      1.780290   -0.033130   -6.428740
  O      2.569290    0.213660   -7.607360
  O      0.416880   -0.462970   -6.618590
  F      2.505130   -0.933260   -5.482570
  H      1.184890    2.255000   -6.183670
  H      2.685640    1.890810   -5.366240
  H      1.163610    1.418040   -4.650000

 Total Charge           Charge          ....    0
 Multiplicity           Mult            ....    1
 Number of Electrons    NEL             ....   50
 Basis Dimension        Dim             ....  140

ORBITAL ENERGIES
----------------

  NO   OCC          E(Eh)            E(eV)
   0   2.0000     -88.581802     -2410.4334
   1   2.0000     -24.611409      -669.7105
   2   2.0000     -19.015651      -517.4422
   3   2.0000     -19.014505      -517.4110
   4   2.0000     -10.192111      -277.3414
   5   2.0000      -8.204007      -223.2424
   6   2.0000      -6.230868      -169.5505
   7   2.0000      -6.223896      -169.3608
   8   2.0000      -6.223144      -169.3404
   9   2.0000      -1.506524       -40.9946
  10   2.0000      -1.297403       -35.3041
  11   2.0000      -1.196320       -32.5535
  12   2.0000      -0.977833       -26.6082
  13   2.0000      -0.862573       -23.4718
  14   2.0000      -0.750856       -20.4318
  15   2.0000      -0.723499       -19.6874
  16   2.0000      -0.708752       -19.2861
  17   2.0000      -0.632989       -17.2245
  18   2.0000      -0.628475       -17.1017
  19   2.0000      -0.611346       -16.6356
  20   2.0000      -0.591261       -16.0890
  21   2.0000      -0.542625       -14.7656
  22   2.0000      -0.488530       -13.2936
  23   2.0000      -0.479725       -13.0540
  24   2.0000      -0.465842       -12.6762
  25   0.0000       0.060932         1.6580
  26   0.0000       0.090675         2.4674
  27   0.0000       0.095558         2.6003
  28   0.0000       0.096264         2.6195
  29   0.0000       0.117859         3.2071

MULLIKEN ATOMIC CHARGES
-----------------------
   0 C :    0.174508
   1 S :    1.161603
   2 O :   -0.595372
   3 O :   -0.596356
   4 F :   -0.361498
   5 H :    0.068863
   6 H :    0.076081
   7 H :    0.072171
Sum of atomic charges:    0.0000000

LOEWDIN ATOMIC CHARGES
----------------------
   0 C :    0.091377
   1 S :    1.080262
   2 O :   -0.461881
   3 O :   -0.460731
   4 F :   -0.265261
   5 H :    0.013050
   6 H :    0.001854
   7 H :    0.001330

  Mayer bond orders larger than 0.100000
B(  0-C ,  1-S ) :   1.0281 B(  0-C ,  5-H ) :   0.9269 B(  0-C ,  6-H ) :   0.9284
B(  0-C ,  7-H ) :   0.9305 B(  1-S ,  2-O ) :   1.5825 B(  1-S ,  3-O ) :   1.5796
B(  1-S ,  4-F ) :   0.6956

FINAL SINGLE POINT ENERGY      -686.902129765187

DIPOLE MOMENT
-------------
                                X             Y             Z
Electronic contribution:      1.32308      -5.09242      -0.53218
Nuclear contribution   :     -1.03036       6.05593       1.81567
                        -----------------------------------------
Total Dipole Moment    :      0.29272       0.96351       1.28349
                        -----------------------------------------
Magnitude (a.u.)       :      1.63138
Magnitude (Debye)      :      4.14663

Rotational constants in cm-1:     0.164224     0.152173     0.148737
Rotational constants in MHz :  4923.310232  4562.031098  4459.033187

                             ****ORCA TERMINATED NORMALLY****
TOTAL RUN TIME: 0 days 0 hours 0 minutes 8 seconds 191 msec
