                         Program Version 5.0.0 -  RELEASE  -
|  1> !LC-PBE RIJCOSX def2-SVPD def2/J TightSCF
|  2> *xyz 0 1
|  3> C          1.96337       -1.74915       -1.89689
|  4> N          2.73849       -2.01517       -3.09711
|  5> C          4.04974       -2.15472       -3.15204
|  6> N          4.65821       -1.98629       -4.31866
|  7> C          4.76423       -2.45444       -2.05049
|  8> H          4.28736       -2.77626       -1.21750
|  9> H          5.75082       -2.65835       -2.12599
| 10> H          2.34518       -1.69027       -3.97145
| 11> H          4.10900       -1.59268       -5.07176
| 12> H          5.64910       -2.15646       -4.42724
| 13> H          0.92556       -1.68522       -2.14942
| 14> H          2.28268       -0.82430       -1.46378
| 15> H          2.11118       -2.54207       -1.19381
| 16> *
| 17> %MaxCore 64000
| 18>
| 19> %pal nprocs 8
| 20> end
| 21>
| 22> %scf
| 23>   MaxIter 150
| 24> end
| 25>
| 26>
| 27>                          ****END OF INPUT****

CARTESIAN COORDINATES (ANGSTROEM)
---------------------------------
  C      1.963370   -1.749150   -1.896890
  N      2.738490   -2.015170   -3.097110
  C      4.049740   -2.154720   -3.152040
  N      4.658210   -1.986290   -4.318660
  C      4.764230   -2.454440   -2.050490
  H      4.287360   -2.776260   -1.217500
  H      5.750820   -2.658350   -2.125990
  H      2.345180   -1.690270   -3.971450
  H      4.109000   -1.592680   -5.071760
  H      5.649100   -2.156460   -4.427240
  H      0.925560   -1.685220   -2.149420
  H      2.282680   -0.824300   -1.463780
  H      2.111180   -2.542070   -1.193810

 Total Charge           Charge          ....    0
 Multiplicity           Mult            ....    1
 Number of Electrons    NEL             ....   40
 Basis Dimension        Dim             ....  164

ORBITAL ENERGIES
----------------

  NO   OCC          E(Eh)            E(eV)
   0   2.0000     -14.236041      -387.3824
   1   2.0000     -14.231322      -387.2540
   2   2.0000     -10.180108      -277.0148
   3   2.0000     -10.150913      -276.2204
   4   2.0000     -10.039000      -273.1751
   5   2.0000      -1.145302       -31.1652
   6   2.0000      -1.048927       -28.5428
   7   2.0000      -0.883634       -24.0449
   8   2.0000      -0.860474       -23.4147
   9   2.0000      -0.719352       -19.5746
  10   2.0000      -0.697757       -18.9869
  11   2.0000      -0.671999       -18.2860
  12   2.0000      -0.601586       -16.3700
  13   2.0000      -0.589993       -16.0545
  14   2.0000      -0.554775       -15.0962
  15   2.0000      -0.521015       -14.1775
  16   2.0000      -0.510995       -13.9049
  17   2.0000      -0.502687       -13.6788
  18   2.0000      -0.383209       -10.4277
  19   2.0000      -0.284242        -7.7346
  20   0.0000       0.087405         2.3784
  21   0.0000       0.108909         2.9636
  22   0.0000       0.123940         3.3726
  23   0.0000       0.154534         4.2051
  24   0.0000       0.158931         4.3247

MULLIKEN ATOMIC CHARGES
-----------------------
   0 C :    0.803030
   1 N :   -0.492655
   2 C :    0.600568
   3 N :   -0.019191
   4 C :    0.205357
   5 H :   -0.086200
   6 H :   -0.471864
   7 H :   -0.243811
   8 H :   -0.079011
   9 H :   -0.064766
  10 H :   -0.195182
  11 H :   -0.019428
  12 H :    0.063154
Sum of atomic charges:    0.0000000

LOEWDIN ATOMIC CHARGES
----------------------
   0 C :    0.178685
   1 N :   -0.064157
   2 C :   -0.251692
   3 N :    0.165170
   4 C :    0.127830
   5 H :   -0.101042
   6 H :   -0.094067
   7 H :    0.023493
   8 H :    0.001023
   9 H :    0.020935
  10 H :   -0.001779
  11 H :    0.001391
  12 H :   -0.005791

  Mayer bond orders larger than 0.100000
B(  0-C ,  1-N ) :   0.9465 B(  0-C , 10-H ) :   0.8920 B(  0-C , 11-H ) :   0.8667
B(  0-C , 12-H ) :   0.8631 B(  1-N ,  2-C ) :   1.0046 B(  1-N ,  3-N ) :   0.1580
B(  1-N ,  4-C ) :   0.3073 B(  1-N ,  7-H ) :   1.2660 B(  1-N , 10-H ) :   0.1399
B(  1-N , 11-H ) :   0.1207 B(  2-C ,  3-N ) :   0.9210 B(  2-C ,  4-C ) :   1.7428
B(  2-C ,  5-H ) :   0.1806 B(  2-C ,  7-H ) :  -0.1567 B(  3-N ,  4-C ) :   0.1992
B(  3-N ,  8-H ) :   1.1527 B(  3-N ,  9-H ) :   1.2286 B(  4-C ,  5-H ) :   0.7616
B(  4-C ,  6-H ) :   0.9861 B(  8-H ,  9-H ) :  -0.1559

FINAL SINGLE POINT ENERGY      -227.703678638977

DIPOLE MOMENT
-------------
                                X             Y             Z
Electronic contribution:      0.77973      -0.11523      -2.55173
Nuclear contribution   :     -1.37336       0.51269       1.66180
                        -----------------------------------------
Total Dipole Moment    :     -0.59364       0.39746      -0.88992
                        -----------------------------------------
Magnitude (a.u.)       :      1.14120
Magnitude (Debye)      :      2.90070

Rotational constants in cm-1:     0.331915     0.135033     0.098638
Rotational constants in MHz :  9950.555862  4048.179255  2957.099162

                             ****ORCA TERMINATED NORMALLY****
TOTAL RUN TIME: 0 days 0 hours 0 minutes 11 seconds 269 msec
