                         Program Version 5.0.0 -  RELEASE  -
|  1> !LC-PBE RIJCOSX def2-SVPD def2/J TightSCF xyzfile
|  2>
|  3> *xyzfile 0 1 D1.xyz
|  4>
|  5> %MaxCore 64000
|  6>
|  7> %pal nprocs 4
|  8> end
|  9>
| 10> %scf
| 11>   MaxIter 150
| 12> end
| 13>
| 14>
| 15>                          ****END OF INPUT****

CARTESIAN COORDINATES (ANGSTROEM)
---------------------------------
  C      1.963365   -1.749150   -1.896887
  C      2.738490   -2.015170   -3.097113
  C      0.611877    1.657634   -4.500288
  C      1.694991    1.541794   -5.570447
  H      2.697326    1.734659   -5.183996
  H      1.506656    2.272239   -6.358076
  S      1.780287   -0.033128   -6.428739
  C      4.049736   -2.154717   -3.152044
  N      4.658206   -1.986293   -4.318655
  N      4.764231   -2.454435   -2.050491
  H      4.287363   -2.776259   -1.217496
  H      5.750825   -2.658351   -2.125988
  H      2.345176   -1.690274   -3.971447
  H      4.109004   -1.592677   -5.071760
  H      5.649095   -2.156462   -4.427237
  F      2.569287    0.213657   -7.607360
  O      0.416880   -0.462969   -6.618595
  C      2.088520   -0.300912   -1.415204
  H      2.231272   -2.451616   -1.102643
  H      0.930249   -1.977801   -2.155438
  C      0.680356    0.655418   -3.348038
  H     -0.356865    1.549231   -4.991128
  H      0.650228    2.675438   -4.096000
  C      1.968993    0.733582   -2.535654
  H      3.051356   -0.168602   -0.911868
  H      1.316501   -0.136231   -0.657252
  O      2.505129   -0.933263   -5.482570
  H      2.824195    0.624726   -3.208464
  H      2.058919    1.730331   -2.093112
  H      0.542252   -0.344731   -3.766662
  H     -0.174219    0.829692   -2.685182

 Total Charge           Charge          ....    0
 Multiplicity           Mult            ....    1
 Number of Electrons    NEL             ....  120
 Basis Dimension        Dim             ....  432

ORBITAL ENERGIES
----------------

  NO   OCC          E(Eh)            E(eV)
   0   2.0000     -88.588203     -2410.6076
   1   2.0000     -24.643712      -670.5895
   2   2.0000     -19.021516      -517.6018
   3   2.0000     -19.008243      -517.2406
   4   2.0000     -14.212275      -386.7357
   5   2.0000     -14.196060      -386.2944
   6   2.0000     -10.199159      -277.5332
   7   2.0000     -10.155906      -276.3563
   8   2.0000     -10.151734      -276.2427
   9   2.0000     -10.122655      -275.4514
  10   2.0000     -10.110794      -275.1287
  11   2.0000     -10.100139      -274.8388
  12   2.0000     -10.087814      -274.5034
  13   2.0000     -10.014861      -272.5182
  14   2.0000      -8.209734      -223.3982
  15   2.0000      -6.236880      -169.7141
  16   2.0000      -6.229763      -169.5205
  17   2.0000      -6.228167      -169.4770
  18   2.0000      -1.555139       -42.3175
  19   2.0000      -1.293874       -35.2081
  20   2.0000      -1.182202       -32.1693
  21   2.0000      -1.106519       -30.1099
  22   2.0000      -1.017276       -27.6815
  23   2.0000      -1.007737       -27.4219
  24   2.0000      -0.967363       -26.3233
  25   2.0000      -0.925118       -25.1737
  26   2.0000      -0.891548       -24.2603
  27   2.0000      -0.856363       -23.3028
  28   2.0000      -0.815770       -22.1982
  29   2.0000      -0.782143       -21.2832
  30   2.0000      -0.765316       -20.8253
  31   2.0000      -0.745092       -20.2750
  32   2.0000      -0.743800       -20.2398
  33   2.0000      -0.703892       -19.1539
  34   2.0000      -0.701478       -19.0882
  35   2.0000      -0.675171       -18.3723
  36   2.0000      -0.650375       -17.6976
  37   2.0000      -0.645077       -17.5534
  38   2.0000      -0.632812       -17.2197
  39   2.0000      -0.613140       -16.6844
  40   2.0000      -0.610795       -16.6206
  41   2.0000      -0.587495       -15.9865
  42   2.0000      -0.577792       -15.7225
  43   2.0000      -0.568622       -15.4730
  44   2.0000      -0.555685       -15.1209
  45   2.0000      -0.544972       -14.8294
  46   2.0000      -0.523179       -14.2364
  47   2.0000      -0.515835       -14.0366
  48   2.0000      -0.509926       -13.8758
  49   2.0000      -0.499029       -13.5793
  50   2.0000      -0.488176       -13.2840
  51   2.0000      -0.467102       -12.7105
  52   2.0000      -0.461917       -12.5694
  53   2.0000      -0.457495       -12.4491
  54   2.0000      -0.454800       -12.3758
  55   2.0000      -0.438939       -11.9441
  56   2.0000      -0.424094       -11.5402
  57   2.0000      -0.409513       -11.1434
  58   2.0000      -0.377381       -10.2691
  59   2.0000      -0.252610        -6.8739
  60   0.0000       0.056975         1.5504
  61   0.0000       0.079967         2.1760
  62   0.0000       0.083281         2.2662
  63   0.0000       0.096855         2.6356
  64   0.0000       0.110103         2.9961

MULLIKEN ATOMIC CHARGES
-----------------------
   0 C :    0.088671
   1 C :    0.016016
   2 C :    0.225582
   3 C :   -0.116918
   4 H :    0.207175
   5 H :    0.049006
   6 S :    1.489007
   7 C :    0.716585
   8 N :    0.043339
   9 N :   -0.106850
  10 H :    0.011186
  11 H :   -0.205300
  12 H :   -0.444648
  13 H :   -0.134448
  14 H :   -0.208046
  15 F :   -0.423134
  16 O :   -0.646434
  17 C :    0.403975
  18 H :   -0.247784
  19 H :    0.193622
  20 C :   -0.105744
  21 H :    0.081940
  22 H :    0.054177
  23 C :   -0.246743
  24 H :    0.049592
  25 H :    0.103801
  26 O :   -0.675113
  27 H :    0.077583
  28 H :   -0.115091
  29 H :   -0.045058
  30 H :   -0.089945
Sum of atomic charges:   -0.0000000

LOEWDIN ATOMIC CHARGES
----------------------
   0 C :   -0.070344
   1 C :   -0.045214
   2 C :   -0.042552
   3 C :   -0.066235
   4 H :    0.035425
   5 H :    0.031912
   6 S :    1.169532
   7 C :   -0.203235
   8 N :    0.183281
   9 N :    0.179783
  10 H :   -0.002899
  11 H :   -0.005950
  12 H :   -0.123745
  13 H :   -0.076034
  14 H :    0.000819
  15 F :   -0.230580
  16 O :   -0.434579
  17 C :   -0.043832
  18 H :    0.012609
  19 H :    0.022902
  20 C :   -0.038801
  21 H :    0.040560
  22 H :    0.049712
  23 C :   -0.050920
  24 H :    0.029496
  25 H :    0.027209
  26 O :   -0.470880
  27 H :    0.019756
  28 H :    0.033413
  29 H :    0.023181
  30 H :    0.046208

  Mayer bond orders larger than 0.100000
B(  0-C ,  1-C ) :   1.1309 B(  0-C ,  7-C ) :   0.1146 B(  0-C , 12-H ) :   0.3581
B(  0-C , 17-C ) :   1.1395 B(  0-C , 18-H ) :   0.9140 B(  0-C , 19-H ) :   0.7092
B(  0-C , 23-C ) :   0.1193 B(  0-C , 24-H ) :   0.1146 B(  0-C , 25-H ) :   0.1576
B(  1-C ,  7-C ) :   1.8460 B(  1-C ,  8-N ) :   0.2513 B(  1-C ,  9-N ) :   0.2447
B(  1-C , 12-H ) :   0.2582 B(  1-C , 18-H ) :   0.1936 B(  1-C , 19-H ) :   0.2338
B(  1-C , 26-O ) :  -0.1402 B(  2-C ,  3-C ) :   1.3107 B(  2-C ,  5-H ) :   0.1692
B(  2-C , 20-C ) :   1.2495 B(  2-C , 21-H ) :   0.7316 B(  2-C , 22-H ) :   0.8360
B(  3-C ,  4-H ) :   0.8701 B(  3-C ,  5-H ) :   0.8363 B(  3-C ,  6-S ) :   1.0561
B(  3-C , 22-H ) :   0.1040 B(  6-S , 15-F ) :   0.6722 B(  6-S , 16-O ) :   1.5321
B(  6-S , 26-O ) :   1.3550 B(  7-C ,  8-N ) :   0.7715 B(  7-C ,  9-N ) :   0.8675
B(  7-C , 11-H ) :  -0.1654 B(  7-C , 12-H ) :   0.4947 B(  7-C , 13-H ) :  -0.1102
B(  7-C , 14-H ) :  -0.2259 B(  8-N , 12-H ) :   0.1265 B(  8-N , 13-H ) :   1.1844
B(  8-N , 14-H ) :   1.3563 B(  9-N , 10-H ) :   1.0578 B(  9-N , 11-H ) :   1.3442
B( 10-H , 11-H ) :  -0.2016 B( 12-H , 26-O ) :   0.2422 B( 12-H , 28-H ) :  -0.1034
B( 13-H , 14-H ) :  -0.1890 B( 13-H , 26-O ) :   0.1150 B( 16-O , 26-O ) :   0.1041
B( 17-C , 23-C ) :   1.2549 B( 17-C , 24-H ) :   0.7943 B( 17-C , 25-H ) :   0.7214
B( 20-C , 21-H ) :   0.2350 B( 20-C , 23-C ) :   1.1928 B( 20-C , 28-H ) :   0.1496
B( 20-C , 29-H ) :   0.9806 B( 20-C , 30-H ) :   0.9000 B( 23-C , 24-H ) :   0.2169
B( 23-C , 25-H ) :   0.1287 B( 23-C , 27-H ) :   0.9449 B( 23-C , 28-H ) :   0.9221
B( 23-C , 30-H ) :   0.1472

FINAL SINGLE POINT ENERGY     -1069.999697763955

DIPOLE MOMENT
-------------
                                X             Y             Z
Electronic contribution:      0.71941      -0.88753     -23.50654
Nuclear contribution   :      0.18720       2.58739      22.98820
                        -----------------------------------------
Total Dipole Moment    :      0.90661       1.69986      -0.51834
                        -----------------------------------------
Magnitude (a.u.)       :      1.99503
Magnitude (Debye)      :      5.07097

Rotational constants in cm-1:     0.028798     0.014448     0.010940
Rotational constants in MHz :   863.355869   433.126694   327.985023

                             ****ORCA TERMINATED NORMALLY****
TOTAL RUN TIME: 0 days 0 hours 3 minutes 27 seconds 417 msec
