                         Program Version 5.0.0 -  RELEASE  -
|  1> !LC-PBE RIJCOSX def2-SVPD def2/J TightSCF xyzfile
|  2>
|  3> *xyzfile 0 1 D7.xyz
|  4>
|  5> %MaxCore 64000
|  6>
|  7> %pal nprocs 4
|  8> end
|  9>
| 10> %scf
| 11>   MaxIter 150
| 12> end
| 13>
| 14>
| 15>                          ****END OF INPUT****

CARTESIAN COORDINATES (ANGSTROEM)
---------------------------------
  C      1.963365   -1.749150   -1.896887
  C      2.738490   -2.015170   -3.097113
  C      0.611877    1.657634   -4.500288
  C      1.694991    1.541794   -5.570447
  H      2.697326    1.734659   -5.183996
  H      1.506656    2.272239   -6.358076
  S      1.780287   -0.033128   -6.428739
  C      4.049736   -2.154717   -3.152044
  N      4.658206   -1.986293   -4.318655
  N      4.764231   -2.454435   -2.050491
  H      4.287363   -2.776259   -1.217496
  H      5.750825   -2.658351   -2.125988
  H      2.345176   -1.690274   -3.971447
  H      4.109004   -1.592677   -5.071760
  H      5.649095   -2.156462   -4.427237
  O      2.569287    0.213657   -7.607360
  O      0.416880   -0.462969   -6.618595
  C      2.088520   -0.300912   -1.415204
  H      2.231272   -2.451616   -1.102643
  H      0.930249   -1.977801   -2.155438
  C      0.680356    0.655418   -3.348038
  H     -0.356865    1.549231   -4.991128
  H      0.650228    2.675438   -4.096000
  C      1.968993    0.733582   -2.535654
  H      3.051356   -0.168602   -0.911868
  H      1.316501   -0.136231   -0.657252
  F      2.505129   -0.933263   -5.482570
  H      2.824195    0.624726   -3.208464
  H      2.058919    1.730331   -2.093112
  H      0.542252   -0.344731   -3.766662
  H     -0.174219    0.829692   -2.685182

 Total Charge           Charge          ....    0
 Multiplicity           Mult            ....    1
 Number of Electrons    NEL             ....  120
 Basis Dimension        Dim             ....  432

ORBITAL ENERGIES
----------------

  NO   OCC          E(Eh)            E(eV)
   0   2.0000     -88.578455     -2410.3423
   1   2.0000     -24.618287      -669.8977
   2   2.0000     -19.015217      -517.4304
   3   2.0000     -19.014410      -517.4084
   4   2.0000     -14.232864      -387.2959
   5   2.0000     -14.227374      -387.1465
   6   2.0000     -10.193018      -277.3661
   7   2.0000     -10.178142      -276.9613
   8   2.0000     -10.153808      -276.2992
   9   2.0000     -10.132947      -275.7315
  10   2.0000     -10.124113      -275.4911
  11   2.0000     -10.114250      -275.2227
  12   2.0000     -10.106057      -274.9998
  13   2.0000     -10.044969      -273.3375
  14   2.0000      -8.199822      -223.1285
  15   2.0000      -6.227058      -169.4469
  16   2.0000      -6.219799      -169.2493
  17   2.0000      -6.218432      -169.2121
  18   2.0000      -1.515268       -41.2325
  19   2.0000      -1.298181       -35.3253
  20   2.0000      -1.195340       -32.5268
  21   2.0000      -1.132388       -30.8139
  22   2.0000      -1.034202       -28.1421
  23   2.0000      -1.018006       -27.7014
  24   2.0000      -0.977384       -26.5960
  25   2.0000      -0.926511       -25.2116
  26   2.0000      -0.900469       -24.5030
  27   2.0000      -0.861491       -23.4424
  28   2.0000      -0.830734       -22.6054
  29   2.0000      -0.788510       -21.4565
  30   2.0000      -0.749659       -20.3993
  31   2.0000      -0.739962       -20.1354
  32   2.0000      -0.731418       -19.9029
  33   2.0000      -0.721548       -19.6343
  34   2.0000      -0.698262       -19.0007
  35   2.0000      -0.692754       -18.8508
  36   2.0000      -0.655346       -17.8329
  37   2.0000      -0.646335       -17.5877
  38   2.0000      -0.640571       -17.4308
  39   2.0000      -0.619850       -16.8670
  40   2.0000      -0.613303       -16.6888
  41   2.0000      -0.602901       -16.4058
  42   2.0000      -0.593157       -16.1406
  43   2.0000      -0.576785       -15.6951
  44   2.0000      -0.565253       -15.3813
  45   2.0000      -0.544614       -14.8197
  46   2.0000      -0.541690       -14.7401
  47   2.0000      -0.530680       -14.4405
  48   2.0000      -0.526028       -14.3140
  49   2.0000      -0.504326       -13.7234
  50   2.0000      -0.494514       -13.4564
  51   2.0000      -0.477410       -12.9910
  52   2.0000      -0.476695       -12.9715
  53   2.0000      -0.466348       -12.6900
  54   2.0000      -0.464014       -12.6265
  55   2.0000      -0.450601       -12.2615
  56   2.0000      -0.440837       -11.9958
  57   2.0000      -0.435101       -11.8397
  58   2.0000      -0.401909       -10.9365
  59   2.0000      -0.278614        -7.5815
  60   0.0000       0.070801         1.9266
  61   0.0000       0.084013         2.2861
  62   0.0000       0.089806         2.4437
  63   0.0000       0.092220         2.5094
  64   0.0000       0.107622         2.9285

MULLIKEN ATOMIC CHARGES
-----------------------
   0 C :    0.092991
   1 C :    0.021079
   2 C :    0.287367
   3 C :   -0.110304
   4 H :    0.213099
   5 H :   -0.013586
   6 S :    1.406785
   7 C :    0.752511
   8 N :    0.091876
   9 N :   -0.107864
  10 H :    0.021979
  11 H :   -0.201164
  12 H :   -0.446236
  13 H :   -0.179088
  14 H :   -0.197668
  15 O :   -0.638792
  16 O :   -0.674699
  17 C :    0.385278
  18 H :   -0.237912
  19 H :    0.187248
  20 C :   -0.099386
  21 H :    0.074102
  22 H :    0.054625
  23 C :   -0.249636
  24 H :    0.046571
  25 H :    0.109876
  26 F :   -0.416774
  27 H :    0.071368
  28 H :   -0.095672
  29 H :   -0.086181
  30 H :   -0.061791
Sum of atomic charges:   -0.0000000

LOEWDIN ATOMIC CHARGES
----------------------
   0 C :   -0.068408
   1 C :   -0.048110
   2 C :   -0.052803
   3 C :   -0.060030
   4 H :    0.033470
   5 H :    0.044946
   6 S :    1.117755
   7 C :   -0.200853
   8 N :    0.185341
   9 N :    0.187066
  10 H :    0.001516
  11 H :   -0.000616
  12 H :   -0.100257
  13 H :   -0.044220
  14 H :    0.010304
  15 O :   -0.448600
  16 O :   -0.439294
  17 C :   -0.042238
  18 H :    0.016089
  19 H :    0.025112
  20 C :   -0.043116
  21 H :    0.040684
  22 H :    0.047512
  23 C :   -0.053248
  24 H :    0.030559
  25 H :    0.030058
  26 F :   -0.288075
  27 H :    0.016554
  28 H :    0.036754
  29 H :    0.018527
  30 H :    0.047621

  Mayer bond orders larger than 0.100000
B(  0-C ,  1-C ) :   1.1554 B(  0-C ,  7-C ) :   0.1153 B(  0-C , 12-H ) :   0.3578
B(  0-C , 17-C ) :   1.1461 B(  0-C , 18-H ) :   0.8970 B(  0-C , 19-H ) :   0.7128
B(  0-C , 23-C ) :   0.1204 B(  0-C , 24-H ) :   0.1052 B(  0-C , 25-H ) :   0.1479
B(  1-C ,  7-C ) :   1.7808 B(  1-C ,  8-N ) :   0.2583 B(  1-C ,  9-N ) :   0.2296
B(  1-C , 12-H ) :   0.1184 B(  1-C , 18-H ) :   0.2088 B(  1-C , 19-H ) :   0.2504
B(  2-C ,  3-C ) :   1.2592 B(  2-C ,  4-H ) :   0.1051 B(  2-C ,  5-H ) :   0.1485
B(  2-C , 20-C ) :   1.2564 B(  2-C , 21-H ) :   0.7366 B(  2-C , 22-H ) :   0.8205
B(  3-C ,  4-H ) :   0.8710 B(  3-C ,  5-H ) :   0.8689 B(  3-C ,  6-S ) :   1.0860
B(  3-C , 21-H ) :   0.1080 B(  6-S , 15-O ) :   1.5860 B(  6-S , 16-O ) :   1.5129
B(  6-S , 26-F ) :   0.6502 B(  7-C ,  8-N ) :   0.7921 B(  7-C ,  9-N ) :   0.8960
B(  7-C , 11-H ) :  -0.1726 B(  7-C , 12-H ) :   0.5118 B(  7-C , 14-H ) :  -0.2229
B(  8-N , 13-H ) :   1.1978 B(  8-N , 14-H ) :   1.3431 B(  9-N , 10-H ) :   1.0446
B(  9-N , 11-H ) :   1.3483 B( 10-H , 11-H ) :  -0.2012 B( 12-H , 23-C ) :   0.1033
B( 13-H , 14-H ) :  -0.1744 B( 13-H , 26-F ) :   0.1213 B( 17-C , 23-C ) :   1.2529
B( 17-C , 24-H ) :   0.8068 B( 17-C , 25-H ) :   0.7265 B( 20-C , 21-H ) :   0.2348
B( 20-C , 23-C ) :   1.1958 B( 20-C , 28-H ) :   0.1497 B( 20-C , 29-H ) :   0.9934
B( 20-C , 30-H ) :   0.8842 B( 23-C , 24-H ) :   0.2186 B( 23-C , 25-H ) :   0.1272
B( 23-C , 27-H ) :   0.9423 B( 23-C , 28-H ) :   0.9271 B( 23-C , 30-H ) :   0.1540

FINAL SINGLE POINT ENERGY     -1070.018449591998

DIPOLE MOMENT
-------------
                                X             Y             Z
Electronic contribution:      0.77385      -3.05410     -19.30288
Nuclear contribution   :      0.26049       3.89757      20.56096
                        -----------------------------------------
Total Dipole Moment    :      1.03434       0.84347       1.25808
                        -----------------------------------------
Magnitude (a.u.)       :      1.83415
Magnitude (Debye)      :      4.66203

Rotational constants in cm-1:     0.029090     0.014735     0.011139
Rotational constants in MHz :   872.086433   441.731892   333.928051

                             ****ORCA TERMINATED NORMALLY****
TOTAL RUN TIME: 0 days 0 hours 3 minutes 25 seconds 255 msec
