                         Program Version 5.0.0 -  RELEASE  -
|  1> !DLPNO-CCSD(T) aug-cc-pVTZ aug-cc-pVTZ/C TightSCF TightPNO RIJCOSX def2/J
|  2> *xyz -1 1
|  3> C          3.90595        2.81985       -3.75292
|  4> C          3.80351        1.37472       -3.26081
|  5> C          3.93993        0.32036       -4.36773
|  6> H          4.10504       -0.65508       -3.90773
|  7> H          3.02280        0.28052       -4.95712
|  8> C          5.10585        0.66802       -5.30546
|  9> H          4.57483        1.21516       -2.50044
| 10> H          2.84351        1.26085       -2.75146
| 11> O          4.80913        1.15019       -6.41436
| 12> O          6.26737        0.56500       -4.81948
| 13> H          3.15892        2.99660       -4.49832
| 14> H          4.87575        2.98549       -4.17357
| 15> H          3.75481        3.48808       -2.93101
| 16> *
| 17>
| 18> %MaxCore 64000
| 19>
| 20> %pal nprocs 2
| 21> end
| 22>
| 23> %scf
| 24>   MaxIter 150
| 25> end
| 26>
| 27>
| 28>                          ****END OF INPUT****

CARTESIAN COORDINATES (ANGSTROEM)
---------------------------------
  C      3.905950    2.819850   -3.752920
  C      3.803510    1.374720   -3.260810
  C      3.939930    0.320360   -4.367730
  H      4.105040   -0.655080   -3.907730
  H      3.022800    0.280520   -4.957120
  C      5.105850    0.668020   -5.305460
  H      4.574830    1.215160   -2.500440
  H      2.843510    1.260850   -2.751460
  O      4.809130    1.150190   -6.414360
  O      6.267370    0.565000   -4.819480
  H      3.158920    2.996600   -4.498320
  H      4.875750    2.985490   -4.173570
  H      3.754810    3.488080   -2.931010

 Total Charge           Charge          ....   -1
 Multiplicity           Mult            ....    1
 Number of Electrons    NEL             ....   48
 Basis Dimension        Dim             ....  437

ORBITAL ENERGIES
----------------

  NO   OCC          E(Eh)            E(eV)
   0   2.0000     -20.288827      -552.0871
   1   2.0000     -20.283937      -551.9540
   2   2.0000     -11.127340      -302.7903
   3   2.0000     -11.077334      -301.4296
   4   2.0000     -11.061933      -301.0105
   5   2.0000     -11.052329      -300.7492
   6   2.0000      -1.167270       -31.7630
   7   2.0000      -1.060473       -28.8569
   8   2.0000      -0.910730       -24.7822
   9   2.0000      -0.790893       -21.5213
  10   2.0000      -0.666268       -18.1301
  11   2.0000      -0.517890       -14.0925
  12   2.0000      -0.474770       -12.9191
  13   2.0000      -0.464320       -12.6348
  14   2.0000      -0.423352       -11.5200
  15   2.0000      -0.412440       -11.2231
  16   2.0000      -0.376207       -10.2371
  17   2.0000      -0.357717        -9.7340
  18   2.0000      -0.347897        -9.4668
  19   2.0000      -0.321276        -8.7424
  20   2.0000      -0.310202        -8.4410
  21   2.0000      -0.201709        -5.4888
  22   2.0000      -0.195273        -5.3136
  23   2.0000      -0.189067        -5.1448
  24   0.0000       0.113606         3.0914
  25   0.0000       0.123851         3.3702
  26   0.0000       0.133384         3.6296
  27   0.0000       0.141940         3.8624
  28   0.0000       0.149796         4.0762

MULLIKEN ATOMIC CHARGES
-----------------------
   0 C :   -1.012319
   1 C :   -0.432444
   2 C :   -0.275723
   3 H :    0.261151
   4 H :    0.245787
   5 C :    0.692030
   6 H :    0.280376
   7 H :    0.257463
   8 O :   -0.943210
   9 O :   -0.953382
  10 H :    0.343190
  11 H :    0.308707
  12 H :    0.228375
Sum of atomic charges:   -1.0000000

LOEWDIN ATOMIC CHARGES
----------------------
   0 C :    0.568508
   1 C :    0.227073
   2 C :    0.194456
   3 H :   -0.182833
   4 H :   -0.194200
   5 C :   -1.220074
   6 H :   -0.158717
   7 H :   -0.169655
   8 O :    0.269850
   9 O :    0.249226
  10 H :   -0.185382
  11 H :   -0.198827
  12 H :   -0.199425

  Mayer bond orders larger than 0.100000
B(  0-C ,  1-C ) :   0.7886 B(  0-C , 10-H ) :   0.8914 B(  0-C , 11-H ) :   0.9185
B(  0-C , 12-H ) :   1.0271 B(  1-C ,  2-C ) :   0.8822 B(  1-C ,  5-C ) :   0.1281
B(  1-C ,  6-H ) :   0.9309 B(  1-C ,  7-H ) :   0.9276 B(  2-C ,  3-H ) :   0.9621
B(  2-C ,  4-H ) :   0.9647 B(  2-C ,  5-C ) :   0.6872 B(  5-C ,  8-O ) :   1.3045
B(  5-C ,  9-O ) :   1.3298

E(0)                                       ...   -305.421862807
E(0)                                       ...   -305.421862807
E(CORR)(strong-pairs)                      ...     -1.211898737
E(CORR)(weak-pairs)                        ...     -0.001186953
E(CORR)(corrected)                         ...     -1.213085690
E(TOT)                                     ...   -306.634948497
E(CCSD(T))                                 ...   -306.686515933
FINAL SINGLE POINT ENERGY      -306.686515932739

DIPOLE MOMENT
-------------
                                X             Y             Z
Electronic contribution:      4.04483      -2.86453      -4.73283
Nuclear contribution   :     -5.80393       3.20473       6.46101
                        -----------------------------------------
Total Dipole Moment    :     -1.75910       0.34020       1.72817
                        -----------------------------------------
Magnitude (a.u.)       :      2.48933
Magnitude (Debye)      :      6.32736

Rotational constants in cm-1:     0.184459     0.088019     0.082330
Rotational constants in MHz :  5529.929668  2638.753248  2468.201746

                             ****ORCA TERMINATED NORMALLY****
TOTAL RUN TIME: 0 days 0 hours 49 minutes 9 seconds 23 msec
