                         Program Version 5.0.0 -  RELEASE  -
|  1> !DLPNO-CCSD(T) aug-cc-pVTZ aug-cc-pVTZ/C TightSCF TightPNO RIJCOSX def2/J
|  2> *xyz 1 1
|  3> C          3.90595        2.81985       -3.75292
|  4> N          5.29562        3.13151       -4.10533
|  5> C          3.80351        1.37472       -3.26081
|  6> C          3.93993        0.32036       -4.36773
|  7> C          5.70862        3.46889       -5.32419
|  8> N          6.90470        3.03895       -5.71708
|  9> N          4.98188        4.29357       -6.09746
| 10> H          5.00055        4.10131       -7.08776
| 11> H          4.08469        4.59690       -5.73965
| 12> H          5.96336        2.52611       -3.64239
| 13> H          7.04716        2.06686       -5.47360
| 14> H          7.19815        3.30799       -6.64523
| 15> H          3.28202        2.94919       -4.64026
| 16> H          3.56525        3.51457       -2.98252
| 17> H          4.57483        1.21516       -2.50044
| 18> H          2.84351        1.26085       -2.75146
| 19> H          3.18417        0.48061       -5.10803
| 20> H          3.82485       -0.65632       -3.94614
| 21> H          4.90589        0.40174       -4.82073
| 22> *
| 23>
| 24> %MaxCore 64000
| 25>
| 26> %pal nprocs 2
| 27> end
| 28>
| 29> %scf
| 30>   MaxIter 150
| 31> end
| 32>
| 33>
| 34>                          ****END OF INPUT****

CARTESIAN COORDINATES (ANGSTROEM)
---------------------------------
  C      3.905950    2.819850   -3.752920
  N      5.295620    3.131510   -4.105330
  C      3.803510    1.374720   -3.260810
  C      3.939930    0.320360   -4.367730
  C      5.708620    3.468890   -5.324190
  N      6.904700    3.038950   -5.717080
  N      4.981880    4.293570   -6.097460
  H      5.000550    4.101310   -7.087760
  H      4.084690    4.596900   -5.739650
  H      5.963360    2.526110   -3.642390
  H      7.047160    2.066860   -5.473600
  H      7.198150    3.307990   -6.645230
  H      3.282020    2.949190   -4.640260
  H      3.565250    3.514570   -2.982520
  H      4.574830    1.215160   -2.500440
  H      2.843510    1.260850   -2.751460
  H      3.184170    0.480610   -5.108030
  H      3.824850   -0.656320   -3.946140
  H      4.905890    0.401740   -4.820730

 Total Charge           Charge          ....    1
 Multiplicity           Mult            ....    1
 Number of Electrons    NEL             ....   56
 Basis Dimension        Dim             ....  598

ORBITAL ENERGIES
----------------

  NO   OCC          E(Eh)            E(eV)
   0   2.0000     -15.788496      -429.6268
   1   2.0000     -15.787579      -429.6019
   2   2.0000     -15.783045      -429.4785
   3   2.0000     -11.588583      -315.3414
   4   2.0000     -11.432543      -311.0953
   5   2.0000     -11.373057      -309.4766
   6   2.0000     -11.347923      -308.7927
   7   2.0000      -1.545575       -42.0572
   8   2.0000      -1.406862       -38.2827
   9   2.0000      -1.397027       -38.0150
  10   2.0000      -1.212002       -32.9802
  11   2.0000      -1.107957       -30.1490
  12   2.0000      -1.034136       -28.1403
  13   2.0000      -0.983454       -26.7611
  14   2.0000      -0.959697       -26.1147
  15   2.0000      -0.928986       -25.2790
  16   2.0000      -0.871893       -23.7254
  17   2.0000      -0.855840       -23.2886
  18   2.0000      -0.814539       -22.1647
  19   2.0000      -0.792758       -21.5720
  20   2.0000      -0.748513       -20.3681
  21   2.0000      -0.743627       -20.2351
  22   2.0000      -0.711253       -19.3542
  23   2.0000      -0.660073       -17.9615
  24   2.0000      -0.641716       -17.4620
  25   2.0000      -0.636100       -17.3092
  26   2.0000      -0.630185       -17.1482
  27   2.0000      -0.588276       -16.0078
  28   0.0000      -0.092650        -2.5211
  29   0.0000      -0.073258        -1.9934
  30   0.0000      -0.067069        -1.8250
  31   0.0000      -0.060204        -1.6382
  32   0.0000      -0.045996        -1.2516

MULLIKEN ATOMIC CHARGES
-----------------------
   0 C :   -0.417994
   1 N :   -0.021498
   2 C :   -0.452373
   3 C :   -0.974133
   4 C :    0.819779
   5 N :   -0.385094
   6 N :   -0.389461
   7 H :    0.129192
   8 H :    0.180668
   9 H :    0.088523
  10 H :    0.166057
  11 H :    0.167359
  12 H :    0.324563
  13 H :    0.300526
  14 H :    0.206414
  15 H :    0.347753
  16 H :    0.233587
  17 H :    0.321591
  18 H :    0.354541
Sum of atomic charges:    1.0000000

LOEWDIN ATOMIC CHARGES
----------------------
   0 C :    0.248291
   1 N :    0.635185
   2 C :    0.308153
   3 C :    0.626438
   4 C :   -0.368227
   5 N :    0.946899
   6 N :    0.953180
   7 H :   -0.246949
   8 H :   -0.261111
   9 H :   -0.271623
  10 H :   -0.252480
  11 H :   -0.244802
  12 H :   -0.152173
  13 H :   -0.121602
  14 H :   -0.139929
  15 H :   -0.129682
  16 H :   -0.174287
  17 H :   -0.164774
  18 H :   -0.190507

  Mayer bond orders larger than 0.100000
B(  0-C ,  1-N ) :   0.8757 B(  0-C ,  2-C ) :   0.8796 B(  0-C , 12-H ) :   0.9607
B(  0-C , 13-H ) :   0.8992 B(  1-N ,  4-C ) :   1.0247 B(  1-N ,  9-H ) :   1.0423
B(  2-C ,  3-C ) :   0.8374 B(  2-C , 14-H ) :   1.0103 B(  2-C , 15-H ) :   0.9047
B(  3-C , 16-H ) :   1.0091 B(  3-C , 17-H ) :   0.9506 B(  3-C , 18-H ) :   0.8699
B(  4-C ,  5-N ) :   0.9080 B(  4-C ,  6-N ) :   0.8476 B(  5-N ,  6-N ) :  -0.1108
B(  5-N , 10-H ) :   1.0255 B(  5-N , 11-H ) :   1.0228 B(  6-N ,  7-H ) :   1.0610
B(  6-N ,  8-H ) :   0.9761

E(0)                                       ...   -321.744041992
E(0)                                       ...   -321.744041992
E(CORR)(strong-pairs)                      ...     -1.372254539
E(CORR)(weak-pairs)                        ...     -0.001580812
E(CORR)(corrected)                         ...     -1.373835351
E(TOT)                                     ...   -323.117877343
E(CCSD(T))                                 ...   -323.173519534
FINAL SINGLE POINT ENERGY      -323.173519534056

DIPOLE MOMENT
-------------
                                X             Y             Z
Electronic contribution:      4.01715       5.68009      -2.10800
Nuclear contribution   :     -3.60155      -5.39511       0.90505
                        -----------------------------------------
Total Dipole Moment    :      0.41561       0.28498      -1.20294
                        -----------------------------------------
Magnitude (a.u.)       :      1.30423
Magnitude (Debye)      :      3.31509

Rotational constants in cm-1:     0.145371     0.050507     0.045444
Rotational constants in MHz :  4358.114605  1514.164418  1362.368391

                             ****ORCA TERMINATED NORMALLY****
TOTAL RUN TIME: 0 days 2 hours 15 minutes 57 seconds 732 msec
