                         Program Version 5.0.0 -  RELEASE  -
|  1> !DLPNO-CCSD(T) aug-cc-pVTZ aug-cc-pVTZ/C TightSCF TightPNO RIJCOSX def2/J
|  2> *xyz 0 1
|  3> C          3.90595        2.81985       -3.75292
|  4> C          3.80351        1.37472       -3.26081
|  5> C          3.93993        0.32036       -4.36773
|  6> H          4.10504       -0.65508       -3.90773
|  7> H          3.02280        0.28052       -4.95712
|  8> C          5.10585        0.66802       -5.30546
|  9> H          4.57483        1.21516       -2.50044
| 10> H          2.84351        1.26085       -2.75146
| 11> F          4.80913        1.15019       -6.41436
| 12> O          6.26737        0.56500       -4.81948
| 13> H          3.15892        2.99660       -4.49832
| 14> H          4.87575        2.98549       -4.17357
| 15> H          3.75481        3.48808       -2.93101
| 16> *
| 17>
| 18> %MaxCore 64000
| 19>
| 20> %pal nprocs 8
| 21> end
| 22>
| 23> %scf
| 24>   MaxIter 150
| 25> end
| 26>
| 27>
| 28>                          ****END OF INPUT****

CARTESIAN COORDINATES (ANGSTROEM)
---------------------------------
  C      3.905950    2.819850   -3.752920
  C      3.803510    1.374720   -3.260810
  C      3.939930    0.320360   -4.367730
  H      4.105040   -0.655080   -3.907730
  H      3.022800    0.280520   -4.957120
  C      5.105850    0.668020   -5.305460
  H      4.574830    1.215160   -2.500440
  H      2.843510    1.260850   -2.751460
  F      4.809130    1.150190   -6.414360
  O      6.267370    0.565000   -4.819480
  H      3.158920    2.996600   -4.498320
  H      4.875750    2.985490   -4.173570
  H      3.754810    3.488080   -2.931010

 Total Charge           Charge          ....    0
 Multiplicity           Mult            ....    1
 Number of Electrons    NEL             ....   48
 Basis Dimension        Dim             ....  437

ORBITAL ENERGIES
----------------

  NO   OCC          E(Eh)            E(eV)
   0   2.0000     -26.380919      -717.8613
   1   2.0000     -20.560597      -559.4823
   2   2.0000     -11.431127      -311.0568
   3   2.0000     -11.259060      -306.3746
   4   2.0000     -11.242066      -305.9122
   5   2.0000     -11.217669      -305.2483
   6   2.0000      -1.739089       -47.3230
   7   2.0000      -1.368517       -37.2392
   8   2.0000      -1.093716       -29.7615
   9   2.0000      -0.987955       -26.8836
  10   2.0000      -0.910918       -24.7873
  11   2.0000      -0.838671       -22.8214
  12   2.0000      -0.775857       -21.1121
  13   2.0000      -0.768710       -20.9177
  14   2.0000      -0.708786       -19.2870
  15   2.0000      -0.639966       -17.4144
  16   2.0000      -0.628165       -17.0932
  17   2.0000      -0.582346       -15.8464
  18   2.0000      -0.576186       -15.6788
  19   2.0000      -0.520444       -14.1620
  20   2.0000      -0.507912       -13.8210
  21   2.0000      -0.493537       -13.4298
  22   2.0000      -0.481446       -13.1008
  23   2.0000      -0.458763       -12.4836
  24   0.0000       0.026818         0.7298
  25   0.0000       0.036837         1.0024
  26   0.0000       0.038789         1.0555
  27   0.0000       0.045600         1.2408
  28   0.0000       0.058914         1.6031

MULLIKEN ATOMIC CHARGES
-----------------------
   0 C :   -1.000553
   1 C :   -0.413688
   2 C :   -0.328414
   3 H :    0.306494
   4 H :    0.272081
   5 C :    0.779042
   6 H :    0.297925
   7 H :    0.285675
   8 F :   -0.344121
   9 O :   -0.736533
  10 H :    0.338105
  11 H :    0.285147
  12 H :    0.258838
Sum of atomic charges:   -0.0000000

LOEWDIN ATOMIC CHARGES
----------------------
   0 C :    0.593599
   1 C :    0.258799
   2 C :    0.265251
   3 H :   -0.155703
   4 H :   -0.172039
   5 C :   -0.938166
   6 H :   -0.144168
   7 H :   -0.146265
   8 F :    0.602383
   9 O :    0.386806
  10 H :   -0.179476
  11 H :   -0.195675
  12 H :   -0.175347

  Mayer bond orders larger than 0.100000
B(  0-C ,  1-C ) :   0.8006 B(  0-C , 10-H ) :   0.8891 B(  0-C , 11-H ) :   0.9321
B(  0-C , 12-H ) :   1.0121 B(  1-C ,  2-C ) :   0.9046 B(  1-C ,  5-C ) :   0.1142
B(  1-C ,  6-H ) :   0.9220 B(  1-C ,  7-H ) :   0.9029 B(  2-C ,  3-H ) :   0.9151
B(  2-C ,  4-H ) :   0.9474 B(  2-C ,  5-C ) :   0.7814 B(  5-C ,  8-F ) :   0.7134
B(  5-C ,  9-O ) :   1.6239

E(0)                                       ...   -329.968855455
E(0)                                       ...   -329.968855455
E(CORR)(strong-pairs)                      ...     -1.212721537
E(CORR)(weak-pairs)                        ...     -0.001162399
E(CORR)(corrected)                         ...     -1.213883935
E(TOT)                                     ...   -331.182739390
E(CCSD(T))                                 ...   -331.230776646
FINAL SINGLE POINT ENERGY      -331.230776645930

DIPOLE MOMENT
-------------
                                X             Y             Z
Electronic contribution:      4.67408      -3.20575      -8.23353
Nuclear contribution   :     -5.98367       3.22001       8.44002
                        -----------------------------------------
Total Dipole Moment    :     -1.30959       0.01426       0.20649
                        -----------------------------------------
Magnitude (a.u.)       :      1.32584
Magnitude (Debye)      :      3.37003

Rotational constants in cm-1:     0.177409     0.085514     0.078973
Rotational constants in MHz :  5318.577687  2563.657993  2367.557452

                             ****ORCA TERMINATED NORMALLY****
TOTAL RUN TIME: 0 days 0 hours 14 minutes 53 seconds 699 msec
