                         Program Version 5.0.0 -  RELEASE  -
|  1> !DLPNO-CCSD(T) aug-cc-pVTZ aug-cc-pVTZ/C TightSCF TightPNO RIJCOSX def2/J
|  2> *xyz 0 1
|  3> C          3.90595        2.81985       -3.75292
|  4> C          5.29562        3.13151       -4.10533
|  5> C          3.80351        1.37472       -3.26081
|  6> C          3.93993        0.32036       -4.36773
|  7> C          5.70862        3.46889       -5.32419
|  8> N          6.90470        3.03895       -5.71708
|  9> N          4.98188        4.29357       -6.09746
| 10> H          5.00055        4.10131       -7.08776
| 11> H          4.08469        4.59690       -5.73965
| 12> H          5.96336        2.52611       -3.64239
| 13> H          7.04716        2.06686       -5.47360
| 14> H          7.19815        3.30799       -6.64523
| 15> H          3.28202        2.94919       -4.64026
| 16> H          3.56525        3.51457       -2.98252
| 17> H          4.57483        1.21516       -2.50044
| 18> H          2.84351        1.26085       -2.75146
| 19> H          3.18417        0.48061       -5.10803
| 20> H          3.82485       -0.65632       -3.94614
| 21> H          4.90589        0.40174       -4.82073
| 22> *
| 23>
| 24> %MaxCore 64000
| 25>
| 26> %pal nprocs 2
| 27> end
| 28>
| 29> %scf
| 30>   MaxIter 150
| 31> end
| 32>
| 33>
| 34>                          ****END OF INPUT****

CARTESIAN COORDINATES (ANGSTROEM)
---------------------------------
  C      3.905950    2.819850   -3.752920
  C      5.295620    3.131510   -4.105330
  C      3.803510    1.374720   -3.260810
  C      3.939930    0.320360   -4.367730
  C      5.708620    3.468890   -5.324190
  N      6.904700    3.038950   -5.717080
  N      4.981880    4.293570   -6.097460
  H      5.000550    4.101310   -7.087760
  H      4.084690    4.596900   -5.739650
  H      5.963360    2.526110   -3.642390
  H      7.047160    2.066860   -5.473600
  H      7.198150    3.307990   -6.645230
  H      3.282020    2.949190   -4.640260
  H      3.565250    3.514570   -2.982520
  H      4.574830    1.215160   -2.500440
  H      2.843510    1.260850   -2.751460
  H      3.184170    0.480610   -5.108030
  H      3.824850   -0.656320   -3.946140
  H      4.905890    0.401740   -4.820730

 Total Charge           Charge          ....    0
 Multiplicity           Mult            ....    1
 Number of Electrons    NEL             ....   56
 Basis Dimension        Dim             ....  598

ORBITAL ENERGIES
----------------

  NO   OCC          E(Eh)            E(eV)
   0   2.0000     -15.566147      -423.5764
   1   2.0000     -15.563371      -423.5009
   2   2.0000     -11.282628      -307.0159
   3   2.0000     -11.205427      -304.9152
   4   2.0000     -11.199192      -304.7455
   5   2.0000     -11.198367      -304.7231
   6   2.0000     -11.142487      -303.2025
   7   2.0000      -1.283979       -34.9388
   8   2.0000      -1.172768       -31.9127
   9   2.0000      -1.068138       -29.0655
  10   2.0000      -0.985950       -26.8291
  11   2.0000      -0.901932       -24.5428
  12   2.0000      -0.805295       -21.9132
  13   2.0000      -0.771360       -20.9898
  14   2.0000      -0.715941       -19.4818
  15   2.0000      -0.695571       -18.9274
  16   2.0000      -0.647052       -17.6072
  17   2.0000      -0.613904       -16.7052
  18   2.0000      -0.601065       -16.3558
  19   2.0000      -0.576303       -15.6820
  20   2.0000      -0.541169       -14.7259
  21   2.0000      -0.526429       -14.3249
  22   2.0000      -0.500024       -13.6063
  23   2.0000      -0.472851       -12.8669
  24   2.0000      -0.459353       -12.4996
  25   2.0000      -0.455175       -12.3859
  26   2.0000      -0.425401       -11.5757
  27   2.0000      -0.269858        -7.3432
  28   0.0000       0.023357         0.6356
  29   0.0000       0.034697         0.9442
  30   0.0000       0.036469         0.9924
  31   0.0000       0.042598         1.1591
  32   0.0000       0.051197         1.3931

MULLIKEN ATOMIC CHARGES
-----------------------
   0 C :   -0.258177
   1 C :   -0.439316
   2 C :   -0.519442
   3 C :   -1.000709
   4 C :    0.871516
   5 N :   -0.536551
   6 N :   -0.584430
   7 H :    0.079354
   8 H :    0.093658
   9 H :    0.256006
  10 H :    0.143249
  11 H :    0.060527
  12 H :    0.178886
  13 H :    0.258580
  14 H :    0.197461
  15 H :    0.312755
  16 H :    0.223529
  17 H :    0.289569
  18 H :    0.373533
Sum of atomic charges:   -0.0000000

LOEWDIN ATOMIC CHARGES
----------------------
   0 C :    0.225157
   1 C :    0.210916
   2 C :    0.272765
   3 C :    0.606731
   4 C :   -0.431473
   5 N :    0.862459
   6 N :    0.870552
   7 H :   -0.286559
   8 H :   -0.287812
   9 H :   -0.295370
  10 H :   -0.281999
  11 H :   -0.284367
  12 H :   -0.171970
  13 H :   -0.151110
  14 H :   -0.149900
  15 H :   -0.150638
  16 H :   -0.182123
  17 H :   -0.184368
  18 H :   -0.190887

  Mayer bond orders larger than 0.100000
B(  0-C ,  1-C ) :   0.6728 B(  0-C ,  2-C ) :   0.8937 B(  0-C , 12-H ) :   0.9559
B(  0-C , 13-H ) :   1.0149 B(  1-C ,  2-C ) :   0.1038 B(  1-C ,  4-C ) :   1.1839
B(  1-C ,  6-N ) :  -0.1103 B(  1-C ,  9-H ) :   1.0374 B(  1-C , 13-H ) :  -0.1310
B(  2-C ,  3-C ) :   0.8044 B(  2-C , 14-H ) :   1.0041 B(  2-C , 15-H ) :   0.9418
B(  3-C , 16-H ) :   1.0248 B(  3-C , 17-H ) :   0.9767 B(  3-C , 18-H ) :   0.8646
B(  4-C ,  5-N ) :   0.6249 B(  4-C ,  6-N ) :   0.5642 B(  5-N ,  6-N ) :  -0.1246
B(  5-N , 10-H ) :   1.0774 B(  5-N , 11-H ) :   1.1005 B(  6-N ,  7-H ) :   1.1138
B(  6-N ,  8-H ) :   1.0541

E(0)                                       ...   -305.290759086
E(0)                                       ...   -305.290759086
E(CORR)(strong-pairs)                      ...     -1.356390805
E(CORR)(weak-pairs)                        ...     -0.001580041
E(CORR)(corrected)                         ...     -1.357970846
E(TOT)                                     ...   -306.648729932
E(CCSD(T))                                 ...   -306.704750152
FINAL SINGLE POINT ENERGY      -306.704750151795

DIPOLE MOMENT
-------------
                                X             Y             Z
Electronic contribution:      3.39480       4.88892      -2.18350
Nuclear contribution   :     -3.52450      -5.28471       1.03374
                        -----------------------------------------
Total Dipole Moment    :     -0.12971      -0.39579      -1.14976
                        -----------------------------------------
Magnitude (a.u.)       :      1.22287
Magnitude (Debye)      :      3.10829

Rotational constants in cm-1:     0.147126     0.050704     0.045476
Rotational constants in MHz :  4410.719889  1520.080198  1363.327077

                             ****ORCA TERMINATED NORMALLY****
TOTAL RUN TIME: 0 days 2 hours 27 minutes 38 seconds 753 msec
