                         Program Version 5.0.0 -  RELEASE  -
|  1> !DLPNO-CCSD(T) aug-cc-pVTZ aug-cc-pVTZ/C TightSCF TightPNO RIJCOSX def2/J
|  2> *xyz 0 1
|  3> C          3.90595        2.81985       -3.75292
|  4> C          3.80351        1.37472       -3.26081
|  5> C          3.93993        0.32036       -4.36773
|  6> H          4.10504       -0.65508       -3.90773
|  7> H          3.02280        0.28052       -4.95712
|  8> C          5.10585        0.66802       -5.30546
|  9> H          4.57483        1.21516       -2.50044
| 10> H          2.84351        1.26085       -2.75146
| 11> O          4.80913        1.15019       -6.41436
| 12> F          6.26737        0.56500       -4.81948
| 13> H          3.15892        2.99660       -4.49832
| 14> H          4.87575        2.98549       -4.17357
| 15> H          3.75481        3.48808       -2.93101
| 16> *
| 17>
| 18> %MaxCore 64000
| 19>
| 20> %pal nprocs 8
| 21> end
| 22>
| 23> %scf
| 24>   MaxIter 150
| 25> end
| 26>
| 27>
| 28>                          ****END OF INPUT****

CARTESIAN COORDINATES (ANGSTROEM)
---------------------------------
  C      3.905950    2.819850   -3.752920
  C      3.803510    1.374720   -3.260810
  C      3.939930    0.320360   -4.367730
  H      4.105040   -0.655080   -3.907730
  H      3.022800    0.280520   -4.957120
  C      5.105850    0.668020   -5.305460
  H      4.574830    1.215160   -2.500440
  H      2.843510    1.260850   -2.751460
  O      4.809130    1.150190   -6.414360
  F      6.267370    0.565000   -4.819480
  H      3.158920    2.996600   -4.498320
  H      4.875750    2.985490   -4.173570
  H      3.754810    3.488080   -2.931010

 Total Charge           Charge          ....    0
 Multiplicity           Mult            ....    1
 Number of Electrons    NEL             ....   48
 Basis Dimension        Dim             ....  437

ORBITAL ENERGIES
----------------

  NO   OCC          E(Eh)            E(eV)
   0   2.0000     -26.373670      -717.6641
   1   2.0000     -20.564424      -559.5864
   2   2.0000     -11.428131      -310.9753
   3   2.0000     -11.258241      -306.3523
   4   2.0000     -11.244126      -305.9682
   5   2.0000     -11.215940      -305.2013
   6   2.0000      -1.724283       -46.9201
   7   2.0000      -1.381991       -37.6059
   8   2.0000      -1.094729       -29.7891
   9   2.0000      -0.985332       -26.8122
  10   2.0000      -0.901135       -24.5211
  11   2.0000      -0.836690       -22.7675
  12   2.0000      -0.770539       -20.9674
  13   2.0000      -0.764836       -20.8122
  14   2.0000      -0.701396       -19.0860
  15   2.0000      -0.645942       -17.5770
  16   2.0000      -0.628175       -17.0935
  17   2.0000      -0.590975       -16.0812
  18   2.0000      -0.567180       -15.4337
  19   2.0000      -0.521213       -14.1829
  20   2.0000      -0.516547       -14.0559
  21   2.0000      -0.495332       -13.4787
  22   2.0000      -0.488469       -13.2919
  23   2.0000      -0.456366       -12.4183
  24   0.0000       0.026427         0.7191
  25   0.0000       0.036124         0.9830
  26   0.0000       0.039587         1.0772
  27   0.0000       0.045314         1.2330
  28   0.0000       0.058413         1.5895

MULLIKEN ATOMIC CHARGES
-----------------------
   0 C :   -0.976955
   1 C :   -0.443064
   2 C :   -0.305644
   3 H :    0.303015
   4 H :    0.300500
   5 C :    0.777881
   6 H :    0.278683
   7 H :    0.273793
   8 O :   -0.726810
   9 F :   -0.364514
  10 H :    0.354689
  11 H :    0.272382
  12 H :    0.256045
Sum of atomic charges:   -0.0000000

LOEWDIN ATOMIC CHARGES
----------------------
   0 C :    0.592184
   1 C :    0.257487
   2 C :    0.265970
   3 H :   -0.163307
   4 H :   -0.162853
   5 C :   -0.933389
   6 H :   -0.148843
   7 H :   -0.144943
   8 O :    0.404040
   9 F :    0.581423
  10 H :   -0.174816
  11 H :   -0.195534
  12 H :   -0.177420

  Mayer bond orders larger than 0.100000
B(  0-C ,  1-C ) :   0.7961 B(  0-C , 10-H ) :   0.8778 B(  0-C , 11-H ) :   0.9498
B(  0-C , 12-H ) :   1.0102 B(  1-C ,  2-C ) :   0.8940 B(  1-C ,  5-C ) :   0.1359
B(  1-C ,  6-H ) :   0.9383 B(  1-C ,  7-H ) :   0.9176 B(  2-C ,  3-H ) :   0.9324
B(  2-C ,  4-H ) :   0.9278 B(  2-C ,  5-C ) :   0.7766 B(  2-C ,  9-F ) :   0.1147
B(  5-C ,  8-O ) :   1.6116 B(  5-C ,  9-F ) :   0.7319

E(0)                                       ...   -329.974704582
E(0)                                       ...   -329.974704582
E(CORR)(strong-pairs)                      ...     -1.212152253
E(CORR)(weak-pairs)                        ...     -0.001160603
E(CORR)(corrected)                         ...     -1.213312856
E(TOT)                                     ...   -331.188017438
E(CCSD(T))                                 ...   -331.235830395
FINAL SINGLE POINT ENERGY      -331.235830395222

DIPOLE MOMENT
-------------
                                X             Y             Z
Electronic contribution:      7.22826      -4.23240      -5.44052
Nuclear contribution   :     -7.63086       3.88103       6.63849
                        -----------------------------------------
Total Dipole Moment    :     -0.40260      -0.35137       1.19797
                        -----------------------------------------
Magnitude (a.u.)       :      1.31175
Magnitude (Debye)      :      3.33420

Rotational constants in cm-1:     0.177064     0.085023     0.079676
Rotational constants in MHz :  5308.232158  2548.918275  2388.614336

                             ****ORCA TERMINATED NORMALLY****
TOTAL RUN TIME: 0 days 0 hours 12 minutes 48 seconds 575 msec
