                         Program Version 5.0.0 -  RELEASE  -
|  1> !DLPNO-CCSD(T) aug-cc-pVTZ aug-cc-pVTZ/C TightSCF TightPNO RIJCOSX def2/J
|  2> *xyz 0 1
|  3> C          3.90595        2.81985       -3.75292
|  4> N          5.29562        3.13151       -4.10533
|  5> C          3.80351        1.37472       -3.26081
|  6> C          3.93993        0.32036       -4.36773
|  7> C          5.70862        3.46889       -5.32419
|  8> C          6.90470        3.03895       -5.71708
|  9> N          4.98188        4.29357       -6.09746
| 10> H          5.00055        4.10131       -7.08776
| 11> H          4.08469        4.59690       -5.73965
| 12> H          5.96336        2.52611       -3.64239
| 13> H          7.04716        2.06686       -5.47360
| 14> H          7.19815        3.30799       -6.64523
| 15> H          3.28202        2.94919       -4.64026
| 16> H          3.56525        3.51457       -2.98252
| 17> H          4.57483        1.21516       -2.50044
| 18> H          2.84351        1.26085       -2.75146
| 19> H          3.18417        0.48061       -5.10803
| 20> H          3.82485       -0.65632       -3.94614
| 21> H          4.90589        0.40174       -4.82073
| 22> *
| 23>
| 24> %MaxCore 64000
| 25>
| 26> %pal nprocs 2
| 27> end
| 28>
| 29> %scf
| 30>   MaxIter 150
| 31> end
| 32>
| 33>
| 34>                          ****END OF INPUT****

CARTESIAN COORDINATES (ANGSTROEM)
---------------------------------
  C      3.905950    2.819850   -3.752920
  N      5.295620    3.131510   -4.105330
  C      3.803510    1.374720   -3.260810
  C      3.939930    0.320360   -4.367730
  C      5.708620    3.468890   -5.324190
  C      6.904700    3.038950   -5.717080
  N      4.981880    4.293570   -6.097460
  H      5.000550    4.101310   -7.087760
  H      4.084690    4.596900   -5.739650
  H      5.963360    2.526110   -3.642390
  H      7.047160    2.066860   -5.473600
  H      7.198150    3.307990   -6.645230
  H      3.282020    2.949190   -4.640260
  H      3.565250    3.514570   -2.982520
  H      4.574830    1.215160   -2.500440
  H      2.843510    1.260850   -2.751460
  H      3.184170    0.480610   -5.108030
  H      3.824850   -0.656320   -3.946140
  H      4.905890    0.401740   -4.820730

 Total Charge           Charge          ....    0
 Multiplicity           Mult            ....    1
 Number of Electrons    NEL             ....   56
 Basis Dimension        Dim             ....  598

ORBITAL ENERGIES
----------------

  NO   OCC          E(Eh)            E(eV)
   0   2.0000     -15.566709      -423.5917
   1   2.0000     -15.561181      -423.4413
   2   2.0000     -11.290461      -307.2291
   3   2.0000     -11.266558      -306.5786
   4   2.0000     -11.233635      -305.6828
   5   2.0000     -11.215177      -305.1805
   6   2.0000     -11.128155      -302.8125
   7   2.0000      -1.290463       -35.1153
   8   2.0000      -1.187598       -32.3162
   9   2.0000      -1.064554       -28.9680
  10   2.0000      -0.989508       -26.9259
  11   2.0000      -0.920498       -25.0480
  12   2.0000      -0.820546       -22.3282
  13   2.0000      -0.799910       -21.7667
  14   2.0000      -0.717076       -19.5126
  15   2.0000      -0.672784       -18.3074
  16   2.0000      -0.648004       -17.6331
  17   2.0000      -0.630759       -17.1638
  18   2.0000      -0.612633       -16.6706
  19   2.0000      -0.565796       -15.3961
  20   2.0000      -0.556933       -15.1549
  21   2.0000      -0.545281       -14.8378
  22   2.0000      -0.514237       -13.9931
  23   2.0000      -0.499533       -13.5930
  24   2.0000      -0.497155       -13.5283
  25   2.0000      -0.482365       -13.1258
  26   2.0000      -0.404862       -11.0169
  27   2.0000      -0.276437        -7.5222
  28   0.0000       0.024207         0.6587
  29   0.0000       0.032178         0.8756
  30   0.0000       0.035077         0.9545
  31   0.0000       0.040703         1.1076
  32   0.0000       0.051977         1.4144

MULLIKEN ATOMIC CHARGES
-----------------------
   0 C :   -0.424117
   1 N :   -0.048893
   2 C :   -0.474947
   3 C :   -1.010277
   4 C :    1.093802
   5 C :   -1.442042
   6 N :   -0.570692
   7 H :    0.056156
   8 H :    0.096287
   9 H :    0.049502
  10 H :    0.327836
  11 H :    0.328413
  12 H :    0.305484
  13 H :    0.278171
  14 H :    0.190117
  15 H :    0.321845
  16 H :    0.216677
  17 H :    0.296543
  18 H :    0.410135
Sum of atomic charges:    0.0000000

LOEWDIN ATOMIC CHARGES
----------------------
   0 C :    0.215330
   1 N :    0.576291
   2 C :    0.286052
   3 C :    0.614546
   4 C :   -0.461448
   5 C :    0.548186
   6 N :    0.875587
   7 H :   -0.275280
   8 H :   -0.298350
   9 H :   -0.297409
  10 H :   -0.322688
  11 H :   -0.316325
  12 H :   -0.162140
  13 H :   -0.140521
  14 H :   -0.147120
  15 H :   -0.147778
  16 H :   -0.180496
  17 H :   -0.180567
  18 H :   -0.185871

  Mayer bond orders larger than 0.100000
B(  0-C ,  1-N ) :   0.8815 B(  0-C ,  2-C ) :   0.8648 B(  0-C , 12-H ) :   0.9837
B(  0-C , 13-H ) :   0.9166 B(  1-N ,  4-C ) :   0.7863 B(  1-N ,  5-C ) :  -0.1581
B(  1-N ,  6-N ) :  -0.1213 B(  1-N ,  9-H ) :   1.1265 B(  2-C ,  3-C ) :   0.8207
B(  2-C , 14-H ) :   1.0113 B(  2-C , 15-H ) :   0.9286 B(  3-C , 16-H ) :   1.0295
B(  3-C , 17-H ) :   0.9772 B(  3-C , 18-H ) :   0.8157 B(  4-C ,  5-C ) :   1.0316
B(  4-C ,  6-N ) :   0.5523 B(  4-C , 11-H ) :  -0.1002 B(  5-C ,  6-N ) :  -0.1058
B(  5-C , 10-H ) :   0.9921 B(  5-C , 11-H ) :   0.9695 B(  6-N ,  7-H ) :   1.1427
B(  6-N ,  8-H ) :   1.0495

E(0)                                       ...   -305.282633451
E(0)                                       ...   -305.282633451
E(CORR)(strong-pairs)                      ...     -1.353074078
E(CORR)(weak-pairs)                        ...     -0.001546588
E(CORR)(corrected)                         ...     -1.354620666
E(TOT)                                     ...   -306.637254117
E(CCSD(T))                                 ...   -306.693147294
FINAL SINGLE POINT ENERGY      -306.693147294274

DIPOLE MOMENT
-------------
                                X             Y             Z
Electronic contribution:      1.65596       4.84401      -0.59433
Nuclear contribution   :     -3.17203      -5.30499       0.68068
                        -----------------------------------------
Total Dipole Moment    :     -1.51607      -0.46098       0.08635
                        -----------------------------------------
Magnitude (a.u.)       :      1.58696
Magnitude (Debye)      :      4.03372

Rotational constants in cm-1:     0.149640     0.051631     0.046708
Rotational constants in MHz :  4486.107270  1547.846261  1400.277765

                             ****ORCA TERMINATED NORMALLY****
TOTAL RUN TIME: 0 days 2 hours 33 minutes 12 seconds 703 msec
