                         Program Version 5.0.0 -  RELEASE  -
|  1> !DLPNO-CCSD(T) aug-cc-pVTZ aug-cc-pVTZ/C TightSCF TightPNO RIJCOSX def2/J
|  2> *xyz 0 1
|  3> C          3.90595        2.81985       -3.75292
|  4> N          5.29562        3.13151       -4.10533
|  5> C          3.80351        1.37472       -3.26081
|  6> C          3.93993        0.32036       -4.36773
|  7> C          5.70862        3.46889       -5.32419
|  8> N          6.90470        3.03895       -5.71708
|  9> C          4.98188        4.29357       -6.09746
| 10> H          5.00055        4.10131       -7.08776
| 11> H          4.08469        4.59690       -5.73965
| 12> H          5.96336        2.52611       -3.64239
| 13> H          7.04716        2.06686       -5.47360
| 14> H          7.19815        3.30799       -6.64523
| 15> H          3.28202        2.94919       -4.64026
| 16> H          3.56525        3.51457       -2.98252
| 17> H          4.57483        1.21516       -2.50044
| 18> H          2.84351        1.26085       -2.75146
| 19> H          3.18417        0.48061       -5.10803
| 20> H          3.82485       -0.65632       -3.94614
| 21> H          4.90589        0.40174       -4.82073
| 22> *
| 23>
| 24> %MaxCore 64000
| 25>
| 26> %pal nprocs 2
| 27> end
| 28>
| 29> %scf
| 30>   MaxIter 150
| 31> end
| 32>
| 33>
| 34>                          ****END OF INPUT****

CARTESIAN COORDINATES (ANGSTROEM)
---------------------------------
  C      3.905950    2.819850   -3.752920
  N      5.295620    3.131510   -4.105330
  C      3.803510    1.374720   -3.260810
  C      3.939930    0.320360   -4.367730
  C      5.708620    3.468890   -5.324190
  N      6.904700    3.038950   -5.717080
  C      4.981880    4.293570   -6.097460
  H      5.000550    4.101310   -7.087760
  H      4.084690    4.596900   -5.739650
  H      5.963360    2.526110   -3.642390
  H      7.047160    2.066860   -5.473600
  H      7.198150    3.307990   -6.645230
  H      3.282020    2.949190   -4.640260
  H      3.565250    3.514570   -2.982520
  H      4.574830    1.215160   -2.500440
  H      2.843510    1.260850   -2.751460
  H      3.184170    0.480610   -5.108030
  H      3.824850   -0.656320   -3.946140
  H      4.905890    0.401740   -4.820730

 Total Charge           Charge          ....    0
 Multiplicity           Mult            ....    1
 Number of Electrons    NEL             ....   56
 Basis Dimension        Dim             ....  598

ORBITAL ENERGIES
----------------

  NO   OCC          E(Eh)            E(eV)
   0   2.0000     -15.565995      -423.5723
   1   2.0000     -15.562672      -423.4818
   2   2.0000     -11.288156      -307.1664
   3   2.0000     -11.260467      -306.4129
   4   2.0000     -11.231757      -305.6316
   5   2.0000     -11.217132      -305.2337
   6   2.0000     -11.133856      -302.9676
   7   2.0000      -1.295586       -35.2547
   8   2.0000      -1.189459       -32.3668
   9   2.0000      -1.058724       -28.8094
  10   2.0000      -0.975799       -26.5528
  11   2.0000      -0.936901       -25.4944
  12   2.0000      -0.827743       -22.5240
  13   2.0000      -0.769610       -20.9422
  14   2.0000      -0.717571       -19.5261
  15   2.0000      -0.698069       -18.9954
  16   2.0000      -0.642949       -17.4955
  17   2.0000      -0.633497       -17.2383
  18   2.0000      -0.593199       -16.1418
  19   2.0000      -0.577302       -15.7092
  20   2.0000      -0.556390       -15.1402
  21   2.0000      -0.540073       -14.6961
  22   2.0000      -0.517800       -14.0901
  23   2.0000      -0.502216       -13.6660
  24   2.0000      -0.493279       -13.4228
  25   2.0000      -0.481838       -13.1115
  26   2.0000      -0.402121       -10.9423
  27   2.0000      -0.277803        -7.5594
  28   0.0000       0.025115         0.6834
  29   0.0000       0.032354         0.8804
  30   0.0000       0.037157         1.0111
  31   0.0000       0.038734         1.0540
  32   0.0000       0.051240         1.3943

MULLIKEN ATOMIC CHARGES
-----------------------
   0 C :   -0.440976
   1 N :   -0.210842
   2 C :   -0.473500
   3 C :   -0.991489
   4 C :    1.048547
   5 N :   -0.598327
   6 C :   -1.347331
   7 H :    0.185833
   8 H :    0.526980
   9 H :    0.029143
  10 H :    0.144088
  11 H :    0.086807
  12 H :    0.316869
  13 H :    0.300967
  14 H :    0.200873
  15 H :    0.319557
  16 H :    0.224504
  17 H :    0.303392
  18 H :    0.374905
Sum of atomic charges:   -0.0000000

LOEWDIN ATOMIC CHARGES
----------------------
   0 C :    0.220960
   1 N :    0.577928
   2 C :    0.285096
   3 C :    0.611697
   4 C :   -0.466519
   5 N :    0.861188
   6 C :    0.558948
   7 H :   -0.317539
   8 H :   -0.321640
   9 H :   -0.298784
  10 H :   -0.289457
  11 H :   -0.275925
  12 H :   -0.164686
  13 H :   -0.135267
  14 H :   -0.150477
  15 H :   -0.146424
  16 H :   -0.178642
  17 H :   -0.181558
  18 H :   -0.188899

  Mayer bond orders larger than 0.100000
B(  0-C ,  1-N ) :   0.9179 B(  0-C ,  2-C ) :   0.8530 B(  0-C , 12-H ) :   0.9810
B(  0-C , 13-H ) :   0.9069 B(  1-N ,  4-C ) :   0.8014 B(  1-N ,  9-H ) :   1.0618
B(  2-C ,  3-C ) :   0.8276 B(  2-C , 14-H ) :   1.0144 B(  2-C , 15-H ) :   0.9258
B(  3-C , 16-H ) :   1.0182 B(  3-C , 17-H ) :   0.9639 B(  3-C , 18-H ) :   0.8519
B(  4-C ,  5-N ) :   0.7692 B(  4-C ,  6-C ) :   1.0774 B(  5-N ,  6-C ) :  -0.1372
B(  5-N , 10-H ) :   1.0094 B(  5-N , 11-H ) :   1.1109 B(  6-C ,  7-H ) :   1.2743
B(  6-C ,  8-H ) :   0.6185

E(0)                                       ...   -305.287486577
E(0)                                       ...   -305.287486577
E(CORR)(strong-pairs)                      ...     -1.353125849
E(CORR)(weak-pairs)                        ...     -0.001566074
E(CORR)(corrected)                         ...     -1.354691924
E(TOT)                                     ...   -306.642178500
E(CCSD(T))                                 ...   -306.698073399
FINAL SINGLE POINT ENERGY      -306.698073398740

DIPOLE MOMENT
-------------
                                X             Y             Z
Electronic contribution:      3.59916       3.60180      -0.27796
Nuclear contribution   :     -3.59323      -5.03016       0.59736
                        -----------------------------------------
Total Dipole Moment    :      0.00593      -1.42836       0.31939
                        -----------------------------------------
Magnitude (a.u.)       :      1.46364
Magnitude (Debye)      :      3.72028

Rotational constants in cm-1:     0.148888     0.051791     0.046487
Rotational constants in MHz :  4463.542717  1552.665696  1393.643356

                             ****ORCA TERMINATED NORMALLY****
TOTAL RUN TIME: 0 days 2 hours 25 minutes 13 seconds 120 msec
