                         Program Version 5.0.0 -  RELEASE  -
|  1> !DLPNO-CCSD(T) aug-cc-pVTZ aug-cc-pVTZ/C TightSCF TightPNO RIJCOSX def2/J
|  2>
|  3> *xyzfile 0 1 D3.xyz
|  4>
|  5> %MaxCore 64000
|  6>
|  7> %pal nprocs 18
|  8> end
|  9>
| 10> %scf
| 11>   MaxIter 150
| 12> end
| 13>
| 14>
| 15>                          ****END OF INPUT****

CARTESIAN COORDINATES (ANGSTROEM)
---------------------------------
  C      3.905947    2.819855   -3.752920
  N      5.295615    3.131515   -4.105334
  C      3.803511    1.374716   -3.260807
  C      3.939934    0.320362   -4.367729
  H      4.105043   -0.655085   -3.907733
  H      3.022801    0.280517   -4.957117
  C      5.105846    0.668022   -5.305463
  C      5.708619    3.468885   -5.324190
  N      6.904696    3.038954   -5.717084
  C      4.981884    4.293570   -6.097457
  H      5.000546    4.101311   -7.087761
  H      4.084693    4.596899   -5.739652
  H      5.963358    2.526112   -3.642391
  H      7.047164    2.066861   -5.473604
  H      7.198145    3.307994   -6.645225
  H      3.282025    2.949187   -4.640259
  H      3.565254    3.514574   -2.982523
  H      4.574833    1.215157   -2.500443
  H      2.843514    1.260845   -2.751465
  F      4.809132    1.150187   -6.414361
  O      6.267366    0.564999   -4.819481

 Total Charge           Charge          ....    0
 Multiplicity           Mult            ....    1
 Number of Electrons    NEL             ....   78
 Basis Dimension        Dim             ....  713

ORBITAL ENERGIES
----------------

  NO   OCC          E(Eh)            E(eV)
   0   2.0000     -26.397397      -718.3097
   1   2.0000     -20.580828      -560.0328
   2   2.0000     -15.561941      -423.4619
   3   2.0000     -15.540069      -422.8668
   4   2.0000     -11.457587      -311.7768
   5   2.0000     -11.281567      -306.9871
   6   2.0000     -11.277372      -306.8729
   7   2.0000     -11.274922      -306.8062
   8   2.0000     -11.259870      -306.3966
   9   2.0000     -11.127048      -302.7824
  10   2.0000      -1.756881       -47.8072
  11   2.0000      -1.400755       -38.1165
  12   2.0000      -1.290598       -35.1190
  13   2.0000      -1.185264       -32.2527
  14   2.0000      -1.098777       -29.8993
  15   2.0000      -0.999342       -27.1935
  16   2.0000      -0.962785       -26.1987
  17   2.0000      -0.922737       -25.1090
  18   2.0000      -0.859961       -23.4007
  19   2.0000      -0.796418       -21.6716
  20   2.0000      -0.789872       -21.4935
  21   2.0000      -0.768859       -20.9217
  22   2.0000      -0.746259       -20.3068
  23   2.0000      -0.699450       -19.0330
  24   2.0000      -0.689546       -18.7635
  25   2.0000      -0.658287       -17.9129
  26   2.0000      -0.647580       -17.6215
  27   2.0000      -0.610366       -16.6089
  28   2.0000      -0.597828       -16.2677
  29   2.0000      -0.566026       -15.4024
  30   2.0000      -0.554962       -15.1013
  31   2.0000      -0.548467       -14.9245
  32   2.0000      -0.532609       -14.4930
  33   2.0000      -0.522587       -14.2203
  34   2.0000      -0.505550       -13.7567
  35   2.0000      -0.482777       -13.1370
  36   2.0000      -0.478842       -13.0300
  37   2.0000      -0.395973       -10.7750
  38   2.0000      -0.271711        -7.3936
  39   0.0000       0.021293         0.5794
  40   0.0000       0.032779         0.8920
  41   0.0000       0.034734         0.9452
  42   0.0000       0.039429         1.0729
  43   0.0000       0.050409         1.3717

MULLIKEN ATOMIC CHARGES
-----------------------
   0 C :   -0.610126
   1 N :   -0.411073
   2 C :   -0.440275
   3 C :   -0.369754
   4 H :    0.363722
   5 H :    0.256599
   6 C :    1.008949
   7 C :    1.845431
   8 N :   -0.790138
   9 C :   -1.720342
  10 H :    0.063637
  11 H :    0.528399
  12 H :    0.087348
  13 H :    0.263377
  14 H :    0.044788
  15 H :    0.309729
  16 H :    0.299413
  17 H :    0.228569
  18 H :    0.317700
  19 F :   -0.438449
  20 O :   -0.837506
Sum of atomic charges:   -0.0000000

LOEWDIN ATOMIC CHARGES
----------------------
   0 C :    0.225202
   1 N :    0.574648
   2 C :    0.299900
   3 C :    0.304538
   4 H :   -0.147770
   5 H :   -0.162090
   6 C :   -0.864486
   7 C :   -0.504077
   8 N :    0.867495
   9 C :    0.550717
  10 H :   -0.316630
  11 H :   -0.324146
  12 H :   -0.331356
  13 H :   -0.504029
  14 H :   -0.265896
  15 H :   -0.162050
  16 H :   -0.128429
  17 H :   -0.140287
  18 H :   -0.136599
  19 F :    0.655680
  20 O :    0.509668

  Mayer bond orders larger than 0.100000
B(  0-C ,  1-N ) :   0.9626 B(  0-C ,  2-C ) :   0.8263 B(  0-C ,  9-C ) :   0.1001
B(  0-C , 15-H ) :   1.0021 B(  0-C , 16-H ) :   0.9391 B(  1-N ,  7-C ) :   0.6150
B(  1-N ,  9-C ) :   0.1879 B(  1-N , 12-H ) :   1.0417 B(  2-C ,  3-C ) :   0.8873
B(  2-C ,  6-C ) :   0.1127 B(  2-C , 17-H ) :   0.9960 B(  2-C , 18-H ) :   0.8987
B(  3-C ,  4-H ) :   0.8748 B(  3-C ,  5-H ) :   0.9891 B(  3-C ,  6-C ) :   0.8571
B(  6-C , 19-F ) :   0.5841 B(  6-C , 20-O ) :   1.4236 B(  7-C ,  8-N ) :   0.4309
B(  7-C ,  9-C ) :   0.4470 B(  7-C , 10-H ) :  -0.2804 B(  7-C , 19-F ) :  -0.1363
B(  8-N , 13-H ) :   0.8184 B(  8-N , 14-H ) :   1.1508 B(  9-C , 10-H ) :   1.5627
B(  9-C , 11-H ) :   0.5476 B( 13-H , 20-O ) :   0.1010

E(0)                                       ...   -516.934938398
E(0)                                       ...   -516.934938398
E(CORR)(strong-pairs)                      ...     -1.982981100
E(CORR)(weak-pairs)                        ...     -0.002690830
E(CORR)(corrected)                         ...     -1.985671930
E(TOT)                                     ...   -518.920610328
E(CCSD(T))                                 ...   -519.005091513
FINAL SINGLE POINT ENERGY      -519.005091513347

DIPOLE MOMENT
-------------
                                X             Y             Z
Electronic contribution:      3.41885      -5.00777      -4.83475
Nuclear contribution   :     -4.64021       3.37029       5.31478
                        -----------------------------------------
Total Dipole Moment    :     -1.22136      -1.63749       0.48003
                        -----------------------------------------
Magnitude (a.u.)       :      2.09846
Magnitude (Debye)      :      5.33385

Rotational constants in cm-1:     0.061077     0.043622     0.034103
Rotational constants in MHz :  1831.041375  1307.759852  1022.388536

                             ****ORCA TERMINATED NORMALLY****
TOTAL RUN TIME: 0 days 1 hours 26 minutes 36 seconds 806 msec
