                         Program Version 5.0.0 -  RELEASE  -
|  1> !DLPNO-CCSD(T) aug-cc-pVTZ aug-cc-pVTZ/C TightSCF TightPNO RIJCOSX def2/J
|  2>
|  3> *xyzfile 0 1 D6.xyz
|  4>
|  5> %MaxCore 64000
|  6>
|  7> %pal nprocs 18
|  8> end
|  9>
| 10> %scf
| 11>   MaxIter 150
| 12> end
| 13>
| 14>
| 15>                          ****END OF INPUT****

CARTESIAN COORDINATES (ANGSTROEM)
---------------------------------
  C      3.905947    2.819855   -3.752920
  N      5.295615    3.131515   -4.105334
  C      3.803511    1.374716   -3.260807
  C      3.939934    0.320362   -4.367729
  H      4.105043   -0.655085   -3.907733
  H      3.022801    0.280517   -4.957117
  C      5.105846    0.668022   -5.305463
  C      5.708619    3.468885   -5.324190
  N      6.904696    3.038954   -5.717084
  C      4.981884    4.293570   -6.097457
  H      5.000546    4.101311   -7.087761
  H      4.084693    4.596899   -5.739652
  H      5.963358    2.526112   -3.642391
  H      7.047164    2.066861   -5.473604
  H      7.198145    3.307994   -6.645225
  H      3.282025    2.949187   -4.640259
  H      3.565254    3.514574   -2.982523
  H      4.574833    1.215157   -2.500443
  H      2.843514    1.260845   -2.751465
  O      4.809132    1.150187   -6.414361
  F      6.267366    0.564999   -4.819481

 Total Charge           Charge          ....    0
 Multiplicity           Mult            ....    1
 Number of Electrons    NEL             ....   78
 Basis Dimension        Dim             ....  713

ORBITAL ENERGIES
----------------

  NO   OCC          E(Eh)            E(eV)
   0   2.0000     -26.398934      -718.3515
   1   2.0000     -20.578257      -559.9628
   2   2.0000     -15.567391      -423.6102
   3   2.0000     -15.548291      -423.0905
   4   2.0000     -11.443243      -311.3865
   5   2.0000     -11.280654      -306.9622
   6   2.0000     -11.273435      -306.7658
   7   2.0000     -11.273219      -306.7599
   8   2.0000     -11.259844      -306.3959
   9   2.0000     -11.123867      -302.6958
  10   2.0000      -1.755077       -47.7581
  11   2.0000      -1.398331       -38.0505
  12   2.0000      -1.294346       -35.2209
  13   2.0000      -1.188860       -32.3505
  14   2.0000      -1.097694       -29.8698
  15   2.0000      -0.998056       -27.1585
  16   2.0000      -0.960191       -26.1281
  17   2.0000      -0.922873       -25.1127
  18   2.0000      -0.859711       -23.3939
  19   2.0000      -0.806187       -21.9375
  20   2.0000      -0.802310       -21.8320
  21   2.0000      -0.768783       -20.9197
  22   2.0000      -0.722597       -19.6629
  23   2.0000      -0.702813       -19.1245
  24   2.0000      -0.684194       -18.6179
  25   2.0000      -0.660996       -17.9866
  26   2.0000      -0.653137       -17.7728
  27   2.0000      -0.610676       -16.6173
  28   2.0000      -0.592362       -16.1190
  29   2.0000      -0.562442       -15.3048
  30   2.0000      -0.552154       -15.0249
  31   2.0000      -0.548360       -14.9216
  32   2.0000      -0.536609       -14.6019
  33   2.0000      -0.518908       -14.1202
  34   2.0000      -0.508486       -13.8366
  35   2.0000      -0.484047       -13.1716
  36   2.0000      -0.464450       -12.6383
  37   2.0000      -0.401892       -10.9360
  38   2.0000      -0.269688        -7.3386
  39   0.0000       0.020171         0.5489
  40   0.0000       0.031282         0.8512
  41   0.0000       0.034807         0.9471
  42   0.0000       0.039810         1.0833
  43   0.0000       0.050385         1.3710

MULLIKEN ATOMIC CHARGES
-----------------------
   0 C :   -0.570529
   1 N :   -0.465016
   2 C :   -0.481916
   3 C :   -0.357461
   4 H :    0.355757
   5 H :    0.283538
   6 C :    1.032388
   7 C :    1.872822
   8 N :   -0.802609
   9 C :   -1.662571
  10 H :    0.093068
  11 H :    0.528707
  12 H :    0.053271
  13 H :    0.276249
  14 H :    0.054846
  15 H :    0.325797
  16 H :    0.314497
  17 H :    0.197231
  18 H :    0.315860
  19 O :   -0.883924
  20 F :   -0.480004
Sum of atomic charges:   -0.0000000

LOEWDIN ATOMIC CHARGES
----------------------
   0 C :    0.225176
   1 N :    0.573038
   2 C :    0.296701
   3 C :    0.297704
   4 H :   -0.156241
   5 H :   -0.153985
   6 C :   -0.889840
   7 C :   -0.515373
   8 N :    0.861187
   9 C :    0.555163
  10 H :   -0.310160
  11 H :   -0.320169
  12 H :   -0.321763
  13 H :   -0.458104
  14 H :   -0.262640
  15 H :   -0.158701
  16 H :   -0.129326
  17 H :   -0.145404
  18 H :   -0.136273
  19 O :    0.472470
  20 F :    0.676541

  Mayer bond orders larger than 0.100000
B(  0-C ,  1-N ) :   0.9597 B(  0-C ,  2-C ) :   0.8398 B(  0-C , 15-H ) :   0.9828
B(  0-C , 16-H ) :   0.9292 B(  1-N ,  7-C ) :   0.5894 B(  1-N ,  9-C ) :   0.2039
B(  1-N , 12-H ) :   1.0553 B(  2-C ,  3-C ) :   0.8897 B(  2-C ,  6-C ) :   0.1072
B(  2-C , 17-H ) :   1.0215 B(  2-C , 18-H ) :   0.9052 B(  3-C ,  4-H ) :   0.8934
B(  3-C ,  5-H ) :   0.9745 B(  3-C ,  6-C ) :   0.8915 B(  3-C , 20-F ) :   0.1001
B(  6-C , 19-O ) :   1.3716 B(  6-C , 20-F ) :   0.6194 B(  7-C ,  8-N ) :   0.3706
B(  7-C ,  9-C ) :   0.5481 B(  7-C , 10-H ) :  -0.2550 B(  8-N , 13-H ) :   0.8303
B(  8-N , 14-H ) :   1.1542 B(  9-C , 10-H ) :   1.5161 B(  9-C , 11-H ) :   0.5480

E(0)                                       ...   -516.931973966
E(0)                                       ...   -516.931973966
E(CORR)(strong-pairs)                      ...     -1.984112161
E(CORR)(weak-pairs)                        ...     -0.002735519
E(CORR)(corrected)                         ...     -1.986847680
E(TOT)                                     ...   -518.918821645
E(CCSD(T))                                 ...   -519.003188763
FINAL SINGLE POINT ENERGY      -519.003188762754

DIPOLE MOMENT
-------------
                                X             Y             Z
Electronic contribution:      5.89467      -5.90223      -2.20575
Nuclear contribution   :     -6.29470       4.03423       3.50525
                        -----------------------------------------
Total Dipole Moment    :     -0.40004      -1.86800       1.29950
                        -----------------------------------------
Magnitude (a.u.)       :      2.31044
Magnitude (Debye)      :      5.87268

Rotational constants in cm-1:     0.061094     0.043661     0.033867
Rotational constants in MHz :  1831.559881  1308.929520  1015.295167

                             ****ORCA TERMINATED NORMALLY****
TOTAL RUN TIME: 0 days 1 hours 22 minutes 47 seconds 146 msec
