                         Program Version 5.0.0 -  RELEASE  -
|  1> !PBE D3BJ RIJCOSX def2-SVPD def2/J TightSCF
|  2> *xyz -1 1
|  3> C          0.70466        1.44313       -4.50363
|  4> C          1.72854        1.42432       -5.63944
|  5> H          2.64672        1.95379       -5.38105
|  6> H          1.29992        1.93061       -6.50361
|  7> S          2.25263       -0.18811       -6.27184
|  8> O          3.56261       -0.44446       -5.63155
|  9> O          2.34494       -0.03374       -7.69650
| 10> C          1.05255        0.69566       -3.21491
| 11> H         -0.23248        1.03293       -4.88445
| 12> H          0.51170        2.49579       -4.26797
| 13> O          1.26606       -1.15918       -5.80536
| 14> H          1.24200       -0.33323       -3.43942
| 15> H          0.23391        0.76629       -2.52954
| 16> H          1.92506        1.13113       -2.77446
| 17> *
| 18>
| 19> %MaxCore 64000
| 20>
| 21> %pal nprocs 8
| 22> end
| 23>
| 24> %scf
| 25>   MaxIter 150
| 26> end
| 27>
| 28>
| 29>                          ****END OF INPUT****

CARTESIAN COORDINATES (ANGSTROEM)
---------------------------------
  C      0.704660    1.443130   -4.503630
  C      1.728540    1.424320   -5.639440
  H      2.646720    1.953790   -5.381050
  H      1.299920    1.930610   -6.503610
  S      2.252630   -0.188110   -6.271840
  O      3.562610   -0.444460   -5.631550
  O      2.344940   -0.033740   -7.696500
  C      1.052550    0.695660   -3.214910
  H     -0.232480    1.032930   -4.884450
  H      0.511700    2.495790   -4.267970
  O      1.266060   -1.159180   -5.805360
  H      1.242000   -0.333230   -3.439420
  H      0.233910    0.766290   -2.529540
  H      1.925060    1.131130   -2.774460

 Total Charge           Charge          ....   -1
 Multiplicity           Mult            ....    1
 Number of Electrons    NEL             ....   66
 Basis Dimension        Dim             ....  212

ORBITAL ENERGIES
----------------

  NO   OCC          E(Eh)            E(eV)
   0   2.0000     -88.056137     -2396.1293
   1   2.0000     -18.550094      -504.7737
   2   2.0000     -18.544527      -504.6222
   3   2.0000     -18.535449      -504.3752
   4   2.0000      -9.768799      -265.8225
   5   2.0000      -9.757778      -265.5226
   6   2.0000      -9.749735      -265.3038
   7   2.0000      -7.660249      -208.4460
   8   2.0000      -5.687255      -154.7581
   9   2.0000      -5.687131      -154.7547
  10   2.0000      -5.686544      -154.7387
  11   2.0000      -0.842115       -22.9151
  12   2.0000      -0.707598       -19.2547
  13   2.0000      -0.684754       -18.6331
  14   2.0000      -0.578540       -15.7429
  15   2.0000      -0.496262       -13.5040
  16   2.0000      -0.407838       -11.0978
  17   2.0000      -0.323318        -8.7979
  18   2.0000      -0.281022        -7.6470
  19   2.0000      -0.270120        -7.3503
  20   2.0000      -0.245656        -6.6846
  21   2.0000      -0.232761        -6.3337
  22   2.0000      -0.213395        -5.8068
  23   2.0000      -0.204948        -5.5769
  24   2.0000      -0.179906        -4.8955
  25   2.0000      -0.177454        -4.8288
  26   2.0000      -0.162526        -4.4225
  27   2.0000      -0.105887        -2.8813
  28   2.0000      -0.103699        -2.8218
  29   2.0000      -0.073383        -1.9969
  30   2.0000      -0.068066        -1.8522
  31   2.0000      -0.056227        -1.5300
  32   2.0000      -0.021522        -0.5857
  33   0.0000       0.118416         3.2223
  34   0.0000       0.145321         3.9544
  35   0.0000       0.152252         4.1430
  36   0.0000       0.160099         4.3565
  37   0.0000       0.179785         4.8922

MULLIKEN ATOMIC CHARGES
-----------------------
   0 C :   -0.319134
   1 C :    0.032500
   2 H :   -0.007698
   3 H :    0.004761
   4 S :    1.159861
   5 O :   -0.764211
   6 O :   -0.749993
   7 C :    0.793270
   8 H :   -0.002493
   9 H :   -0.149265
  10 O :   -0.773064
  11 H :   -0.135970
  12 H :   -0.052021
  13 H :   -0.036543
Sum of atomic charges:   -1.0000000

LOEWDIN ATOMIC CHARGES
----------------------
   0 C :   -0.102957
   1 C :   -0.088310
   2 H :    0.001453
   3 H :   -0.006682
   4 S :    0.814891
   5 O :   -0.576026
   6 O :   -0.549307
   7 C :    0.121591
   8 H :    0.016296
   9 H :    0.005530
  10 O :   -0.551548
  11 H :   -0.030506
  12 H :   -0.032336
  13 H :   -0.022090

  Mayer bond orders larger than 0.100000
B(  0-C ,  1-C ) :   1.3183 B(  0-C ,  2-H ) :   0.1388 B(  0-C ,  3-H ) :   0.1527
B(  0-C ,  7-C ) :   1.3201 B(  0-C ,  8-H ) :   0.8718 B(  0-C ,  9-H ) :   0.8685
B(  0-C , 11-H ) :   0.2324 B(  0-C , 12-H ) :   0.2358 B(  0-C , 13-H ) :   0.2328
B(  1-C ,  2-H ) :   0.9071 B(  1-C ,  3-H ) :   0.8707 B(  1-C ,  4-S ) :   0.8595
B(  1-C ,  6-O ) :   0.1119 B(  1-C ,  8-H ) :   0.1525 B(  1-C ,  9-H ) :   0.1680
B(  4-S ,  5-O ) :   1.2943 B(  4-S ,  6-O ) :   1.3807 B(  4-S , 10-O ) :   1.2983
B(  7-C , 11-H ) :   0.8179 B(  7-C , 12-H ) :   0.7169 B(  7-C , 13-H ) :   0.7565

Dispersion correction           -0.013172690
FINAL SINGLE POINT ENERGY      -741.518589947685

DIPOLE MOMENT
-------------
                                X             Y             Z
Electronic contribution:      4.43139      -5.71625      -8.07175
Nuclear contribution   :     -5.44810       7.35485       9.25157
                        -----------------------------------------
Total Dipole Moment    :     -1.01671       1.63859       1.17982
                        -----------------------------------------
Magnitude (a.u.)       :      2.26068
Magnitude (Debye)      :      5.74619

Rotational constants in cm-1:     0.135801     0.054229     0.051056
Rotational constants in MHz :  4071.225075  1625.746654  1530.611411

                             ****ORCA TERMINATED NORMALLY****
TOTAL RUN TIME: 0 days 0 hours 0 minutes 5 seconds 827 msec
