                         Program Version 5.0.0 -  RELEASE  -
|  1> !PBE D3BJ RIJCOSX def2-SVPD def2/J TightSCF
|  2> *xyz 1 1
|  3> C          2.91632       -1.24259       -1.54313
|  4> C          3.46659       -1.59097       -2.88908
|  5> N          4.65227       -1.14316       -3.25969
|  6> N          2.75226       -2.29204       -3.72803
|  7> H          1.77836       -2.48960       -3.51274
|  8> H          2.94861       -2.20854       -4.71681
|  9> H          5.14672       -0.51251       -2.63385
| 10> H          4.78303       -1.00720       -4.25350
| 11> C          2.80408        0.29070       -1.35924
| 12> C          2.38838        1.09367       -2.59711
| 13> H          3.76342        0.67472       -0.99989
| 14> H          2.09479        0.46122       -0.54576
| 15> H          1.94047       -1.71653       -1.44116
| 16> H          3.55857       -1.66343       -0.76637
| 17> H          3.08894        0.91965       -3.38694
| 18> H          2.37301        2.13633       -2.35728
| 19> H          1.41303        0.78551       -2.91115
| 20> *
| 21>
| 22> %MaxCore 64000
| 23>
| 24> %pal nprocs 8
| 25> end
| 26>
| 27> %scf
| 28>   MaxIter 150
| 29> end
| 30>
| 31>
| 32>                          ****END OF INPUT****

CARTESIAN COORDINATES (ANGSTROEM)
---------------------------------
  C      2.916320   -1.242590   -1.543130
  C      3.466590   -1.590970   -2.889080
  N      4.652270   -1.143160   -3.259690
  N      2.752260   -2.292040   -3.728030
  H      1.778360   -2.489600   -3.512740
  H      2.948610   -2.208540   -4.716810
  H      5.146720   -0.512510   -2.633850
  H      4.783030   -1.007200   -4.253500
  C      2.804080    0.290700   -1.359240
  C      2.388380    1.093670   -2.597110
  H      3.763420    0.674720   -0.999890
  H      2.094790    0.461220   -0.545760
  H      1.940470   -1.716530   -1.441160
  H      3.558570   -1.663430   -0.766370
  H      3.088940    0.919650   -3.386940
  H      2.373010    2.136330   -2.357280
  H      1.413030    0.785510   -2.911150

 Total Charge           Charge          ....    1
 Multiplicity           Mult            ....    1
 Number of Electrons    NEL             ....   48
 Basis Dimension        Dim             ....  208

ORBITAL ENERGIES
----------------

  NO   OCC          E(Eh)            E(eV)
   0   2.0000     -14.246514      -387.6674
   1   2.0000     -14.241362      -387.5272
   2   2.0000     -10.208064      -277.7755
   3   2.0000     -10.093131      -274.6481
   4   2.0000     -10.064907      -273.8800
   5   2.0000     -10.032649      -273.0022
   6   2.0000      -1.118539       -30.4370
   7   2.0000      -1.025286       -27.8995
   8   2.0000      -0.898530       -24.4502
   9   2.0000      -0.820808       -22.3353
  10   2.0000      -0.775033       -21.0897
  11   2.0000      -0.726668       -19.7736
  12   2.0000      -0.716290       -19.4912
  13   2.0000      -0.676315       -18.4035
  14   2.0000      -0.649222       -17.6662
  15   2.0000      -0.615817       -16.7572
  16   2.0000      -0.583154       -15.8684
  17   2.0000      -0.549423       -14.9505
  18   2.0000      -0.533234       -14.5100
  19   2.0000      -0.520845       -14.1729
  20   2.0000      -0.473416       -12.8823
  21   2.0000      -0.467511       -12.7216
  22   2.0000      -0.460209       -12.5229
  23   2.0000      -0.451233       -12.2787
  24   0.0000      -0.254437        -6.9236
  25   0.0000      -0.181191        -4.9305
  26   0.0000      -0.143375        -3.9014
  27   0.0000      -0.139775        -3.8035
  28   0.0000      -0.108077        -2.9409

MULLIKEN ATOMIC CHARGES
-----------------------
   0 C :    0.333678
   1 C :    0.374663
   2 N :    0.142649
   3 N :    0.113300
   4 H :    0.032663
   5 H :   -0.111024
   6 H :    0.043530
   7 H :   -0.050335
   8 C :   -0.381353
   9 C :    0.818615
  10 H :    0.010985
  11 H :   -0.186353
  12 H :    0.076758
  13 H :   -0.011754
  14 H :   -0.077551
  15 H :   -0.109275
  16 H :   -0.019196
Sum of atomic charges:    1.0000000

LOEWDIN ATOMIC CHARGES
----------------------
   0 C :    0.054842
   1 C :   -0.084014
   2 N :    0.301024
   3 N :    0.302377
   4 H :    0.054539
   5 H :    0.047414
   6 H :    0.052475
   7 H :    0.045291
   8 C :   -0.037351
   9 C :    0.144230
  10 H :    0.027180
  11 H :    0.040350
  12 H :    0.036283
  13 H :    0.054258
  14 H :   -0.036734
  15 H :    0.003561
  16 H :   -0.005724

  Mayer bond orders larger than 0.100000
B(  0-C ,  1-C ) :   1.2256 B(  0-C ,  8-C ) :   1.2286 B(  0-C , 11-H ) :   0.1269
B(  0-C , 12-H ) :   0.7463 B(  0-C , 13-H ) :   0.7291 B(  1-C ,  2-N ) :   1.1543
B(  1-C ,  3-N ) :   1.0784 B(  1-C ,  5-H ) :  -0.1111 B(  1-C , 12-H ) :   0.1558
B(  1-C , 13-H ) :   0.1954 B(  2-N ,  3-N ) :   0.2118 B(  2-N ,  6-H ) :   0.9797
B(  2-N ,  7-H ) :   1.1219 B(  3-N ,  4-H ) :   1.0351 B(  3-N ,  5-H ) :   1.1796
B(  4-H ,  5-H ) :  -0.1389 B(  6-H ,  7-H ) :  -0.1222 B(  8-C ,  9-C ) :   1.3781
B(  8-C , 10-H ) :   0.8726 B(  8-C , 11-H ) :   0.9613 B(  8-C , 12-H ) :   0.1536
B(  8-C , 13-H ) :   0.1015 B(  8-C , 14-H ) :   0.2375 B(  8-C , 15-H ) :   0.2392
B(  8-C , 16-H ) :   0.2055 B(  9-C , 14-H ) :   0.8041 B(  9-C , 15-H ) :   0.7265
B(  9-C , 16-H ) :   0.7612

Dispersion correction           -0.014108831
FINAL SINGLE POINT ENERGY      -267.819519291783

DIPOLE MOMENT
-------------
                                X             Y             Z
Electronic contribution:      2.04411      -4.55562      -1.88320
Nuclear contribution   :     -1.81078       3.96608       0.97433
                        -----------------------------------------
Total Dipole Moment    :      0.23333      -0.58954      -0.90887
                        -----------------------------------------
Magnitude (a.u.)       :      1.10818
Magnitude (Debye)      :      2.81676

Rotational constants in cm-1:     0.170042     0.080945     0.078209
Rotational constants in MHz :  5097.737821  2426.678005  2344.636232

                             ****ORCA TERMINATED NORMALLY****
TOTAL RUN TIME: 0 days 0 hours 0 minutes 5 seconds 193 msec
