                         Program Version 5.0.0 -  RELEASE  -
|  1> !PBE D3BJ RIJCOSX def2-SVPD def2/J TightSCF
|  2> *xyz 0 1
|  3> C          0.70466        1.44313       -4.50363
|  4> C          1.72854        1.42432       -5.63944
|  5> H          2.64672        1.95379       -5.38105
|  6> H          1.29992        1.93061       -6.50361
|  7> S          2.25263       -0.18811       -6.27184
|  8> F          3.56261       -0.44446       -5.63155
|  9> O          2.34494       -0.03374       -7.69650
| 10> C          1.05255        0.69566       -3.21491
| 11> H         -0.23248        1.03293       -4.88445
| 12> H          0.51170        2.49579       -4.26797
| 13> O          1.26606       -1.15918       -5.80536
| 14> H          1.24200       -0.33323       -3.43942
| 15> H          0.23391        0.76629       -2.52954
| 16> H          1.92506        1.13113       -2.77446
| 17> *
| 18>
| 19> %MaxCore 64000
| 20>
| 21> %pal nprocs 8
| 22> end
| 23>
| 24> %scf
| 25>   MaxIter 150
| 26> end
| 27>
| 28>
| 29>                          ****END OF INPUT****

CARTESIAN COORDINATES (ANGSTROEM)
---------------------------------
  C      0.704660    1.443130   -4.503630
  C      1.728540    1.424320   -5.639440
  H      2.646720    1.953790   -5.381050
  H      1.299920    1.930610   -6.503610
  S      2.252630   -0.188110   -6.271840
  F      3.562610   -0.444460   -5.631550
  O      2.344940   -0.033740   -7.696500
  C      1.052550    0.695660   -3.214910
  H     -0.232480    1.032930   -4.884450
  H      0.511700    2.495790   -4.267970
  O      1.266060   -1.159180   -5.805360
  H      1.242000   -0.333230   -3.439420
  H      0.233910    0.766290   -2.529540
  H      1.925060    1.131130   -2.774460

 Total Charge           Charge          ....    0
 Multiplicity           Mult            ....    1
 Number of Electrons    NEL             ....   66
 Basis Dimension        Dim             ....  212

ORBITAL ENERGIES
----------------

  NO   OCC          E(Eh)            E(eV)
   0   2.0000     -88.307195     -2402.9610
   1   2.0000     -24.368724      -663.1067
   2   2.0000     -18.780111      -511.0328
   3   2.0000     -18.773194      -510.8446
   4   2.0000      -9.955062      -270.8910
   5   2.0000      -9.925417      -270.0843
   6   2.0000      -9.894658      -269.2473
   7   2.0000      -7.912357      -215.3062
   8   2.0000      -5.943426      -161.7289
   9   2.0000      -5.937269      -161.5613
  10   2.0000      -5.935766      -161.5204
  11   2.0000      -1.239401       -33.7258
  12   2.0000      -1.025418       -27.9030
  13   2.0000      -0.932688       -25.3797
  14   2.0000      -0.752891       -20.4872
  15   2.0000      -0.680326       -18.5126
  16   2.0000      -0.633677       -17.2432
  17   2.0000      -0.571628       -15.5548
  18   2.0000      -0.509349       -13.8601
  19   2.0000      -0.499914       -13.6033
  20   2.0000      -0.493336       -13.4243
  21   2.0000      -0.446103       -12.1391
  22   2.0000      -0.431872       -11.7518
  23   2.0000      -0.406382       -11.0582
  24   2.0000      -0.399694       -10.8762
  25   2.0000      -0.391008       -10.6399
  26   2.0000      -0.348183        -9.4746
  27   2.0000      -0.340794        -9.2735
  28   2.0000      -0.330493        -8.9932
  29   2.0000      -0.319320        -8.6892
  30   2.0000      -0.291600        -7.9348
  31   2.0000      -0.286958        -7.8085
  32   2.0000      -0.271958        -7.4004
  33   0.0000      -0.024261        -0.6602
  34   0.0000      -0.009709        -0.2642
  35   0.0000       0.010354         0.2817
  36   0.0000       0.017720         0.4822
  37   0.0000       0.025222         0.6863

MULLIKEN ATOMIC CHARGES
-----------------------
   0 C :   -0.264084
   1 C :    0.016730
   2 H :    0.033640
   3 H :    0.036666
   4 S :    1.334256
   5 F :   -0.365137
   6 O :   -0.618205
   7 C :    0.810123
   8 H :    0.013462
   9 H :   -0.125844
  10 O :   -0.652337
  11 H :   -0.160800
  12 H :   -0.034102
  13 H :   -0.024370
Sum of atomic charges:    0.0000000

LOEWDIN ATOMIC CHARGES
----------------------
   0 C :   -0.078584
   1 C :   -0.049051
   2 H :    0.019089
   3 H :    0.023149
   4 S :    1.076171
   5 F :   -0.260689
   6 O :   -0.435234
   7 C :    0.138729
   8 H :    0.031295
   9 H :    0.031783
  10 O :   -0.443189
  11 H :   -0.030339
  12 H :   -0.010033
  13 H :   -0.013097

  Mayer bond orders larger than 0.100000
B(  0-C ,  1-C ) :   1.3579 B(  0-C ,  2-H ) :   0.1385 B(  0-C ,  3-H ) :   0.1418
B(  0-C ,  7-C ) :   1.3427 B(  0-C ,  8-H ) :   0.8678 B(  0-C ,  9-H ) :   0.8468
B(  0-C , 11-H ) :   0.2181 B(  0-C , 12-H ) :   0.2263 B(  0-C , 13-H ) :   0.2240
B(  1-C ,  2-H ) :   0.8872 B(  1-C ,  3-H ) :   0.8679 B(  1-C ,  4-S ) :   0.9278
B(  1-C ,  8-H ) :   0.1534 B(  1-C ,  9-H ) :   0.1635 B(  4-S ,  5-F ) :   0.6595
B(  4-S ,  6-O ) :   1.5859 B(  4-S , 10-O ) :   1.5107 B(  7-C , 11-H ) :   0.8206
B(  7-C , 12-H ) :   0.7186 B(  7-C , 13-H ) :   0.7587

Dispersion correction           -0.012696875
FINAL SINGLE POINT ENERGY      -766.007535018908

DIPOLE MOMENT
-------------
                                X             Y             Z
Electronic contribution:      7.34524      -6.75374      -8.25513
Nuclear contribution   :     -7.21372       8.00417       9.21533
                        -----------------------------------------
Total Dipole Moment    :      0.13152       1.25043       0.96020
                        -----------------------------------------
Magnitude (a.u.)       :      1.58204
Magnitude (Debye)      :      4.02123

Rotational constants in cm-1:     0.129205     0.053290     0.050128
Rotational constants in MHz :  3873.458819  1597.595736  1502.810344

                             ****ORCA TERMINATED NORMALLY****
TOTAL RUN TIME: 0 days 0 hours 0 minutes 5 seconds 714 msec
