                         Program Version 5.0.0 -  RELEASE  -
|  1> !PBE D3BJ RIJCOSX def2-SVPD def2/J TightSCF
|  2> *xyz 0 1
|  3> C          2.91632       -1.24259       -1.54313
|  4> C          3.46659       -1.59097       -2.88908
|  5> C          4.65227       -1.14316       -3.25969
|  6> N          2.75226       -2.29204       -3.72803
|  7> H          1.77836       -2.48960       -3.51274
|  8> H          2.94861       -2.20854       -4.71681
|  9> H          5.14672       -0.51251       -2.63385
| 10> H          4.78303       -1.00720       -4.25350
| 11> C          2.80408        0.29070       -1.35924
| 12> C          2.38838        1.09367       -2.59711
| 13> H          3.76342        0.67472       -0.99989
| 14> H          2.09479        0.46122       -0.54576
| 15> H          1.94047       -1.71653       -1.44116
| 16> H          3.55857       -1.66343       -0.76637
| 17> H          3.08894        0.91965       -3.38694
| 18> H          2.37301        2.13633       -2.35728
| 19> H          1.41303        0.78551       -2.91115
| 20> *
| 21>
| 22> %MaxCore 64000
| 23>
| 24> %pal nprocs 8
| 25> end
| 26>
| 27> %scf
| 28>   MaxIter 150
| 29> end
| 30>
| 31>
| 32>                          ****END OF INPUT****

CARTESIAN COORDINATES (ANGSTROEM)
---------------------------------
  C      2.916320   -1.242590   -1.543130
  C      3.466590   -1.590970   -2.889080
  C      4.652270   -1.143160   -3.259690
  N      2.752260   -2.292040   -3.728030
  H      1.778360   -2.489600   -3.512740
  H      2.948610   -2.208540   -4.716810
  H      5.146720   -0.512510   -2.633850
  H      4.783030   -1.007200   -4.253500
  C      2.804080    0.290700   -1.359240
  C      2.388380    1.093670   -2.597110
  H      3.763420    0.674720   -0.999890
  H      2.094790    0.461220   -0.545760
  H      1.940470   -1.716530   -1.441160
  H      3.558570   -1.663430   -0.766370
  H      3.088940    0.919650   -3.386940
  H      2.373010    2.136330   -2.357280
  H      1.413030    0.785510   -2.911150

 Total Charge           Charge          ....    0
 Multiplicity           Mult            ....    1
 Number of Electrons    NEL             ....   48
 Basis Dimension        Dim             ....  208

ORBITAL ENERGIES
----------------

  NO   OCC          E(Eh)            E(eV)
   0   2.0000     -14.007047      -381.1511
   1   2.0000      -9.913414      -269.7577
   2   2.0000      -9.897902      -269.3356
   3   2.0000      -9.895110      -269.2596
   4   2.0000      -9.874753      -268.7057
   5   2.0000      -9.826987      -267.4059
   6   2.0000      -0.851885       -23.1810
   7   2.0000      -0.716741       -19.5035
   8   2.0000      -0.653908       -17.7937
   9   2.0000      -0.617356       -16.7991
  10   2.0000      -0.544904       -14.8276
  11   2.0000      -0.504341       -13.7238
  12   2.0000      -0.468996       -12.7620
  13   2.0000      -0.432203       -11.7608
  14   2.0000      -0.407708       -11.0943
  15   2.0000      -0.387492       -10.5442
  16   2.0000      -0.357585        -9.7304
  17   2.0000      -0.343335        -9.3426
  18   2.0000      -0.323206        -8.7949
  19   2.0000      -0.321527        -8.7492
  20   2.0000      -0.296895        -8.0789
  21   2.0000      -0.285179        -7.7601
  22   2.0000      -0.282953        -7.6995
  23   2.0000      -0.161123        -4.3844
  24   0.0000      -0.005682        -0.1546
  25   0.0000      -0.001513        -0.0412
  26   0.0000       0.025675         0.6986
  27   0.0000       0.034219         0.9312
  28   0.0000       0.042278         1.1504

MULLIKEN ATOMIC CHARGES
-----------------------
   0 C :    0.518385
   1 C :   -0.388080
   2 C :    0.507468
   3 N :    0.162769
   4 H :   -0.086989
   5 H :   -0.124386
   6 H :   -0.093373
   7 H :   -0.364909
   8 C :   -0.431722
   9 C :    0.824108
  10 H :    0.007527
  11 H :   -0.210313
  12 H :   -0.015338
  13 H :   -0.053845
  14 H :   -0.068220
  15 H :   -0.156720
  16 H :   -0.026363
Sum of atomic charges:   -0.0000000

LOEWDIN ATOMIC CHARGES
----------------------
   0 C :    0.015148
   1 C :   -0.280204
   2 C :    0.164673
   3 N :    0.190205
   4 H :   -0.001289
   5 H :    0.006559
   6 H :   -0.075186
   7 H :   -0.083005
   8 C :   -0.060522
   9 C :    0.127462
  10 H :    0.016904
  11 H :    0.013784
  12 H :    0.009292
  13 H :    0.028835
  14 H :   -0.034039
  15 H :   -0.019698
  16 H :   -0.018919

  Mayer bond orders larger than 0.100000
B(  0-C ,  1-C ) :   1.2142 B(  0-C ,  8-C ) :   1.2279 B(  0-C , 11-H ) :   0.1930
B(  0-C , 12-H ) :   0.6137 B(  0-C , 13-H ) :   0.7419 B(  1-C ,  2-C ) :   2.0349
B(  1-C ,  3-N ) :   1.0293 B(  1-C ,  6-H ) :   0.2025 B(  1-C ,  7-H ) :   0.2934
B(  1-C , 12-H ) :   0.2574 B(  1-C , 13-H ) :   0.1807 B(  2-C ,  3-N ) :   0.2820
B(  2-C ,  6-H ) :   0.6462 B(  2-C ,  7-H ) :   0.7152 B(  3-N ,  4-H ) :   1.0407
B(  3-N ,  5-H ) :   1.0691 B(  4-H ,  5-H ) :  -0.1257 B(  8-C ,  9-C ) :   1.3461
B(  8-C , 10-H ) :   0.8676 B(  8-C , 11-H ) :   0.9322 B(  8-C , 12-H ) :   0.1637
B(  8-C , 13-H ) :   0.1227 B(  8-C , 14-H ) :   0.2722 B(  8-C , 15-H ) :   0.2557
B(  8-C , 16-H ) :   0.2206 B(  9-C , 11-H ) :   0.1004 B(  9-C , 14-H ) :   0.8023
B(  9-C , 15-H ) :   0.7197 B(  9-C , 16-H ) :   0.7526

Dispersion correction           -0.014559652
FINAL SINGLE POINT ENERGY      -251.361631663748

DIPOLE MOMENT
-------------
                                X             Y             Z
Electronic contribution:      0.60631      -3.84831      -0.95525
Nuclear contribution   :     -1.45921       3.88617       0.81775
                        -----------------------------------------
Total Dipole Moment    :     -0.85291       0.03786      -0.13750
                        -----------------------------------------
Magnitude (a.u.)       :      0.86475
Magnitude (Debye)      :      2.19801

Rotational constants in cm-1:     0.176264     0.082132     0.079980
Rotational constants in MHz :  5284.261828  2462.256672  2397.741351

                             ****ORCA TERMINATED NORMALLY****
TOTAL RUN TIME: 0 days 0 hours 0 minutes 6 seconds 11 msec
