                         Program Version 5.0.0 -  RELEASE  -
|  1> !PBE D3BJ RIJCOSX def2-SVPD def2/J TightSCF
|  2> *xyz 0 1
|  3> C          0.70466        1.44313       -4.50363
|  4> C          1.72854        1.42432       -5.63944
|  5> H          2.64672        1.95379       -5.38105
|  6> H          1.29992        1.93061       -6.50361
|  7> S          2.25263       -0.18811       -6.27184
|  8> O          3.56261       -0.44446       -5.63155
|  9> F          2.34494       -0.03374       -7.69650
| 10> C          1.05255        0.69566       -3.21491
| 11> H         -0.23248        1.03293       -4.88445
| 12> H          0.51170        2.49579       -4.26797
| 13> O          1.26606       -1.15918       -5.80536
| 14> H          1.24200       -0.33323       -3.43942
| 15> H          0.23391        0.76629       -2.52954
| 16> H          1.92506        1.13113       -2.77446
| 17> *
| 18>
| 19> %MaxCore 64000
| 20>
| 21> %pal nprocs 8
| 22> end
| 23>
| 24> %scf
| 25>   MaxIter 150
| 26> end
| 27>
| 28>
| 29>                          ****END OF INPUT****

CARTESIAN COORDINATES (ANGSTROEM)
---------------------------------
  C      0.704660    1.443130   -4.503630
  C      1.728540    1.424320   -5.639440
  H      2.646720    1.953790   -5.381050
  H      1.299920    1.930610   -6.503610
  S      2.252630   -0.188110   -6.271840
  O      3.562610   -0.444460   -5.631550
  F      2.344940   -0.033740   -7.696500
  C      1.052550    0.695660   -3.214910
  H     -0.232480    1.032930   -4.884450
  H      0.511700    2.495790   -4.267970
  O      1.266060   -1.159180   -5.805360
  H      1.242000   -0.333230   -3.439420
  H      0.233910    0.766290   -2.529540
  H      1.925060    1.131130   -2.774460

 Total Charge           Charge          ....    0
 Multiplicity           Mult            ....    1
 Number of Electrons    NEL             ....   66
 Basis Dimension        Dim             ....  212

ORBITAL ENERGIES
----------------

  NO   OCC          E(Eh)            E(eV)
   0   2.0000     -88.309555     -2403.0251
   1   2.0000     -24.390858      -663.7090
   2   2.0000     -18.773839      -510.8621
   3   2.0000     -18.765596      -510.6378
   4   2.0000      -9.955999      -270.9165
   5   2.0000      -9.925940      -270.0986
   6   2.0000      -9.888628      -269.0833
   7   2.0000      -7.914694      -215.3698
   8   2.0000      -5.945961      -161.7978
   9   2.0000      -5.939420      -161.6198
  10   2.0000      -5.937899      -161.5785
  11   2.0000      -1.276472       -34.7346
  12   2.0000      -1.012688       -27.5566
  13   2.0000      -0.913170       -24.8486
  14   2.0000      -0.752535       -20.4775
  15   2.0000      -0.686912       -18.6918
  16   2.0000      -0.643206       -17.5025
  17   2.0000      -0.574879       -15.6432
  18   2.0000      -0.527054       -14.3419
  19   2.0000      -0.520179       -14.1548
  20   2.0000      -0.496019       -13.4974
  21   2.0000      -0.441739       -12.0203
  22   2.0000      -0.434256       -11.8167
  23   2.0000      -0.410673       -11.1750
  24   2.0000      -0.396886       -10.7998
  25   2.0000      -0.378181       -10.2908
  26   2.0000      -0.343457        -9.3459
  27   2.0000      -0.334447        -9.1008
  28   2.0000      -0.328008        -8.9256
  29   2.0000      -0.314266        -8.5516
  30   2.0000      -0.285686        -7.7739
  31   2.0000      -0.276779        -7.5315
  32   2.0000      -0.257442        -7.0054
  33   0.0000      -0.027000        -0.7347
  34   0.0000      -0.012396        -0.3373
  35   0.0000       0.012522         0.3407
  36   0.0000       0.018602         0.5062
  37   0.0000       0.020198         0.5496

MULLIKEN ATOMIC CHARGES
-----------------------
   0 C :   -0.297188
   1 C :    0.020786
   2 H :    0.029469
   3 H :    0.042711
   4 S :    1.365924
   5 O :   -0.628497
   6 F :   -0.378868
   7 C :    0.816381
   8 H :    0.013540
   9 H :   -0.126364
  10 O :   -0.646148
  11 H :   -0.154055
  12 H :   -0.034666
  13 H :   -0.023026
Sum of atomic charges:    0.0000000

LOEWDIN ATOMIC CHARGES
----------------------
   0 C :   -0.074382
   1 C :   -0.054824
   2 H :    0.023922
   3 H :    0.010817
   4 S :    1.080172
   5 O :   -0.459637
   6 F :   -0.241504
   7 C :    0.144150
   8 H :    0.029041
   9 H :    0.032883
  10 O :   -0.445769
  11 H :   -0.024764
  12 H :   -0.010792
  13 H :   -0.009311

  Mayer bond orders larger than 0.100000
B(  0-C ,  1-C ) :   1.3655 B(  0-C ,  2-H ) :   0.1323 B(  0-C ,  3-H ) :   0.1599
B(  0-C ,  7-C ) :   1.3453 B(  0-C ,  8-H ) :   0.8656 B(  0-C ,  9-H ) :   0.8521
B(  0-C , 11-H ) :   0.2192 B(  0-C , 12-H ) :   0.2282 B(  0-C , 13-H ) :   0.2278
B(  1-C ,  2-H ) :   0.9114 B(  1-C ,  3-H ) :   0.8253 B(  1-C ,  4-S ) :   0.9167
B(  1-C ,  8-H ) :   0.1492 B(  1-C ,  9-H ) :   0.1605 B(  4-S ,  5-O ) :   1.4954
B(  4-S ,  6-F ) :   0.7240 B(  4-S , 10-O ) :   1.4835 B(  7-C , 11-H ) :   0.8235
B(  7-C , 12-H ) :   0.7125 B(  7-C , 13-H ) :   0.7541

Dispersion correction           -0.012749229
FINAL SINGLE POINT ENERGY      -765.988355254982

DIPOLE MOMENT
-------------
                                X             Y             Z
Electronic contribution:      5.27944      -6.06625     -11.75877
Nuclear contribution   :     -5.90419       7.56246      11.43606
                        -----------------------------------------
Total Dipole Moment    :     -0.62475       1.49621      -0.32270
                        -----------------------------------------
Magnitude (a.u.)       :      1.65321
Magnitude (Debye)      :      4.20212

Rotational constants in cm-1:     0.133686     0.052402     0.049175
Rotational constants in MHz :  4007.807944  1570.986792  1474.216272

                             ****ORCA TERMINATED NORMALLY****
TOTAL RUN TIME: 0 days 0 hours 0 minutes 5 seconds 364 msec
