                         Program Version 5.0.0 -  RELEASE  -
|  1> !PBE D3BJ RIJCOSX def2-SVPD def2/J TightSCF
|  2> *xyz 0 1
|  3> C          2.91632       -1.24259       -1.54313
|  4> C          3.46659       -1.59097       -2.88908
|  5> N          4.65227       -1.14316       -3.25969
|  6> C          2.75226       -2.29204       -3.72803
|  7> H          1.77836       -2.48960       -3.51274
|  8> H          2.94861       -2.20854       -4.71681
|  9> H          5.14672       -0.51251       -2.63385
| 10> H          4.78303       -1.00720       -4.25350
| 11> C          2.80408        0.29070       -1.35924
| 12> C          2.38838        1.09367       -2.59711
| 13> H          3.76342        0.67472       -0.99989
| 14> H          2.09479        0.46122       -0.54576
| 15> H          1.94047       -1.71653       -1.44116
| 16> H          3.55857       -1.66343       -0.76637
| 17> H          3.08894        0.91965       -3.38694
| 18> H          2.37301        2.13633       -2.35728
| 19> H          1.41303        0.78551       -2.91115
| 20> *
| 21>
| 22> %MaxCore 64000
| 23>
| 24> %pal nprocs 8
| 25> end
| 26>
| 27> %scf
| 28>   MaxIter 150
| 29> end
| 30>
| 31>
| 32>                          ****END OF INPUT****

CARTESIAN COORDINATES (ANGSTROEM)
---------------------------------
  C      2.916320   -1.242590   -1.543130
  C      3.466590   -1.590970   -2.889080
  N      4.652270   -1.143160   -3.259690
  C      2.752260   -2.292040   -3.728030
  H      1.778360   -2.489600   -3.512740
  H      2.948610   -2.208540   -4.716810
  H      5.146720   -0.512510   -2.633850
  H      4.783030   -1.007200   -4.253500
  C      2.804080    0.290700   -1.359240
  C      2.388380    1.093670   -2.597110
  H      3.763420    0.674720   -0.999890
  H      2.094790    0.461220   -0.545760
  H      1.940470   -1.716530   -1.441160
  H      3.558570   -1.663430   -0.766370
  H      3.088940    0.919650   -3.386940
  H      2.373010    2.136330   -2.357280
  H      1.413030    0.785510   -2.911150

 Total Charge           Charge          ....    0
 Multiplicity           Mult            ....    1
 Number of Electrons    NEL             ....   48
 Basis Dimension        Dim             ....  208

ORBITAL ENERGIES
----------------

  NO   OCC          E(Eh)            E(eV)
   0   2.0000     -14.003477      -381.0540
   1   2.0000      -9.912182      -269.7242
   2   2.0000      -9.899324      -269.3743
   3   2.0000      -9.895677      -269.2751
   4   2.0000      -9.879350      -268.8308
   5   2.0000      -9.830339      -267.4971
   6   2.0000      -0.847439       -23.0600
   7   2.0000      -0.714905       -19.4536
   8   2.0000      -0.663029       -18.0419
   9   2.0000      -0.615612       -16.7517
  10   2.0000      -0.538863       -14.6632
  11   2.0000      -0.506471       -13.7818
  12   2.0000      -0.475144       -12.9293
  13   2.0000      -0.418653       -11.3921
  14   2.0000      -0.410565       -11.1720
  15   2.0000      -0.404075       -10.9954
  16   2.0000      -0.350076        -9.5261
  17   2.0000      -0.346729        -9.4350
  18   2.0000      -0.331538        -9.0216
  19   2.0000      -0.322321        -8.7708
  20   2.0000      -0.294300        -8.0083
  21   2.0000      -0.289729        -7.8839
  22   2.0000      -0.277068        -7.5394
  23   2.0000      -0.167997        -4.5714
  24   0.0000      -0.008785        -0.2390
  25   0.0000       0.000096         0.0026
  26   0.0000       0.032087         0.8731
  27   0.0000       0.034141         0.9290
  28   0.0000       0.039678         1.0797

MULLIKEN ATOMIC CHARGES
-----------------------
   0 C :    0.366317
   1 C :   -0.411603
   2 N :    0.230424
   3 C :    0.330844
   4 H :   -0.028374
   5 H :   -0.415542
   6 H :   -0.050667
   7 H :   -0.073506
   8 C :   -0.402777
   9 C :    0.837514
  10 H :   -0.004315
  11 H :   -0.200831
  12 H :    0.165590
  13 H :   -0.072239
  14 H :   -0.118071
  15 H :   -0.077458
  16 H :   -0.075305
Sum of atomic charges:   -0.0000000

LOEWDIN ATOMIC CHARGES
----------------------
   0 C :    0.013146
   1 C :   -0.288571
   2 N :    0.191321
   3 C :    0.175487
   4 H :   -0.077622
   5 H :   -0.081754
   6 H :    0.001420
   7 H :    0.005978
   8 C :   -0.064237
   9 C :    0.126215
  10 H :    0.009415
  11 H :    0.015687
  12 H :    0.021488
  13 H :    0.022301
  14 H :   -0.037034
  15 H :   -0.019396
  16 H :   -0.013843

  Mayer bond orders larger than 0.100000
B(  0-C ,  1-C ) :   1.3526 B(  0-C ,  8-C ) :   1.2111 B(  0-C , 10-H ) :   0.1290
B(  0-C , 11-H ) :   0.1791 B(  0-C , 12-H ) :   0.7616 B(  0-C , 13-H ) :   0.6883
B(  1-C ,  2-N ) :   1.0375 B(  1-C ,  3-C ) :   1.9714 B(  1-C ,  4-H ) :   0.1153
B(  1-C ,  5-H ) :   0.3759 B(  1-C ,  8-C ) :   0.1199 B(  1-C , 12-H ) :   0.1007
B(  1-C , 13-H ) :   0.2722 B(  2-N ,  3-C ) :   0.3805 B(  2-N ,  6-H ) :   0.9573
B(  2-N ,  7-H ) :   0.9754 B(  3-C ,  4-H ) :   0.8311 B(  3-C ,  5-H ) :   0.6417
B(  4-H ,  5-H ) :   0.1124 B(  6-H ,  7-H ) :  -0.1144 B(  8-C ,  9-C ) :   1.3496
B(  8-C , 10-H ) :   0.8576 B(  8-C , 11-H ) :   0.9464 B(  8-C , 12-H ) :   0.1612
B(  8-C , 14-H ) :   0.2531 B(  8-C , 15-H ) :   0.2410 B(  8-C , 16-H ) :   0.2111
B(  9-C , 14-H ) :   0.8106 B(  9-C , 15-H ) :   0.6912 B(  9-C , 16-H ) :   0.7694
B( 14-H , 16-H ) :   0.1167

Dispersion correction           -0.014527939
FINAL SINGLE POINT ENERGY      -251.364824259424

DIPOLE MOMENT
-------------
                                X             Y             Z
Electronic contribution:      2.21608      -2.85103      -0.55561
Nuclear contribution   :     -1.90863       3.61442       0.70697
                        -----------------------------------------
Total Dipole Moment    :      0.30746       0.76339       0.15136
                        -----------------------------------------
Magnitude (a.u.)       :      0.83678
Magnitude (Debye)      :      2.12693

Rotational constants in cm-1:     0.173428     0.083686     0.080523
Rotational constants in MHz :  5199.232598  2508.829970  2414.016775

                             ****ORCA TERMINATED NORMALLY****
TOTAL RUN TIME: 0 days 0 hours 0 minutes 5 seconds 905 msec
