                         Program Version 5.0.0 -  RELEASE  -
|  1> !PBE D3BJ RIJCOSX def2-SVPD def2/J TightSCF
|  2> *xyz 0 1
|  3> C          0.70466        1.44313       -4.50363
|  4> C          1.72854        1.42432       -5.63944
|  5> H          2.64672        1.95379       -5.38105
|  6> H          1.29992        1.93061       -6.50361
|  7> S          2.25263       -0.18811       -6.27184
|  8> O          3.56261       -0.44446       -5.63155
|  9> O          2.34494       -0.03374       -7.69650
| 10> C          1.05255        0.69566       -3.21491
| 11> H         -0.23248        1.03293       -4.88445
| 12> H          0.51170        2.49579       -4.26797
| 13> F          1.26606       -1.15918       -5.80536
| 14> H          1.24200       -0.33323       -3.43942
| 15> H          0.23391        0.76629       -2.52954
| 16> H          1.92506        1.13113       -2.77446
| 17> *
| 18>
| 19> %MaxCore 64000
| 20>
| 21> %pal nprocs 8
| 22> end
| 23>
| 24> %scf
| 25>   MaxIter 150
| 26> end
| 27>
| 28>
| 29>                          ****END OF INPUT****

CARTESIAN COORDINATES (ANGSTROEM)
---------------------------------
  C      0.704660    1.443130   -4.503630
  C      1.728540    1.424320   -5.639440
  H      2.646720    1.953790   -5.381050
  H      1.299920    1.930610   -6.503610
  S      2.252630   -0.188110   -6.271840
  O      3.562610   -0.444460   -5.631550
  O      2.344940   -0.033740   -7.696500
  C      1.052550    0.695660   -3.214910
  H     -0.232480    1.032930   -4.884450
  H      0.511700    2.495790   -4.267970
  F      1.266060   -1.159180   -5.805360
  H      1.242000   -0.333230   -3.439420
  H      0.233910    0.766290   -2.529540
  H      1.925060    1.131130   -2.774460

 Total Charge           Charge          ....    0
 Multiplicity           Mult            ....    1
 Number of Electrons    NEL             ....   66
 Basis Dimension        Dim             ....  212

ORBITAL ENERGIES
----------------

  NO   OCC          E(Eh)            E(eV)
   0   2.0000     -88.307528     -2402.9700
   1   2.0000     -24.379273      -663.3937
   2   2.0000     -18.779690      -511.0213
   3   2.0000     -18.764337      -510.6036
   4   2.0000      -9.954752      -270.8826
   5   2.0000      -9.932148      -270.2675
   6   2.0000      -9.902258      -269.4541
   7   2.0000      -7.912680      -215.3150
   8   2.0000      -5.943950      -161.7431
   9   2.0000      -5.937480      -161.5670
  10   2.0000      -5.935927      -161.5248
  11   2.0000      -1.255847       -34.1733
  12   2.0000      -1.021162       -27.7872
  13   2.0000      -0.920301       -25.0427
  14   2.0000      -0.757450       -20.6113
  15   2.0000      -0.683097       -18.5880
  16   2.0000      -0.641651       -17.4602
  17   2.0000      -0.578324       -15.7370
  18   2.0000      -0.525173       -14.2907
  19   2.0000      -0.512534       -13.9467
  20   2.0000      -0.485606       -13.2140
  21   2.0000      -0.445018       -12.1095
  22   2.0000      -0.430460       -11.7134
  23   2.0000      -0.417933       -11.3725
  24   2.0000      -0.400115       -10.8877
  25   2.0000      -0.388721       -10.5776
  26   2.0000      -0.350386        -9.5345
  27   2.0000      -0.342610        -9.3229
  28   2.0000      -0.338421        -9.2089
  29   2.0000      -0.324138        -8.8202
  30   2.0000      -0.290138        -7.8951
  31   2.0000      -0.276624        -7.5273
  32   2.0000      -0.262849        -7.1525
  33   0.0000      -0.034343        -0.9345
  34   0.0000       0.000728         0.0198
  35   0.0000       0.012098         0.3292
  36   0.0000       0.017994         0.4896
  37   0.0000       0.018675         0.5082

MULLIKEN ATOMIC CHARGES
-----------------------
   0 C :   -0.289461
   1 C :    0.054471
   2 H :    0.025016
   3 H :    0.042955
   4 S :    1.309424
   5 O :   -0.631085
   6 O :   -0.612433
   7 C :    0.826467
   8 H :   -0.011964
   9 H :   -0.116968
  10 F :   -0.377480
  11 H :   -0.167445
  12 H :   -0.030081
  13 H :   -0.021415
Sum of atomic charges:   -0.0000000

LOEWDIN ATOMIC CHARGES
----------------------
   0 C :   -0.086616
   1 C :   -0.043548
   2 H :    0.032102
   3 H :    0.018035
   4 S :    1.072569
   5 O :   -0.460964
   6 O :   -0.435108
   7 C :    0.139925
   8 H :    0.025503
   9 H :    0.032038
  10 F :   -0.250299
  11 H :   -0.027667
  12 H :   -0.010001
  13 H :   -0.005968

  Mayer bond orders larger than 0.100000
B(  0-C ,  1-C ) :   1.3225 B(  0-C ,  2-H ) :   0.1367 B(  0-C ,  3-H ) :   0.1497
B(  0-C ,  7-C ) :   1.3441 B(  0-C ,  8-H ) :   0.8792 B(  0-C ,  9-H ) :   0.8507
B(  0-C , 11-H ) :   0.2190 B(  0-C , 12-H ) :   0.2276 B(  0-C , 13-H ) :   0.2304
B(  1-C ,  2-H ) :   0.8953 B(  1-C ,  3-H ) :   0.8640 B(  1-C ,  4-S ) :   0.9379
B(  1-C ,  8-H ) :   0.1414 B(  1-C ,  9-H ) :   0.1614 B(  4-S ,  5-O ) :   1.5057
B(  4-S ,  6-O ) :   1.5784 B(  4-S , 10-F ) :   0.6839 B(  7-C , 11-H ) :   0.8178
B(  7-C , 12-H ) :   0.7118 B(  7-C , 13-H ) :   0.7573

Dispersion correction           -0.012635059
FINAL SINGLE POINT ENERGY      -765.997398451010

DIPOLE MOMENT
-------------
                                X             Y             Z
Electronic contribution:      3.45470      -7.90171      -8.51671
Nuclear contribution   :     -4.74391       8.77281       9.40225
                        -----------------------------------------
Total Dipole Moment    :     -1.28922       0.87109       0.88555
                        -----------------------------------------
Magnitude (a.u.)       :      1.79027
Magnitude (Debye)      :      4.55051

Rotational constants in cm-1:     0.129476     0.053470     0.050698
Rotational constants in MHz :  3881.594668  1602.990831  1519.898630

                             ****ORCA TERMINATED NORMALLY****
TOTAL RUN TIME: 0 days 0 hours 0 minutes 5 seconds 977 msec
