                         Program Version 5.0.0 -  RELEASE  -
|  1> !PBE D3BJ RIJCOSX def2-SVPD def2/J TightSCF xyzfile
|  2>
|  3> *xyzfile 0 1 D1.xyz
|  4>
|  5> %MaxCore 64000
|  6>
|  7> %pal nprocs 4
|  8> end
|  9>
| 10> %scf
| 11>   MaxIter 150
| 12> end
| 13>
| 14>
| 15>                          ****END OF INPUT****

CARTESIAN COORDINATES (ANGSTROEM)
---------------------------------
  C      2.916324   -1.242589   -1.543125
  C      0.704661    1.443129   -4.503630
  C      1.728539    1.424320   -5.639443
  H      2.646718    1.953794   -5.381054
  H      1.299916    1.930613   -6.503614
  S      2.252625   -0.188115   -6.271840
  C      3.466585   -1.590971   -2.889082
  C      4.652275   -1.143164   -3.259692
  N      2.752264   -2.292043   -3.728029
  H      1.778364   -2.489604   -3.512738
  H      2.948612   -2.208544   -4.716813
  H      5.146723   -0.512508   -2.633852
  H      4.783030   -1.007203   -4.253498
  F      3.562607   -0.444464   -5.631552
  O      2.344944   -0.033742   -7.696501
  C      2.804084    0.290698   -1.359243
  C      1.052550    0.695659   -3.214915
  H     -0.232483    1.032925   -4.884449
  H      0.511700    2.495794   -4.267966
  C      2.388380    1.093669   -2.597108
  H      3.763425    0.674718   -0.999889
  H      2.094788    0.461222   -0.545756
  O      1.266058   -1.159177   -5.805365
  H      3.167316    1.013242   -3.359430
  H      2.357690    2.149375   -2.310997
  H      1.039284   -0.368429   -3.449329
  H      0.250787    0.865605   -2.488283
  H      1.940472   -1.716529   -1.441161
  H      3.558569   -1.663433   -0.766371

 Total Charge           Charge          ....    0
 Multiplicity           Mult            ....    1
 Number of Electrons    NEL             ....  112
 Basis Dimension        Dim             ....  404

ORBITAL ENERGIES
----------------

  NO   OCC          E(Eh)            E(eV)
   0   2.0000     -88.317076     -2403.2298
   1   2.0000     -24.378787      -663.3805
   2   2.0000     -18.787791      -511.2418
   3   2.0000     -18.784258      -511.1456
   4   2.0000     -13.998791      -380.9265
   5   2.0000      -9.958913      -270.9958
   6   2.0000      -9.926711      -270.1195
   7   2.0000      -9.912355      -269.7289
   8   2.0000      -9.904763      -269.5223
   9   2.0000      -9.902146      -269.4511
  10   2.0000      -9.900116      -269.3958
  11   2.0000      -9.900064      -269.3944
  12   2.0000      -9.824957      -267.3507
  13   2.0000      -7.921084      -215.5436
  14   2.0000      -5.952296      -161.9702
  15   2.0000      -5.946100      -161.8016
  16   2.0000      -5.944402      -161.7554
  17   2.0000      -1.251178       -34.0463
  18   2.0000      -1.034603       -28.1530
  19   2.0000      -0.942964       -25.6593
  20   2.0000      -0.848384       -23.0857
  21   2.0000      -0.763388       -20.7728
  22   2.0000      -0.727726       -19.8024
  23   2.0000      -0.691329       -18.8120
  24   2.0000      -0.663815       -18.0633
  25   2.0000      -0.632003       -17.1977
  26   2.0000      -0.620071       -16.8730
  27   2.0000      -0.573006       -15.5923
  28   2.0000      -0.538487       -14.6530
  29   2.0000      -0.518537       -14.1101
  30   2.0000      -0.511148       -13.9090
  31   2.0000      -0.506906       -13.7936
  32   2.0000      -0.493733       -13.4352
  33   2.0000      -0.465634       -12.6705
  34   2.0000      -0.450704       -12.2643
  35   2.0000      -0.444369       -12.0919
  36   2.0000      -0.429121       -11.6770
  37   2.0000      -0.425708       -11.5841
  38   2.0000      -0.413274       -11.2457
  39   2.0000      -0.399424       -10.8689
  40   2.0000      -0.389406       -10.5963
  41   2.0000      -0.379682       -10.3317
  42   2.0000      -0.355969        -9.6864
  43   2.0000      -0.350928        -9.5492
  44   2.0000      -0.344706        -9.3799
  45   2.0000      -0.338951        -9.2233
  46   2.0000      -0.333275        -9.0689
  47   2.0000      -0.317397        -8.6368
  48   2.0000      -0.310784        -8.4569
  49   2.0000      -0.300394        -8.1741
  50   2.0000      -0.298941        -8.1346
  51   2.0000      -0.288801        -7.8587
  52   2.0000      -0.285205        -7.7608
  53   2.0000      -0.279279        -7.5996
  54   2.0000      -0.277687        -7.5563
  55   2.0000      -0.158493        -4.3128
  56   0.0000      -0.028892        -0.7862
  57   0.0000      -0.013400        -0.3646
  58   0.0000      -0.006042        -0.1644
  59   0.0000       0.000699         0.0190
  60   0.0000       0.003440         0.0936

MULLIKEN ATOMIC CHARGES
-----------------------
   0 C :    0.607185
   1 C :    0.525666
   2 C :    0.130046
   3 H :    0.148063
   4 H :   -0.240514
   5 S :    1.408527
   6 C :   -0.533994
   7 C :    0.627041
   8 N :    0.392872
   9 H :   -0.022323
  10 H :   -0.188923
  11 H :    0.059350
  12 H :   -0.629946
  13 F :   -0.538959
  14 O :   -0.599722
  15 C :    0.356998
  16 C :    0.210294
  17 H :    0.033621
  18 H :   -0.056236
  19 C :   -0.057641
  20 H :   -0.001439
  21 H :   -0.139705
  22 O :   -0.751585
  23 H :   -0.011001
  24 H :   -0.181326
  25 H :   -0.308893
  26 H :   -0.089818
  27 H :    0.097002
  28 H :   -0.244641
Sum of atomic charges:   -0.0000000

LOEWDIN ATOMIC CHARGES
----------------------
   0 C :    0.026436
   1 C :   -0.027536
   2 C :   -0.035968
   3 H :    0.016949
   4 H :    0.022964
   5 S :    1.093734
   6 C :   -0.258420
   7 C :    0.173604
   8 N :    0.206212
   9 H :    0.005632
  10 H :   -0.041548
  11 H :   -0.071756
  12 H :   -0.118247
  13 F :   -0.269734
  14 O :   -0.421268
  15 C :   -0.009818
  16 C :   -0.019547
  17 H :    0.033174
  18 H :    0.036319
  19 C :   -0.027073
  20 H :    0.021010
  21 H :    0.018831
  22 O :   -0.438461
  23 H :   -0.004805
  24 H :    0.027716
  25 H :   -0.014187
  26 H :    0.034606
  27 H :    0.012413
  28 H :    0.028768

  Mayer bond orders larger than 0.100000
B(  0-C ,  6-C ) :   1.2915 B(  0-C ,  8-N ) :   0.1315 B(  0-C , 15-C ) :   1.1486
B(  0-C , 19-C ) :   0.1103 B(  0-C , 20-H ) :   0.1108 B(  0-C , 21-H ) :   0.2004
B(  0-C , 27-H ) :   0.5416 B(  0-C , 28-H ) :   0.6854 B(  1-C ,  2-C ) :   1.2558
B(  1-C ,  3-H ) :   0.1055 B(  1-C ,  4-H ) :   0.2221 B(  1-C , 16-C ) :   1.2713
B(  1-C , 17-H ) :   0.6260 B(  1-C , 18-H ) :   0.6961 B(  2-C ,  3-H ) :   0.8342
B(  2-C ,  4-H ) :   0.8730 B(  2-C ,  5-S ) :   0.9351 B(  2-C , 17-H ) :   0.1277
B(  2-C , 18-H ) :   0.1746 B(  5-S , 13-F ) :   0.6555 B(  5-S , 14-O ) :   1.5729
B(  5-S , 22-O ) :   1.4801 B(  6-C ,  7-C ) :   2.0921 B(  6-C ,  8-N ) :   0.9941
B(  6-C , 11-H ) :   0.1220 B(  6-C , 12-H ) :   0.3800 B(  6-C , 27-H ) :   0.2966
B(  6-C , 28-H ) :   0.2600 B(  7-C ,  8-N ) :   0.4043 B(  7-C , 11-H ) :   0.5630
B(  7-C , 12-H ) :   0.3982 B(  8-N ,  9-H ) :   0.8935 B(  8-N , 10-H ) :   0.9455
B(  8-N , 11-H ) :   0.1691 B(  9-H , 10-H ) :  -0.1411 B( 10-H , 12-H ) :   0.1080
B( 12-H , 13-F ) :   0.2881 B( 15-C , 19-C ) :   1.2458 B( 15-C , 20-H ) :   0.6514
B( 15-C , 21-H ) :   0.7956 B( 15-C , 23-H ) :   0.2057 B( 15-C , 24-H ) :   0.1042
B( 15-C , 27-H ) :   0.1482 B( 16-C , 17-H ) :   0.2878 B( 16-C , 18-H ) :   0.1069
B( 16-C , 19-C ) :   1.2627 B( 16-C , 23-H ) :   0.1518 B( 16-C , 24-H ) :   0.1848
B( 16-C , 25-H ) :   0.8894 B( 16-C , 26-H ) :   0.6696 B( 17-H , 18-H ) :  -0.1157
B( 19-C , 20-H ) :   0.2902 B( 19-C , 21-H ) :   0.2038 B( 19-C , 23-H ) :   0.8095
B( 19-C , 24-H ) :   0.8181 B( 19-C , 25-H ) :   0.1568 B( 19-C , 26-H ) :   0.2324
B( 20-H , 21-H ) :  -0.1415

Dispersion correction           -0.036536314
FINAL SINGLE POINT ENERGY     -1016.183654593581

DIPOLE MOMENT
-------------
                                X             Y             Z
Electronic contribution:      2.13636      -5.00135     -18.60614
Nuclear contribution   :     -2.89481       6.29550      19.36835
                        -----------------------------------------
Total Dipole Moment    :     -0.75845       1.29415       0.76222
                        -----------------------------------------
Magnitude (a.u.)       :      1.68257
Magnitude (Debye)      :      4.27676

Rotational constants in cm-1:     0.036515     0.018832     0.015081
Rotational constants in MHz :  1094.679513   564.567051   452.109105

                             ****ORCA TERMINATED NORMALLY****
TOTAL RUN TIME: 0 days 0 hours 0 minutes 39 seconds 954 msec
