                         Program Version 5.0.0 -  RELEASE  -
|  1> !PBE D3BJ RIJCOSX def2-SVPD def2/J TightSCF xyzfile
|  2>
|  3> *xyzfile 0 1 D2.xyz
|  4>
|  5> %MaxCore 64000
|  6>
|  7> %pal nprocs 4
|  8> end
|  9>
| 10> %scf
| 11>   MaxIter 150
| 12> end
| 13>
| 14>
| 15>                          ****END OF INPUT****

CARTESIAN COORDINATES (ANGSTROEM)
---------------------------------
  C      2.916324   -1.242589   -1.543125
  C      0.704661    1.443129   -4.503630
  C      1.728539    1.424320   -5.639443
  H      2.646718    1.953794   -5.381054
  H      1.299916    1.930613   -6.503614
  S      2.252625   -0.188115   -6.271840
  C      3.466585   -1.590971   -2.889082
  N      4.652275   -1.143164   -3.259692
  C      2.752264   -2.292043   -3.728029
  H      1.778364   -2.489604   -3.512738
  H      2.948612   -2.208544   -4.716813
  H      5.146723   -0.512508   -2.633852
  H      4.783030   -1.007203   -4.253498
  F      3.562607   -0.444464   -5.631552
  O      2.344944   -0.033742   -7.696501
  C      2.804084    0.290698   -1.359243
  C      1.052550    0.695659   -3.214915
  H     -0.232483    1.032925   -4.884449
  H      0.511700    2.495794   -4.267966
  C      2.388380    1.093669   -2.597108
  H      3.763425    0.674718   -0.999889
  H      2.094788    0.461222   -0.545756
  O      1.266058   -1.159177   -5.805365
  H      3.167316    1.013242   -3.359430
  H      2.357690    2.149375   -2.310997
  H      1.039284   -0.368429   -3.449329
  H      0.250787    0.865605   -2.488283
  H      1.940472   -1.716529   -1.441161
  H      3.558569   -1.663433   -0.766371

 Total Charge           Charge          ....    0
 Multiplicity           Mult            ....    1
 Number of Electrons    NEL             ....  112
 Basis Dimension        Dim             ....  404

ORBITAL ENERGIES
----------------

  NO   OCC          E(Eh)            E(eV)
   0   2.0000     -88.310849     -2403.0604
   1   2.0000     -24.376407      -663.3158
   2   2.0000     -18.782810      -511.1062
   3   2.0000     -18.773126      -510.8427
   4   2.0000     -14.001781      -381.0078
   5   2.0000      -9.955456      -270.9017
   6   2.0000      -9.922710      -270.0107
   7   2.0000      -9.909311      -269.6461
   8   2.0000      -9.905495      -269.5422
   9   2.0000      -9.903533      -269.4888
  10   2.0000      -9.898866      -269.3618
  11   2.0000      -9.897855      -269.3343
  12   2.0000      -9.826390      -267.3897
  13   2.0000      -7.914787      -215.3723
  14   2.0000      -5.946144      -161.8028
  15   2.0000      -5.939655      -161.6262
  16   2.0000      -5.938101      -161.5839
  17   2.0000      -1.248285       -33.9675
  18   2.0000      -1.027767       -27.9670
  19   2.0000      -0.934081       -25.4176
  20   2.0000      -0.847833       -23.0707
  21   2.0000      -0.759909       -20.6782
  22   2.0000      -0.726020       -19.7560
  23   2.0000      -0.689397       -18.7594
  24   2.0000      -0.662815       -18.0361
  25   2.0000      -0.642743       -17.4899
  26   2.0000      -0.613947       -16.7063
  27   2.0000      -0.566812       -15.4237
  28   2.0000      -0.536821       -14.6077
  29   2.0000      -0.513648       -13.9771
  30   2.0000      -0.509686       -13.8693
  31   2.0000      -0.502213       -13.6659
  32   2.0000      -0.492976       -13.4146
  33   2.0000      -0.474099       -12.9009
  34   2.0000      -0.444841       -12.1048
  35   2.0000      -0.443196       -12.0600
  36   2.0000      -0.430228       -11.7071
  37   2.0000      -0.417787       -11.3686
  38   2.0000      -0.406179       -11.0527
  39   2.0000      -0.398527       -10.8445
  40   2.0000      -0.390666       -10.6306
  41   2.0000      -0.374097       -10.1797
  42   2.0000      -0.362004        -9.8506
  43   2.0000      -0.345590        -9.4040
  44   2.0000      -0.342846        -9.3293
  45   2.0000      -0.339950        -9.2505
  46   2.0000      -0.326676        -8.8893
  47   2.0000      -0.316446        -8.6109
  48   2.0000      -0.306296        -8.3348
  49   2.0000      -0.295345        -8.0368
  50   2.0000      -0.291150        -7.9226
  51   2.0000      -0.288706        -7.8561
  52   2.0000      -0.281052        -7.6478
  53   2.0000      -0.275931        -7.5085
  54   2.0000      -0.270545        -7.3619
  55   2.0000      -0.165076        -4.4920
  56   0.0000      -0.029511        -0.8030
  57   0.0000      -0.013467        -0.3665
  58   0.0000      -0.004994        -0.1359
  59   0.0000      -0.002781        -0.0757
  60   0.0000       0.013386         0.3642

MULLIKEN ATOMIC CHARGES
-----------------------
   0 C :    0.465956
   1 C :    0.498879
   2 C :    0.123977
   3 H :    0.174651
   4 H :   -0.244799
   5 S :    1.351946
   6 C :   -0.634064
   7 N :    0.405590
   8 C :    0.738107
   9 H :   -0.060943
  10 H :   -0.483231
  11 H :   -0.040614
  12 H :   -0.250403
  13 F :   -0.496043
  14 O :   -0.601450
  15 C :    0.478020
  16 C :    0.221059
  17 H :    0.024273
  18 H :   -0.060858
  19 C :   -0.121918
  20 H :   -0.017929
  21 H :   -0.131525
  22 O :   -0.722664
  23 H :    0.037908
  24 H :   -0.238930
  25 H :   -0.367279
  26 H :   -0.056782
  27 H :    0.292568
  28 H :   -0.283501
Sum of atomic charges:   -0.0000000

LOEWDIN ATOMIC CHARGES
----------------------
   0 C :    0.025458
   1 C :   -0.027451
   2 C :   -0.038680
   3 H :    0.013584
   4 H :    0.022315
   5 S :    1.094839
   6 C :   -0.266504
   7 N :    0.203284
   8 C :    0.171714
   9 H :   -0.061953
  10 H :   -0.114899
  11 H :    0.004026
  12 H :   -0.038196
  13 F :   -0.274956
  14 O :   -0.423549
  15 C :   -0.014304
  16 C :   -0.015499
  17 H :    0.034017
  18 H :    0.034683
  19 C :   -0.029482
  20 H :    0.013571
  21 H :    0.020396
  22 O :   -0.422312
  23 H :   -0.007772
  24 H :    0.026881
  25 H :   -0.010146
  26 H :    0.034779
  27 H :    0.024055
  28 H :    0.022102

  Mayer bond orders larger than 0.100000
B(  0-C ,  6-C ) :   1.3449 B(  0-C ,  8-C ) :   0.1212 B(  0-C , 15-C ) :   1.1457
B(  0-C , 20-H ) :   0.1367 B(  0-C , 21-H ) :   0.2130 B(  0-C , 27-H ) :   0.7521
B(  0-C , 28-H ) :   0.5506 B(  1-C ,  2-C ) :   1.2587 B(  1-C ,  3-H ) :   0.1063
B(  1-C ,  4-H ) :   0.2258 B(  1-C , 16-C ) :   1.2823 B(  1-C , 17-H ) :   0.6311
B(  1-C , 18-H ) :   0.7055 B(  2-C ,  3-H ) :   0.8230 B(  2-C ,  4-H ) :   0.8671
B(  2-C ,  5-S ) :   0.9235 B(  2-C , 17-H ) :   0.1319 B(  2-C , 18-H ) :   0.1724
B(  5-S , 13-F ) :   0.6412 B(  5-S , 14-O ) :   1.5592 B(  5-S , 22-O ) :   1.5281
B(  6-C ,  7-N ) :   0.9523 B(  6-C ,  8-C ) :   1.9399 B(  6-C ,  9-H ) :   0.1273
B(  6-C , 10-H ) :   0.5398 B(  6-C , 15-C ) :   0.2197 B(  6-C , 28-H ) :   0.4189
B(  7-N ,  8-C ) :   0.4856 B(  7-N ,  9-H ) :   0.1387 B(  7-N , 11-H ) :   0.9837
B(  7-N , 12-H ) :   0.8941 B(  8-C ,  9-H ) :   0.6000 B(  8-C , 10-H ) :   0.1053
B(  8-C , 27-H ) :  -0.1061 B( 10-H , 12-H ) :   0.1714 B( 11-H , 12-H ) :  -0.1557
B( 12-H , 13-F ) :   0.1529 B( 13-F , 22-O ) :   0.1012 B( 15-C , 19-C ) :   1.2380
B( 15-C , 20-H ) :   0.6341 B( 15-C , 21-H ) :   0.7687 B( 15-C , 23-H ) :   0.1303
B( 15-C , 24-H ) :   0.1026 B( 15-C , 27-H ) :   0.1195 B( 16-C , 17-H ) :   0.2806
B( 16-C , 18-H ) :   0.1025 B( 16-C , 19-C ) :   1.2925 B( 16-C , 23-H ) :   0.1424
B( 16-C , 24-H ) :   0.1732 B( 16-C , 25-H ) :   0.9413 B( 16-C , 26-H ) :   0.6367
B( 17-H , 18-H ) :  -0.1154 B( 19-C , 20-H ) :   0.2937 B( 19-C , 21-H ) :   0.1882
B( 19-C , 23-H ) :   0.8292 B( 19-C , 24-H ) :   0.8477 B( 19-C , 25-H ) :   0.1616
B( 19-C , 26-H ) :   0.2127 B( 20-H , 21-H ) :  -0.1452

Dispersion correction           -0.036591106
FINAL SINGLE POINT ENERGY     -1016.183052247815

DIPOLE MOMENT
-------------
                                X             Y             Z
Electronic contribution:      3.45382      -4.29879     -18.26946
Nuclear contribution   :     -3.13969       6.14743      19.30799
                        -----------------------------------------
Total Dipole Moment    :      0.31413       1.84865       1.03854
                        -----------------------------------------
Magnitude (a.u.)       :      2.14353
Magnitude (Debye)      :      5.44843

Rotational constants in cm-1:     0.036460     0.018762     0.015014
Rotational constants in MHz :  1093.039020   562.475626   450.105862

                             ****ORCA TERMINATED NORMALLY****
TOTAL RUN TIME: 0 days 0 hours 0 minutes 39 seconds 682 msec
