                         Program Version 5.0.0 -  RELEASE  -
|  1> !PBE D3BJ RIJCOSX def2-SVPD def2/J TightSCF xyzfile
|  2>
|  3> *xyzfile 0 1 D6.xyz
|  4>
|  5> %MaxCore 64000
|  6>
|  7> %pal nprocs 4
|  8> end
|  9>
| 10> %scf
| 11>   MaxIter 150
| 12> end
| 13>
| 14>
| 15>                          ****END OF INPUT****

CARTESIAN COORDINATES (ANGSTROEM)
---------------------------------
  C      2.916324   -1.242589   -1.543125
  C      0.704661    1.443129   -4.503630
  C      1.728539    1.424320   -5.639443
  H      2.646718    1.953794   -5.381054
  H      1.299916    1.930613   -6.503614
  S      2.252625   -0.188115   -6.271840
  C      3.466585   -1.590971   -2.889082
  N      4.652275   -1.143164   -3.259692
  C      2.752264   -2.292043   -3.728029
  H      1.778364   -2.489604   -3.512738
  H      2.948612   -2.208544   -4.716813
  H      5.146723   -0.512508   -2.633852
  H      4.783030   -1.007203   -4.253498
  O      3.562607   -0.444464   -5.631552
  O      2.344944   -0.033742   -7.696501
  C      2.804084    0.290698   -1.359243
  C      1.052550    0.695659   -3.214915
  H     -0.232483    1.032925   -4.884449
  H      0.511700    2.495794   -4.267966
  C      2.388380    1.093669   -2.597108
  H      3.763425    0.674718   -0.999889
  H      2.094788    0.461222   -0.545756
  F      1.266058   -1.159177   -5.805365
  H      3.167316    1.013242   -3.359430
  H      2.357690    2.149375   -2.310997
  H      1.039284   -0.368429   -3.449329
  H      0.250787    0.865605   -2.488283
  H      1.940472   -1.716529   -1.441161
  H      3.558569   -1.663433   -0.766371

 Total Charge           Charge          ....    0
 Multiplicity           Mult            ....    1
 Number of Electrons    NEL             ....  112
 Basis Dimension        Dim             ....  404

ORBITAL ENERGIES
----------------

  NO   OCC          E(Eh)            E(eV)
   0   2.0000     -88.316408     -2403.2116
   1   2.0000     -24.381208      -663.4464
   2   2.0000     -18.785630      -511.1830
   3   2.0000     -18.772499      -510.8257
   4   2.0000     -13.984688      -380.5427
   5   2.0000      -9.957255      -270.9507
   6   2.0000      -9.929111      -270.1848
   7   2.0000      -9.904540      -269.5162
   8   2.0000      -9.902471      -269.4599
   9   2.0000      -9.901970      -269.4463
  10   2.0000      -9.899873      -269.3892
  11   2.0000      -9.893198      -269.2076
  12   2.0000      -9.819313      -267.1971
  13   2.0000      -7.920008      -215.5144
  14   2.0000      -5.951257      -161.9419
  15   2.0000      -5.945158      -161.7760
  16   2.0000      -5.943222      -161.7233
  17   2.0000      -1.258231       -34.2382
  18   2.0000      -1.027692       -27.9649
  19   2.0000      -0.930287       -25.3144
  20   2.0000      -0.832844       -22.6628
  21   2.0000      -0.764133       -20.7931
  22   2.0000      -0.723786       -19.6952
  23   2.0000      -0.685579       -18.6556
  24   2.0000      -0.659400       -17.9432
  25   2.0000      -0.640267       -17.4225
  26   2.0000      -0.610862       -16.6224
  27   2.0000      -0.569771       -15.5043
  28   2.0000      -0.537230       -14.6188
  29   2.0000      -0.520280       -14.1575
  30   2.0000      -0.513472       -13.9723
  31   2.0000      -0.503810       -13.7094
  32   2.0000      -0.486327       -13.2336
  33   2.0000      -0.458909       -12.4876
  34   2.0000      -0.446750       -12.1567
  35   2.0000      -0.442918       -12.0524
  36   2.0000      -0.427163       -11.6237
  37   2.0000      -0.416728       -11.3397
  38   2.0000      -0.410279       -11.1643
  39   2.0000      -0.397394       -10.8136
  40   2.0000      -0.392305       -10.6752
  41   2.0000      -0.372246       -10.1293
  42   2.0000      -0.360790        -9.8176
  43   2.0000      -0.349345        -9.5062
  44   2.0000      -0.342607        -9.3228
  45   2.0000      -0.338486        -9.2107
  46   2.0000      -0.324237        -8.8229
  47   2.0000      -0.318563        -8.6685
  48   2.0000      -0.307307        -8.3622
  49   2.0000      -0.293984        -7.9997
  50   2.0000      -0.289762        -7.8848
  51   2.0000      -0.285795        -7.7769
  52   2.0000      -0.282132        -7.6772
  53   2.0000      -0.266994        -7.2653
  54   2.0000      -0.262587        -7.1453
  55   2.0000      -0.156728        -4.2648
  56   0.0000      -0.035664        -0.9705
  57   0.0000      -0.007209        -0.1962
  58   0.0000      -0.000676        -0.0184
  59   0.0000       0.006294         0.1713
  60   0.0000       0.009513         0.2589

MULLIKEN ATOMIC CHARGES
-----------------------
   0 C :    0.469106
   1 C :    0.475648
   2 C :    0.144184
   3 H :    0.152171
   4 H :   -0.213106
   5 S :    1.266154
   6 C :   -0.618796
   7 N :    0.405494
   8 C :    0.693545
   9 H :   -0.027873
  10 H :   -0.520889
  11 H :   -0.035436
  12 H :   -0.268784
  13 O :   -0.654342
  14 O :   -0.593116
  15 C :    0.479676
  16 C :    0.221210
  17 H :    0.005891
  18 H :   -0.054256
  19 C :   -0.117971
  20 H :   -0.010618
  21 H :   -0.137105
  22 F :   -0.433438
  23 H :    0.050344
  24 H :   -0.234849
  25 H :   -0.379560
  26 H :   -0.065673
  27 H :    0.285999
  28 H :   -0.283609
Sum of atomic charges:    0.0000000

LOEWDIN ATOMIC CHARGES
----------------------
   0 C :    0.023678
   1 C :   -0.036197
   2 C :   -0.031425
   3 H :    0.026493
   4 H :    0.017788
   5 S :    1.111630
   6 C :   -0.263080
   7 N :    0.214212
   8 C :    0.159645
   9 H :   -0.073003
  10 H :   -0.121487
  11 H :    0.003136
  12 H :   -0.053045
  13 O :   -0.452844
  14 O :   -0.419840
  15 C :   -0.014252
  16 C :   -0.018604
  17 H :    0.028561
  18 H :    0.034926
  19 C :   -0.024211
  20 H :    0.014514
  21 H :    0.018597
  22 F :   -0.236011
  23 H :   -0.002223
  24 H :    0.027003
  25 H :   -0.011282
  26 H :    0.034345
  27 H :    0.021141
  28 H :    0.021836

  Mayer bond orders larger than 0.100000
B(  0-C ,  6-C ) :   1.3496 B(  0-C ,  8-C ) :   0.1184 B(  0-C , 15-C ) :   1.1435
B(  0-C , 20-H ) :   0.1359 B(  0-C , 21-H ) :   0.2212 B(  0-C , 27-H ) :   0.7533
B(  0-C , 28-H ) :   0.5455 B(  1-C ,  2-C ) :   1.2588 B(  1-C ,  4-H ) :   0.2330
B(  1-C , 16-C ) :   1.2801 B(  1-C , 17-H ) :   0.6364 B(  1-C , 18-H ) :   0.6992
B(  2-C ,  3-H ) :   0.8461 B(  2-C ,  4-H ) :   0.8616 B(  2-C ,  5-S ) :   0.9546
B(  2-C , 17-H ) :   0.1194 B(  2-C , 18-H ) :   0.1771 B(  5-S , 13-O ) :   1.4334
B(  5-S , 14-O ) :   1.5660 B(  5-S , 22-F ) :   0.6842 B(  6-C ,  7-N ) :   0.9787
B(  6-C ,  8-C ) :   1.9577 B(  6-C ,  9-H ) :   0.1371 B(  6-C , 10-H ) :   0.5427
B(  6-C , 15-C ) :   0.2201 B(  6-C , 28-H ) :   0.4132 B(  7-N ,  8-C ) :   0.4831
B(  7-N ,  9-H ) :   0.1412 B(  7-N , 11-H ) :   0.9607 B(  7-N , 12-H ) :   0.8952
B(  8-C ,  9-H ) :   0.5676 B(  8-C , 27-H ) :  -0.1025 B( 10-H , 12-H ) :   0.1636
B( 11-H , 12-H ) :  -0.1537 B( 12-H , 13-O ) :   0.1307 B( 13-O , 14-O ) :   0.1075
B( 15-C , 19-C ) :   1.2433 B( 15-C , 20-H ) :   0.6311 B( 15-C , 21-H ) :   0.7675
B( 15-C , 23-H ) :   0.1295 B( 15-C , 24-H ) :   0.1017 B( 15-C , 27-H ) :   0.1219
B( 16-C , 17-H ) :   0.2719 B( 16-C , 18-H ) :   0.1091 B( 16-C , 19-C ) :   1.3004
B( 16-C , 23-H ) :   0.1456 B( 16-C , 24-H ) :   0.1782 B( 16-C , 25-H ) :   0.9306
B( 16-C , 26-H ) :   0.6434 B( 17-H , 18-H ) :  -0.1217 B( 19-C , 20-H ) :   0.2909
B( 19-C , 21-H ) :   0.1868 B( 19-C , 23-H ) :   0.8362 B( 19-C , 24-H ) :   0.8284
B( 19-C , 25-H ) :   0.1699 B( 19-C , 26-H ) :   0.2050 B( 20-H , 21-H ) :  -0.1459

Dispersion correction           -0.036669350
FINAL SINGLE POINT ENERGY     -1016.180544143099

DIPOLE MOMENT
-------------
                                X             Y             Z
Electronic contribution:     -0.37206      -5.37087     -18.68798
Nuclear contribution   :     -0.51418       6.96452      19.50670
                        -----------------------------------------
Total Dipole Moment    :     -0.88624       1.59365       0.81873
                        -----------------------------------------
Magnitude (a.u.)       :      1.99886
Magnitude (Debye)      :      5.08070

Rotational constants in cm-1:     0.036455     0.018603     0.015008
Rotational constants in MHz :  1092.895336   557.693628   449.926016

                             ****ORCA TERMINATED NORMALLY****
TOTAL RUN TIME: 0 days 0 hours 0 minutes 39 seconds 564 msec
