                         Program Version 5.0.0 -  RELEASE  -
|  1> !LC-PBE RIJCOSX def2-SVPD def2/J TightSCF
|  2> *xyz -1 1
|  3> C          0.96805        1.63064       -3.71575
|  4> C         -0.50835        1.72268       -4.12430
|  5> S         -1.32861        0.14674       -4.43578
|  6> H         -0.59151        2.29496       -5.04722
|  7> H         -1.11411        2.23561       -3.37436
|  8> O         -2.57135        0.47573       -5.06834
|  9> O         -1.51496       -0.40051       -3.06342
| 10> O         -0.37793       -0.62756       -5.20114
| 11> H          1.51840        1.12197       -4.47946
| 12> H          1.05062        1.08971       -2.79625
| 13> H          1.36450        2.61606       -3.58668
| 14> *
| 15> %MaxCore 64000
| 16>
| 17> %pal nprocs 4
| 18> end
| 19>
| 20> %scf
| 21>   MaxIter 150
| 22> end
| 23>
| 24>
| 25>                          ****END OF INPUT****

CARTESIAN COORDINATES (ANGSTROEM)
---------------------------------
  C      0.968050    1.630640   -3.715750
  C     -0.508350    1.722680   -4.124300
  S     -1.328610    0.146740   -4.435780
  H     -0.591510    2.294960   -5.047220
  H     -1.114110    2.235610   -3.374360
  O     -2.571350    0.475730   -5.068340
  O     -1.514960   -0.400510   -3.063420
  O     -0.377930   -0.627560   -5.201140
  H      1.518400    1.121970   -4.479460
  H      1.050620    1.089710   -2.796250
  H      1.364500    2.616060   -3.586680

 Total Charge           Charge          ....   -1
 Multiplicity           Mult            ....    1
 Number of Electrons    NEL             ....   58
 Basis Dimension        Dim             ....  176

ORBITAL ENERGIES
----------------

  NO   OCC          E(Eh)            E(eV)
   0   2.0000     -88.314904     -2403.1707
   1   2.0000     -18.779785      -511.0239
   2   2.0000     -18.776044      -510.9221
   3   2.0000     -18.759650      -510.4760
   4   2.0000      -9.992145      -271.9001
   5   2.0000      -9.984883      -271.7025
   6   2.0000      -7.936854      -215.9728
   7   2.0000      -5.959192      -162.1579
   8   2.0000      -5.958978      -162.1520
   9   2.0000      -5.958844      -162.1484
  10   2.0000      -1.112971       -30.2855
  11   2.0000      -0.961916       -26.1751
  12   2.0000      -0.930454       -25.3189
  13   2.0000      -0.805102       -21.9079
  14   2.0000      -0.670208       -18.2373
  15   2.0000      -0.534048       -14.5322
  16   2.0000      -0.471921       -12.8416
  17   2.0000      -0.465085       -12.6556
  18   2.0000      -0.427008       -11.6195
  19   2.0000      -0.415250       -11.2995
  20   2.0000      -0.401824       -10.9342
  21   2.0000      -0.367345        -9.9960
  22   2.0000      -0.347637        -9.4597
  23   2.0000      -0.297906        -8.1064
  24   2.0000      -0.295764        -8.0481
  25   2.0000      -0.258728        -7.0403
  26   2.0000      -0.243455        -6.6247
  27   2.0000      -0.230085        -6.2609
  28   2.0000      -0.200596        -5.4585
  29   0.0000       0.206063         5.6073
  30   0.0000       0.225748         6.1429
  31   0.0000       0.228277         6.2117
  32   0.0000       0.234396         6.3782
  33   0.0000       0.256758         6.9868

MULLIKEN ATOMIC CHARGES
-----------------------
   0 C :    0.504700
   1 C :   -0.478174
   2 S :    1.218056
   3 H :    0.033917
   4 H :    0.032483
   5 O :   -0.737106
   6 O :   -0.806728
   7 O :   -0.764195
   8 H :    0.014470
   9 H :    0.007100
  10 H :   -0.024522
Sum of atomic charges:   -1.0000000

LOEWDIN ATOMIC CHARGES
----------------------
   0 C :    0.074904
   1 C :   -0.158570
   2 S :    0.835509
   3 H :    0.010267
   4 H :    0.017136
   5 O :   -0.566808
   6 O :   -0.601346
   7 O :   -0.570345
   8 H :   -0.013287
   9 H :   -0.005263
  10 H :   -0.022197

  Mayer bond orders larger than 0.100000
B(  0-C ,  1-C ) :   1.2709 B(  0-C ,  8-H ) :   0.8637 B(  0-C ,  9-H ) :   0.8616
B(  0-C , 10-H ) :   0.8063 B(  1-C ,  2-S ) :   0.9463 B(  1-C ,  3-H ) :   1.0071
B(  1-C ,  4-H ) :   0.9969 B(  1-C ,  8-H ) :   0.1615 B(  1-C ,  9-H ) :   0.1560
B(  1-C , 10-H ) :   0.1627 B(  2-S ,  5-O ) :   1.3941 B(  2-S ,  6-O ) :   1.3021
B(  2-S ,  7-O ) :   1.3409

FINAL SINGLE POINT ENERGY      -701.576970961090

DIPOLE MOMENT
-------------
                                X             Y             Z
Electronic contribution:     -5.51039      -5.16847      -1.92117
Nuclear contribution   :      6.64523       6.80157       2.07300
                        -----------------------------------------
Total Dipole Moment    :      1.13484       1.63310       0.15183
                        -----------------------------------------
Magnitude (a.u.)       :      1.99447
Magnitude (Debye)      :      5.06955

Rotational constants in cm-1:     0.163070     0.082807     0.081541
Rotational constants in MHz :  4888.719902  2482.497026  2444.541148

                             ****ORCA TERMINATED NORMALLY****
TOTAL RUN TIME: 0 days 0 hours 0 minutes 22 seconds 249 msec
