                         Program Version 5.0.0 -  RELEASE  -
|  1> !LC-PBE RIJCOSX def2-SVPD def2/J TightSCF
|  2> *xyz 1 1
|  3> C          1.36401        0.46874       -2.81376
|  4> N          0.42884        0.32140       -1.65531
|  5> C          0.96805        1.63064       -3.71575
|  6> H          0.74858       -0.40054       -1.00134
|  7> H         -0.46105        0.02333       -2.07773
|  8> H          0.31026        1.20137       -1.13495
|  9> H          1.29485       -0.46874       -3.36468
| 10> H          2.37622        0.59740       -2.43149
| 11> H          1.65923        1.70213       -4.52942
| 12> H          0.98421        2.54058       -3.15304
| 13> H         -0.01744        1.46536       -4.09838
| 14> *
| 15> %MaxCore 64000
| 16>
| 17> %pal nprocs 4
| 18> end
| 19>
| 20> %scf
| 21>   MaxIter 150
| 22> end
| 23>
| 24>
| 25>                          ****END OF INPUT****

CARTESIAN COORDINATES (ANGSTROEM)
---------------------------------
  C      1.364010    0.468740   -2.813760
  N      0.428840    0.321400   -1.655310
  C      0.968050    1.630640   -3.715750
  H      0.748580   -0.400540   -1.001340
  H     -0.461050    0.023330   -2.077730
  H      0.310260    1.201370   -1.134950
  H      1.294850   -0.468740   -3.364680
  H      2.376220    0.597400   -2.431490
  H      1.659230    1.702130   -4.529420
  H      0.984210    2.540580   -3.153040
  H     -0.017440    1.465360   -4.098380

 Total Charge           Charge          ....    1
 Multiplicity           Mult            ....    1
 Number of Electrons    NEL             ....   26
 Basis Dimension        Dim             ....  124

ORBITAL ENERGIES
----------------

  NO   OCC          E(Eh)            E(eV)
   0   2.0000     -14.565955      -396.3598
   1   2.0000     -10.383634      -282.5530
   2   2.0000     -10.302679      -280.3502
   3   2.0000      -1.382287       -37.6140
   4   2.0000      -1.134546       -30.8726
   5   2.0000      -1.002066       -27.2676
   6   2.0000      -0.954694       -25.9785
   7   2.0000      -0.936649       -25.4875
   8   2.0000      -0.837855       -22.7992
   9   2.0000      -0.786937       -21.4136
  10   2.0000      -0.720304       -19.6005
  11   2.0000      -0.701609       -19.0917
  12   2.0000      -0.683431       -18.5971
  13   0.0000      -0.109861        -2.9895
  14   0.0000      -0.050096        -1.3632
  15   0.0000      -0.048502        -1.3198
  16   0.0000      -0.042044        -1.1441
  17   0.0000      -0.011582        -0.3152

MULLIKEN ATOMIC CHARGES
-----------------------
   0 C :   -0.005082
   1 N :   -0.822417
   2 C :    0.338647
   3 H :    0.370299
   4 H :    0.458072
   5 H :    0.420125
   6 H :    0.032339
   7 H :   -0.006310
   8 H :    0.086483
   9 H :    0.058064
  10 H :    0.069780
Sum of atomic charges:    1.0000000

LOEWDIN ATOMIC CHARGES
----------------------
   0 C :    0.027146
   1 N :    0.314647
   2 C :    0.138103
   3 H :    0.114545
   4 H :    0.114416
   5 H :    0.117625
   6 H :    0.062934
   7 H :    0.062349
   8 H :    0.026477
   9 H :    0.010862
  10 H :    0.010895

  Mayer bond orders larger than 0.100000
B(  0-C ,  1-N ) :   0.8188 B(  0-C ,  2-C ) :   1.2968 B(  0-C ,  6-H ) :   0.9504
B(  0-C ,  7-H ) :   1.0022 B(  0-C ,  8-H ) :   0.1469 B(  0-C ,  9-H ) :   0.1077
B(  0-C , 10-H ) :   0.1128 B(  1-N ,  3-H ) :   0.7881 B(  1-N ,  4-H ) :   0.6850
B(  1-N ,  5-H ) :   0.7324 B(  2-C ,  8-H ) :   0.8480 B(  2-C ,  9-H ) :   0.8753
B(  2-C , 10-H ) :   0.8659

FINAL SINGLE POINT ENERGY      -134.992120262169

DIPOLE MOMENT
-------------
                                X             Y             Z
Electronic contribution:     -0.35674      -0.95857       1.59178
Nuclear contribution   :     -0.20470       0.31427      -0.31587
                        -----------------------------------------
Total Dipole Moment    :     -0.56144      -0.64430       1.27591
                        -----------------------------------------
Magnitude (a.u.)       :      1.53567
Magnitude (Debye)      :      3.90336

Rotational constants in cm-1:     1.011480     0.279280     0.248378
Rotational constants in MHz : 30323.408050  8372.602834  7446.185305

                             ****ORCA TERMINATED NORMALLY****
TOTAL RUN TIME: 0 days 0 hours 0 minutes 9 seconds 381 msec
