                         Program Version 5.0.0 -  RELEASE  -
|  1> !LC-PBE RIJCOSX def2-SVPD def2/J TightSCF xyzfile
|  2>
|  3> *xyzfile 0 1 B.xyz
|  4>
|  5> %MaxCore 64000
|  6>
|  7> %pal nprocs 4
|  8> end
|  9>
| 10> %scf
| 11>   MaxIter 150
| 12> end
| 13>
| 14>
| 15>                          ****END OF INPUT****

CARTESIAN COORDINATES (ANGSTROEM)
---------------------------------
  C      1.364014    0.468742   -2.813764
  N      0.428844    0.321402   -1.655312
  C      0.968045    1.630639   -3.715749
  C     -0.508347    1.722679   -4.124300
  S     -1.328608    0.146737   -4.435781
  H     -0.591511    2.294958   -5.047219
  H     -1.114114    2.235610   -3.374362
  H      0.748578   -0.400542   -1.001345
  H     -0.461053    0.023332   -2.077731
  H      0.310258    1.201375   -1.134948
  O     -2.571347    0.475733   -5.068341
  O     -1.514963   -0.400512   -3.063420
  H      1.294847   -0.468742   -3.364684
  H      2.376216    0.597400   -2.431495
  H      1.578688    1.520652   -4.612733
  H      1.266653    2.575988   -3.250448
  O     -0.377928   -0.627558   -5.201141

 Total Charge           Charge          ....    0
 Multiplicity           Mult            ....    1
 Number of Electrons    NEL             ....   74
 Basis Dimension        Dim             ....  248

ORBITAL ENERGIES
----------------

  NO   OCC          E(Eh)            E(eV)
   0   2.0000     -88.483850     -2407.7680
   1   2.0000     -18.951977      -515.7095
   2   2.0000     -18.935184      -515.2526
   3   2.0000     -18.932787      -515.1873
   4   2.0000     -14.366501      -390.9324
   5   2.0000     -10.223852      -278.2052
   6   2.0000     -10.176030      -276.9039
   7   2.0000     -10.155739      -276.3517
   8   2.0000      -8.105124      -220.5516
   9   2.0000      -6.128205      -166.7569
  10   2.0000      -6.127120      -166.7274
  11   2.0000      -6.126610      -166.7135
  12   2.0000      -1.281641       -34.8752
  13   2.0000      -1.201112       -32.6839
  14   2.0000      -1.119060       -30.4512
  15   2.0000      -1.117009       -30.3954
  16   2.0000      -1.002416       -27.2771
  17   2.0000      -0.909133       -24.7388
  18   2.0000      -0.816969       -22.2309
  19   2.0000      -0.782716       -21.2988
  20   2.0000      -0.764505       -20.8032
  21   2.0000      -0.700736       -19.0680
  22   2.0000      -0.674296       -18.3485
  23   2.0000      -0.637704       -17.3528
  24   2.0000      -0.621830       -16.9209
  25   2.0000      -0.614145       -16.7117
  26   2.0000      -0.581025       -15.8105
  27   2.0000      -0.571380       -15.5480
  28   2.0000      -0.540176       -14.6989
  29   2.0000      -0.532230       -14.4827
  30   2.0000      -0.511647       -13.9226
  31   2.0000      -0.467638       -12.7251
  32   2.0000      -0.459121       -12.4933
  33   2.0000      -0.423495       -11.5239
  34   2.0000      -0.414123       -11.2689
  35   2.0000      -0.397514       -10.8169
  36   2.0000      -0.371917       -10.1204
  37   0.0000       0.034297         0.9333
  38   0.0000       0.075612         2.0575
  39   0.0000       0.078297         2.1306
  40   0.0000       0.101502         2.7620
  41   0.0000       0.117867         3.2073

MULLIKEN ATOMIC CHARGES
-----------------------
   0 C :    0.369198
   1 N :   -0.366915
   2 C :    0.044178
   3 C :   -0.021165
   4 S :    1.258752
   5 H :   -0.086297
   6 H :    0.180820
   7 H :    0.317897
   8 H :   -0.037395
   9 H :    0.422972
  10 O :   -0.722377
  11 O :   -0.803035
  12 H :    0.158864
  13 H :   -0.162711
  14 H :    0.177083
  15 H :    0.000533
  16 O :   -0.730404
Sum of atomic charges:   -0.0000000

LOEWDIN ATOMIC CHARGES
----------------------
   0 C :    0.070937
   1 N :    0.312275
   2 C :   -0.038478
   3 C :   -0.082736
   4 S :    0.924010
   5 H :    0.032515
   6 H :    0.028460
   7 H :    0.104836
   8 H :   -0.114267
   9 H :    0.107304
  10 O :   -0.499220
  11 O :   -0.508636
  12 H :    0.045984
  13 H :    0.046593
  14 H :    0.052179
  15 H :    0.037597
  16 O :   -0.519353

  Mayer bond orders larger than 0.100000
B(  0-C ,  1-N ) :   0.8914 B(  0-C ,  2-C ) :   1.2255 B(  0-C , 12-H ) :   0.8250
B(  0-C , 13-H ) :   0.9618 B(  0-C , 14-H ) :   0.1292 B(  0-C , 15-H ) :   0.1100
B(  1-N ,  7-H ) :   0.8037 B(  1-N ,  8-H ) :   1.1900 B(  1-N ,  9-H ) :   0.7427
B(  1-N , 12-H ) :   0.1059 B(  2-C ,  3-C ) :   1.2652 B(  2-C ,  5-H ) :   0.1349
B(  2-C , 14-H ) :   0.8205 B(  2-C , 15-H ) :   0.8649 B(  3-C ,  4-S ) :   0.9134
B(  3-C ,  5-H ) :   0.9423 B(  3-C ,  6-H ) :   0.8921 B(  3-C , 11-O ) :   0.1147
B(  3-C , 14-H ) :   0.1025 B(  4-S , 10-O ) :   1.5191 B(  4-S , 11-O ) :   1.1069
B(  4-S , 16-O ) :   1.3821 B(  8-H , 11-O ) :   0.3004

FINAL SINGLE POINT ENERGY      -796.406204146943

DIPOLE MOMENT
-------------
                                X             Y             Z
Electronic contribution:     -6.80565      -4.03990      -4.20182
Nuclear contribution   :      9.95459       5.57517       7.68169
                        -----------------------------------------
Total Dipole Moment    :      3.14894       1.53528       3.47987
                        -----------------------------------------
Magnitude (a.u.)       :      4.93785
Magnitude (Debye)      :     12.55102

Rotational constants in cm-1:     0.102119     0.045768     0.041299
Rotational constants in MHz :  3061.441288  1372.093000  1238.124534

                             ****ORCA TERMINATED NORMALLY****
TOTAL RUN TIME: 0 days 0 hours 0 minutes 48 seconds 885 msec
