                         Program Version 5.0.0 -  RELEASE  -
|  1> !LC-PBE RIJCOSX def2-SVPD def2/J TightSCF
|  2> *xyz 0 1
|  3> C          0.96805        1.63064       -3.71575
|  4> C         -0.50835        1.72268       -4.12430
|  5> S         -1.32861        0.14674       -4.43578
|  6> H         -0.59151        2.29496       -5.04722
|  7> H         -1.11411        2.23561       -3.37436
|  8> F         -2.57135        0.47573       -5.06834
|  9> O         -1.51496       -0.40051       -3.06342
| 10> O         -0.37793       -0.62756       -5.20114
| 11> H          1.51840        1.12197       -4.47946
| 12> H          1.05062        1.08971       -2.79625
| 13> H          1.36450        2.61606       -3.58668
| 14> *
| 15> %MaxCore 64000
| 16>
| 17> %pal nprocs 4
| 18> end
| 19>
| 20> %scf
| 21>   MaxIter 150
| 22> end
| 23>
| 24>
| 25>                          ****END OF INPUT****

CARTESIAN COORDINATES (ANGSTROEM)
---------------------------------
  C      0.968050    1.630640   -3.715750
  C     -0.508350    1.722680   -4.124300
  S     -1.328610    0.146740   -4.435780
  H     -0.591510    2.294960   -5.047220
  H     -1.114110    2.235610   -3.374360
  F     -2.571350    0.475730   -5.068340
  O     -1.514960   -0.400510   -3.063420
  O     -0.377930   -0.627560   -5.201140
  H      1.518400    1.121970   -4.479460
  H      1.050620    1.089710   -2.796250
  H      1.364500    2.616060   -3.586680

 Total Charge           Charge          ....    0
 Multiplicity           Mult            ....    1
 Number of Electrons    NEL             ....   58
 Basis Dimension        Dim             ....  176

ORBITAL ENERGIES
----------------

  NO   OCC          E(Eh)            E(eV)
   0   2.0000     -88.577697     -2410.3217
   1   2.0000     -24.639819      -670.4836
   2   2.0000     -19.011836      -517.3384
   3   2.0000     -18.995207      -516.8859
   4   2.0000     -10.195745      -277.4403
   5   2.0000     -10.147717      -276.1334
   6   2.0000      -8.200528      -223.1477
   7   2.0000      -6.227616      -169.4620
   8   2.0000      -6.220233      -169.2611
   9   2.0000      -6.219057      -169.2291
  10   2.0000      -1.553900       -42.2838
  11   2.0000      -1.282546       -34.8998
  12   2.0000      -1.167891       -31.7799
  13   2.0000      -0.997215       -27.1356
  14   2.0000      -0.906104       -24.6563
  15   2.0000      -0.843702       -22.9583
  16   2.0000      -0.756672       -20.5901
  17   2.0000      -0.753243       -20.4968
  18   2.0000      -0.711308       -19.3557
  19   2.0000      -0.643499       -17.5105
  20   2.0000      -0.636377       -17.3167
  21   2.0000      -0.589117       -16.0307
  22   2.0000      -0.575008       -15.6468
  23   2.0000      -0.547794       -14.9062
  24   2.0000      -0.530011       -14.4223
  25   2.0000      -0.522458       -14.2168
  26   2.0000      -0.474072       -12.9002
  27   2.0000      -0.454125       -12.3574
  28   2.0000      -0.443747       -12.0750
  29   0.0000       0.061168         1.6645
  30   0.0000       0.086318         2.3488
  31   0.0000       0.091795         2.4979
  32   0.0000       0.094677         2.5763
  33   0.0000       0.122308         3.3282

MULLIKEN ATOMIC CHARGES
-----------------------
   0 C :    0.480871
   1 C :   -0.532260
   2 S :    1.404800
   3 H :    0.096545
   4 H :    0.094111
   5 F :   -0.357263
   6 O :   -0.663594
   7 O :   -0.620367
   8 H :    0.042615
   9 H :    0.032193
  10 H :    0.022350
Sum of atomic charges:    0.0000000

LOEWDIN ATOMIC CHARGES
----------------------
   0 C :    0.118544
   1 C :   -0.121074
   2 S :    1.100926
   3 H :    0.027062
   4 H :    0.035088
   5 F :   -0.235741
   6 O :   -0.486856
   7 O :   -0.460126
   8 H :    0.003699
   9 H :    0.011369
  10 H :    0.007110

  Mayer bond orders larger than 0.100000
B(  0-C ,  1-C ) :   1.3291 B(  0-C ,  8-H ) :   0.8591 B(  0-C ,  9-H ) :   0.8615
B(  0-C , 10-H ) :   0.8164 B(  1-C ,  2-S ) :   0.9839 B(  1-C ,  3-H ) :   0.9741
B(  1-C ,  4-H ) :   0.9780 B(  1-C ,  8-H ) :   0.1549 B(  1-C ,  9-H ) :   0.1499
B(  1-C , 10-H ) :   0.1531 B(  2-S ,  5-F ) :   0.7479 B(  2-S ,  6-O ) :   1.5126
B(  2-S ,  7-O ) :   1.5571

FINAL SINGLE POINT ENERGY      -726.025095609184

DIPOLE MOMENT
-------------
                                X             Y             Z
Electronic contribution:     -8.30668      -5.03490      -3.24879
Nuclear contribution   :      8.31000       6.74109       2.87442
                        -----------------------------------------
Total Dipole Moment    :      0.00333       1.70618      -0.37437
                        -----------------------------------------
Magnitude (a.u.)       :      1.74678
Magnitude (Debye)      :      4.43995

Rotational constants in cm-1:     0.158705     0.080192     0.078179
Rotational constants in MHz :  4757.865601  2404.095079  2343.752507

                             ****ORCA TERMINATED NORMALLY****
TOTAL RUN TIME: 0 days 0 hours 0 minutes 23 seconds 720 msec
