                         Program Version 5.0.0 -  RELEASE  -
|  1> !LC-PBE RIJCOSX def2-SVPD def2/J TightSCF
|  2> *xyz 0 1
|  3> C          1.36401        0.46874       -2.81376
|  4> C          0.42884        0.32140       -1.65531
|  5> C          0.96805        1.63064       -3.71575
|  6> H          0.74858       -0.40054       -1.00134
|  7> H         -0.46105        0.02333       -2.07773
|  8> H          0.31026        1.20137       -1.13495
|  9> H          1.29485       -0.46874       -3.36468
| 10> H          2.37622        0.59740       -2.43149
| 11> H          1.65923        1.70213       -4.52942
| 12> H          0.98421        2.54058       -3.15304
| 13> H         -0.01744        1.46536       -4.09838
| 14> *
| 15> %MaxCore 64000
| 16>
| 17> %pal nprocs 4
| 18> end
| 19>
| 20> %scf
| 21>   MaxIter 150
| 22> end
| 23>
| 24>
| 25>                          ****END OF INPUT****

CARTESIAN COORDINATES (ANGSTROEM)
---------------------------------
  C      1.364010    0.468740   -2.813760
  C      0.428840    0.321400   -1.655310
  C      0.968050    1.630640   -3.715750
  H      0.748580   -0.400540   -1.001340
  H     -0.461050    0.023330   -2.077730
  H      0.310260    1.201370   -1.134950
  H      1.294850   -0.468740   -3.364680
  H      2.376220    0.597400   -2.431490
  H      1.659230    1.702130   -4.529420
  H      0.984210    2.540580   -3.153040
  H     -0.017440    1.465360   -4.098380

 Total Charge           Charge          ....    0
 Multiplicity           Mult            ....    1
 Number of Electrons    NEL             ....   26
 Basis Dimension        Dim             ....  124

ORBITAL ENERGIES
----------------

  NO   OCC          E(Eh)            E(eV)
   0   2.0000     -10.114688      -275.2347
   1   2.0000     -10.104610      -274.9604
   2   2.0000     -10.087820      -274.5035
   3   2.0000      -0.965681       -26.2775
   4   2.0000      -0.853456       -23.2237
   5   2.0000      -0.738456       -20.0944
   6   2.0000      -0.619412       -16.8551
   7   2.0000      -0.590010       -16.0550
   8   2.0000      -0.541292       -14.7293
   9   2.0000      -0.526382       -14.3236
  10   2.0000      -0.467827       -12.7302
  11   2.0000      -0.461588       -12.5605
  12   2.0000      -0.455708       -12.4005
  13   0.0000       0.096164         2.6167
  14   0.0000       0.121200         3.2980
  15   0.0000       0.129618         3.5271
  16   0.0000       0.161956         4.4070
  17   0.0000       0.180079         4.9002

MULLIKEN ATOMIC CHARGES
-----------------------
   0 C :   -0.721351
   1 C :    0.673252
   2 C :    0.386949
   3 H :   -0.126274
   4 H :   -0.062480
   5 H :   -0.121560
   6 H :    0.008454
   7 H :   -0.060044
   8 H :   -0.012447
   9 H :    0.022789
  10 H :    0.012711
Sum of atomic charges:   -0.0000000

LOEWDIN ATOMIC CHARGES
----------------------
   0 C :   -0.146085
   1 C :    0.084162
   2 C :    0.082578
   3 H :   -0.023565
   4 H :   -0.019387
   5 H :   -0.018704
   6 H :    0.031964
   7 H :    0.029824
   8 H :   -0.010012
   9 H :   -0.005742
  10 H :   -0.005033

  Mayer bond orders larger than 0.100000
B(  0-C ,  1-C ) :   1.2785 B(  0-C ,  2-C ) :   1.2555 B(  0-C ,  3-H ) :   0.1563
B(  0-C ,  4-H ) :   0.2184 B(  0-C ,  5-H ) :   0.1599 B(  0-C ,  6-H ) :   0.9656
B(  0-C ,  7-H ) :   1.0244 B(  0-C ,  8-H ) :   0.1406 B(  0-C ,  9-H ) :   0.1299
B(  0-C , 10-H ) :   0.1522 B(  1-C ,  3-H ) :   0.8177 B(  1-C ,  4-H ) :   0.7820
B(  1-C ,  5-H ) :   0.8221 B(  2-C ,  8-H ) :   0.8794 B(  2-C ,  9-H ) :   0.8715
B(  2-C , 10-H ) :   0.8690

FINAL SINGLE POINT ENERGY      -118.614497229095

DIPOLE MOMENT
-------------
                                X             Y             Z
Electronic contribution:      0.36584      -0.18527      -0.01998
Nuclear contribution   :     -0.35842       0.15752       0.02695
                        -----------------------------------------
Total Dipole Moment    :      0.00742      -0.02775       0.00697
                        -----------------------------------------
Magnitude (a.u.)       :      0.02956
Magnitude (Debye)      :      0.07513

Rotational constants in cm-1:     1.019891     0.293671     0.260247
Rotational constants in MHz : 30575.551403  8804.039097  7802.009261

                             ****ORCA TERMINATED NORMALLY****
TOTAL RUN TIME: 0 days 0 hours 0 minutes 13 seconds 440 msec
