                         Program Version 5.0.0 -  RELEASE  -
|  1> !LC-PBE RIJCOSX def2-SVPD def2/J TightSCF
|  2> *xyz 0 1
|  3> C          0.96805        1.63064       -3.71575
|  4> C         -0.50835        1.72268       -4.12430
|  5> S         -1.32861        0.14674       -4.43578
|  6> H         -0.59151        2.29496       -5.04722
|  7> H         -1.11411        2.23561       -3.37436
|  8> O         -2.57135        0.47573       -5.06834
|  9> F         -1.51496       -0.40051       -3.06342
| 10> O         -0.37793       -0.62756       -5.20114
| 11> H          1.51840        1.12197       -4.47946
| 12> H          1.05062        1.08971       -2.79625
| 13> H          1.36450        2.61606       -3.58668
| 14> *
| 15> %MaxCore 64000
| 16>
| 17> %pal nprocs 4
| 18> end
| 19>
| 20> %scf
| 21>   MaxIter 150
| 22> end
| 23>
| 24>
| 25>                          ****END OF INPUT****

CARTESIAN COORDINATES (ANGSTROEM)
---------------------------------
  C      0.968050    1.630640   -3.715750
  C     -0.508350    1.722680   -4.124300
  S     -1.328610    0.146740   -4.435780
  H     -0.591510    2.294960   -5.047220
  H     -1.114110    2.235610   -3.374360
  O     -2.571350    0.475730   -5.068340
  F     -1.514960   -0.400510   -3.063420
  O     -0.377930   -0.627560   -5.201140
  H      1.518400    1.121970   -4.479460
  H      1.050620    1.089710   -2.796250
  H      1.364500    2.616060   -3.586680

 Total Charge           Charge          ....    0
 Multiplicity           Mult            ....    1
 Number of Electrons    NEL             ....   58
 Basis Dimension        Dim             ....  176

ORBITAL ENERGIES
----------------

  NO   OCC          E(Eh)            E(eV)
   0   2.0000     -88.575035     -2410.2492
   1   2.0000     -24.610254      -669.6791
   2   2.0000     -19.015238      -517.4309
   3   2.0000     -19.011401      -517.3265
   4   2.0000     -10.194545      -277.4077
   5   2.0000     -10.149714      -276.1877
   6   2.0000      -8.197668      -223.0699
   7   2.0000      -6.224567      -169.3791
   8   2.0000      -6.217695      -169.1921
   9   2.0000      -6.216423      -169.1575
  10   2.0000      -1.506488       -40.9936
  11   2.0000      -1.296363       -35.2758
  12   2.0000      -1.194460       -32.5029
  13   2.0000      -0.999137       -27.1879
  14   2.0000      -0.886288       -24.1171
  15   2.0000      -0.835430       -22.7332
  16   2.0000      -0.739541       -20.1239
  17   2.0000      -0.722146       -19.6506
  18   2.0000      -0.702867       -19.1260
  19   2.0000      -0.646585       -17.5945
  20   2.0000      -0.628039       -17.0898
  21   2.0000      -0.607455       -16.5297
  22   2.0000      -0.580156       -15.7869
  23   2.0000      -0.551564       -15.0088
  24   2.0000      -0.543000       -14.7758
  25   2.0000      -0.519813       -14.1448
  26   2.0000      -0.485753       -13.2180
  27   2.0000      -0.466592       -12.6966
  28   2.0000      -0.463951       -12.6247
  29   0.0000       0.063582         1.7302
  30   0.0000       0.088994         2.4217
  31   0.0000       0.092803         2.5253
  32   0.0000       0.094370         2.5679
  33   0.0000       0.124948         3.4000

MULLIKEN ATOMIC CHARGES
-----------------------
   0 C :    0.507627
   1 C :   -0.523201
   2 S :    1.385145
   3 H :    0.098418
   4 H :    0.082783
   5 O :   -0.605355
   6 F :   -0.387588
   7 O :   -0.635985
   8 H :    0.046526
   9 H :    0.011243
  10 H :    0.020389
Sum of atomic charges:    0.0000000

LOEWDIN ATOMIC CHARGES
----------------------
   0 C :    0.104925
   1 C :   -0.111082
   2 S :    1.094843
   3 H :    0.041517
   4 H :    0.034230
   5 O :   -0.454164
   6 F :   -0.263338
   7 O :   -0.458367
   8 H :    0.002354
   9 H :    0.003979
  10 H :    0.005103

  Mayer bond orders larger than 0.100000
B(  0-C ,  1-C ) :   1.2945 B(  0-C ,  8-H ) :   0.8662 B(  0-C ,  9-H ) :   0.8571
B(  0-C , 10-H ) :   0.8117 B(  1-C ,  2-S ) :   1.0081 B(  1-C ,  3-H ) :   0.9940
B(  1-C ,  4-H ) :   0.9826 B(  1-C ,  8-H ) :   0.1557 B(  1-C ,  9-H ) :   0.1487
B(  1-C , 10-H ) :   0.1534 B(  2-S ,  5-O ) :   1.6029 B(  2-S ,  6-F ) :   0.6707
B(  2-S ,  7-O ) :   1.5639

FINAL SINGLE POINT ENERGY      -726.050848021715

DIPOLE MOMENT
-------------
                                X             Y             Z
Electronic contribution:     -6.49696      -6.54698       0.22154
Nuclear contribution   :      7.20921       7.65416       0.78523
                        -----------------------------------------
Total Dipole Moment    :      0.71225       1.10718       1.00677
                        -----------------------------------------
Magnitude (a.u.)       :      1.65733
Magnitude (Debye)      :      4.21260

Rotational constants in cm-1:     0.153780     0.081282     0.079816
Rotational constants in MHz :  4610.199589  2436.778679  2392.820729

                             ****ORCA TERMINATED NORMALLY****
TOTAL RUN TIME: 0 days 0 hours 0 minutes 23 seconds 524 msec
