                         Program Version 5.0.0 -  RELEASE  -
|  1> !LC-PBE RIJCOSX def2-SVPD def2/J TightSCF
|  2> *xyz 0 1
|  3> C          0.96805        1.63064       -3.71575
|  4> C         -0.50835        1.72268       -4.12430
|  5> S         -1.32861        0.14674       -4.43578
|  6> H         -0.59151        2.29496       -5.04722
|  7> H         -1.11411        2.23561       -3.37436
|  8> O         -2.57135        0.47573       -5.06834
|  9> O         -1.51496       -0.40051       -3.06342
| 10> F         -0.37793       -0.62756       -5.20114
| 11> H          1.51840        1.12197       -4.47946
| 12> H          1.05062        1.08971       -2.79625
| 13> H          1.36450        2.61606       -3.58668
| 14> *
| 15> %MaxCore 64000
| 16>
| 17> %pal nprocs 4
| 18> end
| 19>
| 20> %scf
| 21>   MaxIter 150
| 22> end
| 23>
| 24>
| 25>                          ****END OF INPUT****

CARTESIAN COORDINATES (ANGSTROEM)
---------------------------------
  C      0.968050    1.630640   -3.715750
  C     -0.508350    1.722680   -4.124300
  S     -1.328610    0.146740   -4.435780
  H     -0.591510    2.294960   -5.047220
  H     -1.114110    2.235610   -3.374360
  O     -2.571350    0.475730   -5.068340
  O     -1.514960   -0.400510   -3.063420
  F     -0.377930   -0.627560   -5.201140
  H      1.518400    1.121970   -4.479460
  H      1.050620    1.089710   -2.796250
  H      1.364500    2.616060   -3.586680

 Total Charge           Charge          ....    0
 Multiplicity           Mult            ....    1
 Number of Electrons    NEL             ....   58
 Basis Dimension        Dim             ....  176

ORBITAL ENERGIES
----------------

  NO   OCC          E(Eh)            E(eV)
   0   2.0000     -88.576929     -2410.3008
   1   2.0000     -24.633323      -670.3068
   2   2.0000     -19.015723      -517.4441
   3   2.0000     -18.995129      -516.8837
   4   2.0000     -10.195476      -277.4330
   5   2.0000     -10.153596      -276.2934
   6   2.0000      -8.199728      -223.1259
   7   2.0000      -6.226887      -169.4422
   8   2.0000      -6.219477      -169.2406
   9   2.0000      -6.218240      -169.2069
  10   2.0000      -1.542937       -41.9854
  11   2.0000      -1.288165       -35.0528
  12   2.0000      -1.170952       -31.8632
  13   2.0000      -1.001455       -27.2510
  14   2.0000      -0.897949       -24.4344
  15   2.0000      -0.846567       -23.0363
  16   2.0000      -0.761207       -20.7135
  17   2.0000      -0.747987       -20.3538
  18   2.0000      -0.700940       -19.0736
  19   2.0000      -0.645352       -17.5609
  20   2.0000      -0.628939       -17.1143
  21   2.0000      -0.601170       -16.3587
  22   2.0000      -0.583921       -15.8893
  23   2.0000      -0.553580       -15.0637
  24   2.0000      -0.536868       -14.6089
  25   2.0000      -0.523073       -14.2335
  26   2.0000      -0.475793       -12.9470
  27   2.0000      -0.455326       -12.3901
  28   2.0000      -0.446930       -12.1616
  29   0.0000       0.060919         1.6577
  30   0.0000       0.086750         2.3606
  31   0.0000       0.092490         2.5168
  32   0.0000       0.095195         2.5904
  33   0.0000       0.123715         3.3665

MULLIKEN ATOMIC CHARGES
-----------------------
   0 C :    0.492101
   1 C :   -0.506125
   2 S :    1.375469
   3 H :    0.089473
   4 H :    0.093535
   5 O :   -0.593043
   6 O :   -0.665668
   7 F :   -0.366360
   8 H :    0.024657
   9 H :    0.035750
  10 H :    0.020212
Sum of atomic charges:    0.0000000

LOEWDIN ATOMIC CHARGES
----------------------
   0 C :    0.103461
   1 C :   -0.109214
   2 S :    1.096944
   3 H :    0.030436
   4 H :    0.047738
   5 O :   -0.453375
   6 O :   -0.486009
   7 F :   -0.241329
   8 H :   -0.002186
   9 H :    0.007718
  10 H :    0.005816

  Mayer bond orders larger than 0.100000
B(  0-C ,  1-C ) :   1.2803 B(  0-C ,  8-H ) :   0.8609 B(  0-C ,  9-H ) :   0.8704
B(  0-C , 10-H ) :   0.8144 B(  1-C ,  2-S ) :   1.0105 B(  1-C ,  3-H ) :   1.0016
B(  1-C ,  4-H ) :   0.9850 B(  1-C ,  8-H ) :   0.1452 B(  1-C ,  9-H ) :   0.1481
B(  1-C , 10-H ) :   0.1565 B(  2-S ,  5-O ) :   1.6055 B(  2-S ,  6-O ) :   1.5255
B(  2-S ,  7-F ) :   0.7196

FINAL SINGLE POINT ENERGY      -726.030419859955

DIPOLE MOMENT
-------------
                                X             Y             Z
Electronic contribution:     -4.53822      -6.90870      -3.46183
Nuclear contribution   :      6.02439       7.89075       3.01280
                        -----------------------------------------
Total Dipole Moment    :      1.48617       0.98205      -0.44903
                        -----------------------------------------
Magnitude (a.u.)       :      1.83705
Magnitude (Debye)      :      4.66942

Rotational constants in cm-1:     0.153652     0.082400     0.079295
Rotational constants in MHz :  4606.361242  2470.285703  2377.214112

                             ****ORCA TERMINATED NORMALLY****
TOTAL RUN TIME: 0 days 0 hours 0 minutes 23 seconds 830 msec
