                         Program Version 5.0.0 -  RELEASE  -
|  1> !DLPNO-CCSD(T) aug-cc-pVTZ aug-cc-pVTZ/C TightSCF TightPNO RIJCOSX def2/J
|  2> *xyz -1 1
|  3> C         -7.33044       -2.67899       -3.20681
|  4> S         -6.01966       -2.92697       -4.41913
|  5> O         -5.64583       -1.58838       -4.91931
|  6> O         -4.88196       -3.50370       -3.66724
|  7> O         -6.54927       -3.80515       -5.42507
|  8> C         -7.46900       -1.24615       -2.71383
|  9> H         -7.11825       -3.37982       -2.39805
| 10> H         -8.24184       -3.00474       -3.70651
| 11> H         -7.67580       -0.60214       -3.54292
| 12> H         -6.55749       -0.94096       -2.24382
| 13> H         -8.27114       -1.18777       -2.00810
| 14> *
| 15> %MaxCore 64000
| 16>
| 17> %pal nprocs 18
| 18> end
| 19>
| 20> %scf
| 21>   MaxIter 150
| 22> end
| 23>
| 24>
| 25>                          ****END OF INPUT****

CARTESIAN COORDINATES (ANGSTROEM)
---------------------------------
  C     -7.330440   -2.678990   -3.206810
  S     -6.019660   -2.926970   -4.419130
  O     -5.645830   -1.588380   -4.919310
  O     -4.881960   -3.503700   -3.667240
  O     -6.549270   -3.805150   -5.425070
  C     -7.469000   -1.246150   -2.713830
  H     -7.118250   -3.379820   -2.398050
  H     -8.241840   -3.004740   -3.706510
  H     -7.675800   -0.602140   -3.542920
  H     -6.557490   -0.940960   -2.243820
  H     -8.271140   -1.187770   -2.008100

 Total Charge           Charge          ....   -1
 Multiplicity           Mult            ....    1
 Number of Electrons    NEL             ....   58
 Basis Dimension        Dim             ....  395

ORBITAL ENERGIES
----------------

  NO   OCC          E(Eh)            E(eV)
   0   2.0000     -91.982412     -2502.9687
   1   2.0000     -20.335004      -553.3436
   2   2.0000     -20.322925      -553.0149
   3   2.0000     -20.319956      -552.9341
   4   2.0000     -11.096266      -301.9447
   5   2.0000     -11.084356      -301.6207
   6   2.0000      -8.945724      -243.4255
   7   2.0000      -6.631745      -180.4590
   8   2.0000      -6.630566      -180.4269
   9   2.0000      -6.630489      -180.4248
  10   2.0000      -1.267584       -34.4927
  11   2.0000      -1.124435       -30.5974
  12   2.0000      -1.099327       -29.9142
  13   2.0000      -0.910067       -24.7642
  14   2.0000      -0.748991       -20.3811
  15   2.0000      -0.596786       -16.2394
  16   2.0000      -0.499941       -13.6041
  17   2.0000      -0.495585       -13.4855
  18   2.0000      -0.455665       -12.3993
  19   2.0000      -0.441570       -12.0157
  20   2.0000      -0.425888       -11.5890
  21   2.0000      -0.383250       -10.4288
  22   2.0000      -0.376687       -10.2502
  23   2.0000      -0.316857        -8.6221
  24   2.0000      -0.315318        -8.5802
  25   2.0000      -0.274310        -7.4643
  26   2.0000      -0.261916        -7.1271
  27   2.0000      -0.250939        -6.8284
  28   2.0000      -0.225370        -6.1326
  29   0.0000       0.112213         3.0535
  30   0.0000       0.132300         3.6001
  31   0.0000       0.134174         3.6511
  32   0.0000       0.145095         3.9482
  33   0.0000       0.155118         4.2210

MULLIKEN ATOMIC CHARGES
-----------------------
   0 C :   -0.523307
   1 S :    2.186674
   2 O :   -1.036756
   3 O :   -1.039779
   4 O :   -1.025184
   5 C :   -0.944300
   6 H :    0.224053
   7 H :    0.245439
   8 H :    0.313305
   9 H :    0.331626
  10 H :    0.268229
Sum of atomic charges:   -1.0000000

LOEWDIN ATOMIC CHARGES
----------------------
   0 C :    0.121361
   1 S :   -0.380179
   2 O :   -0.066513
   3 O :   -0.087381
   4 O :   -0.054624
   5 C :    0.521131
   6 H :   -0.214938
   7 H :   -0.223911
   8 H :   -0.210791
   9 H :   -0.197291
  10 H :   -0.206864

  Mayer bond orders larger than 0.100000
B(  0-C ,  1-S ) :   0.7913 B(  0-C ,  5-C ) :   0.8778 B(  0-C ,  6-H ) :   0.9614
B(  0-C ,  7-H ) :   0.9595 B(  1-S ,  2-O ) :   1.3002 B(  1-S ,  3-O ) :   1.2916
B(  1-S ,  4-O ) :   1.3165 B(  5-C ,  8-H ) :   0.9189 B(  5-C ,  9-H ) :   0.8916
B(  5-C , 10-H ) :   0.9833

E(0)                                       ...   -700.919710159
E(0)                                       ...   -700.919710159
E(CORR)(strong-pairs)                      ...     -1.303296740
E(CORR)(weak-pairs)                        ...     -0.001296310
E(CORR)(corrected)                         ...     -1.304593049
E(TOT)                                     ...   -702.224303208
E(CCSD(T))                                 ...   -702.280184796
FINAL SINGLE POINT ENERGY      -702.280184795697

DIPOLE MOMENT
-------------
                                X             Y             Z
Electronic contribution:      4.50887      -3.46164      -4.95469
Nuclear contribution   :     -6.18165       4.01759       6.33106
                        -----------------------------------------
Total Dipole Moment    :     -1.67278       0.55596       1.37637
                        -----------------------------------------
Magnitude (a.u.)       :      2.23645
Magnitude (Debye)      :      5.68460

Rotational constants in cm-1:     0.161711     0.082788     0.081165
Rotational constants in MHz :  4847.971521  2481.906910  2433.276832

                             ****ORCA TERMINATED NORMALLY****
TOTAL RUN TIME: 0 days 0 hours 7 minutes 19 seconds 133 msec
