                         Program Version 5.0.0 -  RELEASE  -
|  1> !DLPNO-CCSD(T) aug-cc-pVTZ aug-cc-pVTZ/C TightSCF TightPNO RIJCOSX def2/J
|  2> *xyz 1 1
|  3> C         -2.16038       -1.36949       -3.46710
|  4> N         -3.03011       -1.91086       -4.54107
|  5> C         -2.04772        0.14658       -3.51177
|  6> H         -3.47744       -2.79151       -4.25710
|  7> H         -2.53801       -2.01786       -5.43808
|  8> H         -3.89159       -1.37604       -4.71437
|  9> H         -1.18444       -1.84400       -3.56639
| 10> H         -2.59819       -1.70838       -2.52848
| 11> H         -1.61525        0.44478       -4.44395
| 12> H         -1.42718        0.48198       -2.70720
| 13> H         -3.02145        0.57958       -3.41560
| 14> *
| 15> %MaxCore 64000
| 16>
| 17> %pal nprocs 18
| 18> end
| 19>
| 20> %scf
| 21>   MaxIter 150
| 22> end
| 23>
| 24>
| 25>                          ****END OF INPUT****

CARTESIAN COORDINATES (ANGSTROEM)
---------------------------------
  C     -2.160380   -1.369490   -3.467100
  N     -3.030110   -1.910860   -4.541070
  C     -2.047720    0.146580   -3.511770
  H     -3.477440   -2.791510   -4.257100
  H     -2.538010   -2.017860   -5.438080
  H     -3.891590   -1.376040   -4.714370
  H     -1.184440   -1.844000   -3.566390
  H     -2.598190   -1.708380   -2.528480
  H     -1.615250    0.444780   -4.443950
  H     -1.427180    0.481980   -2.707200
  H     -3.021450    0.579580   -3.415600

 Total Charge           Charge          ....    1
 Multiplicity           Mult            ....    1
 Number of Electrons    NEL             ....   26
 Basis Dimension        Dim             ....  322

ORBITAL ENERGIES
----------------

  NO   OCC          E(Eh)            E(eV)
   0   2.0000     -15.901578      -432.7039
   1   2.0000     -11.480861      -312.4101
   2   2.0000     -11.395720      -310.0933
   3   2.0000      -1.522012       -41.4160
   4   2.0000      -1.227448       -33.4006
   5   2.0000      -1.070073       -29.1182
   6   2.0000      -0.990617       -26.9561
   7   2.0000      -0.946817       -25.7642
   8   2.0000      -0.865294       -23.5458
   9   2.0000      -0.806433       -21.9442
  10   2.0000      -0.733040       -19.9470
  11   2.0000      -0.713908       -19.4264
  12   2.0000      -0.698527       -19.0079
  13   0.0000      -0.120380        -3.2757
  14   0.0000      -0.084333        -2.2948
  15   0.0000      -0.082223        -2.2374
  16   0.0000      -0.074388        -2.0242
  17   0.0000      -0.047041        -1.2800

MULLIKEN ATOMIC CHARGES
-----------------------
   0 C :   -0.347506
   1 N :    0.084663
   2 C :   -0.902468
   3 H :    0.141694
   4 H :    0.158372
   5 H :    0.160417
   6 H :    0.368747
   7 H :    0.353429
   8 H :    0.316103
   9 H :    0.345460
  10 H :    0.321091
Sum of atomic charges:    1.0000000

LOEWDIN ATOMIC CHARGES
----------------------
   0 C :    0.328168
   1 N :    1.098533
   2 C :    0.664463
   3 H :   -0.129303
   4 H :   -0.115652
   5 H :   -0.130684
   6 H :   -0.110706
   7 H :   -0.114497
   8 H :   -0.167302
   9 H :   -0.153943
  10 H :   -0.169077

  Mayer bond orders larger than 0.100000
B(  0-C ,  1-N ) :   0.7919 B(  0-C ,  2-C ) :   0.8733 B(  0-C ,  6-H ) :   0.8645
B(  0-C ,  7-H ) :   0.8687 B(  1-N ,  3-H ) :   1.0275 B(  1-N ,  4-H ) :   0.9976
B(  1-N ,  5-H ) :   0.9711 B(  2-C ,  8-H ) :   0.9191 B(  2-C ,  9-H ) :   0.9090
B(  2-C , 10-H ) :   0.9094

E(0)                                       ...   -134.668608627
E(0)                                       ...   -134.668608627
E(CORR)(strong-pairs)                      ...     -0.615492937
E(CORR)(weak-pairs)                        ...     -0.000454097
E(CORR)(corrected)                         ...     -0.615947035
E(TOT)                                     ...   -135.284555661
E(CCSD(T))                                 ...   -135.305426111
FINAL SINGLE POINT ENERGY      -135.305426110768

DIPOLE MOMENT
-------------
                                X             Y             Z
Electronic contribution:     -0.65379      -1.50122      -0.77716
Nuclear contribution   :     -0.15215       0.37393      -0.04773
                        -----------------------------------------
Total Dipole Moment    :     -0.80594      -1.12729      -0.82489
                        -----------------------------------------
Magnitude (a.u.)       :      1.61269
Magnitude (Debye)      :      4.09912

Rotational constants in cm-1:     1.020762     0.277172     0.247319
Rotational constants in MHz : 30601.664035  8309.399682  7414.438136

                             ****ORCA TERMINATED NORMALLY****
TOTAL RUN TIME: 0 days 0 hours 1 minutes 42 seconds 209 msec
