                         Program Version 5.0.0 -  RELEASE  -
|  1> !DLPNO-CCSD(T) aug-cc-pVTZ aug-cc-pVTZ/C TightSCF TightPNO RIJCOSX def2/J
|  2> *xyz 0 1
|  3> C         -7.33044       -2.67899       -3.20681
|  4> S         -6.01966       -2.92697       -4.41913
|  5> F         -5.64583       -1.58838       -4.91931
|  6> O         -4.88196       -3.50370       -3.66724
|  7> O         -6.54927       -3.80515       -5.42507
|  8> C         -7.46900       -1.24615       -2.71383
|  9> H         -7.11825       -3.37982       -2.39805
| 10> H         -8.24184       -3.00474       -3.70651
| 11> H         -7.67580       -0.60214       -3.54292
| 12> H         -6.55749       -0.94096       -2.24382
| 13> H         -8.27114       -1.18777       -2.00810
| 14> *
| 15> %MaxCore 64000
| 16>
| 17> %pal nprocs 18
| 18> end
| 19>
| 20> %scf
| 21>   MaxIter 150
| 22> end
| 23>
| 24>
| 25>                          ****END OF INPUT****

CARTESIAN COORDINATES (ANGSTROEM)
---------------------------------
  C     -7.330440   -2.678990   -3.206810
  S     -6.019660   -2.926970   -4.419130
  F     -5.645830   -1.588380   -4.919310
  O     -4.881960   -3.503700   -3.667240
  O     -6.549270   -3.805150   -5.425070
  C     -7.469000   -1.246150   -2.713830
  H     -7.118250   -3.379820   -2.398050
  H     -8.241840   -3.004740   -3.706510
  H     -7.675800   -0.602140   -3.542920
  H     -6.557490   -0.940960   -2.243820
  H     -8.271140   -1.187770   -2.008100

 Total Charge           Charge          ....    0
 Multiplicity           Mult            ....    1
 Number of Electrons    NEL             ....   58
 Basis Dimension        Dim             ....  395

ORBITAL ENERGIES
----------------

  NO   OCC          E(Eh)            E(eV)
   0   2.0000     -92.249903     -2510.2475
   1   2.0000     -26.416657      -718.8338
   2   2.0000     -20.572041      -559.7937
   3   2.0000     -20.556092      -559.3597
   4   2.0000     -11.299458      -307.4739
   5   2.0000     -11.256680      -306.3098
   6   2.0000      -9.213203      -250.7040
   7   2.0000      -6.900821      -187.7809
   8   2.0000      -6.896621      -187.6666
   9   2.0000      -6.895942      -187.6481
  10   2.0000      -1.771549       -48.2063
  11   2.0000      -1.456134       -39.6234
  12   2.0000      -1.344895       -36.5965
  13   2.0000      -1.108343       -30.1595
  14   2.0000      -0.976826       -26.5808
  15   2.0000      -0.913109       -24.8470
  16   2.0000      -0.817358       -22.2415
  17   2.0000      -0.808666       -22.0049
  18   2.0000      -0.754146       -20.5214
  19   2.0000      -0.679580       -18.4923
  20   2.0000      -0.663494       -18.0546
  21   2.0000      -0.629936       -17.1414
  22   2.0000      -0.615059       -16.7366
  23   2.0000      -0.575653       -15.6643
  24   2.0000      -0.557363       -15.1666
  25   2.0000      -0.552132       -15.0243
  26   2.0000      -0.497928       -13.5493
  27   2.0000      -0.480217       -13.0674
  28   2.0000      -0.476533       -12.9671
  29   0.0000       0.021295         0.5795
  30   0.0000       0.035662         0.9704
  31   0.0000       0.038729         1.0539
  32   0.0000       0.046849         1.2748
  33   0.0000       0.060731         1.6526

MULLIKEN ATOMIC CHARGES
-----------------------
   0 C :   -0.466758
   1 S :    2.159557
   2 F :   -0.512672
   3 O :   -0.892764
   4 O :   -0.879033
   5 C :   -0.924908
   6 H :    0.281428
   7 H :    0.287061
   8 H :    0.310225
   9 H :    0.336203
  10 H :    0.301661
Sum of atomic charges:   -0.0000000

LOEWDIN ATOMIC CHARGES
----------------------
   0 C :    0.177880
   1 S :   -0.093271
   2 F :    0.262246
   3 O :   -0.000170
   4 O :    0.029905
   5 C :    0.565454
   6 H :   -0.183373
   7 H :   -0.199866
   8 H :   -0.195163
   9 H :   -0.186562
  10 H :   -0.177080

  Mayer bond orders larger than 0.100000
B(  0-C ,  1-S ) :   0.8433 B(  0-C ,  5-C ) :   0.8906 B(  0-C ,  6-H ) :   0.9190
B(  0-C ,  7-H ) :   0.9290 B(  1-S ,  2-F ) :   0.5879 B(  1-S ,  3-O ) :   1.4785
B(  1-S ,  4-O ) :   1.5105 B(  5-C ,  8-H ) :   0.9193 B(  5-C ,  9-H ) :   0.8825
B(  5-C , 10-H ) :   0.9655

E(0)                                       ...   -725.430371367
E(0)                                       ...   -725.430371367
E(CORR)(strong-pairs)                      ...     -1.307291777
E(CORR)(weak-pairs)                        ...     -0.001265152
E(CORR)(corrected)                         ...     -1.308556929
E(TOT)                                     ...   -726.738928296
E(CCSD(T))                                 ...   -726.792139193
FINAL SINGLE POINT ENERGY      -726.792139192944

DIPOLE MOMENT
-------------
                                X             Y             Z
Electronic contribution:      5.50590      -1.57458      -6.28648
Nuclear contribution   :     -6.81251       2.87933       7.15058
                        -----------------------------------------
Total Dipole Moment    :     -1.30661       1.30475       0.86410
                        -----------------------------------------
Magnitude (a.u.)       :      2.03869
Magnitude (Debye)      :      5.18195

Rotational constants in cm-1:     0.152543     0.082494     0.078987
Rotational constants in MHz :  4573.135887  2473.116216  2367.980829

                             ****ORCA TERMINATED NORMALLY****
TOTAL RUN TIME: 0 days 0 hours 5 minutes 39 seconds 604 msec
