                         Program Version 5.0.0 -  RELEASE  -
|  1> !DLPNO-CCSD(T) aug-cc-pVTZ aug-cc-pVTZ/C TightSCF TightPNO RIJCOSX def2/J
|  2> *xyz 0 1
|  3> C         -2.16038       -1.36949       -3.46710
|  4> C         -3.03011       -1.91086       -4.54107
|  5> C         -2.04772        0.14658       -3.51177
|  6> H         -3.47744       -2.79151       -4.25710
|  7> H         -2.53801       -2.01786       -5.43808
|  8> H         -3.89159       -1.37604       -4.71437
|  9> H         -1.18444       -1.84400       -3.56639
| 10> H         -2.59819       -1.70838       -2.52848
| 11> H         -1.61525        0.44478       -4.44395
| 12> H         -1.42718        0.48198       -2.70720
| 13> H         -3.02145        0.57958       -3.41560
| 14> *
| 15> %MaxCore 64000
| 16>
| 17> %pal nprocs 18
| 18> end
| 19>
| 20> %scf
| 21>   MaxIter 150
| 22> end
| 23>
| 24>
| 25>                          ****END OF INPUT****

CARTESIAN COORDINATES (ANGSTROEM)
---------------------------------
  C     -2.160380   -1.369490   -3.467100
  C     -3.030110   -1.910860   -4.541070
  C     -2.047720    0.146580   -3.511770
  H     -3.477440   -2.791510   -4.257100
  H     -2.538010   -2.017860   -5.438080
  H     -3.891590   -1.376040   -4.714370
  H     -1.184440   -1.844000   -3.566390
  H     -2.598190   -1.708380   -2.528480
  H     -1.615250    0.444780   -4.443950
  H     -1.427180    0.481980   -2.707200
  H     -3.021450    0.579580   -3.415600

 Total Charge           Charge          ....    0
 Multiplicity           Mult            ....    1
 Number of Electrons    NEL             ....   26
 Basis Dimension        Dim             ....  322

ORBITAL ENERGIES
----------------

  NO   OCC          E(Eh)            E(eV)
   0   2.0000     -11.208073      -304.9872
   1   2.0000     -11.199391      -304.7509
   2   2.0000     -11.177789      -304.1631
   3   2.0000      -1.066170       -29.0120
   4   2.0000      -0.941492       -25.6193
   5   2.0000      -0.807155       -21.9638
   6   2.0000      -0.639633       -17.4053
   7   2.0000      -0.602467       -16.3940
   8   2.0000      -0.557016       -15.1572
   9   2.0000      -0.548881       -14.9358
  10   2.0000      -0.481959       -13.1148
  11   2.0000      -0.470282       -12.7970
  12   2.0000      -0.466460       -12.6930
  13   0.0000       0.033007         0.8982
  14   0.0000       0.040663         1.1065
  15   0.0000       0.041907         1.1404
  16   0.0000       0.042975         1.1694
  17   0.0000       0.063930         1.7396

MULLIKEN ATOMIC CHARGES
-----------------------
   0 C :   -0.358483
   1 C :   -1.050009
   2 C :   -0.941207
   3 H :    0.271044
   4 H :    0.317413
   5 H :    0.357956
   6 H :    0.281698
   7 H :    0.253393
   8 H :    0.285719
   9 H :    0.284890
  10 H :    0.297585
Sum of atomic charges:    0.0000000

LOEWDIN ATOMIC CHARGES
----------------------
   0 C :    0.257568
   1 C :    0.604747
   2 C :    0.601249
   3 H :   -0.212813
   4 H :   -0.196950
   5 H :   -0.211434
   6 H :   -0.144090
   7 H :   -0.148041
   8 H :   -0.180124
   9 H :   -0.186567
  10 H :   -0.183546

  Mayer bond orders larger than 0.100000
B(  0-C ,  1-C ) :   0.7700 B(  0-C ,  2-C ) :   0.8298 B(  0-C ,  6-H ) :   0.9340
B(  0-C ,  7-H ) :   0.9696 B(  1-C ,  3-H ) :   1.0062 B(  1-C ,  4-H ) :   0.9307
B(  1-C ,  5-H ) :   0.8676 B(  2-C ,  8-H ) :   0.9384 B(  2-C ,  9-H ) :   0.9683
B(  2-C , 10-H ) :   0.9323

E(0)                                       ...   -118.293506518
E(0)                                       ...   -118.293506518
E(CORR)(strong-pairs)                      ...     -0.590387671
E(CORR)(weak-pairs)                        ...     -0.000447605
E(CORR)(corrected)                         ...     -0.590835275
E(TOT)                                     ...   -118.884341793
E(CCSD(T))                                 ...   -118.904821882
FINAL SINGLE POINT ENERGY      -118.904821882033

DIPOLE MOMENT
-------------
                                X             Y             Z
Electronic contribution:      0.31832      -0.12468       0.27163
Nuclear contribution   :     -0.34625       0.09603      -0.26933
                        -----------------------------------------
Total Dipole Moment    :     -0.02793      -0.02865       0.00230
                        -----------------------------------------
Magnitude (a.u.)       :      0.04008
Magnitude (Debye)      :      0.10186

Rotational constants in cm-1:     1.028617     0.291238     0.258956
Rotational constants in MHz : 30837.159054  8731.095379  7763.318586

                             ****ORCA TERMINATED NORMALLY****
TOTAL RUN TIME: 0 days 0 hours 1 minutes 54 seconds 285 msec
