                         Program Version 5.0.0 -  RELEASE  -
|  1> !DLPNO-CCSD(T) aug-cc-pVTZ aug-cc-pVTZ/C TightSCF TightPNO RIJCOSX def2/J
|  2> *xyz 0 1
|  3> C         -7.33044       -2.67899       -3.20681
|  4> S         -6.01966       -2.92697       -4.41913
|  5> O         -5.64583       -1.58838       -4.91931
|  6> F         -4.88196       -3.50370       -3.66724
|  7> O         -6.54927       -3.80515       -5.42507
|  8> C         -7.46900       -1.24615       -2.71383
|  9> H         -7.11825       -3.37982       -2.39805
| 10> H         -8.24184       -3.00474       -3.70651
| 11> H         -7.67580       -0.60214       -3.54292
| 12> H         -6.55749       -0.94096       -2.24382
| 13> H         -8.27114       -1.18777       -2.00810
| 14> *
| 15> %MaxCore 64000
| 16>
| 17> %pal nprocs 18
| 18> end
| 19>
| 20> %scf
| 21>   MaxIter 150
| 22> end
| 23>
| 24>
| 25>                          ****END OF INPUT****

CARTESIAN COORDINATES (ANGSTROEM)
---------------------------------
  C     -7.330440   -2.678990   -3.206810
  S     -6.019660   -2.926970   -4.419130
  O     -5.645830   -1.588380   -4.919310
  F     -4.881960   -3.503700   -3.667240
  O     -6.549270   -3.805150   -5.425070
  C     -7.469000   -1.246150   -2.713830
  H     -7.118250   -3.379820   -2.398050
  H     -8.241840   -3.004740   -3.706510
  H     -7.675800   -0.602140   -3.542920
  H     -6.557490   -0.940960   -2.243820
  H     -8.271140   -1.187770   -2.008100

 Total Charge           Charge          ....    0
 Multiplicity           Mult            ....    1
 Number of Electrons    NEL             ....   58
 Basis Dimension        Dim             ....  395

ORBITAL ENERGIES
----------------

  NO   OCC          E(Eh)            E(eV)
   0   2.0000     -92.250233     -2510.2565
   1   2.0000     -26.414071      -718.7634
   2   2.0000     -20.572009      -559.7928
   3   2.0000     -20.559082      -559.4411
   4   2.0000     -11.299750      -307.4818
   5   2.0000     -11.246902      -306.0438
   6   2.0000      -9.213468      -250.7112
   7   2.0000      -6.900974      -187.7850
   8   2.0000      -6.897115      -187.6800
   9   2.0000      -6.896149      -187.6538
  10   2.0000      -1.767764       -48.1033
  11   2.0000      -1.457366       -39.6569
  12   2.0000      -1.348579       -36.6967
  13   2.0000      -1.103243       -30.0208
  14   2.0000      -0.977697       -26.6045
  15   2.0000      -0.905794       -24.6479
  16   2.0000      -0.807811       -21.9816
  17   2.0000      -0.804535       -21.8925
  18   2.0000      -0.761830       -20.7304
  19   2.0000      -0.676134       -18.3985
  20   2.0000      -0.666453       -18.1351
  21   2.0000      -0.640362       -17.4251
  22   2.0000      -0.595646       -16.2083
  23   2.0000      -0.564137       -15.3510
  24   2.0000      -0.560296       -15.2464
  25   2.0000      -0.545853       -14.8534
  26   2.0000      -0.499337       -13.5876
  27   2.0000      -0.482968       -13.1422
  28   2.0000      -0.480694       -13.0804
  29   0.0000       0.021978         0.5981
  30   0.0000       0.036442         0.9916
  31   0.0000       0.039292         1.0692
  32   0.0000       0.048633         1.3234
  33   0.0000       0.062744         1.7073

MULLIKEN ATOMIC CHARGES
-----------------------
   0 C :   -0.490119
   1 S :    2.155404
   2 O :   -0.888698
   3 F :   -0.502822
   4 O :   -0.881288
   5 C :   -0.907516
   6 H :    0.260861
   7 H :    0.289863
   8 H :    0.332702
   9 H :    0.328756
  10 H :    0.302856
Sum of atomic charges:   -0.0000000

LOEWDIN ATOMIC CHARGES
----------------------
   0 C :    0.178078
   1 S :   -0.087704
   2 O :    0.016938
   3 F :    0.252241
   4 O :    0.029627
   5 C :    0.563314
   6 H :   -0.196179
   7 H :   -0.193853
   8 H :   -0.194552
   9 H :   -0.187800
  10 H :   -0.180110

  Mayer bond orders larger than 0.100000
B(  0-C ,  1-S ) :   0.8571 B(  0-C ,  5-C ) :   0.9016 B(  0-C ,  6-H ) :   0.9237
B(  0-C ,  7-H ) :   0.9195 B(  1-S ,  2-O ) :   1.4939 B(  1-S ,  3-F ) :   0.5584
B(  1-S ,  4-O ) :   1.5143 B(  5-C ,  8-H ) :   0.9085 B(  5-C ,  9-H ) :   0.8955
B(  5-C , 10-H ) :   0.9509

E(0)                                       ...   -725.433134461
E(0)                                       ...   -725.433134461
E(CORR)(strong-pairs)                      ...     -1.307555522
E(CORR)(weak-pairs)                        ...     -0.001269295
E(CORR)(corrected)                         ...     -1.308824817
E(TOT)                                     ...   -726.741959279
E(CCSD(T))                                 ...   -726.795242804
FINAL SINGLE POINT ENERGY      -726.795242804196

DIPOLE MOMENT
-------------
                                X             Y             Z
Electronic contribution:      6.90846      -4.98710      -4.08327
Nuclear contribution   :     -7.60849       4.87515       5.84588
                        -----------------------------------------
Total Dipole Moment    :     -0.70002      -0.11195       1.76261
                        -----------------------------------------
Magnitude (a.u.)       :      1.89983
Magnitude (Debye)      :      4.82899

Rotational constants in cm-1:     0.153704     0.080342     0.079431
Rotational constants in MHz :  4607.928650  2408.599360  2381.267225

                             ****ORCA TERMINATED NORMALLY****
TOTAL RUN TIME: 0 days 0 hours 6 minutes 34 seconds 504 msec
