                         Program Version 5.0.0 -  RELEASE  -
|  1> !DLPNO-CCSD(T) aug-cc-pVTZ aug-cc-pVTZ/C TightSCF TightPNO RIJCOSX def2/J
|  2> *xyz 0 1
|  3> C         -7.33044       -2.67899       -3.20681
|  4> S         -6.01966       -2.92697       -4.41913
|  5> O         -5.64583       -1.58838       -4.91931
|  6> O         -4.88196       -3.50370       -3.66724
|  7> F         -6.54927       -3.80515       -5.42507
|  8> C         -7.46900       -1.24615       -2.71383
|  9> H         -7.11825       -3.37982       -2.39805
| 10> H         -8.24184       -3.00474       -3.70651
| 11> H         -7.67580       -0.60214       -3.54292
| 12> H         -6.55749       -0.94096       -2.24382
| 13> H         -8.27114       -1.18777       -2.00810
| 14> *
| 15> %MaxCore 64000
| 16>
| 17> %pal nprocs 18
| 18> end
| 19>
| 20> %scf
| 21>   MaxIter 150
| 22> end
| 23>
| 24>
| 25>                          ****END OF INPUT****

CARTESIAN COORDINATES (ANGSTROEM)
---------------------------------
  C     -7.330440   -2.678990   -3.206810
  S     -6.019660   -2.926970   -4.419130
  O     -5.645830   -1.588380   -4.919310
  O     -4.881960   -3.503700   -3.667240
  F     -6.549270   -3.805150   -5.425070
  C     -7.469000   -1.246150   -2.713830
  H     -7.118250   -3.379820   -2.398050
  H     -8.241840   -3.004740   -3.706510
  H     -7.675800   -0.602140   -3.542920
  H     -6.557490   -0.940960   -2.243820
  H     -8.271140   -1.187770   -2.008100

 Total Charge           Charge          ....    0
 Multiplicity           Mult            ....    1
 Number of Electrons    NEL             ....   58
 Basis Dimension        Dim             ....  395

ORBITAL ENERGIES
----------------

  NO   OCC          E(Eh)            E(eV)
   0   2.0000     -92.251478     -2510.2904
   1   2.0000     -26.437644      -719.4049
   2   2.0000     -20.559639      -559.4562
   3   2.0000     -20.556921      -559.3823
   4   2.0000     -11.300556      -307.5038
   5   2.0000     -11.246855      -306.0425
   6   2.0000      -9.214997      -250.7528
   7   2.0000      -6.902458      -187.8254
   8   2.0000      -6.898480      -187.7172
   9   2.0000      -6.897648      -187.6946
  10   2.0000      -1.808153       -49.2023
  11   2.0000      -1.437996       -39.1299
  12   2.0000      -1.329539       -36.1786
  13   2.0000      -1.103663       -30.0322
  14   2.0000      -0.995730       -27.0952
  15   2.0000      -0.915688       -24.9171
  16   2.0000      -0.834532       -22.7088
  17   2.0000      -0.827846       -22.5268
  18   2.0000      -0.764230       -20.7958
  19   2.0000      -0.673040       -18.3143
  20   2.0000      -0.667305       -18.1583
  21   2.0000      -0.621828       -16.9208
  22   2.0000      -0.591757       -16.1025
  23   2.0000      -0.563503       -15.3337
  24   2.0000      -0.549069       -14.9409
  25   2.0000      -0.544907       -14.8277
  26   2.0000      -0.490665       -13.3517
  27   2.0000      -0.476196       -12.9580
  28   2.0000      -0.467038       -12.7087
  29   0.0000       0.021469         0.5842
  30   0.0000       0.035823         0.9748
  31   0.0000       0.039801         1.0830
  32   0.0000       0.049483         1.3465
  33   0.0000       0.063782         1.7356

MULLIKEN ATOMIC CHARGES
-----------------------
   0 C :   -0.500881
   1 S :    2.133512
   2 O :   -0.883192
   3 O :   -0.880308
   4 F :   -0.491266
   5 C :   -0.902241
   6 H :    0.265057
   7 H :    0.285018
   8 H :    0.323023
   9 H :    0.350256
  10 H :    0.301020
Sum of atomic charges:   -0.0000000

LOEWDIN ATOMIC CHARGES
----------------------
   0 C :    0.175022
   1 S :   -0.092410
   2 O :    0.016123
   3 O :    0.000534
   4 F :    0.288010
   5 C :    0.569060
   6 H :   -0.193857
   7 H :   -0.205164
   8 H :   -0.196518
   9 H :   -0.181984
  10 H :   -0.178816

  Mayer bond orders larger than 0.100000
B(  0-C ,  1-S ) :   0.8555 B(  0-C ,  5-C ) :   0.8934 B(  0-C ,  6-H ) :   0.9391
B(  0-C ,  7-H ) :   0.9111 B(  1-S ,  2-O ) :   1.5008 B(  1-S ,  3-O ) :   1.4866
B(  1-S ,  4-F ) :   0.5279 B(  5-C ,  8-H ) :   0.9102 B(  5-C ,  9-H ) :   0.8799
B(  5-C , 10-H ) :   0.9528

E(0)                                       ...   -725.414275495
E(0)                                       ...   -725.414275495
E(CORR)(strong-pairs)                      ...     -1.308580095
E(CORR)(weak-pairs)                        ...     -0.001273272
E(CORR)(corrected)                         ...     -1.309853367
E(TOT)                                     ...   -726.724128862
E(CCSD(T))                                 ...   -726.777720358
FINAL SINGLE POINT ENERGY      -726.777720358021

DIPOLE MOMENT
-------------
                                X             Y             Z
Electronic contribution:      3.93914      -5.50346      -7.21563
Nuclear contribution   :     -5.87110       5.18927       7.67759
                        -----------------------------------------
Total Dipole Moment    :     -1.93196      -0.31419       0.46196
                        -----------------------------------------
Magnitude (a.u.)       :      2.01112
Magnitude (Debye)      :      5.11185

Rotational constants in cm-1:     0.155988     0.080452     0.078187
Rotational constants in MHz :  4676.405251  2411.902056  2343.983816

                             ****ORCA TERMINATED NORMALLY****
TOTAL RUN TIME: 0 days 0 hours 6 minutes 41 seconds 383 msec
