                         Program Version 5.0.0 -  RELEASE  -
|  1> !LC-PBE RIJCOSX def2-SVP def2/J TightSCF
|  2> *xyz -1 1
|  3> C         -0.72184       -0.99951       -3.43931
|  4> C          0.28725       -1.71177       -2.52740
|  5> H          1.13178       -2.06738       -3.15940
|  6> H         -0.20414       -2.63733       -2.17048
|  7> O          0.71050       -0.92751       -1.48177
|  8> H         -1.01315       -1.65739       -4.23129
|  9> H         -0.27123       -0.12142       -3.85259
| 10> H         -1.58442       -0.72333       -2.86958
| 11> *
| 12> %MaxCore 64000
| 13>
| 14> %pal nprocs 4
| 15> end
| 16>
| 17> %scf
| 18>   MaxIter 150
| 19> end
| 20>
| 21>
| 22>                          ****END OF INPUT****

CARTESIAN COORDINATES (ANGSTROEM)
---------------------------------
  C     -0.721840   -0.999510   -3.439310
  C      0.287250   -1.711770   -2.527400
  H      1.131780   -2.067380   -3.159400
  H     -0.204140   -2.637330   -2.170480
  O      0.710500   -0.927510   -1.481770
  H     -1.013150   -1.657390   -4.231290
  H     -0.271230   -0.121420   -3.852590
  H     -1.584420   -0.723330   -2.869580

 Total Charge           Charge          ....   -1
 Multiplicity           Mult            ....    1
 Number of Electrons    NEL             ....   26
 Basis Dimension        Dim             ....   67

ORBITAL ENERGIES
----------------

  NO   OCC          E(Eh)            E(eV)
   0   2.0000     -18.585472      -505.7364
   1   2.0000      -9.913612      -269.7631
   2   2.0000      -9.902579      -269.4629
   3   2.0000      -0.790981       -21.5237
   4   2.0000      -0.668185       -18.1822
   5   2.0000      -0.501806       -13.6548
   6   2.0000      -0.379045       -10.3143
   7   2.0000      -0.351838        -9.5740
   8   2.0000      -0.291524        -7.9328
   9   2.0000      -0.269545        -7.3347
  10   2.0000      -0.197672        -5.3789
  11   2.0000      -0.046077        -1.2538
  12   2.0000      -0.042812        -1.1650
  13   0.0000       0.342235         9.3127
  14   0.0000       0.389233        10.5916
  15   0.0000       0.401868        10.9354
  16   0.0000       0.409444        11.1415
  17   0.0000       0.454328        12.3629

MULLIKEN ATOMIC CHARGES
-----------------------
   0 C :   -0.103901
   1 C :    0.149280
   2 H :   -0.123419
   3 H :   -0.123000
   4 O :   -0.726793
   5 H :   -0.057733
   6 H :   -0.007916
   7 H :   -0.006517
Sum of atomic charges:   -1.0000000

LOEWDIN ATOMIC CHARGES
----------------------
   0 C :   -0.145035
   1 C :   -0.023209
   2 H :   -0.065649
   3 H :   -0.064785
   4 O :   -0.691863
   5 H :   -0.015730
   6 H :    0.002727
   7 H :    0.003544

  Mayer bond orders larger than 0.100000
B(  0-C ,  1-C ) :   0.9857 B(  0-C ,  5-H ) :   0.9490 B(  0-C ,  6-H ) :   0.9708
B(  0-C ,  7-H ) :   0.9717 B(  1-C ,  2-H ) :   0.9013 B(  1-C ,  3-H ) :   0.9022
B(  1-C ,  4-O ) :   1.4983

FINAL SINGLE POINT ENERGY      -153.803262472199

DIPOLE MOMENT
-------------
                                X             Y             Z
Electronic contribution:      1.47092       0.83639       2.45352
Nuclear contribution   :     -2.24828      -1.06600      -3.62481
                        -----------------------------------------
Total Dipole Moment    :     -0.77736      -0.22961      -1.17129
                        -----------------------------------------
Magnitude (a.u.)       :      1.42441
Magnitude (Debye)      :      3.62055

Rotational constants in cm-1:     1.278116     0.325414     0.286672
Rotational constants in MHz : 38316.964654  9755.653004  8594.216906

                             ****ORCA TERMINATED NORMALLY****
TOTAL RUN TIME: 0 days 0 hours 0 minutes 7 seconds 712 msec
