                         Program Version 5.0.0 -  RELEASE  -
|  1> !LC-PBE RIJCOSX def2-SVP def2/J TightSCF
|  2> *xyz 1 1
|  3> C          3.48828        1.60092       -1.52204
|  4> C          4.34297        1.31342       -2.75683
|  5> N          2.81029        0.42878       -1.01420
|  6> H          2.71455        2.33145       -1.76030
|  7> H          4.09099        2.06315       -0.73338
|  8> C          3.29098       -0.41802       -0.12908
|  9> N          2.51754       -1.43202        0.23936
| 10> N          4.53549       -0.28441        0.39580
| 11> H          5.04363        0.57189        0.22290
| 12> H          4.72335       -0.73327        1.28180
| 13> H          1.93479        0.10230       -1.40379
| 14> H          1.67464       -1.50562       -0.31610
| 15> H          2.92850       -2.21850        0.72549
| 16> H          3.73575        0.86277       -3.51385
| 17> H          5.13754        0.64699       -2.49333
| 18> H          4.75374        2.22930       -3.12740
| 19> *
| 20> %MaxCore 64000
| 21>
| 22> %pal nprocs 4
| 23> end
| 24>
| 25> %scf
| 26>   MaxIter 150
| 27> end
| 28>
| 29>
| 30>                          ****END OF INPUT****

CARTESIAN COORDINATES (ANGSTROEM)
---------------------------------
  C      3.488280    1.600920   -1.522040
  C      4.342970    1.313420   -2.756830
  N      2.810290    0.428780   -1.014200
  H      2.714550    2.331450   -1.760300
  H      4.090990    2.063150   -0.733380
  C      3.290980   -0.418020   -0.129080
  N      2.517540   -1.432020    0.239360
  N      4.535490   -0.284410    0.395800
  H      5.043630    0.571890    0.222900
  H      4.723350   -0.733270    1.281800
  H      1.934790    0.102300   -1.403790
  H      1.674640   -1.505620   -0.316100
  H      2.928500   -2.218500    0.725490
  H      3.735750    0.862770   -3.513850
  H      5.137540    0.646990   -2.493330
  H      4.753740    2.229300   -3.127400

 Total Charge           Charge          ....    1
 Multiplicity           Mult            ....    1
 Number of Electrons    NEL             ....   48
 Basis Dimension        Dim             ....  134

ORBITAL ENERGIES
----------------

  NO   OCC          E(Eh)            E(eV)
   0   2.0000     -14.459257      -393.4564
   1   2.0000     -14.453026      -393.2868
   2   2.0000     -14.449803      -393.1991
   3   2.0000     -10.470175      -284.9080
   4   2.0000     -10.336322      -281.2656
   5   2.0000     -10.260481      -279.2019
   6   2.0000      -1.394621       -37.9496
   7   2.0000      -1.272646       -34.6305
   8   2.0000      -1.256147       -34.1815
   9   2.0000      -1.101723       -29.9794
  10   2.0000      -0.994089       -27.0505
  11   2.0000      -0.964226       -26.2379
  12   2.0000      -0.934232       -25.4217
  13   2.0000      -0.897197       -24.4140
  14   2.0000      -0.835682       -22.7401
  15   2.0000      -0.824009       -22.4224
  16   2.0000      -0.801811       -21.8184
  17   2.0000      -0.790596       -21.5132
  18   2.0000      -0.744132       -20.2489
  19   2.0000      -0.701502       -19.0888
  20   2.0000      -0.665351       -18.1051
  21   2.0000      -0.642323       -17.4785
  22   2.0000      -0.611669       -16.6444
  23   2.0000      -0.579751       -15.7758
  24   0.0000      -0.066740        -1.8161
  25   0.0000      -0.044731        -1.2172
  26   0.0000      -0.013459        -0.3662
  27   0.0000       0.004021         0.1094
  28   0.0000       0.029919         0.8141

MULLIKEN ATOMIC CHARGES
-----------------------
   0 C :   -0.104921
   1 C :   -0.115755
   2 N :   -0.153972
   3 H :    0.126477
   4 H :    0.105456
   5 C :    0.091729
   6 N :   -0.097646
   7 N :   -0.130089
   8 H :    0.194584
   9 H :    0.202949
  10 H :    0.193394
  11 H :    0.194812
  12 H :    0.210281
  13 H :    0.091686
  14 H :    0.076074
  15 H :    0.114941
Sum of atomic charges:    1.0000000

LOEWDIN ATOMIC CHARGES
----------------------
   0 C :    0.008157
   1 C :   -0.082343
   2 N :    0.030138
   3 H :    0.063705
   4 H :    0.047243
   5 C :    0.158817
   6 N :    0.030288
   7 N :    0.012766
   8 H :    0.111747
   9 H :    0.118991
  10 H :    0.114012
  11 H :    0.115713
  12 H :    0.123232
  13 H :    0.047571
  14 H :    0.039625
  15 H :    0.060337

  Mayer bond orders larger than 0.100000
B(  0-C ,  1-C ) :   1.0623 B(  0-C ,  2-N ) :   0.9136 B(  0-C ,  3-H ) :   0.9497
B(  0-C ,  4-H ) :   0.9596 B(  1-C , 13-H ) :   0.9696 B(  1-C , 14-H ) :   0.9706
B(  1-C , 15-H ) :   0.9666 B(  2-N ,  5-C ) :   1.4027 B(  2-N , 10-H ) :   0.9054
B(  5-C ,  6-N ) :   1.3945 B(  5-C ,  7-N ) :   1.3724 B(  6-N , 11-H ) :   0.9199
B(  6-N , 12-H ) :   0.9205 B(  7-N ,  8-H ) :   0.9221 B(  7-N ,  9-H ) :   0.9233

FINAL SINGLE POINT ENERGY      -283.292098311207

DIPOLE MOMENT
-------------
                                X             Y             Z
Electronic contribution:     -1.95705      -3.06487       3.80624
Nuclear contribution   :      1.59382       2.33278      -3.02574
                        -----------------------------------------
Total Dipole Moment    :     -0.36323      -0.73209       0.78050
                        -----------------------------------------
Magnitude (a.u.)       :      1.13008
Magnitude (Debye)      :      2.87243

Rotational constants in cm-1:     0.232230     0.073139     0.063030
Rotational constants in MHz :  6962.079716  2192.649203  1889.578947

                             ****ORCA TERMINATED NORMALLY****
TOTAL RUN TIME: 0 days 0 hours 0 minutes 18 seconds 714 msec
