                         Program Version 5.0.0 -  RELEASE  -
|  1> !LC-PBE RIJCOSX def2-TZVP def2/J TightSCF xyzfile
|  2>
|  3> *xyzfile 0 1 B.xyz
|  4>
|  5> %MaxCore 64000
|  6>
|  7> %pal nprocs 18
|  8> end
|  9>
| 10> %scf
| 11>   MaxIter 150
| 12> end
| 13>
| 14>
| 15>                          ****END OF INPUT****

CARTESIAN COORDINATES (ANGSTROEM)
---------------------------------
  C      3.488276    1.600919   -1.522040
  C      4.342970    1.313419   -2.756826
  N      2.810285    0.428783   -1.014196
  H      5.132033    0.604994   -2.484466
  C      3.535896    0.749253   -3.924604
  H      4.841247    2.242136   -3.054083
  H      2.991617   -0.132199   -3.574137
  H      4.225505    0.392784   -4.695962
  C      2.564776    1.750890   -4.544523
  H      1.918749    2.171679   -3.769419
  C      1.686235    1.161657   -5.650111
  H      3.132494    2.594775   -4.951604
  C      0.839616   -0.037582   -5.220473
  H      2.323886    0.866395   -6.490796
  H      1.029518    1.951850   -6.029329
  C     -0.151019    0.254955   -4.094256
  H      1.499442   -0.857141   -4.922958
  H      0.290097   -0.410143   -6.091131
  H      0.328265    0.833022   -3.299125
  C     -0.721843   -0.999513   -3.439309
  H     -0.957367    0.884951   -4.485450
  H     -1.083403   -1.697555   -4.205656
  H     -1.581056   -0.723848   -2.820490
  C      0.287250   -1.711771   -2.527405
  H      1.131780   -2.067380   -3.159396
  H     -0.204137   -2.637326   -2.170480
  O      0.710505   -0.927506   -1.481767
  H      2.714548    2.331455   -1.760302
  H      4.090991    2.063151   -0.733382
  C      3.290978   -0.418021   -0.129083
  N      2.517536   -1.432017    0.239360
  N      4.535490   -0.284410    0.395800
  H      5.043627    0.571888    0.222899
  H      4.723346   -0.733273    1.281800
  H      1.934787    0.102305   -1.403788
  H      1.674638   -1.505616   -0.316095
  H      2.928503   -2.218502    0.725494

 Total Charge           Charge          ....    0
 Multiplicity           Mult            ....    1
 Number of Electrons    NEL             ....  112
 Basis Dimension        Dim             ....  572

ORBITAL ENERGIES
----------------

  NO   OCC          E(Eh)            E(eV)
   0   2.0000     -18.837555      -512.5959
   1   2.0000     -14.273924      -388.4132
   2   2.0000     -14.236171      -387.3859
   3   2.0000     -14.226336      -387.1183
   4   2.0000     -10.271487      -279.5014
   5   2.0000     -10.168837      -276.7081
   6   2.0000     -10.124012      -275.4884
   7   2.0000     -10.106257      -275.0052
   8   2.0000     -10.100888      -274.8591
   9   2.0000     -10.094261      -274.6788
  10   2.0000     -10.089852      -274.5588
  11   2.0000     -10.082035      -274.3461
  12   2.0000     -10.070874      -274.0424
  13   2.0000     -10.058662      -273.7101
  14   2.0000      -1.213803       -33.0293
  15   2.0000      -1.100814       -29.9547
  16   2.0000      -1.080793       -29.4099
  17   2.0000      -1.045692       -28.4547
  18   2.0000      -0.992907       -27.0184
  19   2.0000      -0.955647       -26.0045
  20   2.0000      -0.913952       -24.8699
  21   2.0000      -0.871749       -23.7215
  22   2.0000      -0.827776       -22.5249
  23   2.0000      -0.808700       -22.0059
  24   2.0000      -0.770837       -20.9755
  25   2.0000      -0.759095       -20.6560
  26   2.0000      -0.750090       -20.4110
  27   2.0000      -0.717516       -19.5246
  28   2.0000      -0.698937       -19.0190
  29   2.0000      -0.670799       -18.2534
  30   2.0000      -0.657994       -17.9049
  31   2.0000      -0.639018       -17.3886
  32   2.0000      -0.630047       -17.1444
  33   2.0000      -0.615232       -16.7413
  34   2.0000      -0.607951       -16.5432
  35   2.0000      -0.602952       -16.4072
  36   2.0000      -0.577245       -15.7076
  37   2.0000      -0.563696       -15.3389
  38   2.0000      -0.555223       -15.1084
  39   2.0000      -0.532012       -14.4768
  40   2.0000      -0.525140       -14.2898
  41   2.0000      -0.514752       -14.0071
  42   2.0000      -0.492360       -13.3978
  43   2.0000      -0.484265       -13.1775
  44   2.0000      -0.478144       -13.0110
  45   2.0000      -0.462956       -12.5977
  46   2.0000      -0.448820       -12.2130
  47   2.0000      -0.442104       -12.0303
  48   2.0000      -0.438955       -11.9446
  49   2.0000      -0.434190       -11.8149
  50   2.0000      -0.413343       -11.2476
  51   2.0000      -0.410643       -11.1742
  52   2.0000      -0.403392       -10.9769
  53   2.0000      -0.390743       -10.6327
  54   2.0000      -0.303267        -8.2523
  55   2.0000      -0.296513        -8.0685
  56   0.0000       0.079795         2.1713
  57   0.0000       0.101722         2.7680
  58   0.0000       0.114377         3.1124
  59   0.0000       0.132195         3.5972
  60   0.0000       0.136283         3.7085

MULLIKEN ATOMIC CHARGES
-----------------------
   0 C :   -0.403251
   1 C :   -0.205969
   2 N :   -0.182481
   3 H :    0.150083
   4 C :   -0.329519
   5 H :    0.150139
   6 H :    0.184713
   7 H :    0.154363
   8 C :   -0.343353
   9 H :    0.156390
  10 C :   -0.228658
  11 H :    0.144793
  12 C :   -0.371435
  13 H :    0.142913
  14 H :    0.143993
  15 C :   -0.272931
  16 H :    0.161380
  17 H :    0.145729
  18 H :    0.141028
  19 C :   -0.206891
  20 H :    0.132994
  21 H :    0.109382
  22 H :    0.121039
  23 C :   -0.074650
  24 H :    0.057484
  25 H :    0.082409
  26 O :   -0.775473
  27 H :    0.210640
  28 H :    0.159933
  29 C :    0.334772
  30 N :   -0.420858
  31 N :   -0.478975
  32 H :    0.274085
  33 H :    0.271386
  34 H :    0.301195
  35 H :    0.312983
  36 H :    0.250618
Sum of atomic charges:    0.0000000

LOEWDIN ATOMIC CHARGES
----------------------
   0 C :   -0.301983
   1 C :   -0.287796
   2 N :    0.178486
   3 H :    0.143269
   4 C :   -0.282373
   5 H :    0.147977
   6 H :    0.152702
   7 H :    0.146590
   8 C :   -0.289081
   9 H :    0.140590
  10 C :   -0.287698
  11 H :    0.142363
  12 C :   -0.289664
  13 H :    0.142231
  14 H :    0.144175
  15 C :   -0.291720
  16 H :    0.140421
  17 H :    0.142156
  18 H :    0.141708
  19 C :   -0.300736
  20 H :    0.137738
  21 H :    0.135210
  22 H :    0.139796
  23 C :   -0.493647
  24 H :    0.096285
  25 H :    0.108328
  26 O :   -0.310238
  27 H :    0.151498
  28 H :    0.134446
  29 C :   -0.419476
  30 N :    0.035381
  31 N :   -0.008614
  32 H :    0.180497
  33 H :    0.183684
  34 H :    0.166624
  35 H :    0.154850
  36 H :    0.176025

  Mayer bond orders larger than 0.100000
B(  0-C ,  1-C ) :   0.8921 B(  0-C ,  2-N ) :   0.8798 B(  0-C , 27-H ) :   0.9838
B(  0-C , 28-H ) :   0.9970 B(  1-C ,  3-H ) :   0.9778 B(  1-C ,  4-C ) :   0.9497
B(  1-C ,  5-H ) :   0.9832 B(  2-N , 29-C ) :   1.4720 B(  2-N , 34-H ) :   0.7323
B(  4-C ,  6-H ) :   0.9702 B(  4-C ,  7-H ) :   0.9776 B(  4-C ,  8-C ) :   0.9009
B(  8-C ,  9-H ) :   0.9862 B(  8-C , 10-C ) :   0.9547 B(  8-C , 11-H ) :   0.9743
B( 10-C , 12-C ) :   0.9337 B( 10-C , 13-H ) :   0.9887 B( 10-C , 14-H ) :   0.9889
B( 12-C , 15-C ) :   0.9050 B( 12-C , 16-H ) :   0.9927 B( 12-C , 17-H ) :   0.9783
B( 15-C , 18-H ) :   0.9789 B( 15-C , 19-C ) :   0.9643 B( 15-C , 20-H ) :   0.9727
B( 19-C , 21-H ) :   0.9761 B( 19-C , 22-H ) :   0.9742 B( 19-C , 23-C ) :   0.9513
B( 23-C , 24-H ) :   0.9823 B( 23-C , 25-H ) :   0.9720 B( 23-C , 26-O ) :   1.1110
B( 26-O , 34-H ) :   0.2470 B( 26-O , 35-H ) :   0.2303 B( 29-C , 30-N ) :   1.4113
B( 29-C , 31-N ) :   1.2129 B( 30-N , 35-H ) :   0.7354 B( 30-N , 36-H ) :   0.9156
B( 31-N , 32-H ) :   0.9053 B( 31-N , 33-H ) :   0.9099

FINAL SINGLE POINT ENERGY      -632.572374304212

DIPOLE MOMENT
-------------
                                X             Y             Z
Electronic contribution:      3.67129      -2.06396      11.37740
Nuclear contribution   :     -0.74583       2.62534      -9.91488
                        -----------------------------------------
Total Dipole Moment    :      2.92546       0.56138       1.46252
                        -----------------------------------------
Magnitude (a.u.)       :      3.31850
Magnitude (Debye)      :      8.43495

Rotational constants in cm-1:     0.027028     0.016098     0.010898
Rotational constants in MHz :   810.278072   482.590922   326.703462

                             ****ORCA TERMINATED NORMALLY****
TOTAL RUN TIME: 0 days 0 hours 1 minutes 21 seconds 388 msec
