                         Program Version 5.0.0 -  RELEASE  -
|  1> !LC-PBE RIJCOSX def2-SVP def2/J TightSCF
|  2> *xyz 0 1
|  3> C         -0.72184       -0.99951       -3.43931
|  4> C          0.28725       -1.71177       -2.52740
|  5> H          1.13178       -2.06738       -3.15940
|  6> H         -0.20414       -2.63733       -2.17048
|  7> F          0.71050       -0.92751       -1.48177
|  8> H         -1.01315       -1.65739       -4.23129
|  9> H         -0.27123       -0.12142       -3.85259
| 10> H         -1.58442       -0.72333       -2.86958
| 11> *
| 12> %MaxCore 64000
| 13>
| 14> %pal nprocs 4
| 15> end
| 16>
| 17> %scf
| 18>   MaxIter 150
| 19> end
| 20>
| 21>
| 22>                          ****END OF INPUT****

CARTESIAN COORDINATES (ANGSTROEM)
---------------------------------
  C     -0.721840   -0.999510   -3.439310
  C      0.287250   -1.711770   -2.527400
  H      1.131780   -2.067380   -3.159400
  H     -0.204140   -2.637330   -2.170480
  F      0.710500   -0.927510   -1.481770
  H     -1.013150   -1.657390   -4.231290
  H     -0.271230   -0.121420   -3.852590
  H     -1.584420   -0.723330   -2.869580

 Total Charge           Charge          ....    0
 Multiplicity           Mult            ....    1
 Number of Electrons    NEL             ....   26
 Basis Dimension        Dim             ....   67

ORBITAL ENERGIES
----------------

  NO   OCC          E(Eh)            E(eV)
   0   2.0000     -24.470003      -665.8626
   1   2.0000     -10.200855      -277.5794
   2   2.0000     -10.119697      -275.3710
   3   2.0000      -1.321793       -35.9678
   4   2.0000      -0.931312       -25.3423
   5   2.0000      -0.782884       -21.3034
   6   2.0000      -0.646907       -17.6032
   7   2.0000      -0.641138       -17.4462
   8   2.0000      -0.596548       -16.2329
   9   2.0000      -0.539221       -14.6729
  10   2.0000      -0.534237       -14.5373
  11   2.0000      -0.463689       -12.6176
  12   2.0000      -0.455193       -12.3864
  13   0.0000       0.156713         4.2644
  14   0.0000       0.204060         5.5527
  15   0.0000       0.210849         5.7375
  16   0.0000       0.229518         6.2455
  17   0.0000       0.250687         6.8216

MULLIKEN ATOMIC CHARGES
-----------------------
   0 C :   -0.192595
   1 C :    0.118690
   2 H :    0.056279
   3 H :    0.054316
   4 F :   -0.253843
   5 H :    0.065175
   6 H :    0.075909
   7 H :    0.076070
Sum of atomic charges:   -0.0000000

LOEWDIN ATOMIC CHARGES
----------------------
   0 C :   -0.110794
   1 C :    0.077560
   2 H :    0.023869
   3 H :    0.022717
   4 F :   -0.132615
   5 H :    0.042286
   6 H :    0.038328
   7 H :    0.038649

  Mayer bond orders larger than 0.100000
B(  0-C ,  1-C ) :   1.0676 B(  0-C ,  5-H ) :   0.9656 B(  0-C ,  6-H ) :   0.9736
B(  0-C ,  7-H ) :   0.9736 B(  1-C ,  2-H ) :   0.9631 B(  1-C ,  3-H ) :   0.9637
B(  1-C ,  4-F ) :   1.0160

FINAL SINGLE POINT ENERGY      -178.422389019987

DIPOLE MOMENT
-------------
                                X             Y             Z
Electronic contribution:      2.70748       1.03275       4.22154
Nuclear contribution   :     -2.97459      -1.40206      -4.79987
                        -----------------------------------------
Total Dipole Moment    :     -0.26712      -0.36930      -0.57833
                        -----------------------------------------
Magnitude (a.u.)       :      0.73634
Magnitude (Debye)      :      1.87164

Rotational constants in cm-1:     1.257024     0.302702     0.267953
Rotational constants in MHz : 37684.643733  9074.792567  8033.038070

                             ****ORCA TERMINATED NORMALLY****
TOTAL RUN TIME: 0 days 0 hours 0 minutes 7 seconds 577 msec
