                         Program Version 5.0.0 -  RELEASE  -
|  1> !LC-PBE RIJCOSX def2-SVP def2/J TightSCF
|  2> *xyz 0 1
|  3> C          3.48828        1.60092       -1.52204
|  4> C          4.34297        1.31342       -2.75683
|  5> C          2.81029        0.42878       -1.01420
|  6> H          2.71455        2.33145       -1.76030
|  7> H          4.09099        2.06315       -0.73338
|  8> C          3.29098       -0.41802       -0.12908
|  9> N          2.51754       -1.43202        0.23936
| 10> N          4.53549       -0.28441        0.39580
| 11> H          5.04363        0.57189        0.22290
| 12> H          4.72335       -0.73327        1.28180
| 13> H          1.93479        0.10230       -1.40379
| 14> H          1.67464       -1.50562       -0.31610
| 15> H          2.92850       -2.21850        0.72549
| 16> H          3.73575        0.86277       -3.51385
| 17> H          5.13754        0.64699       -2.49333
| 18> H          4.75374        2.22930       -3.12740
| 19> *
| 20> %MaxCore 64000
| 21>
| 22> %pal nprocs 4
| 23> end
| 24>
| 25> %scf
| 26>   MaxIter 150
| 27> end
| 28>
| 29>
| 30>                          ****END OF INPUT****

CARTESIAN COORDINATES (ANGSTROEM)
---------------------------------
  C      3.488280    1.600920   -1.522040
  C      4.342970    1.313420   -2.756830
  C      2.810290    0.428780   -1.014200
  H      2.714550    2.331450   -1.760300
  H      4.090990    2.063150   -0.733380
  C      3.290980   -0.418020   -0.129080
  N      2.517540   -1.432020    0.239360
  N      4.535490   -0.284410    0.395800
  H      5.043630    0.571890    0.222900
  H      4.723350   -0.733270    1.281800
  H      1.934790    0.102300   -1.403790
  H      1.674640   -1.505620   -0.316100
  H      2.928500   -2.218500    0.725490
  H      3.735750    0.862770   -3.513850
  H      5.137540    0.646990   -2.493330
  H      4.753740    2.229300   -3.127400

 Total Charge           Charge          ....    0
 Multiplicity           Mult            ....    1
 Number of Electrons    NEL             ....   48
 Basis Dimension        Dim             ....  134

ORBITAL ENERGIES
----------------

  NO   OCC          E(Eh)            E(eV)
   0   2.0000     -14.220716      -386.9653
   1   2.0000     -14.216057      -386.8386
   2   2.0000     -10.164976      -276.6031
   3   2.0000     -10.098771      -274.8015
   4   2.0000     -10.087689      -274.5000
   5   2.0000     -10.041732      -273.2494
   6   2.0000      -1.121736       -30.5240
   7   2.0000      -1.023674       -27.8556
   8   2.0000      -0.941757       -25.6265
   9   2.0000      -0.852789       -23.2056
  10   2.0000      -0.765027       -20.8174
  11   2.0000      -0.726056       -19.7570
  12   2.0000      -0.680613       -18.5204
  13   2.0000      -0.650805       -17.7093
  14   2.0000      -0.598800       -16.2942
  15   2.0000      -0.576399       -15.6846
  16   2.0000      -0.556973       -15.1560
  17   2.0000      -0.538732       -14.6597
  18   2.0000      -0.513048       -13.9608
  19   2.0000      -0.484979       -13.1970
  20   2.0000      -0.457923       -12.4607
  21   2.0000      -0.442762       -12.0482
  22   2.0000      -0.393116       -10.6972
  23   2.0000      -0.271013        -7.3746
  24   0.0000       0.142280         3.8716
  25   0.0000       0.171252         4.6600
  26   0.0000       0.179302         4.8790
  27   0.0000       0.196415         5.3447
  28   0.0000       0.210120         5.7177

MULLIKEN ATOMIC CHARGES
-----------------------
   0 C :   -0.092055
   1 C :   -0.077786
   2 C :   -0.219141
   3 H :    0.046460
   4 H :    0.029383
   5 C :   -0.028846
   6 N :   -0.137864
   7 N :   -0.167009
   8 H :    0.144030
   9 H :    0.133978
  10 H :   -0.050138
  11 H :    0.149604
  12 H :    0.135052
  13 H :    0.047075
  14 H :    0.042846
  15 H :    0.044411
Sum of atomic charges:    0.0000000

LOEWDIN ATOMIC CHARGES
----------------------
   0 C :   -0.068172
   1 C :   -0.088361
   2 C :   -0.235749
   3 H :    0.036586
   4 H :    0.021823
   5 C :    0.031221
   6 N :   -0.045547
   7 N :   -0.055932
   8 H :    0.082790
   9 H :    0.073253
  10 H :   -0.000289
  11 H :    0.091311
  12 H :    0.075090
  13 H :    0.030942
  14 H :    0.026726
  15 H :    0.024311

  Mayer bond orders larger than 0.100000
B(  0-C ,  1-C ) :   1.0621 B(  0-C ,  2-C ) :   1.0407 B(  0-C ,  3-H ) :   0.9409
B(  0-C ,  4-H ) :   0.9627 B(  1-C , 13-H ) :   0.9741 B(  1-C , 14-H ) :   0.9764
B(  1-C , 15-H ) :   0.9756 B(  2-C ,  5-C ) :   1.7346 B(  2-C , 10-H ) :   0.9502
B(  5-C ,  6-N ) :   1.2360 B(  5-C ,  7-N ) :   1.2256 B(  6-N , 11-H ) :   0.9362
B(  6-N , 12-H ) :   0.9483 B(  7-N ,  8-H ) :   0.9418 B(  7-N ,  9-H ) :   0.9499

FINAL SINGLE POINT ENERGY      -266.841848303377

DIPOLE MOMENT
-------------
                                X             Y             Z
Electronic contribution:     -1.21939      -3.02424       3.76300
Nuclear contribution   :      1.44676       2.38443      -3.07370
                        -----------------------------------------
Total Dipole Moment    :      0.22737      -0.63982       0.68931
                        -----------------------------------------
Magnitude (a.u.)       :      0.96758
Magnitude (Debye)      :      2.45939

Rotational constants in cm-1:     0.235977     0.073199     0.063283
Rotational constants in MHz :  7074.404583  2194.453291  1897.179599

                             ****ORCA TERMINATED NORMALLY****
TOTAL RUN TIME: 0 days 0 hours 0 minutes 18 seconds 578 msec
