                         Program Version 5.0.0 -  RELEASE  -
|  1> !LC-PBE RIJCOSX def2-SVP def2/J TightSCF
|  2> *xyz 0 1
|  3> C          3.48828        1.60092       -1.52204
|  4> C          4.34297        1.31342       -2.75683
|  5> N          2.81029        0.42878       -1.01420
|  6> H          2.71455        2.33145       -1.76030
|  7> H          4.09099        2.06315       -0.73338
|  8> C          3.29098       -0.41802       -0.12908
|  9> C          2.51754       -1.43202        0.23936
| 10> N          4.53549       -0.28441        0.39580
| 11> H          5.04363        0.57189        0.22290
| 12> H          4.72335       -0.73327        1.28180
| 13> H          1.93479        0.10230       -1.40379
| 14> H          1.67464       -1.50562       -0.31610
| 15> H          2.92850       -2.21850        0.72549
| 16> H          3.73575        0.86277       -3.51385
| 17> H          5.13754        0.64699       -2.49333
| 18> H          4.75374        2.22930       -3.12740
| 19> *
| 20> %MaxCore 64000
| 21>
| 22> %pal nprocs 4
| 23> end
| 24>
| 25> %scf
| 26>   MaxIter 150
| 27> end
| 28>
| 29>
| 30>                          ****END OF INPUT****

CARTESIAN COORDINATES (ANGSTROEM)
---------------------------------
  C      3.488280    1.600920   -1.522040
  C      4.342970    1.313420   -2.756830
  N      2.810290    0.428780   -1.014200
  H      2.714550    2.331450   -1.760300
  H      4.090990    2.063150   -0.733380
  C      3.290980   -0.418020   -0.129080
  C      2.517540   -1.432020    0.239360
  N      4.535490   -0.284410    0.395800
  H      5.043630    0.571890    0.222900
  H      4.723350   -0.733270    1.281800
  H      1.934790    0.102300   -1.403790
  H      1.674640   -1.505620   -0.316100
  H      2.928500   -2.218500    0.725490
  H      3.735750    0.862770   -3.513850
  H      5.137540    0.646990   -2.493330
  H      4.753740    2.229300   -3.127400

 Total Charge           Charge          ....    0
 Multiplicity           Mult            ....    1
 Number of Electrons    NEL             ....   48
 Basis Dimension        Dim             ....  134

ORBITAL ENERGIES
----------------

  NO   OCC          E(Eh)            E(eV)
   0   2.0000     -14.224598      -387.0710
   1   2.0000     -14.221380      -386.9834
   2   2.0000     -10.170723      -276.7594
   3   2.0000     -10.168224      -276.6914
   4   2.0000     -10.115819      -275.2654
   5   2.0000     -10.028870      -272.8994
   6   2.0000      -1.136055       -30.9136
   7   2.0000      -1.040914       -28.3247
   8   2.0000      -0.943105       -25.6632
   9   2.0000      -0.861310       -23.4374
  10   2.0000      -0.783992       -21.3335
  11   2.0000      -0.746341       -20.3090
  12   2.0000      -0.681146       -18.5349
  13   2.0000      -0.643615       -17.5137
  14   2.0000      -0.615845       -16.7580
  15   2.0000      -0.579200       -15.7608
  16   2.0000      -0.573897       -15.6165
  17   2.0000      -0.540214       -14.7000
  18   2.0000      -0.507399       -13.8070
  19   2.0000      -0.502923       -13.6852
  20   2.0000      -0.498613       -13.5680
  21   2.0000      -0.485955       -13.2235
  22   2.0000      -0.384049       -10.4505
  23   2.0000      -0.273359        -7.4385
  24   0.0000       0.136567         3.7162
  25   0.0000       0.165177         4.4947
  26   0.0000       0.175765         4.7828
  27   0.0000       0.197548         5.3756
  28   0.0000       0.201595         5.4857

MULLIKEN ATOMIC CHARGES
-----------------------
   0 C :   -0.061920
   1 C :   -0.102116
   2 N :   -0.184170
   3 H :    0.067988
   4 H :    0.061543
   5 C :   -0.003575
   6 C :   -0.194408
   7 N :   -0.177200
   8 H :    0.128075
   9 H :    0.156510
  10 H :    0.156900
  11 H :   -0.025209
  12 H :   -0.004825
  13 H :    0.061951
  14 H :    0.061758
  15 H :    0.058698
Sum of atomic charges:   -0.0000000

LOEWDIN ATOMIC CHARGES
----------------------
   0 C :    0.000503
   1 C :   -0.098834
   2 N :   -0.033429
   3 H :    0.037307
   4 H :    0.029687
   5 C :    0.047679
   6 C :   -0.290147
   7 N :   -0.051665
   8 H :    0.068452
   9 H :    0.091455
  10 H :    0.094819
  11 H :   -0.002048
  12 H :    0.001995
  13 H :    0.035368
  14 H :    0.034316
  15 H :    0.034542

  Mayer bond orders larger than 0.100000
B(  0-C ,  1-C ) :   1.0570 B(  0-C ,  2-N ) :   1.0007 B(  0-C ,  3-H ) :   0.9627
B(  0-C ,  4-H ) :   0.9639 B(  1-C , 13-H ) :   0.9722 B(  1-C , 14-H ) :   0.9707
B(  1-C , 15-H ) :   0.9711 B(  2-N ,  5-C ) :   1.2106 B(  2-N , 10-H ) :   0.9231
B(  5-C ,  6-C ) :   1.7534 B(  5-C ,  7-N ) :   1.2042 B(  6-C , 11-H ) :   0.9457
B(  6-C , 12-H ) :   0.9656 B(  7-N ,  8-H ) :   0.9542 B(  7-N ,  9-H ) :   0.9478

FINAL SINGLE POINT ENERGY      -266.828964922275

DIPOLE MOMENT
-------------
                                X             Y             Z
Electronic contribution:     -0.82175      -1.00077       2.45296
Nuclear contribution   :      1.38466       1.98967      -2.80776
                        -----------------------------------------
Total Dipole Moment    :      0.56290       0.98890      -0.35480
                        -----------------------------------------
Magnitude (a.u.)       :      1.19192
Magnitude (Debye)      :      3.02961

Rotational constants in cm-1:     0.235618     0.075969     0.065309
Rotational constants in MHz :  7063.646698  2277.495424  1957.925383

                             ****ORCA TERMINATED NORMALLY****
TOTAL RUN TIME: 0 days 0 hours 0 minutes 18 seconds 585 msec
