                         Program Version 5.0.0 -  RELEASE  -
|  1> !LC-PBE RIJCOSX def2-SVP def2/J TightSCF
|  2> *xyz 0 1
|  3> C          3.48828        1.60092       -1.52204
|  4> C          4.34297        1.31342       -2.75683
|  5> N          2.81029        0.42878       -1.01420
|  6> H          2.71455        2.33145       -1.76030
|  7> H          4.09099        2.06315       -0.73338
|  8> C          3.29098       -0.41802       -0.12908
|  9> N          2.51754       -1.43202        0.23936
| 10> C          4.53549       -0.28441        0.39580
| 11> H          5.04363        0.57189        0.22290
| 12> H          4.72335       -0.73327        1.28180
| 13> H          1.93479        0.10230       -1.40379
| 14> H          1.67464       -1.50562       -0.31610
| 15> H          2.92850       -2.21850        0.72549
| 16> H          3.73575        0.86277       -3.51385
| 17> H          5.13754        0.64699       -2.49333
| 18> H          4.75374        2.22930       -3.12740
| 19> *
| 20> %MaxCore 64000
| 21>
| 22> %pal nprocs 4
| 23> end
| 24>
| 25> %scf
| 26>   MaxIter 150
| 27> end
| 28>
| 29>
| 30>                          ****END OF INPUT****

CARTESIAN COORDINATES (ANGSTROEM)
---------------------------------
  C      3.488280    1.600920   -1.522040
  C      4.342970    1.313420   -2.756830
  N      2.810290    0.428780   -1.014200
  H      2.714550    2.331450   -1.760300
  H      4.090990    2.063150   -0.733380
  C      3.290980   -0.418020   -0.129080
  N      2.517540   -1.432020    0.239360
  C      4.535490   -0.284410    0.395800
  H      5.043630    0.571890    0.222900
  H      4.723350   -0.733270    1.281800
  H      1.934790    0.102300   -1.403790
  H      1.674640   -1.505620   -0.316100
  H      2.928500   -2.218500    0.725490
  H      3.735750    0.862770   -3.513850
  H      5.137540    0.646990   -2.493330
  H      4.753740    2.229300   -3.127400

 Total Charge           Charge          ....    0
 Multiplicity           Mult            ....    1
 Number of Electrons    NEL             ....   48
 Basis Dimension        Dim             ....  134

ORBITAL ENERGIES
----------------

  NO   OCC          E(Eh)            E(eV)
   0   2.0000     -14.230901      -387.2425
   1   2.0000     -14.224241      -387.0613
   2   2.0000     -10.174204      -276.8542
   3   2.0000     -10.158905      -276.4379
   4   2.0000     -10.106698      -275.0172
   5   2.0000     -10.028194      -272.8810
   6   2.0000      -1.144780       -31.1510
   7   2.0000      -1.047668       -28.5085
   8   2.0000      -0.920222       -25.0405
   9   2.0000      -0.864493       -23.5241
  10   2.0000      -0.799716       -21.7614
  11   2.0000      -0.708601       -19.2820
  12   2.0000      -0.688658       -18.7393
  13   2.0000      -0.670672       -18.2499
  14   2.0000      -0.607343       -16.5266
  15   2.0000      -0.580119       -15.7858
  16   2.0000      -0.571473       -15.5506
  17   2.0000      -0.527313       -14.3489
  18   2.0000      -0.509355       -13.8603
  19   2.0000      -0.501732       -13.6528
  20   2.0000      -0.489807       -13.3283
  21   2.0000      -0.473226       -12.8771
  22   2.0000      -0.378144       -10.2898
  23   2.0000      -0.274481        -7.4690
  24   0.0000       0.133395         3.6299
  25   0.0000       0.167960         4.5704
  26   0.0000       0.180572         4.9136
  27   0.0000       0.194592         5.2951
  28   0.0000       0.214343         5.8326

MULLIKEN ATOMIC CHARGES
-----------------------
   0 C :   -0.035444
   1 C :   -0.108463
   2 N :   -0.203985
   3 H :    0.059684
   4 H :    0.086113
   5 C :    0.004585
   6 N :   -0.153826
   7 C :   -0.229424
   8 H :   -0.014509
   9 H :   -0.007581
  10 H :    0.128940
  11 H :    0.126575
  12 H :    0.162996
  13 H :    0.048681
  14 H :    0.077475
  15 H :    0.058181
Sum of atomic charges:   -0.0000000

LOEWDIN ATOMIC CHARGES
----------------------
   0 C :    0.013148
   1 C :   -0.095746
   2 N :   -0.031628
   3 H :    0.032985
   4 H :    0.043074
   5 C :    0.044939
   6 N :   -0.036335
   7 C :   -0.314292
   8 H :   -0.002991
   9 H :    0.000305
  10 H :    0.073487
  11 H :    0.071271
  12 H :    0.095840
  13 H :    0.029613
  14 H :    0.041276
  15 H :    0.035053

  Mayer bond orders larger than 0.100000
B(  0-C ,  1-C ) :   1.0720 B(  0-C ,  2-N ) :   0.9784 B(  0-C ,  3-H ) :   0.9667
B(  0-C ,  4-H ) :   0.9545 B(  1-C , 13-H ) :   0.9730 B(  1-C , 14-H ) :   0.9694
B(  1-C , 15-H ) :   0.9729 B(  2-N ,  5-C ) :   1.1947 B(  2-N , 10-H ) :   0.9375
B(  5-C ,  6-N ) :   1.2319 B(  5-C ,  7-C ) :   1.7299 B(  6-N , 11-H ) :   0.9538
B(  6-N , 12-H ) :   0.9435 B(  7-C ,  8-H ) :   0.9549 B(  7-C ,  9-H ) :   0.9606

FINAL SINGLE POINT ENERGY      -266.828185630113

DIPOLE MOMENT
-------------
                                X             Y             Z
Electronic contribution:     -2.92969      -2.35652       2.16755
Nuclear contribution   :      1.81275       2.23313      -2.77458
                        -----------------------------------------
Total Dipole Moment    :     -1.11693      -0.12339      -0.60703
                        -----------------------------------------
Magnitude (a.u.)       :      1.27720
Magnitude (Debye)      :      3.24639

Rotational constants in cm-1:     0.245202     0.073668     0.064348
Rotational constants in MHz :  7350.977980  2208.513334  1929.108541

                             ****ORCA TERMINATED NORMALLY****
TOTAL RUN TIME: 0 days 0 hours 0 minutes 18 seconds 555 msec
