                         Program Version 5.0.0 -  RELEASE  -
|  1> !LC-PBE RIJCOSX def2-TZVP def2/J TightSCF xyzfile
|  2>
|  3> *xyzfile 0 1 D1.xyz
|  4>
|  5> %MaxCore 64000
|  6>
|  7> %pal nprocs 18
|  8> end
|  9>
| 10> %scf
| 11>   MaxIter 150
| 12> end
| 13>
| 14>
| 15>                          ****END OF INPUT****

CARTESIAN COORDINATES (ANGSTROEM)
---------------------------------
  C      3.488276    1.600919   -1.522040
  C      4.342970    1.313419   -2.756826
  C      2.810285    0.428783   -1.014196
  H      5.132033    0.604994   -2.484466
  C      3.535896    0.749253   -3.924604
  H      4.841247    2.242136   -3.054083
  H      2.991617   -0.132199   -3.574137
  H      4.225505    0.392784   -4.695962
  C      2.564776    1.750890   -4.544523
  H      1.918749    2.171679   -3.769419
  C      1.686235    1.161657   -5.650111
  H      3.132494    2.594775   -4.951604
  C      0.839616   -0.037582   -5.220473
  H      2.323886    0.866395   -6.490796
  H      1.029518    1.951850   -6.029329
  C     -0.151019    0.254955   -4.094256
  H      1.499442   -0.857141   -4.922958
  H      0.290097   -0.410143   -6.091131
  H      0.328265    0.833022   -3.299125
  C     -0.721843   -0.999513   -3.439309
  H     -0.957367    0.884951   -4.485450
  H     -1.083403   -1.697555   -4.205656
  H     -1.581056   -0.723848   -2.820490
  C      0.287250   -1.711771   -2.527405
  H      1.131780   -2.067380   -3.159396
  H     -0.204137   -2.637326   -2.170480
  F      0.710505   -0.927506   -1.481767
  H      2.714548    2.331455   -1.760302
  H      4.090991    2.063151   -0.733382
  C      3.290978   -0.418021   -0.129083
  N      2.517536   -1.432017    0.239360
  N      4.535490   -0.284410    0.395800
  H      5.043627    0.571888    0.222899
  H      4.723346   -0.733273    1.281800
  H      1.934787    0.102305   -1.403788
  H      1.674638   -1.505616   -0.316095
  H      2.928503   -2.218502    0.725494

 Total Charge           Charge          ....    0
 Multiplicity           Mult            ....    1
 Number of Electrons    NEL             ....  112
 Basis Dimension        Dim             ....  572

ORBITAL ENERGIES
----------------

  NO   OCC          E(Eh)            E(eV)
   0   2.0000     -24.504423      -666.7993
   1   2.0000     -14.196976      -386.3193
   2   2.0000     -14.179909      -385.8549
   3   2.0000     -10.205936      -277.7176
   4   2.0000     -10.140068      -275.9253
   5   2.0000     -10.127172      -275.5744
   6   2.0000     -10.111333      -275.1434
   7   2.0000     -10.107460      -275.0380
   8   2.0000     -10.102818      -274.9116
   9   2.0000     -10.094694      -274.6906
  10   2.0000     -10.088875      -274.5323
  11   2.0000     -10.083837      -274.3951
  12   2.0000     -10.076602      -274.1983
  13   2.0000     -10.007659      -272.3223
  14   2.0000      -1.391278       -37.8586
  15   2.0000      -1.117095       -30.3977
  16   2.0000      -1.021176       -27.7876
  17   2.0000      -1.002317       -27.2744
  18   2.0000      -0.975558       -26.5463
  19   2.0000      -0.942909       -25.6579
  20   2.0000      -0.904447       -24.6113
  21   2.0000      -0.862051       -23.4576
  22   2.0000      -0.834123       -22.6976
  23   2.0000      -0.797445       -21.6996
  24   2.0000      -0.764150       -20.7936
  25   2.0000      -0.746648       -20.3173
  26   2.0000      -0.721464       -19.6320
  27   2.0000      -0.703296       -19.1377
  28   2.0000      -0.688228       -18.7276
  29   2.0000      -0.670698       -18.2506
  30   2.0000      -0.660027       -17.9603
  31   2.0000      -0.645140       -17.5551
  32   2.0000      -0.633693       -17.2437
  33   2.0000      -0.611597       -16.6424
  34   2.0000      -0.600481       -16.3399
  35   2.0000      -0.585566       -15.9341
  36   2.0000      -0.578033       -15.7291
  37   2.0000      -0.565085       -15.3767
  38   2.0000      -0.553964       -15.0741
  39   2.0000      -0.541129       -14.7249
  40   2.0000      -0.534220       -14.5369
  41   2.0000      -0.519110       -14.1257
  42   2.0000      -0.507105       -13.7990
  43   2.0000      -0.500899       -13.6302
  44   2.0000      -0.493006       -13.4154
  45   2.0000      -0.489292       -13.3143
  46   2.0000      -0.467324       -12.7165
  47   2.0000      -0.458714       -12.4822
  48   2.0000      -0.447883       -12.1875
  49   2.0000      -0.444421       -12.0933
  50   2.0000      -0.440723       -11.9927
  51   2.0000      -0.423916       -11.5353
  52   2.0000      -0.417268       -11.3544
  53   2.0000      -0.411304       -11.1921
  54   2.0000      -0.381763       -10.3883
  55   2.0000      -0.259960        -7.0739
  56   0.0000       0.113219         3.0809
  57   0.0000       0.122933         3.3452
  58   0.0000       0.129203         3.5158
  59   0.0000       0.135470         3.6863
  60   0.0000       0.147317         4.0087

MULLIKEN ATOMIC CHARGES
-----------------------
   0 C :   -0.466533
   1 C :   -0.181950
   2 C :   -0.461598
   3 H :    0.140731
   4 C :   -0.299657
   5 H :    0.126990
   6 H :    0.154239
   7 H :    0.145436
   8 C :   -0.354862
   9 H :    0.162251
  10 C :   -0.232425
  11 H :    0.148496
  12 C :   -0.371145
  13 H :    0.148122
  14 H :    0.146359
  15 C :   -0.301673
  16 H :    0.158199
  17 H :    0.154438
  18 H :    0.173263
  19 C :   -0.271098
  20 H :    0.154766
  21 H :    0.156384
  22 H :    0.159100
  23 C :   -0.112181
  24 H :    0.150368
  25 H :    0.157936
  26 F :   -0.215675
  27 H :    0.163705
  28 H :    0.137617
  29 C :    0.327616
  30 N :   -0.500509
  31 N :   -0.509894
  32 H :    0.254418
  33 H :    0.235538
  34 H :    0.226843
  35 H :    0.265268
  36 H :    0.231118
Sum of atomic charges:   -0.0000000

LOEWDIN ATOMIC CHARGES
----------------------
   0 C :   -0.305015
   1 C :   -0.280715
   2 C :   -0.297317
   3 H :    0.143066
   4 C :   -0.283414
   5 H :    0.137244
   6 H :    0.143358
   7 H :    0.141858
   8 C :   -0.286755
   9 H :    0.141298
  10 C :   -0.286582
  11 H :    0.144578
  12 C :   -0.289244
  13 H :    0.144745
  14 H :    0.144149
  15 C :   -0.284684
  16 H :    0.140095
  17 H :    0.143511
  18 H :    0.151420
  19 C :   -0.290790
  20 H :    0.146232
  21 H :    0.153395
  22 H :    0.149089
  23 C :   -0.363743
  24 H :    0.135151
  25 H :    0.134770
  26 F :    0.153752
  27 H :    0.146667
  28 H :    0.137712
  29 C :   -0.463025
  30 N :   -0.037256
  31 N :   -0.044403
  32 H :    0.173028
  33 H :    0.163353
  34 H :    0.120455
  35 H :    0.161932
  36 H :    0.162084

  Mayer bond orders larger than 0.100000
B(  0-C ,  1-C ) :   0.8913 B(  0-C ,  2-C ) :   0.8938 B(  0-C , 27-H ) :   1.0329
B(  0-C , 28-H ) :   1.0154 B(  1-C ,  3-H ) :   0.9772 B(  1-C ,  4-C ) :   0.9686
B(  1-C ,  5-H ) :   0.9943 B(  2-C , 29-C ) :   1.6318 B(  2-C , 34-H ) :   0.9651
B(  4-C ,  6-H ) :   0.9746 B(  4-C ,  7-H ) :   0.9803 B(  4-C ,  8-C ) :   0.8976
B(  8-C ,  9-H ) :   0.9926 B(  8-C , 10-C ) :   0.9423 B(  8-C , 11-H ) :   0.9759
B( 10-C , 12-C ) :   0.9431 B( 10-C , 13-H ) :   0.9853 B( 10-C , 14-H ) :   0.9903
B( 12-C , 15-C ) :   0.8946 B( 12-C , 16-H ) :   0.9932 B( 12-C , 17-H ) :   0.9747
B( 15-C , 18-H ) :   0.9829 B( 15-C , 19-C ) :   0.9460 B( 15-C , 20-H ) :   0.9693
B( 19-C , 21-H ) :   0.9660 B( 19-C , 22-H ) :   0.9745 B( 19-C , 23-C ) :   0.9792
B( 23-C , 24-H ) :   0.9776 B( 23-C , 25-H ) :   0.9687 B( 23-C , 26-F ) :   0.9104
B( 29-C , 30-N ) :   1.1965 B( 29-C , 31-N ) :   1.1317 B( 30-N , 35-H ) :   0.8867
B( 30-N , 36-H ) :   0.9272 B( 31-N , 32-H ) :   0.9209 B( 31-N , 33-H ) :   0.9256

FINAL SINGLE POINT ENERGY      -640.493501803917

DIPOLE MOMENT
-------------
                                X             Y             Z
Electronic contribution:     -1.56897      -4.90050      10.70970
Nuclear contribution   :      1.15699       3.94991     -10.89335
                        -----------------------------------------
Total Dipole Moment    :     -0.41198      -0.95059      -0.18365
                        -----------------------------------------
Magnitude (a.u.)       :      1.05218
Magnitude (Debye)      :      2.67443

Rotational constants in cm-1:     0.026548     0.016177     0.010851
Rotational constants in MHz :   795.884848   484.988695   325.313537

                             ****ORCA TERMINATED NORMALLY****
TOTAL RUN TIME: 0 days 0 hours 1 minutes 28 seconds 616 msec
