                         Program Version 5.0.0 -  RELEASE  -
|  1> !LC-PBE RIJCOSX def2-TZVP def2/J TightSCF xyzfile
|  2>
|  3> *xyzfile 0 1 D2.xyz
|  4>
|  5> %MaxCore 64000
|  6>
|  7> %pal nprocs 18
|  8> end
|  9>
| 10> %scf
| 11>   MaxIter 150
| 12> end
| 13>
| 14>
| 15>                          ****END OF INPUT****

CARTESIAN COORDINATES (ANGSTROEM)
---------------------------------
  C      3.488276    1.600919   -1.522040
  C      4.342970    1.313419   -2.756826
  N      2.810285    0.428783   -1.014196
  H      5.132033    0.604994   -2.484466
  C      3.535896    0.749253   -3.924604
  H      4.841247    2.242136   -3.054083
  H      2.991617   -0.132199   -3.574137
  H      4.225505    0.392784   -4.695962
  C      2.564776    1.750890   -4.544523
  H      1.918749    2.171679   -3.769419
  C      1.686235    1.161657   -5.650111
  H      3.132494    2.594775   -4.951604
  C      0.839616   -0.037582   -5.220473
  H      2.323886    0.866395   -6.490796
  H      1.029518    1.951850   -6.029329
  C     -0.151019    0.254955   -4.094256
  H      1.499442   -0.857141   -4.922958
  H      0.290097   -0.410143   -6.091131
  H      0.328265    0.833022   -3.299125
  C     -0.721843   -0.999513   -3.439309
  H     -0.957367    0.884951   -4.485450
  H     -1.083403   -1.697555   -4.205656
  H     -1.581056   -0.723848   -2.820490
  C      0.287250   -1.711771   -2.527405
  H      1.131780   -2.067380   -3.159396
  H     -0.204137   -2.637326   -2.170480
  F      0.710505   -0.927506   -1.481767
  H      2.714548    2.331455   -1.760302
  H      4.090991    2.063151   -0.733382
  C      3.290978   -0.418021   -0.129083
  C      2.517536   -1.432017    0.239360
  N      4.535490   -0.284410    0.395800
  H      5.043627    0.571888    0.222899
  H      4.723346   -0.733273    1.281800
  H      1.934787    0.102305   -1.403788
  H      1.674638   -1.505616   -0.316095
  H      2.928503   -2.218502    0.725494

 Total Charge           Charge          ....    0
 Multiplicity           Mult            ....    1
 Number of Electrons    NEL             ....  112
 Basis Dimension        Dim             ....  572

ORBITAL ENERGIES
----------------

  NO   OCC          E(Eh)            E(eV)
   0   2.0000     -24.502590      -666.7494
   1   2.0000     -14.196079      -386.2950
   2   2.0000     -14.187934      -386.0733
   3   2.0000     -10.204916      -277.6899
   4   2.0000     -10.144119      -276.0355
   5   2.0000     -10.141861      -275.9741
   6   2.0000     -10.129290      -275.6320
   7   2.0000     -10.118746      -275.3451
   8   2.0000     -10.115295      -275.2512
   9   2.0000     -10.113209      -275.1944
  10   2.0000     -10.109855      -275.1031
  11   2.0000     -10.107517      -275.0395
  12   2.0000     -10.106880      -275.0222
  13   2.0000      -9.991201      -271.8744
  14   2.0000      -1.389391       -37.8072
  15   2.0000      -1.129137       -30.7254
  16   2.0000      -1.038742       -28.2656
  17   2.0000      -1.010697       -27.5025
  18   2.0000      -0.979421       -26.6514
  19   2.0000      -0.950330       -25.8598
  20   2.0000      -0.899852       -24.4862
  21   2.0000      -0.874800       -23.8045
  22   2.0000      -0.836944       -22.7744
  23   2.0000      -0.808757       -22.0074
  24   2.0000      -0.772458       -21.0196
  25   2.0000      -0.756041       -20.5729
  26   2.0000      -0.733104       -19.9488
  27   2.0000      -0.715571       -19.4717
  28   2.0000      -0.689192       -18.7539
  29   2.0000      -0.673380       -18.3236
  30   2.0000      -0.658997       -17.9322
  31   2.0000      -0.646361       -17.5884
  32   2.0000      -0.632968       -17.2239
  33   2.0000      -0.620638       -16.8884
  34   2.0000      -0.612395       -16.6641
  35   2.0000      -0.596307       -16.2263
  36   2.0000      -0.580826       -15.8051
  37   2.0000      -0.574004       -15.6194
  38   2.0000      -0.568567       -15.4715
  39   2.0000      -0.552468       -15.0334
  40   2.0000      -0.535902       -14.5826
  41   2.0000      -0.516757       -14.0617
  42   2.0000      -0.509562       -13.8659
  43   2.0000      -0.504226       -13.7207
  44   2.0000      -0.501630       -13.6500
  45   2.0000      -0.492102       -13.3908
  46   2.0000      -0.476936       -12.9781
  47   2.0000      -0.471219       -12.8225
  48   2.0000      -0.467190       -12.7129
  49   2.0000      -0.455495       -12.3947
  50   2.0000      -0.448271       -12.1981
  51   2.0000      -0.441719       -12.0198
  52   2.0000      -0.437552       -11.9064
  53   2.0000      -0.434016       -11.8102
  54   2.0000      -0.371075       -10.0975
  55   2.0000      -0.258974        -7.0470
  56   0.0000       0.111447         3.0326
  57   0.0000       0.118553         3.2260
  58   0.0000       0.125248         3.4082
  59   0.0000       0.129966         3.5366
  60   0.0000       0.142154         3.8682

MULLIKEN ATOMIC CHARGES
-----------------------
   0 C :   -0.405215
   1 C :   -0.169972
   2 N :   -0.267598
   3 H :    0.153956
   4 C :   -0.340871
   5 H :    0.137067
   6 H :    0.159111
   7 H :    0.155389
   8 C :   -0.348598
   9 H :    0.156158
  10 C :   -0.234824
  11 H :    0.153162
  12 C :   -0.376193
  13 H :    0.152376
  14 H :    0.150539
  15 C :   -0.302724
  16 H :    0.162823
  17 H :    0.158992
  18 H :    0.158816
  19 C :   -0.272241
  20 H :    0.157657
  21 H :    0.157228
  22 H :    0.162047
  23 C :   -0.097448
  24 H :    0.147616
  25 H :    0.164089
  26 F :   -0.217026
  27 H :    0.186763
  28 H :    0.163194
  29 C :    0.337615
  30 C :   -0.651151
  31 N :   -0.515911
  32 H :    0.237031
  33 H :    0.263122
  34 H :    0.268206
  35 H :    0.130639
  36 H :    0.126174
Sum of atomic charges:    0.0000000

LOEWDIN ATOMIC CHARGES
----------------------
   0 C :   -0.317822
   1 C :   -0.288960
   2 N :    0.121741
   3 H :    0.146444
   4 C :   -0.285882
   5 H :    0.143640
   6 H :    0.143342
   7 H :    0.146234
   8 C :   -0.288527
   9 H :    0.139405
  10 C :   -0.285346
  11 H :    0.145819
  12 C :   -0.288821
  13 H :    0.146070
  14 H :    0.145560
  15 C :   -0.286354
  16 H :    0.140677
  17 H :    0.145329
  18 H :    0.145964
  19 C :   -0.291412
  20 H :    0.147073
  21 H :    0.153731
  22 H :    0.149768
  23 C :   -0.358148
  24 H :    0.134728
  25 H :    0.139048
  26 F :    0.153625
  27 H :    0.139956
  28 H :    0.136649
  29 C :   -0.465775
  30 C :   -0.376922
  31 N :   -0.040307
  32 H :    0.160090
  33 H :    0.178945
  34 H :    0.176538
  35 H :    0.095981
  36 H :    0.097920

  Mayer bond orders larger than 0.100000
B(  0-C ,  1-C ) :   0.8796 B(  0-C ,  2-N ) :   0.9151 B(  0-C , 27-H ) :   0.9985
B(  0-C , 28-H ) :   1.0001 B(  1-C ,  3-H ) :   0.9718 B(  1-C ,  4-C ) :   0.9521
B(  1-C ,  5-H ) :   0.9830 B(  2-N , 29-C ) :   1.2080 B(  2-N , 34-H ) :   0.8828
B(  4-C ,  6-H ) :   0.9776 B(  4-C ,  7-H ) :   0.9758 B(  4-C ,  8-C ) :   0.8950
B(  8-C ,  9-H ) :   0.9917 B(  8-C , 10-C ) :   0.9455 B(  8-C , 11-H ) :   0.9747
B( 10-C , 12-C ) :   0.9377 B( 10-C , 13-H ) :   0.9851 B( 10-C , 14-H ) :   0.9899
B( 12-C , 15-C ) :   0.8897 B( 12-C , 16-H ) :   0.9945 B( 12-C , 17-H ) :   0.9739
B( 15-C , 18-H ) :   0.9901 B( 15-C , 19-C ) :   0.9424 B( 15-C , 20-H ) :   0.9683
B( 19-C , 21-H ) :   0.9654 B( 19-C , 22-H ) :   0.9752 B( 19-C , 23-C ) :   0.9744
B( 23-C , 24-H ) :   0.9760 B( 23-C , 25-H ) :   0.9732 B( 23-C , 26-F ) :   0.8993
B( 29-C , 30-C ) :   1.6373 B( 29-C , 31-N ) :   1.1032 B( 30-C , 35-H ) :   1.0220
B( 30-C , 36-H ) :   0.9972 B( 31-N , 32-H ) :   0.9258 B( 31-N , 33-H ) :   0.9212

FINAL SINGLE POINT ENERGY      -640.479546534371

DIPOLE MOMENT
-------------
                                X             Y             Z
Electronic contribution:     -1.25713      -3.12747       9.40342
Nuclear contribution   :      1.09892       3.58083     -10.64472
                        -----------------------------------------
Total Dipole Moment    :     -0.15821       0.45337      -1.24130
                        -----------------------------------------
Magnitude (a.u.)       :      1.33094
Magnitude (Debye)      :      3.38298

Rotational constants in cm-1:     0.026768     0.016312     0.010954
Rotational constants in MHz :   802.489946   489.033275   328.388904

                             ****ORCA TERMINATED NORMALLY****
TOTAL RUN TIME: 0 days 0 hours 1 minutes 32 seconds 992 msec
