                         Program Version 5.0.0 -  RELEASE  -
|  1> !PBE0 D3BJ RIJCOSX def2-SVPD def2/J TightSCF
|  2> *xyz -1 1
|  3> C          0.28725       -1.71177       -2.52740
|  4> O          0.71050       -0.92751       -1.48177
|  5> H          0.92384       -1.55316       -3.37267
|  6> H         -0.71828       -1.45137       -2.78433
|  7> H          0.32655       -2.74158       -2.23955
|  8> *
|  9> %MaxCore 64000
| 10>
| 11> %pal nprocs 4
| 12> end
| 13>
| 14> %scf
| 15>   MaxIter 150
| 16> end
| 17>
| 18>
| 19>                          ****END OF INPUT****

CARTESIAN COORDINATES (ANGSTROEM)
---------------------------------
  C      0.287250   -1.711770   -2.527400
  O      0.710500   -0.927510   -1.481770
  H      0.923840   -1.553160   -3.372670
  H     -0.718280   -1.451370   -2.784330
  H      0.326550   -2.741580   -2.239550

 Total Charge           Charge          ....   -1
 Multiplicity           Mult            ....    1
 Number of Electrons    NEL             ....   18
 Basis Dimension        Dim             ....   67

ORBITAL ENERGIES
----------------

  NO   OCC          E(Eh)            E(eV)
   0   2.0000     -18.861157      -513.2382
   1   2.0000     -10.015585      -272.5379
   2   2.0000      -0.671779       -18.2800
   3   2.0000      -0.408792       -11.1238
   4   2.0000      -0.207525        -5.6470
   5   2.0000      -0.207504        -5.6465
   6   2.0000      -0.110751        -3.0137
   7   2.0000       0.041135         1.1194
   8   2.0000       0.041146         1.1196
   9   0.0000       0.205154         5.5825
  10   0.0000       0.277407         7.5486
  11   0.0000       0.277408         7.5487
  12   0.0000       0.285480         7.7683
  13   0.0000       0.321139         8.7386

MULLIKEN ATOMIC CHARGES
-----------------------
   0 C :    0.704764
   1 O :   -1.061811
   2 H :   -0.214091
   3 H :   -0.214644
   4 H :   -0.214218
Sum of atomic charges:   -1.0000000

LOEWDIN ATOMIC CHARGES
----------------------
   0 C :   -0.113913
   1 O :   -0.653931
   2 H :   -0.077372
   3 H :   -0.077409
   4 H :   -0.077374

  Mayer bond orders larger than 0.100000
B(  0-C ,  1-O ) :   1.1213 B(  0-C ,  2-H ) :   0.9384 B(  0-C ,  3-H ) :   0.9385
B(  0-C ,  4-H ) :   0.9383

Dispersion correction           -0.001163157
FINAL SINGLE POINT ENERGY      -114.883644829451

DIPOLE MOMENT
-------------
                                X             Y             Z
Electronic contribution:      0.57515       1.06579       1.42103
Nuclear contribution   :     -0.89006      -1.64923      -2.19886
                        -----------------------------------------
Total Dipole Moment    :     -0.31491      -0.58344      -0.77783
                        -----------------------------------------
Magnitude (a.u.)       :      1.02205
Magnitude (Debye)      :      2.59785

Rotational constants in cm-1:     5.477712     0.934243     0.934241
Rotational constants in MHz : 164217.678885 28007.889263 28007.851448

                             ****ORCA TERMINATED NORMALLY****
TOTAL RUN TIME: 0 days 0 hours 0 minutes 3 seconds 581 msec
