                         Program Version 5.0.0 -  RELEASE  -
|  1> !PBE0 D3BJ RIJCOSX def2-SVPD def2/J TightSCF
|  2> *xyz 1 1
|  3> C          3.48828        1.60092       -1.52204
|  4> N          2.81029        0.42878       -1.01420
|  5> C          3.29098       -0.41802       -0.12908
|  6> N          2.51754       -1.43202        0.23936
|  7> N          4.53549       -0.28441        0.39580
|  8> H          5.04363        0.57189        0.22290
|  9> H          4.72335       -0.73327        1.28180
| 10> H          1.93479        0.10230       -1.40379
| 11> H          1.67464       -1.50562       -0.31610
| 12> H          2.92850       -2.21850        0.72549
| 13> H          2.85802        2.09943       -2.22855
| 14> H          4.39853        1.30677       -2.00144
| 15> H          3.70992        2.26379       -0.71187
| 16> *
| 17> %MaxCore 64000
| 18>
| 19> %pal nprocs 4
| 20> end
| 21>
| 22> %scf
| 23>   MaxIter 150
| 24> end
| 25>
| 26>
| 27>                          ****END OF INPUT****

CARTESIAN COORDINATES (ANGSTROEM)
---------------------------------
  C      3.488280    1.600920   -1.522040
  N      2.810290    0.428780   -1.014200
  C      3.290980   -0.418020   -0.129080
  N      2.517540   -1.432020    0.239360
  N      4.535490   -0.284410    0.395800
  H      5.043630    0.571890    0.222900
  H      4.723350   -0.733270    1.281800
  H      1.934790    0.102300   -1.403790
  H      1.674640   -1.505620   -0.316100
  H      2.928500   -2.218500    0.725490
  H      2.858020    2.099430   -2.228550
  H      4.398530    1.306770   -2.001440
  H      3.709920    2.263790   -0.711870

 Total Charge           Charge          ....    1
 Multiplicity           Mult            ....    1
 Number of Electrons    NEL             ....   40
 Basis Dimension        Dim             ....  164

ORBITAL ENERGIES
----------------

  NO   OCC          E(Eh)            E(eV)
   0   2.0000     -14.633518      -398.1983
   1   2.0000     -14.624317      -397.9479
   2   2.0000     -14.623787      -397.9335
   3   2.0000     -10.571437      -287.6634
   4   2.0000     -10.441743      -284.1343
   5   2.0000      -1.245553       -33.8932
   6   2.0000      -1.130612       -30.7655
   7   2.0000      -1.116387       -30.3784
   8   2.0000      -0.931619       -25.3506
   9   2.0000      -0.848034       -23.0762
  10   2.0000      -0.802862       -21.8470
  11   2.0000      -0.778215       -21.1763
  12   2.0000      -0.714540       -19.4436
  13   2.0000      -0.704087       -19.1592
  14   2.0000      -0.680312       -18.5122
  15   2.0000      -0.665617       -18.1124
  16   2.0000      -0.610126       -16.6024
  17   2.0000      -0.597946       -16.2709
  18   2.0000      -0.498318       -13.5599
  19   2.0000      -0.474943       -12.9238
  20   0.0000      -0.172428        -4.6920
  21   0.0000      -0.153399        -4.1742
  22   0.0000      -0.116196        -3.1619
  23   0.0000      -0.106216        -2.8903
  24   0.0000      -0.077825        -2.1177

MULLIKEN ATOMIC CHARGES
-----------------------
   0 C :    0.959540
   1 N :   -0.695184
   2 C :    1.475203
   3 N :   -0.142140
   4 N :   -0.174047
   5 H :   -0.015839
   6 H :   -0.038535
   7 H :   -0.187586
   8 H :    0.053467
   9 H :   -0.055223
  10 H :   -0.246058
  11 H :    0.038594
  12 H :    0.027808
Sum of atomic charges:    1.0000000

LOEWDIN ATOMIC CHARGES
----------------------
   0 C :    0.254274
   1 N :    0.005539
   2 C :   -0.028731
   3 N :    0.258977
   4 N :    0.278561
   5 H :    0.017111
   6 H :    0.037429
   7 H :    0.056213
   8 H :    0.035198
   9 H :    0.047533
  10 H :    0.017774
  11 H :    0.010433
  12 H :    0.009688

  Mayer bond orders larger than 0.100000
B(  0-C ,  1-N ) :   0.9212 B(  0-C ,  7-H ) :  -0.1187 B(  0-C , 10-H ) :   0.8844
B(  0-C , 11-H ) :   0.8323 B(  0-C , 12-H ) :   0.8203 B(  1-N ,  2-C ) :   0.9540
B(  1-N ,  3-N ) :   0.2512 B(  1-N ,  4-N ) :   0.2069 B(  1-N ,  7-H ) :   1.3088
B(  1-N , 10-H ) :   0.1707 B(  1-N , 11-H ) :   0.1499 B(  1-N , 12-H ) :   0.1599
B(  2-C ,  3-N ) :   0.8510 B(  2-C ,  4-N ) :   0.8991 B(  2-C ,  5-H ) :  -0.1050
B(  2-C ,  6-H ) :  -0.1009 B(  2-C ,  7-H ) :  -0.2273 B(  2-C ,  9-H ) :  -0.1103
B(  3-N ,  4-N ) :   0.1523 B(  3-N ,  8-H ) :   1.0525 B(  3-N ,  9-H ) :   1.1984
B(  4-N ,  5-H ) :   1.0557 B(  4-N ,  6-H ) :   1.1757 B(  5-H ,  6-H ) :  -0.1293
B(  8-H ,  9-H ) :  -0.1317

Dispersion correction           -0.007622903
FINAL SINGLE POINT ENERGY      -244.643534074849

DIPOLE MOMENT
-------------
                                X             Y             Z
Electronic contribution:     -0.68462      -2.29133       1.33857
Nuclear contribution   :      0.56176       1.95858      -1.15445
                        -----------------------------------------
Total Dipole Moment    :     -0.12286      -0.33275       0.18412
                        -----------------------------------------
Magnitude (a.u.)       :      0.39964
Magnitude (Debye)      :      1.01581

Rotational constants in cm-1:     0.309570     0.135399     0.096056
Rotational constants in MHz :  9280.673410  4059.171112  2879.675555

                             ****ORCA TERMINATED NORMALLY****
TOTAL RUN TIME: 0 days 0 hours 0 minutes 15 seconds 330 msec
