                         Program Version 5.0.0 -  RELEASE  -
|  1> !PBE0 D3BJ RIJCOSX def2-SVPD def2/J TightSCF
|  2> *xyz 0 1
|  3> C          3.48828        1.60092       -1.52204
|  4> C          2.81029        0.42878       -1.01420
|  5> C          3.29098       -0.41802       -0.12908
|  6> N          2.51754       -1.43202        0.23936
|  7> N          4.53549       -0.28441        0.39580
|  8> H          5.04363        0.57189        0.22290
|  9> H          4.72335       -0.73327        1.28180
| 10> H          1.93479        0.10230       -1.40379
| 11> H          1.67464       -1.50562       -0.31610
| 12> H          2.92850       -2.21850        0.72549
| 13> H          2.85802        2.09943       -2.22855
| 14> H          4.39853        1.30677       -2.00144
| 15> H          3.70992        2.26379       -0.71187
| 16> *
| 17> %MaxCore 64000
| 18>
| 19> %pal nprocs 4
| 20> end
| 21>
| 22> %scf
| 23>   MaxIter 150
| 24> end
| 25>
| 26>
| 27>                          ****END OF INPUT****

CARTESIAN COORDINATES (ANGSTROEM)
---------------------------------
  C      3.488280    1.600920   -1.522040
  C      2.810290    0.428780   -1.014200
  C      3.290980   -0.418020   -0.129080
  N      2.517540   -1.432020    0.239360
  N      4.535490   -0.284410    0.395800
  H      5.043630    0.571890    0.222900
  H      4.723350   -0.733270    1.281800
  H      1.934790    0.102300   -1.403790
  H      1.674640   -1.505620   -0.316100
  H      2.928500   -2.218500    0.725490
  H      2.858020    2.099430   -2.228550
  H      4.398530    1.306770   -2.001440
  H      3.709920    2.263790   -0.711870

 Total Charge           Charge          ....    0
 Multiplicity           Mult            ....    1
 Number of Electrons    NEL             ....   40
 Basis Dimension        Dim             ....  164

ORBITAL ENERGIES
----------------

  NO   OCC          E(Eh)            E(eV)
   0   2.0000     -14.397792      -391.7838
   1   2.0000     -14.390485      -391.5850
   2   2.0000     -10.269128      -279.4372
   3   2.0000     -10.198648      -277.5193
   4   2.0000     -10.157254      -276.3929
   5   2.0000      -0.976840       -26.5812
   6   2.0000      -0.886654       -24.1271
   7   2.0000      -0.772649       -21.0248
   8   2.0000      -0.672601       -18.3024
   9   2.0000      -0.600229       -16.3331
  10   2.0000      -0.552751       -15.0411
  11   2.0000      -0.523271       -14.2389
  12   2.0000      -0.480197       -13.0668
  13   2.0000      -0.442984       -12.0542
  14   2.0000      -0.426135       -11.5957
  15   2.0000      -0.387824       -10.5532
  16   2.0000      -0.380001       -10.3404
  17   2.0000      -0.354852        -9.6560
  18   2.0000      -0.278223        -7.5708
  19   2.0000      -0.171153        -4.6573
  20   0.0000       0.023850         0.6490
  21   0.0000       0.050491         1.3739
  22   0.0000       0.062286         1.6949
  23   0.0000       0.079967         2.1760
  24   0.0000       0.091038         2.4773

MULLIKEN ATOMIC CHARGES
-----------------------
   0 C :    0.691265
   1 C :   -0.677433
   2 C :    0.776091
   3 N :   -0.081246
   4 N :   -0.204713
   5 H :   -0.004672
   6 H :   -0.155316
   7 H :   -0.281451
   8 H :    0.061428
   9 H :   -0.158631
  10 H :   -0.026938
  11 H :    0.023467
  12 H :    0.038149
Sum of atomic charges:   -0.0000000

LOEWDIN ATOMIC CHARGES
----------------------
   0 C :    0.081662
   1 C :   -0.073825
   2 C :   -0.229038
   3 N :    0.164500
   4 N :    0.197667
   5 H :   -0.014838
   6 H :   -0.012652
   7 H :   -0.053194
   8 H :    0.001293
   9 H :   -0.005828
  10 H :   -0.015121
  11 H :   -0.019674
  12 H :   -0.020952

  Mayer bond orders larger than 0.100000
B(  0-C ,  1-C ) :   1.1945 B(  0-C ,  7-H ) :   0.1372 B(  0-C , 10-H ) :   0.8015
B(  0-C , 11-H ) :   0.7228 B(  0-C , 12-H ) :   0.7019 B(  1-C ,  2-C ) :   1.5959
B(  1-C ,  3-N ) :   0.2892 B(  1-C ,  4-N ) :   0.1858 B(  1-C ,  5-H ) :  -0.1105
B(  1-C ,  7-H ) :   1.0464 B(  1-C , 10-H ) :   0.2707 B(  1-C , 11-H ) :   0.2030
B(  1-C , 12-H ) :   0.2586 B(  2-C ,  3-N ) :   0.8922 B(  2-C ,  4-N ) :   0.8464
B(  2-C ,  7-H ) :   0.1737 B(  3-N ,  4-N ) :   0.1129 B(  3-N ,  8-H ) :   1.0391
B(  3-N ,  9-H ) :   1.1746 B(  4-N ,  5-H ) :   1.0190 B(  4-N ,  6-H ) :   1.2122
B(  5-H ,  6-H ) :  -0.1104 B(  7-H , 10-H ) :  -0.1144 B(  8-H ,  9-H ) :  -0.1236

Dispersion correction           -0.007976267
FINAL SINGLE POINT ENERGY      -228.191055880875

DIPOLE MOMENT
-------------
                                X             Y             Z
Electronic contribution:     -0.23944      -2.56003       1.79861
Nuclear contribution   :      0.45569       2.05070      -1.27895
                        -----------------------------------------
Total Dipole Moment    :      0.21626      -0.50933       0.51966
                        -----------------------------------------
Magnitude (a.u.)       :      0.75910
Magnitude (Debye)      :      1.92948

Rotational constants in cm-1:     0.314404     0.136412     0.097030
Rotational constants in MHz :  9425.600285  4089.541372  2908.875289

                             ****ORCA TERMINATED NORMALLY****
TOTAL RUN TIME: 0 days 0 hours 0 minutes 14 seconds 63 msec
