                         Program Version 5.0.0 -  RELEASE  -
|  1> !PBE0 D3BJ RIJCOSX def2-SVPD def2/J TightSCF
|  2> *xyz 0 1
|  3> C          3.48828        1.60092       -1.52204
|  4> N          2.81029        0.42878       -1.01420
|  5> C          3.29098       -0.41802       -0.12908
|  6> C          2.51754       -1.43202        0.23936
|  7> N          4.53549       -0.28441        0.39580
|  8> H          5.04363        0.57189        0.22290
|  9> H          4.72335       -0.73327        1.28180
| 10> H          1.93479        0.10230       -1.40379
| 11> H          1.67464       -1.50562       -0.31610
| 12> H          2.92850       -2.21850        0.72549
| 13> H          2.85802        2.09943       -2.22855
| 14> H          4.39853        1.30677       -2.00144
| 15> H          3.70992        2.26379       -0.71187
| 16> *
| 17> %MaxCore 64000
| 18>
| 19> %pal nprocs 4
| 20> end
| 21>
| 22> %scf
| 23>   MaxIter 150
| 24> end
| 25>
| 26>
| 27>                          ****END OF INPUT****

CARTESIAN COORDINATES (ANGSTROEM)
---------------------------------
  C      3.488280    1.600920   -1.522040
  N      2.810290    0.428780   -1.014200
  C      3.290980   -0.418020   -0.129080
  C      2.517540   -1.432020    0.239360
  N      4.535490   -0.284410    0.395800
  H      5.043630    0.571890    0.222900
  H      4.723350   -0.733270    1.281800
  H      1.934790    0.102300   -1.403790
  H      1.674640   -1.505620   -0.316100
  H      2.928500   -2.218500    0.725490
  H      2.858020    2.099430   -2.228550
  H      4.398530    1.306770   -2.001440
  H      3.709920    2.263790   -0.711870

 Total Charge           Charge          ....    0
 Multiplicity           Mult            ....    1
 Number of Electrons    NEL             ....   40
 Basis Dimension        Dim             ....  164

ORBITAL ENERGIES
----------------

  NO   OCC          E(Eh)            E(eV)
   0   2.0000     -14.399320      -391.8254
   1   2.0000     -14.397295      -391.7703
   2   2.0000     -10.275953      -279.6229
   3   2.0000     -10.266922      -279.3772
   4   2.0000     -10.141642      -275.9681
   5   2.0000      -0.988831       -26.9075
   6   2.0000      -0.900208       -24.4959
   7   2.0000      -0.767578       -20.8869
   8   2.0000      -0.682230       -18.5644
   9   2.0000      -0.615145       -16.7389
  10   2.0000      -0.549907       -14.9637
  11   2.0000      -0.508986       -13.8502
  12   2.0000      -0.494762       -13.4632
  13   2.0000      -0.472015       -12.8442
  14   2.0000      -0.421140       -11.4598
  15   2.0000      -0.400481       -10.8976
  16   2.0000      -0.390473       -10.6253
  17   2.0000      -0.380005       -10.3405
  18   2.0000      -0.272737        -7.4216
  19   2.0000      -0.171578        -4.6689
  20   0.0000       0.018723         0.5095
  21   0.0000       0.053494         1.4556
  22   0.0000       0.055729         1.5165
  23   0.0000       0.075087         2.0432
  24   0.0000       0.091645         2.4938

MULLIKEN ATOMIC CHARGES
-----------------------
   0 C :    0.972873
   1 N :   -0.617850
   2 C :    0.706786
   3 C :    0.333171
   4 N :   -0.122402
   5 H :   -0.139976
   6 H :   -0.042690
   7 H :   -0.220294
   8 H :   -0.174165
   9 H :   -0.352266
  10 H :   -0.290495
  11 H :   -0.019569
  12 H :   -0.033122
Sum of atomic charges:    0.0000000

LOEWDIN ATOMIC CHARGES
----------------------
   0 C :    0.200056
   1 N :   -0.061040
   2 C :   -0.229943
   3 C :    0.128500
   4 N :    0.194678
   5 H :   -0.027299
   6 H :    0.004969
   7 H :    0.029087
   8 H :   -0.102711
   9 H :   -0.095370
  10 H :   -0.008589
  11 H :   -0.015898
  12 H :   -0.016440

  Mayer bond orders larger than 0.100000
B(  0-C ,  1-N ) :   0.9290 B(  0-C ,  7-H ) :  -0.1318 B(  0-C , 10-H ) :   0.8812
B(  0-C , 11-H ) :   0.8398 B(  0-C , 12-H ) :   0.8324 B(  1-N ,  2-C ) :   1.0086
B(  1-N ,  3-C ) :   0.2396 B(  1-N ,  4-N ) :   0.1271 B(  1-N ,  7-H ) :   1.2740
B(  1-N , 10-H ) :   0.1671 B(  1-N , 11-H ) :   0.1743 B(  1-N , 12-H ) :   0.1626
B(  2-C ,  3-C ) :   1.6762 B(  2-C ,  4-N ) :   0.8402 B(  2-C ,  7-H ) :  -0.1579
B(  2-C ,  8-H ) :   0.2084 B(  2-C ,  9-H ) :   0.1846 B(  3-C ,  4-N ) :   0.2233
B(  3-C ,  8-H ) :   0.8279 B(  3-C ,  9-H ) :   0.8064 B(  4-N ,  5-H ) :   1.0873
B(  4-N ,  6-H ) :   1.1339 B(  5-H ,  6-H ) :  -0.1220

Dispersion correction           -0.007928722
FINAL SINGLE POINT ENERGY      -228.175247847549

DIPOLE MOMENT
-------------
                                X             Y             Z
Electronic contribution:      0.10086      -0.72177       0.63971
Nuclear contribution   :      0.39640       1.67380      -1.02505
                        -----------------------------------------
Total Dipole Moment    :      0.49726       0.95203      -0.38534
                        -----------------------------------------
Magnitude (a.u.)       :      1.14110
Magnitude (Debye)      :      2.90045

Rotational constants in cm-1:     0.316500     0.141146     0.099607
Rotational constants in MHz :  9488.425850  4231.454938  2986.155520

                             ****ORCA TERMINATED NORMALLY****
TOTAL RUN TIME: 0 days 0 hours 0 minutes 15 seconds 84 msec
