                         Program Version 5.0.0 -  RELEASE  -
|  1> !PBE0 D3BJ RIJCOSX def2-SVPD def2/J TightSCF
|  2> *xyz 0 1
|  3> C          3.48828        1.60092       -1.52204
|  4> N          2.81029        0.42878       -1.01420
|  5> C          3.29098       -0.41802       -0.12908
|  6> N          2.51754       -1.43202        0.23936
|  7> C          4.53549       -0.28441        0.39580
|  8> H          5.04363        0.57189        0.22290
|  9> H          4.72335       -0.73327        1.28180
| 10> H          1.93479        0.10230       -1.40379
| 11> H          1.67464       -1.50562       -0.31610
| 12> H          2.92850       -2.21850        0.72549
| 13> H          2.85802        2.09943       -2.22855
| 14> H          4.39853        1.30677       -2.00144
| 15> H          3.70992        2.26379       -0.71187
| 16> *
| 17> %MaxCore 64000
| 18>
| 19> %pal nprocs 4
| 20> end
| 21>
| 22> %scf
| 23>   MaxIter 150
| 24> end
| 25>
| 26>
| 27>                          ****END OF INPUT****

CARTESIAN COORDINATES (ANGSTROEM)
---------------------------------
  C      3.488280    1.600920   -1.522040
  N      2.810290    0.428780   -1.014200
  C      3.290980   -0.418020   -0.129080
  N      2.517540   -1.432020    0.239360
  C      4.535490   -0.284410    0.395800
  H      5.043630    0.571890    0.222900
  H      4.723350   -0.733270    1.281800
  H      1.934790    0.102300   -1.403790
  H      1.674640   -1.505620   -0.316100
  H      2.928500   -2.218500    0.725490
  H      2.858020    2.099430   -2.228550
  H      4.398530    1.306770   -2.001440
  H      3.709920    2.263790   -0.711870

 Total Charge           Charge          ....    0
 Multiplicity           Mult            ....    1
 Number of Electrons    NEL             ....   40
 Basis Dimension        Dim             ....  164

ORBITAL ENERGIES
----------------

  NO   OCC          E(Eh)            E(eV)
   0   2.0000     -14.406816      -392.0294
   1   2.0000     -14.398445      -391.8016
   2   2.0000     -10.278573      -279.6942
   3   2.0000     -10.260114      -279.1919
   4   2.0000     -10.145342      -276.0688
   5   2.0000      -0.998533       -27.1715
   6   2.0000      -0.905199       -24.6317
   7   2.0000      -0.736715       -20.0470
   8   2.0000      -0.716616       -19.5001
   9   2.0000      -0.584243       -15.8981
  10   2.0000      -0.560734       -15.2584
  11   2.0000      -0.545048       -14.8315
  12   2.0000      -0.473705       -12.8902
  13   2.0000      -0.465722       -12.6730
  14   2.0000      -0.428957       -11.6725
  15   2.0000      -0.400076       -10.8866
  16   2.0000      -0.383178       -10.4268
  17   2.0000      -0.378752       -10.3064
  18   2.0000      -0.265195        -7.2163
  19   2.0000      -0.177541        -4.8311
  20   0.0000       0.018034         0.4907
  21   0.0000       0.043574         1.1857
  22   0.0000       0.059833         1.6281
  23   0.0000       0.077803         2.1171
  24   0.0000       0.096833         2.6350

MULLIKEN ATOMIC CHARGES
-----------------------
   0 C :    0.937325
   1 N :   -0.628843
   2 C :    0.614456
   3 N :   -0.104143
   4 C :    0.356856
   5 H :   -0.123761
   6 H :   -0.359872
   7 H :   -0.328744
   8 H :   -0.090314
   9 H :   -0.054282
  10 H :   -0.312602
  11 H :    0.051341
  12 H :    0.042582
Sum of atomic charges:   -0.0000000

LOEWDIN ATOMIC CHARGES
----------------------
   0 C :    0.207778
   1 N :   -0.062536
   2 C :   -0.242672
   3 N :    0.177804
   4 C :    0.154526
   5 H :   -0.122844
   6 H :   -0.105846
   7 H :    0.016093
   8 H :   -0.012363
   9 H :    0.015249
  10 H :   -0.010132
  11 H :   -0.007885
  12 H :   -0.007173

  Mayer bond orders larger than 0.100000
B(  0-C ,  1-N ) :   0.9370 B(  0-C ,  7-H ) :  -0.1314 B(  0-C , 10-H ) :   0.8969
B(  0-C , 11-H ) :   0.8308 B(  0-C , 12-H ) :   0.8237 B(  1-N ,  2-C ) :   0.9516
B(  1-N ,  3-N ) :   0.1730 B(  1-N ,  4-C ) :   0.3083 B(  1-N ,  7-H ) :   1.3755
B(  1-N , 10-H ) :   0.1619 B(  1-N , 11-H ) :   0.1424 B(  1-N , 12-H ) :   0.1471
B(  2-C ,  3-N ) :   0.8259 B(  2-C ,  4-C ) :   1.7944 B(  2-C ,  5-H ) :   0.2773
B(  2-C ,  6-H ) :   0.2354 B(  2-C ,  7-H ) :  -0.2257 B(  3-N ,  4-C ) :   0.2463
B(  3-N ,  8-H ) :   1.1117 B(  3-N ,  9-H ) :   1.1655 B(  4-C ,  5-H ) :   0.7283
B(  4-C ,  6-H ) :   0.8188 B(  5-H ,  6-H ) :   0.1860 B(  8-H ,  9-H ) :  -0.1215

Dispersion correction           -0.007965372
FINAL SINGLE POINT ENERGY      -228.177443729648

DIPOLE MOMENT
-------------
                                X             Y             Z
Electronic contribution:     -1.84658      -1.95281       0.40304
Nuclear contribution   :      0.80512       1.90624      -0.99336
                        -----------------------------------------
Total Dipole Moment    :     -1.04146      -0.04657      -0.59032
                        -----------------------------------------
Magnitude (a.u.)       :      1.19803
Magnitude (Debye)      :      3.04516

Rotational constants in cm-1:     0.332728     0.136065     0.098521
Rotational constants in MHz :  9974.927067  4079.126590  2953.598000

                             ****ORCA TERMINATED NORMALLY****
TOTAL RUN TIME: 0 days 0 hours 0 minutes 14 seconds 846 msec
