                         Program Version 5.0.0 -  RELEASE  -
|  1> !PBE0 D3BJ RIJCOSX def2-SVPD def2/J TightSCF xyzfile
|  2>
|  3> *xyzfile 0 1 D1.xyz
|  4>
|  5> %MaxCore 64000
|  6>
|  7> %pal nprocs 4
|  8> end
|  9>
| 10> %scf
| 11>   MaxIter 150
| 12> end
| 13>
| 14>
| 15>                          ****END OF INPUT****

CARTESIAN COORDINATES (ANGSTROEM)
---------------------------------
  C      3.488276    1.600919   -1.522040
  C      4.342970    1.313419   -2.756826
  C      2.810285    0.428783   -1.014196
  H      5.132033    0.604994   -2.484466
  C      3.535896    0.749253   -3.924604
  H      4.841247    2.242136   -3.054083
  H      2.991617   -0.132199   -3.574137
  H      4.225505    0.392784   -4.695962
  C      2.564776    1.750890   -4.544523
  H      1.918749    2.171679   -3.769419
  C      1.686235    1.161657   -5.650111
  H      3.132494    2.594775   -4.951604
  C      0.839616   -0.037582   -5.220473
  H      2.323886    0.866395   -6.490796
  H      1.029518    1.951850   -6.029329
  C     -0.151019    0.254955   -4.094256
  H      1.499442   -0.857141   -4.922958
  H      0.290097   -0.410143   -6.091131
  H      0.328265    0.833022   -3.299125
  C     -0.721843   -0.999513   -3.439309
  H     -0.957367    0.884951   -4.485450
  H     -1.083403   -1.697555   -4.205656
  H     -1.581056   -0.723848   -2.820490
  C      0.287250   -1.711771   -2.527405
  H      1.131780   -2.067380   -3.159396
  H     -0.204137   -2.637326   -2.170480
  F      0.710505   -0.927506   -1.481767
  H      2.714548    2.331455   -1.760302
  H      4.090991    2.063151   -0.733382
  C      3.290978   -0.418021   -0.129083
  N      2.517536   -1.432017    0.239360
  N      4.535490   -0.284410    0.395800
  H      5.043627    0.571888    0.222899
  H      4.723346   -0.733273    1.281800
  H      1.934787    0.102305   -1.403788
  H      1.674638   -1.505616   -0.316095
  H      2.928503   -2.218502    0.725494

 Total Charge           Charge          ....    0
 Multiplicity           Mult            ....    1
 Number of Electrons    NEL             ....  112
 Basis Dimension        Dim             ....  467

ORBITAL ENERGIES
----------------

  NO   OCC          E(Eh)            E(eV)
   0   2.0000     -24.803435      -674.9358
   1   2.0000     -14.383041      -391.3825
   2   2.0000     -14.366491      -390.9321
   3   2.0000     -10.324760      -280.9510
   4   2.0000     -10.254541      -279.0402
   5   2.0000     -10.245914      -278.8055
   6   2.0000     -10.230922      -278.3975
   7   2.0000     -10.226854      -278.2869
   8   2.0000     -10.221918      -278.1525
   9   2.0000     -10.214316      -277.9457
  10   2.0000     -10.208706      -277.7930
  11   2.0000     -10.203473      -277.6506
  12   2.0000     -10.197150      -277.4786
  13   2.0000     -10.130961      -275.6775
  14   2.0000      -1.253299       -34.1040
  15   2.0000      -0.960306       -26.1313
  16   2.0000      -0.870894       -23.6982
  17   2.0000      -0.837445       -22.7880
  18   2.0000      -0.812506       -22.1094
  19   2.0000      -0.782819       -21.3016
  20   2.0000      -0.748536       -20.3687
  21   2.0000      -0.709279       -19.3005
  22   2.0000      -0.683245       -18.5920
  23   2.0000      -0.648735       -17.6530
  24   2.0000      -0.619054       -16.8453
  25   2.0000      -0.605340       -16.4721
  26   2.0000      -0.580168       -15.7872
  27   2.0000      -0.562575       -15.3084
  28   2.0000      -0.552244       -15.0273
  29   2.0000      -0.538677       -14.6582
  30   2.0000      -0.530929       -14.4473
  31   2.0000      -0.513589       -13.9755
  32   2.0000      -0.501666       -13.6510
  33   2.0000      -0.478994       -13.0341
  34   2.0000      -0.471093       -12.8191
  35   2.0000      -0.458580       -12.4786
  36   2.0000      -0.452114       -12.3026
  37   2.0000      -0.438899       -11.9430
  38   2.0000      -0.427600       -11.6356
  39   2.0000      -0.417979       -11.3738
  40   2.0000      -0.409982       -11.1562
  41   2.0000      -0.391896       -10.6640
  42   2.0000      -0.386344       -10.5129
  43   2.0000      -0.378791       -10.3074
  44   2.0000      -0.374228       -10.1833
  45   2.0000      -0.370622       -10.0851
  46   2.0000      -0.351997        -9.5783
  47   2.0000      -0.343195        -9.3388
  48   2.0000      -0.333398        -9.0722
  49   2.0000      -0.330953        -9.0057
  50   2.0000      -0.327911        -8.9229
  51   2.0000      -0.312461        -8.5025
  52   2.0000      -0.306127        -8.3301
  53   2.0000      -0.300814        -8.1856
  54   2.0000      -0.261681        -7.1207
  55   2.0000      -0.156680        -4.2635
  56   0.0000       0.023221         0.6319
  57   0.0000       0.034793         0.9468
  58   0.0000       0.037090         1.0093
  59   0.0000       0.043456         1.1825
  60   0.0000       0.056744         1.5441

MULLIKEN ATOMIC CHARGES
-----------------------
   0 C :    0.345396
   1 C :    0.369109
   2 C :   -0.008338
   3 H :   -0.020773
   4 C :    0.043331
   5 H :   -0.016609
   6 H :   -0.214766
   7 H :   -0.052728
   8 C :   -0.157251
   9 H :    0.104149
  10 C :    0.507735
  11 H :   -0.182415
  12 C :   -0.121292
  13 H :    0.033927
  14 H :   -0.066435
  15 C :    0.057598
  16 H :    0.025767
  17 H :   -0.164796
  18 H :   -0.182424
  19 C :    0.126227
  20 H :   -0.068916
  21 H :    0.004289
  22 H :    0.017900
  23 C :    0.791628
  24 H :   -0.014148
  25 H :   -0.163749
  26 F :   -0.650564
  27 H :    0.058028
  28 H :   -0.150590
  29 C :    0.658072
  30 N :    0.083477
  31 N :   -0.145115
  32 H :   -0.028154
  33 H :   -0.221519
  34 H :   -0.318955
  35 H :   -0.050750
  36 H :   -0.226346
Sum of atomic charges:    0.0000000

LOEWDIN ATOMIC CHARGES
----------------------
   0 C :   -0.050050
   1 C :   -0.031449
   2 C :   -0.016647
   3 H :    0.020576
   4 C :   -0.033223
   5 H :    0.017377
   6 H :   -0.000253
   7 H :    0.026431
   8 C :   -0.036107
   9 H :    0.001995
  10 C :   -0.034280
  11 H :    0.026968
  12 C :   -0.037981
  13 H :    0.024191
  14 H :    0.023436
  15 C :   -0.026402
  16 H :   -0.000598
  17 H :    0.024944
  18 H :    0.010743
  19 C :   -0.014297
  20 H :    0.031383
  21 H :    0.037585
  22 H :    0.030173
  23 C :    0.164240
  24 H :    0.036855
  25 H :    0.038870
  26 F :   -0.223698
  27 H :    0.006627
  28 H :    0.006633
  29 C :   -0.192524
  30 N :    0.189558
  31 N :    0.196172
  32 H :   -0.022842
  33 H :   -0.016097
  34 H :   -0.102629
  35 H :   -0.068459
  36 H :   -0.007220

  Mayer bond orders larger than 0.100000
B(  0-C ,  1-C ) :   1.0834 B(  0-C ,  2-C ) :   1.0006 B(  0-C ,  3-H ) :   0.1445
B(  0-C ,  5-H ) :   0.1741 B(  0-C , 27-H ) :   0.8218 B(  0-C , 28-H ) :   0.7359
B(  0-C , 34-H ) :   0.4784 B(  1-C ,  3-H ) :   0.7627 B(  1-C ,  4-C ) :   1.2746
B(  1-C ,  5-H ) :   0.8113 B(  1-C ,  6-H ) :   0.1129 B(  2-C , 27-H ) :   0.2269
B(  2-C , 28-H ) :   0.2917 B(  2-C , 29-C ) :   1.9354 B(  2-C , 30-N ) :   0.3022
B(  2-C , 31-N ) :   0.1979 B(  2-C , 32-H ) :  -0.1762 B(  2-C , 34-H ) :   0.1858
B(  3-H ,  4-C ) :   0.2010 B(  4-C ,  5-H ) :   0.1329 B(  4-C ,  6-H ) :   0.9278
B(  4-C ,  7-H ) :   0.7902 B(  4-C ,  8-C ) :   1.1988 B(  4-C , 11-H ) :   0.1553
B(  6-H ,  8-C ) :   0.1244 B(  7-H ,  8-C ) :   0.1501 B(  8-C ,  9-H ) :   0.8477
B(  8-C , 10-C ) :   1.1802 B(  8-C , 11-H ) :   0.9728 B(  8-C , 13-H ) :   0.1187
B(  8-C , 14-H ) :   0.2599 B( 10-C , 12-C ) :   1.2137 B( 10-C , 13-H ) :   0.7311
B( 10-C , 14-H ) :   0.7316 B( 12-C , 13-H ) :   0.2093 B( 12-C , 14-H ) :   0.1210
B( 12-C , 15-C ) :   1.2098 B( 12-C , 16-H ) :   0.8988 B( 12-C , 17-H ) :   0.9163
B( 12-C , 18-H ) :   0.1264 B( 12-C , 20-H ) :   0.1816 B( 13-H , 14-H ) :  -0.1011
B( 15-C , 17-H ) :   0.2177 B( 15-C , 18-H ) :   0.9092 B( 15-C , 19-C ) :   1.1891
B( 15-C , 20-H ) :   0.8511 B( 15-C , 21-H ) :   0.1182 B( 15-C , 22-H ) :   0.1909
B( 18-H , 19-C ) :   0.1306 B( 19-C , 21-H ) :   0.8209 B( 19-C , 22-H ) :   0.7731
B( 19-C , 23-C ) :   1.2248 B( 19-C , 24-H ) :   0.1119 B( 19-C , 25-H ) :   0.1289
B( 19-C , 26-F ) :   0.1229 B( 21-H , 23-C ) :   0.1438 B( 22-H , 23-C ) :   0.1348
B( 23-C , 24-H ) :   0.8410 B( 23-C , 25-H ) :   0.9242 B( 23-C , 26-F ) :   0.5453
B( 24-H , 26-F ) :   0.1190 B( 26-F , 34-H ) :  -0.1866 B( 26-F , 35-H ) :   0.1009
B( 27-H , 34-H ) :  -0.1424 B( 29-C , 30-N ) :   0.6890 B( 29-C , 31-N ) :   0.7580
B( 29-C , 34-H ) :   0.3256 B( 29-C , 36-H ) :  -0.1086 B( 30-N , 31-N ) :   0.1090
B( 30-N , 35-H ) :   1.0603 B( 30-N , 36-H ) :   1.2422 B( 31-N , 32-H ) :   1.0160
B( 31-N , 33-H ) :   1.2692 B( 32-H , 33-H ) :  -0.1359 B( 35-H , 36-H ) :  -0.1474

Dispersion correction           -0.035156289
FINAL SINGLE POINT ENERGY      -641.180362545676

DIPOLE MOMENT
-------------
                                X             Y             Z
Electronic contribution:     -1.59099      -4.85840      10.69470
Nuclear contribution   :      1.15699       3.94991     -10.89335
                        -----------------------------------------
Total Dipole Moment    :     -0.43400      -0.90848      -0.19865
                        -----------------------------------------
Magnitude (a.u.)       :      1.02624
Magnitude (Debye)      :      2.60849

Rotational constants in cm-1:     0.026548     0.016177     0.010851
Rotational constants in MHz :   795.884848   484.988695   325.313537

                             ****ORCA TERMINATED NORMALLY****
TOTAL RUN TIME: 0 days 0 hours 3 minutes 5 seconds 988 msec
