                         Program Version 5.0.0 -  RELEASE  -
|  1> !wB97X-D3 RIJCOSX def2-SVP def2/J TightSCF
|  2> *xyz -1 1
|  3> C         -0.25875        1.00432       -5.40983
|  4> C          0.39596       -0.37070       -5.33994
|  5> O         -0.32633       -1.39040       -5.49128
|  6> O          1.61941       -0.40073       -5.03683
|  7> H         -1.28979        0.89539       -5.67439
|  8> H          0.23798        1.59877       -6.14792
|  9> H         -0.18395        1.48386       -4.45623
| 10> *
| 11> %MaxCore 64000
| 12>
| 13> %pal nprocs 18
| 14> end
| 15>
| 16> %scf
| 17>   MaxIter 150
| 18> end
| 19>
| 20>
| 21>                          ****END OF INPUT****

CARTESIAN COORDINATES (ANGSTROEM)
---------------------------------
  C     -0.258750    1.004320   -5.409830
  C      0.395960   -0.370700   -5.339940
  O     -0.326330   -1.390400   -5.491280
  O      1.619410   -0.400730   -5.036830
  H     -1.289790    0.895390   -5.674390
  H      0.237980    1.598770   -6.147920
  H     -0.183950    1.483860   -4.456230

 Total Charge           Charge          ....   -1
 Multiplicity           Mult            ....    1
 Number of Electrons    NEL             ....   32
 Basis Dimension        Dim             ....   71

ORBITAL ENERGIES
----------------

  NO   OCC          E(Eh)            E(eV)
   0   2.0000     -18.931543      -515.1535
   1   2.0000     -18.927723      -515.0495
   2   2.0000     -10.138897      -275.8934
   3   2.0000     -10.085217      -274.4327
   4   2.0000      -0.882653       -24.0182
   5   2.0000      -0.784856       -21.3570
   6   2.0000      -0.635787       -17.3006
   7   2.0000      -0.380117       -10.3435
   8   2.0000      -0.343644        -9.3510
   9   2.0000      -0.327984        -8.9249
  10   2.0000      -0.289353        -7.8737
  11   2.0000      -0.245513        -6.6807
  12   2.0000      -0.231501        -6.2995
  13   2.0000      -0.099459        -2.7064
  14   2.0000      -0.097296        -2.6476
  15   2.0000      -0.080191        -2.1821
  16   0.0000       0.329715         8.9720
  17   0.0000       0.356146         9.6912
  18   0.0000       0.392737        10.6869
  19   0.0000       0.425181        11.5698
  20   0.0000       0.517645        14.0858

MULLIKEN ATOMIC CHARGES
-----------------------
   0 C :   -0.010190
   1 C :    0.029519
   2 O :   -0.460068
   3 O :   -0.477450
   4 H :   -0.039651
   5 H :   -0.024679
   6 H :   -0.017482
Sum of atomic charges:   -1.0000000

LOEWDIN ATOMIC CHARGES
----------------------
   0 C :   -0.123001
   1 C :   -0.043493
   2 O :   -0.415215
   3 O :   -0.426429
   4 H :   -0.004056
   5 H :    0.004478
   6 H :    0.007715

  Mayer bond orders larger than 0.100000
B(  0-C ,  1-C ) :   0.9422 B(  0-C ,  4-H ) :   0.9635 B(  0-C ,  5-H ) :   0.9649
B(  0-C ,  6-H ) :   0.9682 B(  1-C ,  2-O ) :   1.8569 B(  1-C ,  3-O ) :   1.8235
B(  2-O ,  3-O ) :   0.1097

Dispersion correction           -0.000907174
FINAL SINGLE POINT ENERGY      -228.263469488865

DIPOLE MOMENT
-------------
                                X             Y             Z
Electronic contribution:      1.60067      -3.35061       0.20162
Nuclear contribution   :     -2.15615       4.52621      -0.30445
                        -----------------------------------------
Total Dipole Moment    :     -0.55548       1.17560      -0.10283
                        -----------------------------------------
Magnitude (a.u.)       :      1.30429
Magnitude (Debye)      :      3.31523

Rotational constants in cm-1:     0.393591     0.332639     0.186460
Rotational constants in MHz : 11799.557437  9972.275109  5589.926304

                             ****ORCA TERMINATED NORMALLY****
TOTAL RUN TIME: 0 days 0 hours 0 minutes 4 seconds 402 msec
