                         Program Version 5.0.0 -  RELEASE  -
|  1> !wB97X-D3 RIJCOSX def2-SVP def2/J TightSCF xyzfile
|  2>
|  3> *xyzfile 0 1 B.xyz
|  4>
|  5> %MaxCore 64000
|  6>
|  7> %pal nprocs 18
|  8> end
|  9>
| 10> %scf
| 11>   MaxIter 150
| 12> end
| 13>
| 14>
| 15>                          ****END OF INPUT****

CARTESIAN COORDINATES (ANGSTROEM)
---------------------------------
  C      0.816067   -2.101491   -2.186546
  H      1.696232   -2.368691   -1.600457
  N      1.100552   -2.467492   -3.599269
  C      0.516243   -0.613634   -2.039373
  H     -0.020066   -2.712849   -1.840844
  C     -0.868621   -0.193925   -2.546303
  C     -0.984801    1.284739   -2.928686
  H     -0.764939    1.904116   -2.051568
  H     -2.032613    1.478953   -3.178952
  C     -0.106085    1.769914   -4.089836
  H     -0.347744    2.822196   -4.262942
  H      0.949683    1.745875   -3.808781
  C     -0.258747    1.004323   -5.409829
  C      0.395958   -0.370696   -5.339939
  H      0.239150    1.569393   -6.201253
  H     -1.309360    0.888694   -5.682455
  H      1.700606   -1.757225   -4.078378
  H      0.293855   -2.359766   -4.256324
  H      1.501324   -3.428479   -3.694915
  O     -0.326329   -1.390398   -5.491279
  O      1.619412   -0.400726   -5.036827
  H     -1.607271   -0.412651   -1.768955
  H     -1.157234   -0.796164   -3.409254
  H      1.299044   -0.056805   -2.558982
  H      0.612393   -0.365579   -0.979171

 Total Charge           Charge          ....    0
 Multiplicity           Mult            ....    1
 Number of Electrons    NEL             ....   80
 Basis Dimension        Dim             ....  215

ORBITAL ENERGIES
----------------

  NO   OCC          E(Eh)            E(eV)
   0   2.0000     -19.165732      -521.5261
   1   2.0000     -19.163636      -521.4691
   2   2.0000     -14.523533      -395.2054
   3   2.0000     -10.362886      -281.9885
   4   2.0000     -10.355966      -281.8002
   5   2.0000     -10.303121      -280.3622
   6   2.0000     -10.284464      -279.8545
   7   2.0000     -10.279424      -279.7174
   8   2.0000     -10.271813      -279.5103
   9   2.0000     -10.259092      -279.1641
  10   2.0000      -1.128081       -30.6967
  11   2.0000      -1.085538       -29.5390
  12   2.0000      -1.021914       -27.8077
  13   2.0000      -0.925317       -25.1791
  14   2.0000      -0.880570       -23.9615
  15   2.0000      -0.832053       -22.6413
  16   2.0000      -0.766542       -20.8587
  17   2.0000      -0.732311       -19.9272
  18   2.0000      -0.680822       -18.5261
  19   2.0000      -0.667829       -18.1726
  20   2.0000      -0.643176       -17.5017
  21   2.0000      -0.616959       -16.7883
  22   2.0000      -0.577900       -15.7254
  23   2.0000      -0.567869       -15.4525
  24   2.0000      -0.554248       -15.0819
  25   2.0000      -0.541997       -14.7485
  26   2.0000      -0.520274       -14.1574
  27   2.0000      -0.512966       -13.9585
  28   2.0000      -0.493261       -13.4223
  29   2.0000      -0.483993       -13.1701
  30   2.0000      -0.478214       -13.0129
  31   2.0000      -0.466401       -12.6914
  32   2.0000      -0.443823       -12.0770
  33   2.0000      -0.440187       -11.9781
  34   2.0000      -0.416045       -11.3212
  35   2.0000      -0.400941       -10.9102
  36   2.0000      -0.396191       -10.7809
  37   2.0000      -0.332161        -9.0386
  38   2.0000      -0.321796        -8.7565
  39   2.0000      -0.313671        -8.5354
  40   0.0000       0.103329         2.8117
  41   0.0000       0.135398         3.6844
  42   0.0000       0.149822         4.0769
  43   0.0000       0.163198         4.4408
  44   0.0000       0.167321         4.5530

MULLIKEN ATOMIC CHARGES
-----------------------
   0 C :    0.052758
   1 H :    0.051440
   2 N :   -0.053067
   3 C :   -0.083022
   4 H :    0.054064
   5 C :   -0.064158
   6 C :   -0.011564
   7 H :    0.014205
   8 H :    0.021597
   9 C :   -0.072602
  10 H :    0.019703
  11 H :    0.035570
  12 C :    0.035892
  13 C :    0.109746
  14 H :    0.035591
  15 H :    0.015165
  16 H :    0.176403
  17 H :    0.175204
  18 H :    0.176385
  19 O :   -0.413870
  20 O :   -0.429022
  21 H :    0.020053
  22 H :    0.037588
  23 H :    0.058143
  24 H :    0.037799
Sum of atomic charges:    0.0000000

LOEWDIN ATOMIC CHARGES
----------------------
   0 C :    0.047112
   1 H :    0.030391
   2 N :    0.232127
   3 C :   -0.049307
   4 H :    0.030129
   5 C :   -0.050985
   6 C :   -0.036283
   7 H :    0.020171
   8 H :    0.025238
   9 C :   -0.038448
  10 H :    0.023910
  11 H :    0.021189
  12 C :   -0.066703
  13 C :    0.028175
  14 H :    0.037154
  15 H :    0.022611
  16 H :    0.075538
  17 H :    0.079020
  18 H :    0.117391
  19 O :   -0.328075
  20 O :   -0.328403
  21 H :    0.023010
  22 H :    0.020076
  23 H :    0.032118
  24 H :    0.032845

  Mayer bond orders larger than 0.100000
B(  0-C ,  1-H ) :   0.9594 B(  0-C ,  2-N ) :   0.9742 B(  0-C ,  3-C ) :   1.0814
B(  0-C ,  4-H ) :   0.9576 B(  2-N , 16-H ) :   0.8136 B(  2-N , 17-H ) :   0.8204
B(  2-N , 18-H ) :   0.9417 B(  3-C ,  5-C ) :   1.0271 B(  3-C , 23-H ) :   0.9468
B(  3-C , 24-H ) :   0.9434 B(  5-C ,  6-C ) :   1.0869 B(  5-C , 21-H ) :   0.9427
B(  5-C , 22-H ) :   0.9373 B(  6-C ,  7-H ) :   0.9487 B(  6-C ,  8-H ) :   0.9452
B(  6-C ,  9-C ) :   1.0723 B(  9-C , 10-H ) :   0.9473 B(  9-C , 11-H ) :   0.9452
B(  9-C , 12-C ) :   1.0685 B( 12-C , 13-C ) :   0.9653 B( 12-C , 14-H ) :   0.9293
B( 12-C , 15-H ) :   0.9443 B( 13-C , 19-O ) :   1.6787 B( 13-C , 20-O ) :   1.6610
B( 16-H , 20-O ) :   0.2208 B( 17-H , 19-O ) :   0.2127

Dispersion correction           -0.011303590
FINAL SINGLE POINT ENERGY      -480.527269026747

DIPOLE MOMENT
-------------
                                X             Y             Z
Electronic contribution:      2.36425      -3.21796      -6.27777
Nuclear contribution   :     -2.02598       1.95876       8.24116
                        -----------------------------------------
Total Dipole Moment    :      0.33827      -1.25919       1.96339
                        -----------------------------------------
Magnitude (a.u.)       :      2.35688
Magnitude (Debye)      :      5.99071

Rotational constants in cm-1:     0.052900     0.041948     0.028766
Rotational constants in MHz :  1585.892512  1257.572595   862.390225

                             ****ORCA TERMINATED NORMALLY****
TOTAL RUN TIME: 0 days 0 hours 0 minutes 19 seconds 348 msec
