                         Program Version 5.0.0 -  RELEASE  -
|  1> !wB97X-D3 RIJCOSX def2-SVP def2/J TightSCF
|  2> *xyz 0 1
|  3> C          0.81607       -2.10149       -2.18655
|  4> C          1.10055       -2.46749       -3.59927
|  5> H          1.70061       -1.75723       -4.07838
|  6> H          0.29386       -2.35977       -4.25632
|  7> H          1.50132       -3.42848       -3.69491
|  8> H          0.40947       -1.11246       -2.14929
|  9> H          1.72290       -2.13590       -1.61965
| 10> H          0.11112       -2.79271       -1.77405
| 11> *
| 12> %MaxCore 64000
| 13>
| 14> %pal nprocs 18
| 15> end
| 16>
| 17> %scf
| 18>   MaxIter 150
| 19> end
| 20>
| 21>
| 22>                          ****END OF INPUT****

CARTESIAN COORDINATES (ANGSTROEM)
---------------------------------
  C      0.816070   -2.101490   -2.186550
  C      1.100550   -2.467490   -3.599270
  H      1.700610   -1.757230   -4.078380
  H      0.293860   -2.359770   -4.256320
  H      1.501320   -3.428480   -3.694910
  H      0.409470   -1.112460   -2.149290
  H      1.722900   -2.135900   -1.619650
  H      0.111120   -2.792710   -1.774050

 Total Charge           Charge          ....    0
 Multiplicity           Mult            ....    1
 Number of Electrons    NEL             ....   18
 Basis Dimension        Dim             ....   58

ORBITAL ENERGIES
----------------

  NO   OCC          E(Eh)            E(eV)
   0   2.0000     -10.266825      -279.3745
   1   2.0000     -10.257189      -279.1123
   2   2.0000      -0.874410       -23.7939
   3   2.0000      -0.727314       -19.7912
   4   2.0000      -0.552380       -15.0310
   5   2.0000      -0.533707       -14.5229
   6   2.0000      -0.469929       -12.7874
   7   2.0000      -0.444761       -12.1026
   8   2.0000      -0.423466       -11.5231
   9   0.0000       0.158015         4.2998
  10   0.0000       0.207762         5.6535
  11   0.0000       0.221014         6.0141
  12   0.0000       0.224695         6.1143
  13   0.0000       0.253206         6.8901

MULLIKEN ATOMIC CHARGES
-----------------------
   0 C :   -0.066852
   1 C :   -0.051085
   2 H :    0.005745
   3 H :    0.005959
   4 H :    0.024353
   5 H :    0.025044
   6 H :    0.028858
   7 H :    0.027979
Sum of atomic charges:    0.0000000

LOEWDIN ATOMIC CHARGES
----------------------
   0 C :   -0.058756
   1 C :   -0.064568
   2 H :    0.019200
   3 H :    0.018710
   4 H :    0.018068
   5 H :    0.022681
   6 H :    0.022738
   7 H :    0.021927

  Mayer bond orders larger than 0.100000
B(  0-C ,  1-C ) :   1.1082 B(  0-C ,  5-H ) :   0.9797 B(  0-C ,  6-H ) :   0.9804
B(  0-C ,  7-H ) :   0.9811 B(  1-C ,  2-H ) :   0.9730 B(  1-C ,  3-H ) :   0.9730
B(  1-C ,  4-H ) :   0.9805

Dispersion correction           -0.000521512
FINAL SINGLE POINT ENERGY       -79.733958059618

DIPOLE MOMENT
-------------
                                X             Y             Z
Electronic contribution:      0.00415      -0.06956       0.13113
Nuclear contribution   :     -0.00793       0.09023      -0.16124
                        -----------------------------------------
Total Dipole Moment    :     -0.00378       0.02067      -0.03011
                        -----------------------------------------
Magnitude (a.u.)       :      0.03672
Magnitude (Debye)      :      0.09334

Rotational constants in cm-1:     2.876169     0.710562     0.698917
Rotational constants in MHz : 86225.370734 21302.115394 20952.991121

                             ****ORCA TERMINATED NORMALLY****
TOTAL RUN TIME: 0 days 0 hours 0 minutes 3 seconds 193 msec
