                         Program Version 5.0.0 -  RELEASE  -
|  1> !wB97X-D3 RIJCOSX def2-SVP def2/J TightSCF
|  2> *xyz 0 1
|  3> C         -0.25875        1.00432       -5.40983
|  4> C          0.39596       -0.37070       -5.33994
|  5> O         -0.32633       -1.39040       -5.49128
|  6> F          1.61941       -0.40073       -5.03683
|  7> H         -1.28979        0.89539       -5.67439
|  8> H          0.23798        1.59877       -6.14792
|  9> H         -0.18395        1.48386       -4.45623
| 10> *
| 11> %MaxCore 64000
| 12>
| 13> %pal nprocs 18
| 14> end
| 15>
| 16> %scf
| 17>   MaxIter 150
| 18> end
| 19>
| 20>
| 21>                          ****END OF INPUT****

CARTESIAN COORDINATES (ANGSTROEM)
---------------------------------
  C     -0.258750    1.004320   -5.409830
  C      0.395960   -0.370700   -5.339940
  O     -0.326330   -1.390400   -5.491280
  F      1.619410   -0.400730   -5.036830
  H     -1.289790    0.895390   -5.674390
  H      0.237980    1.598770   -6.147920
  H     -0.183950    1.483860   -4.456230

 Total Charge           Charge          ....    0
 Multiplicity           Mult            ....    1
 Number of Electrons    NEL             ....   32
 Basis Dimension        Dim             ....   71

ORBITAL ENERGIES
----------------

  NO   OCC          E(Eh)            E(eV)
   0   2.0000     -24.857110      -676.3963
   1   2.0000     -19.241604      -523.5907
   2   2.0000     -10.466835      -284.8171
   3   2.0000     -10.313486      -280.6442
   4   2.0000      -1.411379       -38.4056
   5   2.0000      -1.131029       -30.7769
   6   2.0000      -0.881075       -23.9753
   7   2.0000      -0.755374       -20.5548
   8   2.0000      -0.647410       -17.6169
   9   2.0000      -0.643734       -17.5169
  10   2.0000      -0.598811       -16.2945
  11   2.0000      -0.542068       -14.7504
  12   2.0000      -0.529646       -14.4124
  13   2.0000      -0.494801       -13.4642
  14   2.0000      -0.444616       -12.0986
  15   2.0000      -0.384778       -10.4703
  16   0.0000       0.066110         1.7989
  17   0.0000       0.150948         4.1075
  18   0.0000       0.209969         5.7136
  19   0.0000       0.214908         5.8480
  20   0.0000       0.264034         7.1847

MULLIKEN ATOMIC CHARGES
-----------------------
   0 C :   -0.067975
   1 C :    0.226839
   2 O :   -0.272361
   3 F :   -0.092161
   4 H :    0.072318
   5 H :    0.063560
   6 H :    0.069780
Sum of atomic charges:    0.0000000

LOEWDIN ATOMIC CHARGES
----------------------
   0 C :   -0.080604
   1 C :    0.116133
   2 O :   -0.205426
   3 F :    0.030125
   4 H :    0.048556
   5 H :    0.043971
   6 H :    0.047246

  Mayer bond orders larger than 0.100000
B(  0-C ,  1-C ) :   1.0269 B(  0-C ,  4-H ) :   0.9704 B(  0-C ,  5-H ) :   0.9552
B(  0-C ,  6-H ) :   0.9560 B(  1-C ,  2-O ) :   2.0827 B(  1-C ,  3-F ) :   1.1725

Dispersion correction           -0.000902822
FINAL SINGLE POINT ENERGY      -252.821280801576

DIPOLE MOMENT
-------------
                                X             Y             Z
Electronic contribution:      3.61855      -3.48705       0.64566
Nuclear contribution   :     -3.46039       4.64214      -0.59441
                        -----------------------------------------
Total Dipole Moment    :      0.15816       1.15509       0.05125
                        -----------------------------------------
Magnitude (a.u.)       :      1.16699
Magnitude (Debye)      :      2.96626

Rotational constants in cm-1:     0.366844     0.321935     0.177045
Rotational constants in MHz : 10997.709774  9651.373819  5307.687677

                             ****ORCA TERMINATED NORMALLY****
TOTAL RUN TIME: 0 days 0 hours 0 minutes 4 seconds 307 msec
