                         Program Version 5.0.0 -  RELEASE  -
|  1> !wB97X-D3 RIJCOSX def2-SVP def2/J TightSCF xyzfile
|  2>
|  3> *xyzfile 0 1 D1.xyz
|  4>
|  5> %MaxCore 64000
|  6>
|  7> %pal nprocs 18
|  8> end
|  9>
| 10> %scf
| 11>   MaxIter 150
| 12> end
| 13>
| 14>
| 15>                          ****END OF INPUT****

CARTESIAN COORDINATES (ANGSTROEM)
---------------------------------
  C      0.816067   -2.101491   -2.186546
  H      1.696232   -2.368691   -1.600457
  C      1.100552   -2.467492   -3.599269
  C      0.516243   -0.613634   -2.039373
  H     -0.020066   -2.712849   -1.840844
  C     -0.868621   -0.193925   -2.546303
  C     -0.984801    1.284739   -2.928686
  H     -0.764939    1.904116   -2.051568
  H     -2.032613    1.478953   -3.178952
  C     -0.106085    1.769914   -4.089836
  H     -0.347744    2.822196   -4.262942
  H      0.949683    1.745875   -3.808781
  C     -0.258747    1.004323   -5.409829
  C      0.395958   -0.370696   -5.339939
  H      0.239150    1.569393   -6.201253
  H     -1.309360    0.888694   -5.682455
  H      1.700606   -1.757225   -4.078378
  H      0.293855   -2.359766   -4.256324
  H      1.501324   -3.428479   -3.694915
  F     -0.326329   -1.390398   -5.491279
  O      1.619412   -0.400726   -5.036827
  H     -1.607271   -0.412651   -1.768955
  H     -1.157234   -0.796164   -3.409254
  H      1.299044   -0.056805   -2.558982
  H      0.612393   -0.365579   -0.979171

 Total Charge           Charge          ....    0
 Multiplicity           Mult            ....    1
 Number of Electrons    NEL             ....   80
 Basis Dimension        Dim             ....  215

ORBITAL ENERGIES
----------------

  NO   OCC          E(Eh)            E(eV)
   0   2.0000     -24.873028      -676.8295
   1   2.0000     -19.252573      -523.8891
   2   2.0000     -10.476998      -285.0936
   3   2.0000     -10.323443      -280.9152
   4   2.0000     -10.304237      -280.3926
   5   2.0000     -10.292271      -280.0669
   6   2.0000     -10.284827      -279.8644
   7   2.0000     -10.270388      -279.4715
   8   2.0000     -10.260383      -279.1992
   9   2.0000     -10.211207      -277.8611
  10   2.0000      -1.431446       -38.9516
  11   2.0000      -1.150186       -31.2982
  12   2.0000      -0.938224       -25.5304
  13   2.0000      -0.903979       -24.5985
  14   2.0000      -0.854274       -23.2460
  15   2.0000      -0.814325       -22.1589
  16   2.0000      -0.770357       -20.9625
  17   2.0000      -0.744387       -20.2558
  18   2.0000      -0.705282       -19.1917
  19   2.0000      -0.665392       -18.1062
  20   2.0000      -0.659117       -17.9355
  21   2.0000      -0.644660       -17.5421
  22   2.0000      -0.627275       -17.0690
  23   2.0000      -0.580814       -15.8047
  24   2.0000      -0.558891       -15.2082
  25   2.0000      -0.543913       -14.8006
  26   2.0000      -0.538284       -14.6475
  27   2.0000      -0.523908       -14.2563
  28   2.0000      -0.509216       -13.8565
  29   2.0000      -0.497719       -13.5436
  30   2.0000      -0.478612       -13.0237
  31   2.0000      -0.463330       -12.6079
  32   2.0000      -0.457893       -12.4599
  33   2.0000      -0.444726       -12.1016
  34   2.0000      -0.430844       -11.7239
  35   2.0000      -0.418851       -11.3975
  36   2.0000      -0.409590       -11.1455
  37   2.0000      -0.398240       -10.8367
  38   2.0000      -0.388365       -10.5680
  39   2.0000      -0.355088        -9.6624
  40   0.0000       0.043980         1.1968
  41   0.0000       0.134662         3.6643
  42   0.0000       0.164269         4.4700
  43   0.0000       0.169152         4.6029
  44   0.0000       0.177177         4.8212

MULLIKEN ATOMIC CHARGES
-----------------------
   0 C :   -0.033341
   1 H :    0.015074
   2 C :   -0.053382
   3 C :   -0.063928
   4 H :    0.006796
   5 C :   -0.061221
   6 C :   -0.015020
   7 H :    0.029225
   8 H :    0.019009
   9 C :   -0.070081
  10 H :    0.037041
  11 H :    0.056381
  12 C :   -0.022078
  13 C :    0.253389
  14 H :    0.076741
  15 H :    0.039085
  16 H :    0.040641
  17 H :    0.004973
  18 H :   -0.005167
  19 F :   -0.071776
  20 O :   -0.263594
  21 H :    0.029899
  22 H :    0.009373
  23 H :    0.027214
  24 H :    0.014749
Sum of atomic charges:    0.0000000

LOEWDIN ATOMIC CHARGES
----------------------
   0 C :   -0.037468
   1 H :    0.020905
   2 C :   -0.094065
   3 C :   -0.047002
   4 H :    0.013955
   5 C :   -0.048217
   6 C :   -0.038972
   7 H :    0.028139
   8 H :    0.022183
   9 C :   -0.031068
  10 H :    0.031959
  11 H :    0.030627
  12 C :   -0.060454
  13 C :    0.137133
  14 H :    0.056772
  15 H :    0.030558
  16 H :    0.001562
  17 H :   -0.007126
  18 H :    0.009591
  19 F :    0.069287
  20 O :   -0.167157
  21 H :    0.029433
  22 H :    0.010300
  23 H :    0.018305
  24 H :    0.020821

  Mayer bond orders larger than 0.100000
B(  0-C ,  1-H ) :   0.9520 B(  0-C ,  2-C ) :   1.0908 B(  0-C ,  3-C ) :   1.0809
B(  0-C ,  4-H ) :   0.9547 B(  2-C , 16-H ) :   0.9330 B(  2-C , 17-H ) :   0.9571
B(  2-C , 18-H ) :   0.9463 B(  3-C ,  5-C ) :   1.0326 B(  3-C , 23-H ) :   0.9593
B(  3-C , 24-H ) :   0.9461 B(  5-C ,  6-C ) :   1.0859 B(  5-C , 21-H ) :   0.9414
B(  5-C , 22-H ) :   0.9459 B(  6-C ,  7-H ) :   0.9456 B(  6-C ,  8-H ) :   0.9477
B(  6-C ,  9-C ) :   1.0687 B(  9-C , 10-H ) :   0.9478 B(  9-C , 11-H ) :   0.9466
B(  9-C , 12-C ) :   1.0577 B( 12-C , 13-C ) :   0.9986 B( 12-C , 14-H ) :   0.9266
B( 12-C , 15-H ) :   0.9385 B( 13-C , 19-F ) :   1.1387 B( 13-C , 20-O ) :   1.9737

Dispersion correction           -0.010976484
FINAL SINGLE POINT ENERGY      -488.427379875581

DIPOLE MOMENT
-------------
                                X             Y             Z
Electronic contribution:      0.35117      -1.96367     -10.62886
Nuclear contribution   :     -1.21560       2.80077      10.24180
                        -----------------------------------------
Total Dipole Moment    :     -0.86443       0.83710      -0.38705
                        -----------------------------------------
Magnitude (a.u.)       :      1.26404
Magnitude (Debye)      :      3.21292

Rotational constants in cm-1:     0.051255     0.042531     0.028894
Rotational constants in MHz :  1536.587743  1275.050721   866.218876

                             ****ORCA TERMINATED NORMALLY****
TOTAL RUN TIME: 0 days 0 hours 0 minutes 19 seconds 567 msec
