                         Program Version 5.0.0 -  RELEASE  -
|  1> !B3LYP D3BJ RIJCOSX def2-SVP def2/J TightSCF
|  2> *xyz -1 1
|  3> C         -1.10433        0.25137       -2.86006
|  4> C         -0.71189        0.84252       -4.21834
|  5> H          0.15463        1.49980       -4.13091
|  6> H         -1.53813        1.45922       -4.58267
|  7> C         -0.39762       -0.20587       -5.28802
|  8> O          0.61717       -0.00535       -5.99827
|  9> O         -1.13317       -1.22138       -5.34147
| 10> H         -1.95489       -0.38644       -2.98099
| 11> H         -1.34603        1.04362       -2.18269
| 12> H         -0.28606       -0.31581       -2.46809
| 13> *
| 14>
| 15> %MaxCore 64000
| 16>
| 17> %pal nprocs 4
| 18> end
| 19>
| 20> %scf
| 21>   MaxIter 150
| 22> end
| 23>
| 24>
| 25>                          ****END OF INPUT****

CARTESIAN COORDINATES (ANGSTROEM)
---------------------------------
  C     -1.104330    0.251370   -2.860060
  C     -0.711890    0.842520   -4.218340
  H      0.154630    1.499800   -4.130910
  H     -1.538130    1.459220   -4.582670
  C     -0.397620   -0.205870   -5.288020
  O      0.617170   -0.005350   -5.998270
  O     -1.133170   -1.221380   -5.341470
  H     -1.954890   -0.386440   -2.980990
  H     -1.346030    1.043620   -2.182690
  H     -0.286060   -0.315810   -2.468090

 Total Charge           Charge          ....   -1
 Multiplicity           Mult            ....    1
 Number of Electrons    NEL             ....   40
 Basis Dimension        Dim             ....   95

ORBITAL ENERGIES
----------------

  NO   OCC          E(Eh)            E(eV)
   0   2.0000     -18.831874      -512.4413
   1   2.0000     -18.829343      -512.3725
   2   2.0000     -10.032463      -272.9972
   3   2.0000     -10.009315      -272.3673
   4   2.0000      -9.989637      -271.8319
   5   2.0000      -0.772469       -21.0199
   6   2.0000      -0.679281       -18.4842
   7   2.0000      -0.580795       -15.8042
   8   2.0000      -0.450897       -12.2695
   9   2.0000      -0.295186        -8.0324
  10   2.0000      -0.276731        -7.5302
  11   2.0000      -0.234227        -6.3736
  12   2.0000      -0.206744        -5.6258
  13   2.0000      -0.194356        -5.2887
  14   2.0000      -0.178825        -4.8661
  15   2.0000      -0.148521        -4.0415
  16   2.0000      -0.133254        -3.6260
  17   2.0000      -0.010500        -0.2857
  18   2.0000      -0.006910        -0.1880
  19   2.0000       0.009678         0.2634
  20   0.0000       0.216748         5.8980
  21   0.0000       0.265867         7.2346
  22   0.0000       0.276148         7.5144
  23   0.0000       0.284164         7.7325
  24   0.0000       0.290654         7.9091

MULLIKEN ATOMIC CHARGES
-----------------------
   0 C :    0.060045
   1 C :    0.032624
   2 H :   -0.069970
   3 H :   -0.056340
   4 C :    0.009267
   5 O :   -0.425582
   6 O :   -0.428559
   7 H :   -0.021966
   8 H :   -0.069843
   9 H :   -0.029675
Sum of atomic charges:   -1.0000000

LOEWDIN ATOMIC CHARGES
----------------------
   0 C :   -0.056611
   1 C :   -0.086423
   2 H :   -0.008234
   3 H :    0.000122
   4 C :   -0.058294
   5 O :   -0.392505
   6 O :   -0.395325
   7 H :    0.005198
   8 H :   -0.013146
   9 H :    0.005219

  Mayer bond orders larger than 0.100000
B(  0-C ,  1-C ) :   1.0900 B(  0-C ,  7-H ) :   0.9556 B(  0-C ,  8-H ) :   0.9527
B(  0-C ,  9-H ) :   0.9718 B(  1-C ,  2-H ) :   0.9299 B(  1-C ,  3-H ) :   0.9260
B(  1-C ,  4-C ) :   0.9168 B(  4-C ,  5-O ) :   1.8744 B(  4-C ,  6-O ) :   1.8431
B(  5-O ,  6-O ) :   0.1176

Dispersion correction           -0.010944891
FINAL SINGLE POINT ENERGY      -267.479893797915

DIPOLE MOMENT
-------------
                                X             Y             Z
Electronic contribution:      1.61199      -2.51921      -5.43960
Nuclear contribution   :     -2.09607       3.44215       6.87744
                        -----------------------------------------
Total Dipole Moment    :     -0.48408       0.92294       1.43784
                        -----------------------------------------
Magnitude (a.u.)       :      1.77582
Magnitude (Debye)      :      4.51378

Rotational constants in cm-1:     0.324698     0.133739     0.103466
Rotational constants in MHz :  9734.203431  4009.406827  3101.846422

                             ****ORCA TERMINATED NORMALLY****
TOTAL RUN TIME: 0 days 0 hours 0 minutes 10 seconds 455 msec
