                         Program Version 5.0.0 -  RELEASE  -
|  1> !B3LYP D3BJ RIJCOSX def2-SVP def2/J TightSCF
|  2> *xyz 1 1
|  3> C          2.23447       -2.98975       -2.39762
|  4> N          2.75680       -2.94555       -3.76503
|  5> C          1.98721       -2.59045       -4.81898
|  6> N          0.74322       -3.01749       -4.91352
|  7> N          2.49964       -1.84860       -5.80324
|  8> H          3.30978       -1.29282       -5.55895
|  9> H          1.80103       -1.30430       -6.28913
| 10> H          3.71612       -2.62880       -3.82953
| 11> H          0.39583       -3.62775       -4.18502
| 12> H          0.03920       -2.45438       -5.37137
| 13> C          2.19120       -1.61950       -1.71549
| 14> H          2.87278       -3.66637       -1.82801
| 15> H          1.24619       -3.44744       -2.40784
| 16> H          1.56387       -0.96046       -2.27853
| 17> H          3.18033       -1.21449       -1.66568
| 18> H          1.79916       -1.72608       -0.72562
| 19> *
| 20>
| 21> %MaxCore 64000
| 22>
| 23> %pal nprocs 4
| 24> end
| 25>
| 26> %scf
| 27>   MaxIter 150
| 28> end
| 29>
| 30>
| 31>                          ****END OF INPUT****

CARTESIAN COORDINATES (ANGSTROEM)
---------------------------------
  C      2.234470   -2.989750   -2.397620
  N      2.756800   -2.945550   -3.765030
  C      1.987210   -2.590450   -4.818980
  N      0.743220   -3.017490   -4.913520
  N      2.499640   -1.848600   -5.803240
  H      3.309780   -1.292820   -5.558950
  H      1.801030   -1.304300   -6.289130
  H      3.716120   -2.628800   -3.829530
  H      0.395830   -3.627750   -4.185020
  H      0.039200   -2.454380   -5.371370
  C      2.191200   -1.619500   -1.715490
  H      2.872780   -3.666370   -1.828010
  H      1.246190   -3.447440   -2.407840
  H      1.563870   -0.960460   -2.278530
  H      3.180330   -1.214490   -1.665680
  H      1.799160   -1.726080   -0.725620

 Total Charge           Charge          ....    1
 Multiplicity           Mult            ....    1
 Number of Electrons    NEL             ....   48
 Basis Dimension        Dim             ....  134

ORBITAL ENERGIES
----------------

  NO   OCC          E(Eh)            E(eV)
   0   2.0000     -14.557630      -396.1332
   1   2.0000     -14.553575      -396.0229
   2   2.0000     -14.548277      -395.8787
   3   2.0000     -10.519373      -286.2467
   4   2.0000     -10.391443      -282.7655
   5   2.0000     -10.325610      -280.9741
   6   2.0000      -1.210242       -32.9324
   7   2.0000      -1.096765       -29.8445
   8   2.0000      -1.092342       -29.7241
   9   2.0000      -0.921152       -25.0658
  10   2.0000      -0.838111       -22.8061
  11   2.0000      -0.800283       -21.7768
  12   2.0000      -0.783514       -21.3205
  13   2.0000      -0.739324       -20.1180
  14   2.0000      -0.700817       -19.0702
  15   2.0000      -0.685472       -18.6526
  16   2.0000      -0.649028       -17.6609
  17   2.0000      -0.619591       -16.8599
  18   2.0000      -0.601298       -16.3622
  19   2.0000      -0.567662       -15.4469
  20   2.0000      -0.534722       -14.5505
  21   2.0000      -0.516421       -14.0525
  22   2.0000      -0.485776       -13.2186
  23   2.0000      -0.449846       -12.2409
  24   0.0000      -0.188138        -5.1195
  25   0.0000      -0.140099        -3.8123
  26   0.0000      -0.108723        -2.9585
  27   0.0000      -0.093986        -2.5575
  28   0.0000      -0.077027        -2.0960

MULLIKEN ATOMIC CHARGES
-----------------------
   0 C :    0.040266
   1 N :   -0.111579
   2 C :    0.000071
   3 N :    0.001539
   4 N :    0.021705
   5 H :    0.158087
   6 H :    0.159788
   7 H :    0.151512
   8 H :    0.165003
   9 H :    0.170839
  10 C :    0.026452
  11 H :    0.067475
  12 H :    0.033516
  13 H :    0.017289
  14 H :    0.036269
  15 H :    0.061768
Sum of atomic charges:    1.0000000

LOEWDIN ATOMIC CHARGES
----------------------
   0 C :    0.048038
   1 N :    0.020480
   2 C :    0.139291
   3 N :    0.069525
   4 N :    0.055113
   5 H :    0.105205
   6 H :    0.107696
   7 H :    0.099159
   8 H :    0.107360
   9 H :    0.112208
  10 C :   -0.041191
  11 H :    0.046361
  12 H :    0.027367
  13 H :    0.022550
  14 H :    0.031678
  15 H :    0.049160

  Mayer bond orders larger than 0.100000
B(  0-C ,  1-N ) :   0.9502 B(  0-C , 10-C ) :   1.0987 B(  0-C , 11-H ) :   0.9472
B(  0-C , 12-H ) :   0.9515 B(  1-N ,  2-C ) :   1.3525 B(  1-N ,  7-H ) :   0.9115
B(  2-C ,  3-N ) :   1.4139 B(  2-C ,  4-N ) :   1.3812 B(  3-N ,  8-H ) :   0.9256
B(  3-N ,  9-H ) :   0.9267 B(  4-N ,  5-H ) :   0.9285 B(  4-N ,  6-H ) :   0.9294
B( 10-C , 13-H ) :   0.9667 B( 10-C , 14-H ) :   0.9686 B( 10-C , 15-H ) :   0.9587

Dispersion correction           -0.020339895
FINAL SINGLE POINT ENERGY      -284.021997950597

DIPOLE MOMENT
-------------
                                X             Y             Z
Electronic contribution:      0.16881      -1.64770      -5.25322
Nuclear contribution   :     -0.59121       2.30298       4.63196
                        -----------------------------------------
Total Dipole Moment    :     -0.42240       0.65528      -0.62127
                        -----------------------------------------
Magnitude (a.u.)       :      0.99689
Magnitude (Debye)      :      2.53389

Rotational constants in cm-1:     0.205874     0.074757     0.066901
Rotational constants in MHz :  6171.937773  2241.151057  2005.629823

                             ****ORCA TERMINATED NORMALLY****
TOTAL RUN TIME: 0 days 0 hours 0 minutes 15 seconds 995 msec
