                         Program Version 5.0.0 -  RELEASE  -
|  1> !B3LYP D3BJ RIJCOSX def2-TZVP def2/J TightSCF xyzfile
|  2>
|  3> *xyzfile 0 1 B.xyz
|  4>
|  5> %MaxCore 64000
|  6>
|  7> %pal nprocs 18
|  8> end
|  9>
| 10> %scf
| 11>   MaxIter 150
| 12> end
| 13>
| 14>
| 15>                          ****END OF INPUT****

CARTESIAN COORDINATES (ANGSTROEM)
---------------------------------
  C      2.234473   -2.989754   -2.397622
  N      2.756799   -2.945553   -3.765029
  C     -1.104325    0.251374   -2.860056
  C     -0.711893    0.842517   -4.218344
  H      0.154626    1.499800   -4.130909
  H     -1.538134    1.459222   -4.582671
  C     -0.397624   -0.205875   -5.288018
  C      1.987208   -2.590451   -4.818975
  N      0.743221   -3.017493   -4.913524
  N      2.499636   -1.848598   -5.803241
  H      3.309780   -1.292818   -5.558947
  H      1.801025   -1.304298   -6.289129
  H      3.716116   -2.628797   -3.829533
  H      0.395828   -3.627747   -4.185024
  H      0.039201   -2.454383   -5.371367
  O      0.617165   -0.005348   -5.998273
  O     -1.133173   -1.221380   -5.341465
  C      2.191199   -1.619503   -1.715492
  H      2.872783   -3.666368   -1.828014
  H      1.246188   -3.447444   -2.407842
  C      1.298729   -0.554314   -2.359773
  H      1.872917   -1.787955   -0.681310
  H      3.216809   -1.238432   -1.654428
  C     -0.196255   -0.863365   -2.325763
  H      1.612531   -0.371346   -3.393065
  H      1.480944    0.388638   -1.834444
  H     -0.404105   -1.761825   -2.909448
  H     -0.490439   -1.087880   -1.294131
  H     -1.143842    1.066711   -2.129680
  H     -2.114401   -0.156834   -2.930323

 Total Charge           Charge          ....    0
 Multiplicity           Mult            ....    1
 Number of Electrons    NEL             ....  102
 Basis Dimension        Dim             ....  505

ORBITAL ENERGIES
----------------

  NO   OCC          E(Eh)            E(eV)
   0   2.0000     -19.038795      -518.0719
   1   2.0000     -19.037597      -518.0394
   2   2.0000     -14.382054      -391.3556
   3   2.0000     -14.351619      -390.5274
   4   2.0000     -14.351126      -390.5140
   5   2.0000     -10.332034      -281.1489
   6   2.0000     -10.243101      -278.7289
   7   2.0000     -10.224043      -278.2103
   8   2.0000     -10.192392      -277.3491
   9   2.0000     -10.172240      -276.8007
  10   2.0000     -10.158396      -276.4240
  11   2.0000     -10.148734      -276.1611
  12   2.0000     -10.135485      -275.8006
  13   2.0000      -1.047677       -28.5087
  14   2.0000      -1.004171       -27.3249
  15   2.0000      -0.943412       -25.6716
  16   2.0000      -0.924444       -25.1554
  17   2.0000      -0.907592       -24.6968
  18   2.0000      -0.818008       -22.2591
  19   2.0000      -0.775214       -21.0946
  20   2.0000      -0.724639       -19.7184
  21   2.0000      -0.680446       -18.5159
  22   2.0000      -0.654942       -17.8219
  23   2.0000      -0.620729       -16.8909
  24   2.0000      -0.611835       -16.6489
  25   2.0000      -0.578339       -15.7374
  26   2.0000      -0.557023       -15.1574
  27   2.0000      -0.532466       -14.4891
  28   2.0000      -0.510779       -13.8990
  29   2.0000      -0.501022       -13.6335
  30   2.0000      -0.482385       -13.1264
  31   2.0000      -0.470815       -12.8115
  32   2.0000      -0.462953       -12.5976
  33   2.0000      -0.446352       -12.1458
  34   2.0000      -0.434593       -11.8259
  35   2.0000      -0.426156       -11.5963
  36   2.0000      -0.412835       -11.2338
  37   2.0000      -0.404847       -11.0165
  38   2.0000      -0.389108       -10.5882
  39   2.0000      -0.379106       -10.3160
  40   2.0000      -0.366659        -9.9773
  41   2.0000      -0.358054        -9.7431
  42   2.0000      -0.343654        -9.3513
  43   2.0000      -0.327940        -8.9237
  44   2.0000      -0.315156        -8.5758
  45   2.0000      -0.308867        -8.4047
  46   2.0000      -0.304479        -8.2853
  47   2.0000      -0.294814        -8.0223
  48   2.0000      -0.229396        -6.2422
  49   2.0000      -0.218942        -5.9577
  50   2.0000      -0.210905        -5.7390
  51   0.0000      -0.020819        -0.5665
  52   0.0000      -0.007791        -0.2120
  53   0.0000       0.015975         0.4347
  54   0.0000       0.032078         0.8729
  55   0.0000       0.047409         1.2901

MULLIKEN ATOMIC CHARGES
-----------------------
   0 C :   -0.143008
   1 N :   -0.244928
   2 C :   -0.131799
   3 C :   -0.158766
   4 H :    0.076178
   5 H :    0.091892
   6 C :    0.279546
   7 C :    0.267811
   8 N :   -0.327060
   9 N :   -0.317730
  10 H :    0.218449
  11 H :    0.277391
  12 H :    0.207782
  13 H :    0.226534
  14 H :    0.280602
  15 O :   -0.531328
  16 O :   -0.504406
  17 C :   -0.179707
  18 H :    0.135998
  19 H :    0.115407
  20 C :   -0.164527
  21 H :    0.097141
  22 H :    0.097634
  23 C :   -0.173580
  24 H :    0.110631
  25 H :    0.091043
  26 H :    0.069487
  27 H :    0.074652
  28 H :    0.076210
  29 H :    0.082452
Sum of atomic charges:    0.0000000

LOEWDIN ATOMIC CHARGES
----------------------
   0 C :   -0.271357
   1 N :    0.130180
   2 C :   -0.259066
   3 C :   -0.242859
   4 H :    0.132903
   5 H :    0.142860
   6 C :   -0.652009
   7 C :   -0.430832
   8 N :    0.091695
   9 N :    0.049034
  10 H :    0.173732
  11 H :    0.172202
  12 H :    0.189690
  13 H :    0.175371
  14 H :    0.165568
  15 O :   -0.068150
  16 O :   -0.057107
  17 C :   -0.264698
  18 H :    0.136829
  19 H :    0.132079
  20 C :   -0.261942
  21 H :    0.142463
  22 H :    0.133748
  23 C :   -0.267872
  24 H :    0.140940
  25 H :    0.139854
  26 H :    0.128376
  27 H :    0.130193
  28 H :    0.129139
  29 H :    0.139037

  Mayer bond orders larger than 0.100000
B(  0-C ,  1-N ) :   0.8901 B(  0-C , 17-C ) :   0.9600 B(  0-C , 18-H ) :   0.9767
B(  0-C , 19-H ) :   0.9805 B(  1-N ,  7-C ) :   1.3030 B(  1-N , 12-H ) :   0.9169
B(  2-C ,  3-C ) :   0.9575 B(  2-C , 23-C ) :   0.9946 B(  2-C , 28-H ) :   0.9638
B(  2-C , 29-H ) :   0.9551 B(  3-C ,  4-H ) :   0.9627 B(  3-C ,  5-H ) :   0.9454
B(  3-C ,  6-C ) :   0.9587 B(  6-C , 15-O ) :   1.7149 B(  6-C , 16-O ) :   1.7239
B(  7-C ,  8-N ) :   1.4148 B(  7-C ,  9-N ) :   1.3778 B(  8-N , 13-H ) :   0.9175
B(  8-N , 14-H ) :   0.7747 B(  9-N , 10-H ) :   0.9195 B(  9-N , 11-H ) :   0.8117
B( 11-H , 15-O ) :   0.1440 B( 14-H , 16-O ) :   0.1846 B( 17-C , 20-C ) :   0.9563
B( 17-C , 21-H ) :   0.9631 B( 17-C , 22-H ) :   0.9734 B( 20-C , 23-C ) :   0.9482
B( 20-C , 24-H ) :   0.9515 B( 20-C , 25-H ) :   0.9671 B( 23-C , 26-H ) :   0.9634
B( 23-C , 27-H ) :   0.9662

Dispersion correction           -0.057346257
FINAL SINGLE POINT ENERGY      -629.752043837622

DIPOLE MOMENT
-------------
                                X             Y             Z
Electronic contribution:      0.59433      -2.85164     -10.28093
Nuclear contribution   :      1.76912       1.50070      12.36652
                        -----------------------------------------
Total Dipole Moment    :      2.36344      -1.35094       2.08559
                        -----------------------------------------
Magnitude (a.u.)       :      3.42937
Magnitude (Debye)      :      8.71677

Rotational constants in cm-1:     0.033272     0.023886     0.017112
Rotational constants in MHz :   997.469575   716.074432   513.001395

                             ****ORCA TERMINATED NORMALLY****
TOTAL RUN TIME: 0 days 0 hours 1 minutes 3 seconds 4 msec
