                         Program Version 5.0.0 -  RELEASE  -
|  1> !B3LYP D3BJ RIJCOSX def2-SVP def2/J TightSCF
|  2> *xyz 0 1
|  3> C         -1.10433        0.25137       -2.86006
|  4> C         -0.71189        0.84252       -4.21834
|  5> H          0.15463        1.49980       -4.13091
|  6> H         -1.53813        1.45922       -4.58267
|  7> C         -0.39762       -0.20587       -5.28802
|  8> F          0.61717       -0.00535       -5.99827
|  9> O         -1.13317       -1.22138       -5.34147
| 10> H         -1.95489       -0.38644       -2.98099
| 11> H         -1.34603        1.04362       -2.18269
| 12> H         -0.28606       -0.31581       -2.46809
| 13> *
| 14>
| 15> %MaxCore 64000
| 16>
| 17> %pal nprocs 4
| 18> end
| 19>
| 20> %scf
| 21>   MaxIter 150
| 22> end
| 23>
| 24>
| 25>                          ****END OF INPUT****

CARTESIAN COORDINATES (ANGSTROEM)
---------------------------------
  C     -1.104330    0.251370   -2.860060
  C     -0.711890    0.842520   -4.218340
  H      0.154630    1.499800   -4.130910
  H     -1.538130    1.459220   -4.582670
  C     -0.397620   -0.205870   -5.288020
  F      0.617170   -0.005350   -5.998270
  O     -1.133170   -1.221380   -5.341470
  H     -1.954890   -0.386440   -2.980990
  H     -1.346030    1.043620   -2.182690
  H     -0.286060   -0.315810   -2.468090

 Total Charge           Charge          ....    0
 Multiplicity           Mult            ....    1
 Number of Electrons    NEL             ....   40
 Basis Dimension        Dim             ....   95

ORBITAL ENERGIES
----------------

  NO   OCC          E(Eh)            E(eV)
   0   2.0000     -24.750399      -673.4926
   1   2.0000     -19.132479      -520.6212
   2   2.0000     -10.352954      -281.7182
   3   2.0000     -10.210595      -277.8444
   4   2.0000     -10.185012      -277.1483
   5   2.0000      -1.294098       -35.2142
   6   2.0000      -1.014108       -27.5953
   7   2.0000      -0.787079       -21.4175
   8   2.0000      -0.679132       -18.4801
   9   2.0000      -0.627343       -17.0709
  10   2.0000      -0.541204       -14.7269
  11   2.0000      -0.527463       -14.3530
  12   2.0000      -0.496530       -13.5113
  13   2.0000      -0.460438       -12.5292
  14   2.0000      -0.426801       -11.6138
  15   2.0000      -0.392100       -10.6696
  16   2.0000      -0.372088       -10.1250
  17   2.0000      -0.371197       -10.1008
  18   2.0000      -0.341176        -9.2839
  19   2.0000      -0.284892        -7.7523
  20   0.0000      -0.021499        -0.5850
  21   0.0000       0.059923         1.6306
  22   0.0000       0.104057         2.8315
  23   0.0000       0.111523         3.0347
  24   0.0000       0.128273         3.4905

MULLIKEN ATOMIC CHARGES
-----------------------
   0 C :    0.040699
   1 C :   -0.054383
   2 H :    0.012864
   3 H :    0.045412
   4 C :    0.219542
   5 F :   -0.069025
   6 O :   -0.251509
   7 H :    0.033149
   8 H :    0.009174
   9 H :    0.014077
Sum of atomic charges:    0.0000000

LOEWDIN ATOMIC CHARGES
----------------------
   0 C :   -0.030804
   1 C :   -0.067411
   2 H :    0.025100
   3 H :    0.047476
   4 C :    0.098343
   5 F :    0.045513
   6 O :   -0.194474
   7 H :    0.028732
   8 H :    0.024045
   9 H :    0.023481

  Mayer bond orders larger than 0.100000
B(  0-C ,  1-C ) :   1.1023 B(  0-C ,  7-H ) :   0.9670 B(  0-C ,  8-H ) :   0.9635
B(  0-C ,  9-H ) :   0.9780 B(  1-C ,  2-H ) :   0.9363 B(  1-C ,  3-H ) :   0.9227
B(  1-C ,  4-C ) :   0.9996 B(  4-C ,  5-F ) :   1.2075 B(  4-C ,  6-O ) :   2.0776

Dispersion correction           -0.010387578
FINAL SINGLE POINT ENERGY      -292.034946970703

DIPOLE MOMENT
-------------
                                X             Y             Z
Electronic contribution:      3.59573      -2.43183      -7.78356
Nuclear contribution   :     -3.36368       3.36392       8.24820
                        -----------------------------------------
Total Dipole Moment    :      0.23205       0.93208       0.46463
                        -----------------------------------------
Magnitude (a.u.)       :      1.06701
Magnitude (Debye)      :      2.71213

Rotational constants in cm-1:     0.315013     0.126712     0.098430
Rotational constants in MHz :  9443.861322  3798.734540  2950.846388

                             ****ORCA TERMINATED NORMALLY****
TOTAL RUN TIME: 0 days 0 hours 0 minutes 10 seconds 81 msec
