                         Program Version 5.0.0 -  RELEASE  -
|  1> !B3LYP D3BJ RIJCOSX def2-SVP def2/J TightSCF
|  2> *xyz 0 1
|  3> C          2.23447       -2.98975       -2.39762
|  4> C          2.75680       -2.94555       -3.76503
|  5> C          1.98721       -2.59045       -4.81898
|  6> N          0.74322       -3.01749       -4.91352
|  7> N          2.49964       -1.84860       -5.80324
|  8> H          3.30978       -1.29282       -5.55895
|  9> H          1.80103       -1.30430       -6.28913
| 10> H          3.71612       -2.62880       -3.82953
| 11> H          0.39583       -3.62775       -4.18502
| 12> H          0.03920       -2.45438       -5.37137
| 13> C          2.19120       -1.61950       -1.71549
| 14> H          2.87278       -3.66637       -1.82801
| 15> H          1.24619       -3.44744       -2.40784
| 16> H          1.56387       -0.96046       -2.27853
| 17> H          3.18033       -1.21449       -1.66568
| 18> H          1.79916       -1.72608       -0.72562
| 19> *
| 20>
| 21> %MaxCore 64000
| 22>
| 23> %pal nprocs 4
| 24> end
| 25>
| 26> %scf
| 27>   MaxIter 150
| 28> end
| 29>
| 30>
| 31>                          ****END OF INPUT****

CARTESIAN COORDINATES (ANGSTROEM)
---------------------------------
  C      2.234470   -2.989750   -2.397620
  C      2.756800   -2.945550   -3.765030
  C      1.987210   -2.590450   -4.818980
  N      0.743220   -3.017490   -4.913520
  N      2.499640   -1.848600   -5.803240
  H      3.309780   -1.292820   -5.558950
  H      1.801030   -1.304300   -6.289130
  H      3.716120   -2.628800   -3.829530
  H      0.395830   -3.627750   -4.185020
  H      0.039200   -2.454380   -5.371370
  C      2.191200   -1.619500   -1.715490
  H      2.872780   -3.666370   -1.828010
  H      1.246190   -3.447440   -2.407840
  H      1.563870   -0.960460   -2.278530
  H      3.180330   -1.214490   -1.665680
  H      1.799160   -1.726080   -0.725620

 Total Charge           Charge          ....    0
 Multiplicity           Mult            ....    1
 Number of Electrons    NEL             ....   48
 Basis Dimension        Dim             ....  134

ORBITAL ENERGIES
----------------

  NO   OCC          E(Eh)            E(eV)
   0   2.0000     -14.327292      -389.8654
   1   2.0000     -14.321916      -389.7192
   2   2.0000     -10.222197      -278.1601
   3   2.0000     -10.154358      -276.3141
   4   2.0000     -10.149068      -276.1702
   5   2.0000     -10.098005      -274.7807
   6   2.0000      -0.953319       -25.9411
   7   2.0000      -0.862375       -23.4664
   8   2.0000      -0.758424       -20.6378
   9   2.0000      -0.678192       -18.4545
  10   2.0000      -0.607640       -16.5347
  11   2.0000      -0.569581       -15.4991
  12   2.0000      -0.535326       -14.5670
  13   2.0000      -0.498879       -13.5752
  14   2.0000      -0.463576       -12.6145
  15   2.0000      -0.442718       -12.0470
  16   2.0000      -0.406779       -11.0690
  17   2.0000      -0.385548       -10.4913
  18   2.0000      -0.365030        -9.9330
  19   2.0000      -0.352978        -9.6050
  20   2.0000      -0.321705        -8.7540
  21   2.0000      -0.315069        -8.5735
  22   2.0000      -0.264855        -7.2071
  23   2.0000      -0.149262        -4.0616
  24   0.0000       0.035540         0.9671
  25   0.0000       0.069276         1.8851
  26   0.0000       0.085943         2.3386
  27   0.0000       0.089261         2.4289
  28   0.0000       0.104766         2.8508

MULLIKEN ATOMIC CHARGES
-----------------------
   0 C :    0.045227
   1 C :   -0.097052
   2 C :   -0.135523
   3 N :   -0.033839
   4 N :   -0.023854
   5 H :    0.108900
   6 H :    0.087276
   7 H :   -0.114750
   8 H :    0.111497
   9 H :    0.093213
  10 C :    0.084647
  11 H :   -0.021241
  12 H :   -0.049572
  13 H :   -0.023083
  14 H :   -0.015964
  15 H :   -0.015880
Sum of atomic charges:    0.0000000

LOEWDIN ATOMIC CHARGES
----------------------
   0 C :   -0.031477
   1 C :   -0.221204
   2 C :    0.014659
   3 N :   -0.003093
   4 N :   -0.015363
   5 H :    0.075755
   6 H :    0.060613
   7 H :   -0.017785
   8 H :    0.078148
   9 H :    0.060728
  10 C :   -0.048397
  11 H :    0.014322
  12 H :    0.001238
  13 H :    0.008298
  14 H :    0.013410
  15 H :    0.010149

  Mayer bond orders larger than 0.100000
B(  0-C ,  1-C ) :   1.1013 B(  0-C , 10-C ) :   1.0882 B(  0-C , 11-H ) :   0.9239
B(  0-C , 12-H ) :   0.9363 B(  1-C ,  2-C ) :   1.6552 B(  1-C ,  7-H ) :   0.9107
B(  2-C ,  3-N ) :   1.2771 B(  2-C ,  4-N ) :   1.2159 B(  3-N ,  8-H ) :   0.9458
B(  3-N ,  9-H ) :   0.9414 B(  4-N ,  5-H ) :   0.9444 B(  4-N ,  6-H ) :   0.9537
B( 10-C , 13-H ) :   0.9682 B( 10-C , 14-H ) :   0.9651 B( 10-C , 15-H ) :   0.9567

Dispersion correction           -0.021283865
FINAL SINGLE POINT ENERGY      -267.550423325313

DIPOLE MOMENT
-------------
                                X             Y             Z
Electronic contribution:     -0.39466      -1.36403      -5.14160
Nuclear contribution   :     -0.44240       2.20379       4.66256
                        -----------------------------------------
Total Dipole Moment    :     -0.83706       0.83976      -0.47904
                        -----------------------------------------
Magnitude (a.u.)       :      1.27880
Magnitude (Debye)      :      3.25046

Rotational constants in cm-1:     0.209447     0.075194     0.066975
Rotational constants in MHz :  6279.068019  2254.272519  2007.845458

                             ****ORCA TERMINATED NORMALLY****
TOTAL RUN TIME: 0 days 0 hours 0 minutes 16 seconds 176 msec
