                         Program Version 5.0.0 -  RELEASE  -
|  1> !B3LYP D3BJ RIJCOSX def2-SVP def2/J TightSCF
|  2> *xyz 0 1
|  3> C         -1.10433        0.25137       -2.86006
|  4> C         -0.71189        0.84252       -4.21834
|  5> H          0.15463        1.49980       -4.13091
|  6> H         -1.53813        1.45922       -4.58267
|  7> C         -0.39762       -0.20587       -5.28802
|  8> O          0.61717       -0.00535       -5.99827
|  9> F         -1.13317       -1.22138       -5.34147
| 10> H         -1.95489       -0.38644       -2.98099
| 11> H         -1.34603        1.04362       -2.18269
| 12> H         -0.28606       -0.31581       -2.46809
| 13> *
| 14>
| 15> %MaxCore 64000
| 16>
| 17> %pal nprocs 4
| 18> end
| 19>
| 20> %scf
| 21>   MaxIter 150
| 22> end
| 23>
| 24>
| 25>                          ****END OF INPUT****

CARTESIAN COORDINATES (ANGSTROEM)
---------------------------------
  C     -1.104330    0.251370   -2.860060
  C     -0.711890    0.842520   -4.218340
  H      0.154630    1.499800   -4.130910
  H     -1.538130    1.459220   -4.582670
  C     -0.397620   -0.205870   -5.288020
  O      0.617170   -0.005350   -5.998270
  F     -1.133170   -1.221380   -5.341470
  H     -1.954890   -0.386440   -2.980990
  H     -1.346030    1.043620   -2.182690
  H     -0.286060   -0.315810   -2.468090

 Total Charge           Charge          ....    0
 Multiplicity           Mult            ....    1
 Number of Electrons    NEL             ....   40
 Basis Dimension        Dim             ....   95

ORBITAL ENERGIES
----------------

  NO   OCC          E(Eh)            E(eV)
   0   2.0000     -24.751827      -673.5314
   1   2.0000     -19.130560      -520.5690
   2   2.0000     -10.351827      -281.6875
   3   2.0000     -10.209510      -277.8149
   4   2.0000     -10.190667      -277.3021
   5   2.0000      -1.294989       -35.2385
   6   2.0000      -1.012364       -27.5478
   7   2.0000      -0.791225       -21.5303
   8   2.0000      -0.674275       -18.3479
   9   2.0000      -0.634328       -17.2609
  10   2.0000      -0.543585       -14.7917
  11   2.0000      -0.534288       -14.5387
  12   2.0000      -0.487202       -13.2574
  13   2.0000      -0.461297       -12.5525
  14   2.0000      -0.428594       -11.6626
  15   2.0000      -0.396214       -10.7815
  16   2.0000      -0.379918       -10.3381
  17   2.0000      -0.374804       -10.1989
  18   2.0000      -0.341154        -9.2833
  19   2.0000      -0.279851        -7.6151
  20   0.0000      -0.018869        -0.5135
  21   0.0000       0.054602         1.4858
  22   0.0000       0.102010         2.7758
  23   0.0000       0.112852         3.0709
  24   0.0000       0.128737         3.5031

MULLIKEN ATOMIC CHARGES
-----------------------
   0 C :    0.015909
   1 C :   -0.047424
   2 H :    0.039052
   3 H :    0.037772
   4 C :    0.218027
   5 O :   -0.246243
   6 F :   -0.072606
   7 H :    0.018244
   8 H :    0.016363
   9 H :    0.020904
Sum of atomic charges:   -0.0000000

LOEWDIN ATOMIC CHARGES
----------------------
   0 C :   -0.042471
   1 C :   -0.063325
   2 H :    0.041648
   3 H :    0.041747
   4 C :    0.097045
   5 O :   -0.191358
   6 F :    0.044192
   7 H :    0.021449
   8 H :    0.027059
   9 H :    0.024014

  Mayer bond orders larger than 0.100000
B(  0-C ,  1-C ) :   1.0779 B(  0-C ,  7-H ) :   0.9708 B(  0-C ,  8-H ) :   0.9637
B(  0-C ,  9-H ) :   0.9781 B(  1-C ,  2-H ) :   0.9476 B(  1-C ,  3-H ) :   0.9251
B(  1-C ,  4-C ) :   1.0081 B(  4-C ,  5-O ) :   2.0926 B(  4-C ,  6-F ) :   1.1966

Dispersion correction           -0.010299873
FINAL SINGLE POINT ENERGY      -292.033770109574

DIPOLE MOMENT
-------------
                                X             Y             Z
Electronic contribution:      0.72519      -4.41639      -6.68430
Nuclear contribution   :     -1.45527       4.68977       7.53208
                        -----------------------------------------
Total Dipole Moment    :     -0.73007       0.27338       0.84778
                        -----------------------------------------
Magnitude (a.u.)       :      1.15173
Magnitude (Debye)      :      2.92745

Rotational constants in cm-1:     0.298240     0.132464     0.099915
Rotational constants in MHz :  8940.998095  3971.171647  2995.369122

                             ****ORCA TERMINATED NORMALLY****
TOTAL RUN TIME: 0 days 0 hours 0 minutes 9 seconds 838 msec
