                         Program Version 5.0.0 -  RELEASE  -
|  1> !B3LYP D3BJ RIJCOSX def2-SVP def2/J TightSCF
|  2> *xyz 0 1
|  3> C          2.23447       -2.98975       -2.39762
|  4> N          2.75680       -2.94555       -3.76503
|  5> C          1.98721       -2.59045       -4.81898
|  6> C          0.74322       -3.01749       -4.91352
|  7> N          2.49964       -1.84860       -5.80324
|  8> H          3.30978       -1.29282       -5.55895
|  9> H          1.80103       -1.30430       -6.28913
| 10> H          3.71612       -2.62880       -3.82953
| 11> H          0.39583       -3.62775       -4.18502
| 12> H          0.03920       -2.45438       -5.37137
| 13> C          2.19120       -1.61950       -1.71549
| 14> H          2.87278       -3.66637       -1.82801
| 15> H          1.24619       -3.44744       -2.40784
| 16> H          1.56387       -0.96046       -2.27853
| 17> H          3.18033       -1.21449       -1.66568
| 18> H          1.79916       -1.72608       -0.72562
| 19> *
| 20>
| 21> %MaxCore 64000
| 22>
| 23> %pal nprocs 4
| 24> end
| 25>
| 26> %scf
| 27>   MaxIter 150
| 28> end
| 29>
| 30>
| 31>                          ****END OF INPUT****

CARTESIAN COORDINATES (ANGSTROEM)
---------------------------------
  C      2.234470   -2.989750   -2.397620
  N      2.756800   -2.945550   -3.765030
  C      1.987210   -2.590450   -4.818980
  C      0.743220   -3.017490   -4.913520
  N      2.499640   -1.848600   -5.803240
  H      3.309780   -1.292820   -5.558950
  H      1.801030   -1.304300   -6.289130
  H      3.716120   -2.628800   -3.829530
  H      0.395830   -3.627750   -4.185020
  H      0.039200   -2.454380   -5.371370
  C      2.191200   -1.619500   -1.715490
  H      2.872780   -3.666370   -1.828010
  H      1.246190   -3.447440   -2.407840
  H      1.563870   -0.960460   -2.278530
  H      3.180330   -1.214490   -1.665680
  H      1.799160   -1.726080   -0.725620

 Total Charge           Charge          ....    0
 Multiplicity           Mult            ....    1
 Number of Electrons    NEL             ....   48
 Basis Dimension        Dim             ....  134

ORBITAL ENERGIES
----------------

  NO   OCC          E(Eh)            E(eV)
   0   2.0000     -14.321207      -389.6999
   1   2.0000     -14.320663      -389.6850
   2   2.0000     -10.219458      -278.0856
   3   2.0000     -10.211629      -277.8726
   4   2.0000     -10.171761      -276.7877
   5   2.0000     -10.094447      -274.6839
   6   2.0000      -0.950981       -25.8775
   7   2.0000      -0.872150       -23.7324
   8   2.0000      -0.743983       -20.2448
   9   2.0000      -0.700126       -19.0514
  10   2.0000      -0.630461       -17.1557
  11   2.0000      -0.552685       -15.0393
  12   2.0000      -0.536045       -14.5865
  13   2.0000      -0.504289       -13.7224
  14   2.0000      -0.456061       -12.4101
  15   2.0000      -0.441845       -12.0232
  16   2.0000      -0.410752       -11.1771
  17   2.0000      -0.392454       -10.6792
  18   2.0000      -0.387889       -10.5550
  19   2.0000      -0.366001        -9.9594
  20   2.0000      -0.351226        -9.5573
  21   2.0000      -0.343477        -9.3465
  22   2.0000      -0.243761        -6.6331
  23   2.0000      -0.165644        -4.5074
  24   0.0000       0.041988         1.1426
  25   0.0000       0.068988         1.8773
  26   0.0000       0.080996         2.2040
  27   0.0000       0.094168         2.5624
  28   0.0000       0.111181         3.0254

MULLIKEN ATOMIC CHARGES
-----------------------
   0 C :    0.104446
   1 N :   -0.156411
   2 C :   -0.047188
   3 C :   -0.072085
   4 N :   -0.034818
   5 H :    0.077206
   6 H :    0.108951
   7 H :    0.083903
   8 H :   -0.058733
   9 H :   -0.060010
  10 C :    0.030927
  11 H :   -0.002465
  12 H :    0.020148
  13 H :    0.011423
  14 H :   -0.008199
  15 H :    0.002907
Sum of atomic charges:   -0.0000000

LOEWDIN ATOMIC CHARGES
----------------------
   0 C :    0.046524
   1 N :   -0.035432
   2 C :    0.025948
   3 C :   -0.224617
   4 N :   -0.019839
   5 H :    0.052733
   6 H :    0.078492
   7 H :    0.056542
   8 H :   -0.009296
   9 H :   -0.009880
  10 C :   -0.057701
  11 H :    0.015078
  12 H :    0.026092
  13 H :    0.020826
  14 H :    0.012541
  15 H :    0.021987

  Mayer bond orders larger than 0.100000
B(  0-C ,  1-N ) :   1.0157 B(  0-C , 10-C ) :   1.1038 B(  0-C , 11-H ) :   0.9524
B(  0-C , 12-H ) :   0.9474 B(  1-N ,  2-C ) :   1.1625 B(  1-N ,  7-H ) :   0.9359
B(  2-C ,  3-C ) :   1.7586 B(  2-C ,  4-N ) :   1.2195 B(  3-C ,  8-H ) :   0.9371
B(  3-C ,  9-H ) :   0.9422 B(  4-N ,  5-H ) :   0.9448 B(  4-N ,  6-H ) :   0.9460
B( 10-C , 13-H ) :   0.9673 B( 10-C , 14-H ) :   0.9676 B( 10-C , 15-H ) :   0.9592

Dispersion correction           -0.021133923
FINAL SINGLE POINT ENERGY      -267.546215373141

DIPOLE MOMENT
-------------
                                X             Y             Z
Electronic contribution:      1.56360      -1.21931      -3.90828
Nuclear contribution   :     -0.86957       2.18853       4.41892
                        -----------------------------------------
Total Dipole Moment    :      0.69403       0.96921       0.51064
                        -----------------------------------------
Magnitude (a.u.)       :      1.29685
Magnitude (Debye)      :      3.29632

Rotational constants in cm-1:     0.214718     0.075736     0.068547
Rotational constants in MHz :  6437.075121  2270.519635  2054.974198

                             ****ORCA TERMINATED NORMALLY****
TOTAL RUN TIME: 0 days 0 hours 0 minutes 16 seconds 51 msec
