                         Program Version 5.0.0 -  RELEASE  -
|  1> !B3LYP D3BJ RIJCOSX def2-SVP def2/J TightSCF
|  2> *xyz 0 1
|  3> C          2.23447       -2.98975       -2.39762
|  4> N          2.75680       -2.94555       -3.76503
|  5> C          1.98721       -2.59045       -4.81898
|  6> N          0.74322       -3.01749       -4.91352
|  7> C          2.49964       -1.84860       -5.80324
|  8> H          3.30978       -1.29282       -5.55895
|  9> H          1.80103       -1.30430       -6.28913
| 10> H          3.71612       -2.62880       -3.82953
| 11> H          0.39583       -3.62775       -4.18502
| 12> H          0.03920       -2.45438       -5.37137
| 13> C          2.19120       -1.61950       -1.71549
| 14> H          2.87278       -3.66637       -1.82801
| 15> H          1.24619       -3.44744       -2.40784
| 16> H          1.56387       -0.96046       -2.27853
| 17> H          3.18033       -1.21449       -1.66568
| 18> H          1.79916       -1.72608       -0.72562
| 19> *
| 20>
| 21> %MaxCore 64000
| 22>
| 23> %pal nprocs 4
| 24> end
| 25>
| 26> %scf
| 27>   MaxIter 150
| 28> end
| 29>
| 30>
| 31>                          ****END OF INPUT****

CARTESIAN COORDINATES (ANGSTROEM)
---------------------------------
  C      2.234470   -2.989750   -2.397620
  N      2.756800   -2.945550   -3.765030
  C      1.987210   -2.590450   -4.818980
  N      0.743220   -3.017490   -4.913520
  C      2.499640   -1.848600   -5.803240
  H      3.309780   -1.292820   -5.558950
  H      1.801030   -1.304300   -6.289130
  H      3.716120   -2.628800   -3.829530
  H      0.395830   -3.627750   -4.185020
  H      0.039200   -2.454380   -5.371370
  C      2.191200   -1.619500   -1.715490
  H      2.872780   -3.666370   -1.828010
  H      1.246190   -3.447440   -2.407840
  H      1.563870   -0.960460   -2.278530
  H      3.180330   -1.214490   -1.665680
  H      1.799160   -1.726080   -0.725620

 Total Charge           Charge          ....    0
 Multiplicity           Mult            ....    1
 Number of Electrons    NEL             ....   48
 Basis Dimension        Dim             ....  134

ORBITAL ENERGIES
----------------

  NO   OCC          E(Eh)            E(eV)
   0   2.0000     -14.324177      -389.7807
   1   2.0000     -14.319603      -389.6562
   2   2.0000     -10.222290      -278.1627
   3   2.0000     -10.220551      -278.1153
   4   2.0000     -10.175704      -276.8950
   5   2.0000     -10.089233      -274.5420
   6   2.0000      -0.952480       -25.9183
   7   2.0000      -0.871897       -23.7255
   8   2.0000      -0.755780       -20.5658
   9   2.0000      -0.693856       -18.8808
  10   2.0000      -0.619912       -16.8687
  11   2.0000      -0.591570       -16.0974
  12   2.0000      -0.531475       -14.4622
  13   2.0000      -0.484962       -13.1965
  14   2.0000      -0.483159       -13.1474
  15   2.0000      -0.434666       -11.8279
  16   2.0000      -0.422491       -11.4966
  17   2.0000      -0.396286       -10.7835
  18   2.0000      -0.372566       -10.1380
  19   2.0000      -0.362097        -9.8532
  20   2.0000      -0.357604        -9.7309
  21   2.0000      -0.348769        -9.4905
  22   2.0000      -0.245996        -6.6939
  23   2.0000      -0.160831        -4.3764
  24   0.0000       0.041459         1.1282
  25   0.0000       0.065765         1.7896
  26   0.0000       0.072256         1.9662
  27   0.0000       0.090800         2.4708
  28   0.0000       0.103655         2.8206

MULLIKEN ATOMIC CHARGES
-----------------------
   0 C :    0.075831
   1 N :   -0.140852
   2 C :   -0.077999
   3 N :   -0.056751
   4 C :   -0.021619
   5 H :   -0.077722
   6 H :   -0.073231
   7 H :    0.106644
   8 H :    0.092745
   9 H :    0.120232
  10 C :    0.042897
  11 H :    0.003658
  12 H :   -0.010693
  13 H :    0.012047
  14 H :    0.003686
  15 H :    0.001126
Sum of atomic charges:   -0.0000000

LOEWDIN ATOMIC CHARGES
----------------------
   0 C :    0.034958
   1 N :   -0.037159
   2 C :    0.031131
   3 N :   -0.003238
   4 C :   -0.248416
   5 H :   -0.016295
   6 H :   -0.011745
   7 H :    0.076381
   8 H :    0.060811
   9 H :    0.080881
  10 C :   -0.056492
  11 H :    0.017392
  12 H :    0.010870
  13 H :    0.021724
  14 H :    0.018554
  15 H :    0.020643

  Mayer bond orders larger than 0.100000
B(  0-C ,  1-N ) :   1.0339 B(  0-C , 10-C ) :   1.0872 B(  0-C , 11-H ) :   0.9522
B(  0-C , 12-H ) :   0.9485 B(  1-N ,  2-C ) :   1.1833 B(  1-N ,  7-H ) :   0.9300
B(  2-C ,  3-N ) :   1.2211 B(  2-C ,  4-C ) :   1.7582 B(  3-N ,  8-H ) :   0.9546
B(  3-N ,  9-H ) :   0.9473 B(  4-C ,  5-H ) :   0.9330 B(  4-C ,  6-H ) :   0.9385
B( 10-C , 13-H ) :   0.9684 B( 10-C , 14-H ) :   0.9685 B( 10-C , 15-H ) :   0.9584

Dispersion correction           -0.021049621
FINAL SINGLE POINT ENERGY      -267.541599070408

DIPOLE MOMENT
-------------
                                X             Y             Z
Electronic contribution:     -0.16003      -2.44349      -2.99680
Nuclear contribution   :     -0.49695       2.43650       4.23017
                        -----------------------------------------
Total Dipole Moment    :     -0.65698      -0.00699       1.23337
                        -----------------------------------------
Magnitude (a.u.)       :      1.39746
Magnitude (Debye)      :      3.55205

Rotational constants in cm-1:     0.211102     0.077011     0.069221
Rotational constants in MHz :  6328.667765  2308.731604  2075.192956

                             ****ORCA TERMINATED NORMALLY****
TOTAL RUN TIME: 0 days 0 hours 0 minutes 15 seconds 971 msec
