                         Program Version 5.0.0 -  RELEASE  -
|  1> !B3LYP D3BJ RIJCOSX def2-TZVP def2/J TightSCF xyzfile
|  2>
|  3> *xyzfile 0 1 D1.xyz
|  4>
|  5> %MaxCore 64000
|  6>
|  7> %pal nprocs 18
|  8> end
|  9>
| 10> %scf
| 11>   MaxIter 150
| 12> end
| 13>
| 14>
| 15>                          ****END OF INPUT****

CARTESIAN COORDINATES (ANGSTROEM)
---------------------------------
  C      2.234473   -2.989754   -2.397622
  C      2.756799   -2.945553   -3.765029
  C     -1.104325    0.251374   -2.860056
  C     -0.711893    0.842517   -4.218344
  H      0.154626    1.499800   -4.130909
  H     -1.538134    1.459222   -4.582671
  C     -0.397624   -0.205875   -5.288018
  C      1.987208   -2.590451   -4.818975
  N      0.743221   -3.017493   -4.913524
  N      2.499636   -1.848598   -5.803241
  H      3.309780   -1.292818   -5.558947
  H      1.801025   -1.304298   -6.289129
  H      3.716116   -2.628797   -3.829533
  H      0.395828   -3.627747   -4.185024
  H      0.039201   -2.454383   -5.371367
  F      0.617165   -0.005348   -5.998273
  O     -1.133173   -1.221380   -5.341465
  C      2.191199   -1.619503   -1.715492
  H      2.872783   -3.666368   -1.828014
  H      1.246188   -3.447444   -2.407842
  C      1.298729   -0.554314   -2.359773
  H      1.872917   -1.787955   -0.681310
  H      3.216809   -1.238432   -1.654428
  C     -0.196255   -0.863365   -2.325763
  H      1.612531   -0.371346   -3.393065
  H      1.480944    0.388638   -1.834444
  H     -0.404105   -1.761825   -2.909448
  H     -0.490439   -1.087880   -1.294131
  H     -1.143842    1.066711   -2.129680
  H     -2.114401   -0.156834   -2.930323

 Total Charge           Charge          ....    0
 Multiplicity           Mult            ....    1
 Number of Electrons    NEL             ....  102
 Basis Dimension        Dim             ....  505

ORBITAL ENERGIES
----------------

  NO   OCC          E(Eh)            E(eV)
   0   2.0000     -24.785066      -674.4359
   1   2.0000     -19.161150      -521.4014
   2   2.0000     -14.301685      -389.1686
   3   2.0000     -14.292054      -388.9066
   4   2.0000     -10.374540      -282.3056
   5   2.0000     -10.212882      -277.9067
   6   2.0000     -10.203519      -277.6519
   7   2.0000     -10.186965      -277.2014
   8   2.0000     -10.166417      -276.6423
   9   2.0000     -10.162670      -276.5403
  10   2.0000     -10.150311      -276.2040
  11   2.0000     -10.139663      -275.9143
  12   2.0000     -10.082258      -274.3522
  13   2.0000      -1.356166       -36.9032
  14   2.0000      -1.070214       -29.1220
  15   2.0000      -0.956666       -26.0322
  16   2.0000      -0.865044       -23.5390
  17   2.0000      -0.829245       -22.5649
  18   2.0000      -0.789042       -21.4709
  19   2.0000      -0.753150       -20.4943
  20   2.0000      -0.710569       -19.3356
  21   2.0000      -0.688893       -18.7457
  22   2.0000      -0.652938       -17.7674
  23   2.0000      -0.613527       -16.6949
  24   2.0000      -0.589202       -16.0330
  25   2.0000      -0.581582       -15.8256
  26   2.0000      -0.569147       -15.4873
  27   2.0000      -0.550725       -14.9860
  28   2.0000      -0.542630       -14.7657
  29   2.0000      -0.517052       -14.0697
  30   2.0000      -0.493827       -13.4377
  31   2.0000      -0.480647       -13.0791
  32   2.0000      -0.475082       -12.9276
  33   2.0000      -0.457561       -12.4509
  34   2.0000      -0.443673       -12.0730
  35   2.0000      -0.437980       -11.9180
  36   2.0000      -0.422445       -11.4953
  37   2.0000      -0.409196       -11.1348
  38   2.0000      -0.394570       -10.7368
  39   2.0000      -0.387735       -10.5508
  40   2.0000      -0.377055       -10.2602
  41   2.0000      -0.365529        -9.9466
  42   2.0000      -0.358422        -9.7532
  43   2.0000      -0.347795        -9.4640
  44   2.0000      -0.337604        -9.1867
  45   2.0000      -0.327262        -8.9052
  46   2.0000      -0.317134        -8.6297
  47   2.0000      -0.311709        -8.4820
  48   2.0000      -0.306262        -8.3338
  49   2.0000      -0.257031        -6.9942
  50   2.0000      -0.150000        -4.0817
  51   0.0000      -0.060264        -1.6399
  52   0.0000       0.019898         0.5415
  53   0.0000       0.043178         1.1749
  54   0.0000       0.047281         1.2866
  55   0.0000       0.050084         1.3629

MULLIKEN ATOMIC CHARGES
-----------------------
   0 C :   -0.182832
   1 C :   -0.275110
   2 C :   -0.144082
   3 C :   -0.206847
   4 H :    0.118171
   5 H :    0.134991
   6 C :    0.388083
   7 C :    0.115530
   8 N :   -0.383150
   9 N :   -0.372149
  10 H :    0.221741
  11 H :    0.200663
  12 H :    0.048435
  13 H :    0.216541
  14 H :    0.228010
  15 F :   -0.125602
  16 O :   -0.345753
  17 C :   -0.109021
  18 H :    0.085935
  19 H :    0.057013
  20 C :   -0.131744
  21 H :    0.068975
  22 H :    0.071398
  23 C :   -0.214665
  24 H :    0.074690
  25 H :    0.077438
  26 H :    0.090961
  27 H :    0.089188
  28 H :    0.100687
  29 H :    0.102505
Sum of atomic charges:    0.0000000

LOEWDIN ATOMIC CHARGES
----------------------
   0 C :   -0.289531
   1 C :   -0.279620
   2 C :   -0.249740
   3 C :   -0.229495
   4 H :    0.144113
   5 H :    0.158201
   6 C :   -0.492098
   7 C :   -0.481594
   8 N :    0.019406
   9 N :   -0.014119
  10 H :    0.168969
  11 H :    0.149124
  12 H :    0.113083
  13 H :    0.170090
  14 H :    0.143097
  15 F :    0.333867
  16 O :    0.079186
  17 C :   -0.254310
  18 H :    0.135972
  19 H :    0.124972
  20 C :   -0.262809
  21 H :    0.129474
  22 H :    0.132312
  23 C :   -0.264024
  24 H :    0.131622
  25 H :    0.132953
  26 H :    0.132516
  27 H :    0.137009
  28 H :    0.139234
  29 H :    0.142137

  Mayer bond orders larger than 0.100000
B(  0-C ,  1-C ) :   1.0058 B(  0-C , 17-C ) :   0.9411 B(  0-C , 18-H ) :   0.9783
B(  0-C , 19-H ) :   0.9788 B(  1-C ,  7-C ) :   1.6844 B(  1-C , 12-H ) :   1.0190
B(  2-C ,  3-C ) :   0.9587 B(  2-C , 23-C ) :   0.9711 B(  2-C , 28-H ) :   0.9627
B(  2-C , 29-H ) :   0.9628 B(  3-C ,  4-H ) :   0.9532 B(  3-C ,  5-H ) :   0.9362
B(  3-C ,  6-C ) :   1.0035 B(  6-C , 15-F ) :   1.0987 B(  6-C , 16-O ) :   1.9613
B(  7-C ,  8-N ) :   1.2206 B(  7-C ,  9-N ) :   1.1487 B(  8-N , 13-H ) :   0.9286
B(  8-N , 14-H ) :   0.8746 B(  9-N , 10-H ) :   0.9289 B(  9-N , 11-H ) :   0.9298
B( 17-C , 20-C ) :   0.9906 B( 17-C , 21-H ) :   0.9584 B( 17-C , 22-H ) :   0.9659
B( 20-C , 23-C ) :   0.9385 B( 20-C , 24-H ) :   0.9556 B( 20-C , 25-H ) :   0.9688
B( 23-C , 26-H ) :   0.9694 B( 23-C , 27-H ) :   0.9704

Dispersion correction           -0.057339788
FINAL SINGLE POINT ENERGY      -637.643385243405

DIPOLE MOMENT
-------------
                                X             Y             Z
Electronic contribution:     -3.07109       2.20775     -14.56572
Nuclear contribution   :      2.31842      -0.27661      14.74721
                        -----------------------------------------
Total Dipole Moment    :     -0.75267       1.93114       0.18149
                        -----------------------------------------
Magnitude (a.u.)       :      2.08057
Magnitude (Debye)      :      5.28838

Rotational constants in cm-1:     0.032691     0.023990     0.017099
Rotational constants in MHz :   980.050971   719.190545   512.606858

                             ****ORCA TERMINATED NORMALLY****
TOTAL RUN TIME: 0 days 0 hours 0 minutes 54 seconds 668 msec
