                         Program Version 5.0.0 -  RELEASE  -
|  1> !B3LYP D3BJ RIJCOSX def2-TZVP def2/J TightSCF xyzfile
|  2>
|  3> *xyzfile 0 1 D2.xyz
|  4>
|  5> %MaxCore 64000
|  6>
|  7> %pal nprocs 18
|  8> end
|  9>
| 10> %scf
| 11>   MaxIter 150
| 12> end
| 13>
| 14>
| 15>                          ****END OF INPUT****

CARTESIAN COORDINATES (ANGSTROEM)
---------------------------------
  C      2.234473   -2.989754   -2.397622
  N      2.756799   -2.945553   -3.765029
  C     -1.104325    0.251374   -2.860056
  C     -0.711893    0.842517   -4.218344
  H      0.154626    1.499800   -4.130909
  H     -1.538134    1.459222   -4.582671
  C     -0.397624   -0.205875   -5.288018
  C      1.987208   -2.590451   -4.818975
  C      0.743221   -3.017493   -4.913524
  N      2.499636   -1.848598   -5.803241
  H      3.309780   -1.292818   -5.558947
  H      1.801025   -1.304298   -6.289129
  H      3.716116   -2.628797   -3.829533
  H      0.395828   -3.627747   -4.185024
  H      0.039201   -2.454383   -5.371367
  F      0.617165   -0.005348   -5.998273
  O     -1.133173   -1.221380   -5.341465
  C      2.191199   -1.619503   -1.715492
  H      2.872783   -3.666368   -1.828014
  H      1.246188   -3.447444   -2.407842
  C      1.298729   -0.554314   -2.359773
  H      1.872917   -1.787955   -0.681310
  H      3.216809   -1.238432   -1.654428
  C     -0.196255   -0.863365   -2.325763
  H      1.612531   -0.371346   -3.393065
  H      1.480944    0.388638   -1.834444
  H     -0.404105   -1.761825   -2.909448
  H     -0.490439   -1.087880   -1.294131
  H     -1.143842    1.066711   -2.129680
  H     -2.114401   -0.156834   -2.930323

 Total Charge           Charge          ....    0
 Multiplicity           Mult            ....    1
 Number of Electrons    NEL             ....  102
 Basis Dimension        Dim             ....  505

ORBITAL ENERGIES
----------------

  NO   OCC          E(Eh)            E(eV)
   0   2.0000     -24.768584      -673.9874
   1   2.0000     -19.137085      -520.7466
   2   2.0000     -14.306262      -389.2932
   3   2.0000     -14.298572      -389.0839
   4   2.0000     -10.354792      -281.7682
   5   2.0000     -10.202945      -277.6362
   6   2.0000     -10.197248      -277.4812
   7   2.0000     -10.195340      -277.4293
   8   2.0000     -10.180983      -277.0386
   9   2.0000     -10.169381      -276.7229
  10   2.0000     -10.168775      -276.7064
  11   2.0000     -10.162733      -276.5420
  12   2.0000     -10.061540      -273.7884
  13   2.0000      -1.339677       -36.4545
  14   2.0000      -1.046418       -28.4745
  15   2.0000      -0.956658       -26.0320
  16   2.0000      -0.879513       -23.9328
  17   2.0000      -0.822229       -22.3740
  18   2.0000      -0.784238       -21.3402
  19   2.0000      -0.734264       -19.9803
  20   2.0000      -0.708003       -19.2657
  21   2.0000      -0.690705       -18.7950
  22   2.0000      -0.662812       -18.0360
  23   2.0000      -0.618288       -16.8245
  24   2.0000      -0.587045       -15.9743
  25   2.0000      -0.567878       -15.4528
  26   2.0000      -0.547731       -14.9045
  27   2.0000      -0.545058       -14.8318
  28   2.0000      -0.530900       -14.4465
  29   2.0000      -0.522645       -14.2219
  30   2.0000      -0.494072       -13.4444
  31   2.0000      -0.480249       -13.0682
  32   2.0000      -0.469441       -12.7741
  33   2.0000      -0.448775       -12.2118
  34   2.0000      -0.443436       -12.0665
  35   2.0000      -0.425160       -11.5692
  36   2.0000      -0.415377       -11.3030
  37   2.0000      -0.407760       -11.0957
  38   2.0000      -0.396832       -10.7983
  39   2.0000      -0.384952       -10.4751
  40   2.0000      -0.374812       -10.1992
  41   2.0000      -0.367055        -9.9881
  42   2.0000      -0.358030        -9.7425
  43   2.0000      -0.356051        -9.6886
  44   2.0000      -0.344458        -9.3732
  45   2.0000      -0.332454        -9.0465
  46   2.0000      -0.322308        -8.7705
  47   2.0000      -0.320161        -8.7120
  48   2.0000      -0.286042        -7.7836
  49   2.0000      -0.242422        -6.5966
  50   2.0000      -0.161381        -4.3914
  51   0.0000      -0.041494        -1.1291
  52   0.0000       0.018730         0.5097
  53   0.0000       0.035164         0.9569
  54   0.0000       0.044820         1.2196
  55   0.0000       0.056556         1.5390

MULLIKEN ATOMIC CHARGES
-----------------------
   0 C :   -0.102129
   1 N :   -0.273616
   2 C :   -0.145300
   3 C :   -0.210846
   4 H :    0.109720
   5 H :    0.130596
   6 C :    0.391834
   7 C :    0.205343
   8 C :   -0.476967
   9 N :   -0.391350
  10 H :    0.181912
  11 H :    0.222535
  12 H :    0.169037
  13 H :    0.060664
  14 H :    0.138360
  15 F :   -0.138299
  16 O :   -0.313916
  17 C :   -0.189446
  18 H :    0.110102
  19 H :    0.116092
  20 C :   -0.118952
  21 H :    0.078998
  22 H :    0.083565
  23 C :   -0.203696
  24 H :    0.076449
  25 H :    0.080826
  26 H :    0.129646
  27 H :    0.081606
  28 H :    0.095942
  29 H :    0.101288
Sum of atomic charges:    0.0000000

LOEWDIN ATOMIC CHARGES
----------------------
   0 C :   -0.274551
   1 N :    0.106341
   2 C :   -0.249792
   3 C :   -0.232069
   4 H :    0.140553
   5 H :    0.156331
   6 C :   -0.494057
   7 C :   -0.487861
   8 C :   -0.302930
   9 N :   -0.022007
  10 H :    0.147144
  11 H :    0.162767
  12 H :    0.169003
  13 H :    0.094403
  14 H :    0.094827
  15 F :    0.329007
  16 O :    0.098292
  17 C :   -0.266233
  18 H :    0.129240
  19 H :    0.136212
  20 C :   -0.263043
  21 H :    0.135940
  22 H :    0.130263
  23 C :   -0.262693
  24 H :    0.132876
  25 H :    0.133545
  26 H :    0.143657
  27 H :    0.134643
  28 H :    0.137008
  29 H :    0.143186

  Mayer bond orders larger than 0.100000
B(  0-C ,  1-N ) :   0.9331 B(  0-C , 17-C ) :   0.9723 B(  0-C , 18-H ) :   0.9792
B(  0-C , 19-H ) :   0.9751 B(  1-N ,  7-C ) :   1.1310 B(  1-N , 12-H ) :   0.9300
B(  2-C ,  3-C ) :   0.9635 B(  2-C , 23-C ) :   0.9771 B(  2-C , 28-H ) :   0.9644
B(  2-C , 29-H ) :   0.9599 B(  3-C ,  4-H ) :   0.9539 B(  3-C ,  5-H ) :   0.9398
B(  3-C ,  6-C ) :   0.9984 B(  6-C , 15-F ) :   1.0793 B(  6-C , 16-O ) :   2.0140
B(  7-C ,  8-C ) :   1.6087 B(  7-C ,  9-N ) :   1.1562 B(  8-C , 13-H ) :   1.0239
B(  8-C , 14-H ) :   0.9868 B(  9-N , 10-H ) :   0.9294 B(  9-N , 11-H ) :   0.9193
B( 17-C , 20-C ) :   0.9687 B( 17-C , 21-H ) :   0.9599 B( 17-C , 22-H ) :   0.9726
B( 20-C , 23-C ) :   0.9350 B( 20-C , 24-H ) :   0.9583 B( 20-C , 25-H ) :   0.9701
B( 23-C , 26-H ) :   0.9665 B( 23-C , 27-H ) :   0.9687

Dispersion correction           -0.057433480
FINAL SINGLE POINT ENERGY      -637.623828645167

DIPOLE MOMENT
-------------
                                X             Y             Z
Electronic contribution:     -1.47392       2.15995     -13.56847
Nuclear contribution   :      2.00823      -0.28769      14.57028
                        -----------------------------------------
Total Dipole Moment    :      0.53431       1.87226       1.00181
                        -----------------------------------------
Magnitude (a.u.)       :      2.18963
Magnitude (Debye)      :      5.56559

Rotational constants in cm-1:     0.033070     0.023715     0.016943
Rotational constants in MHz :   991.423248   710.957140   507.940500

                             ****ORCA TERMINATED NORMALLY****
TOTAL RUN TIME: 0 days 0 hours 0 minutes 52 seconds 424 msec
