                         Program Version 5.0.0 -  RELEASE  -
|  1> !B3LYP D3BJ RIJCOSX def2-TZVP def2/J TightSCF xyzfile
|  2>
|  3> *xyzfile 0 1 D3.xyz
|  4>
|  5> %MaxCore 64000
|  6>
|  7> %pal nprocs 18
|  8> end
|  9>
| 10> %scf
| 11>   MaxIter 150
| 12> end
| 13>
| 14>
| 15>                          ****END OF INPUT****

CARTESIAN COORDINATES (ANGSTROEM)
---------------------------------
  C      2.234473   -2.989754   -2.397622
  N      2.756799   -2.945553   -3.765029
  C     -1.104325    0.251374   -2.860056
  C     -0.711893    0.842517   -4.218344
  H      0.154626    1.499800   -4.130909
  H     -1.538134    1.459222   -4.582671
  C     -0.397624   -0.205875   -5.288018
  C      1.987208   -2.590451   -4.818975
  N      0.743221   -3.017493   -4.913524
  C      2.499636   -1.848598   -5.803241
  H      3.309780   -1.292818   -5.558947
  H      1.801025   -1.304298   -6.289129
  H      3.716116   -2.628797   -3.829533
  H      0.395828   -3.627747   -4.185024
  H      0.039201   -2.454383   -5.371367
  F      0.617165   -0.005348   -5.998273
  O     -1.133173   -1.221380   -5.341465
  C      2.191199   -1.619503   -1.715492
  H      2.872783   -3.666368   -1.828014
  H      1.246188   -3.447444   -2.407842
  C      1.298729   -0.554314   -2.359773
  H      1.872917   -1.787955   -0.681310
  H      3.216809   -1.238432   -1.654428
  C     -0.196255   -0.863365   -2.325763
  H      1.612531   -0.371346   -3.393065
  H      1.480944    0.388638   -1.834444
  H     -0.404105   -1.761825   -2.909448
  H     -0.490439   -1.087880   -1.294131
  H     -1.143842    1.066711   -2.129680
  H     -2.114401   -0.156834   -2.930323

 Total Charge           Charge          ....    0
 Multiplicity           Mult            ....    1
 Number of Electrons    NEL             ....  102
 Basis Dimension        Dim             ....  505

ORBITAL ENERGIES
----------------

  NO   OCC          E(Eh)            E(eV)
   0   2.0000     -24.762292      -673.8162
   1   2.0000     -19.150719      -521.1176
   2   2.0000     -14.306200      -389.2915
   3   2.0000     -14.288933      -388.8216
   4   2.0000     -10.365503      -282.0597
   5   2.0000     -10.208163      -277.7782
   6   2.0000     -10.202712      -277.6299
   7   2.0000     -10.202527      -277.6249
   8   2.0000     -10.187674      -277.2207
   9   2.0000     -10.172084      -276.7965
  10   2.0000     -10.172051      -276.7956
  11   2.0000     -10.171416      -276.7783
  12   2.0000     -10.065236      -273.8890
  13   2.0000      -1.334430       -36.3117
  14   2.0000      -1.060411       -28.8552
  15   2.0000      -0.956203       -26.0196
  16   2.0000      -0.874884       -23.8068
  17   2.0000      -0.828725       -22.5507
  18   2.0000      -0.789741       -21.4899
  19   2.0000      -0.744536       -20.2599
  20   2.0000      -0.709167       -19.2974
  21   2.0000      -0.688587       -18.7374
  22   2.0000      -0.654015       -17.7967
  23   2.0000      -0.617695       -16.8083
  24   2.0000      -0.594477       -16.1765
  25   2.0000      -0.579744       -15.7756
  26   2.0000      -0.559811       -15.2332
  27   2.0000      -0.542671       -14.7668
  28   2.0000      -0.531517       -14.4633
  29   2.0000      -0.524406       -14.2698
  30   2.0000      -0.491657       -13.3787
  31   2.0000      -0.480569       -13.0770
  32   2.0000      -0.473416       -12.8823
  33   2.0000      -0.462864       -12.5952
  34   2.0000      -0.448217       -12.1966
  35   2.0000      -0.435605       -11.8534
  36   2.0000      -0.414777       -11.2867
  37   2.0000      -0.410915       -11.1816
  38   2.0000      -0.391871       -10.6633
  39   2.0000      -0.381884       -10.3916
  40   2.0000      -0.378257       -10.2929
  41   2.0000      -0.370353       -10.0778
  42   2.0000      -0.362485        -9.8637
  43   2.0000      -0.356789        -9.7087
  44   2.0000      -0.346408        -9.4263
  45   2.0000      -0.336712        -9.1624
  46   2.0000      -0.331788        -9.0284
  47   2.0000      -0.326687        -8.8896
  48   2.0000      -0.310980        -8.4622
  49   2.0000      -0.240116        -6.5339
  50   2.0000      -0.159371        -4.3367
  51   0.0000      -0.050507        -1.3744
  52   0.0000       0.021368         0.5815
  53   0.0000       0.036992         1.0066
  54   0.0000       0.039959         1.0874
  55   0.0000       0.053210         1.4479

MULLIKEN ATOMIC CHARGES
-----------------------
   0 C :   -0.145070
   1 N :   -0.256329
   2 C :   -0.145605
   3 C :   -0.211704
   4 H :    0.120028
   5 H :    0.132955
   6 C :    0.403909
   7 C :    0.165095
   8 N :   -0.399289
   9 C :   -0.382617
  10 H :    0.049203
  11 H :    0.048101
  12 H :    0.196903
  13 H :    0.195847
  14 H :    0.246993
  15 F :   -0.092613
  16 O :   -0.361199
  17 C :   -0.162604
  18 H :    0.117506
  19 H :    0.093803
  20 C :   -0.153478
  21 H :    0.076132
  22 H :    0.090760
  23 C :   -0.205358
  24 H :    0.116691
  25 H :    0.083920
  26 H :    0.089335
  27 H :    0.086103
  28 H :    0.100171
  29 H :    0.102410
Sum of atomic charges:   -0.0000000

LOEWDIN ATOMIC CHARGES
----------------------
   0 C :   -0.289087
   1 N :    0.108947
   2 C :   -0.249476
   3 C :   -0.228165
   4 H :    0.144812
   5 H :    0.157774
   6 C :   -0.483830
   7 C :   -0.481797
   8 N :    0.020971
   9 C :   -0.355921
  10 H :    0.089916
  11 H :    0.092451
  12 H :    0.185996
  13 H :    0.154816
  14 H :    0.154861
  15 F :    0.352003
  16 O :    0.071896
  17 C :   -0.265448
  18 H :    0.130649
  19 H :    0.124875
  20 C :   -0.262623
  21 H :    0.135039
  22 H :    0.133974
  23 C :   -0.265951
  24 H :    0.139858
  25 H :    0.135060
  26 H :    0.131703
  27 H :    0.135339
  28 H :    0.138708
  29 H :    0.142650

  Mayer bond orders larger than 0.100000
B(  0-C ,  1-N ) :   0.9583 B(  0-C , 17-C ) :   0.9577 B(  0-C , 18-H ) :   0.9812
B(  0-C , 19-H ) :   0.9844 B(  1-N ,  7-C ) :   1.1909 B(  1-N , 12-H ) :   0.9255
B(  2-C ,  3-C ) :   0.9595 B(  2-C , 23-C ) :   0.9784 B(  2-C , 28-H ) :   0.9637
B(  2-C , 29-H ) :   0.9618 B(  3-C ,  4-H ) :   0.9551 B(  3-C ,  5-H ) :   0.9371
B(  3-C ,  6-C ) :   1.0015 B(  6-C , 15-F ) :   1.1518 B(  6-C , 16-O ) :   1.9442
B(  7-C ,  8-N ) :   1.1628 B(  7-C ,  9-C ) :   1.6686 B(  8-N , 13-H ) :   0.9350
B(  8-N , 14-H ) :   0.8673 B(  9-C , 10-H ) :   1.0090 B(  9-C , 11-H ) :   1.0164
B( 17-C , 20-C ) :   0.9629 B( 17-C , 21-H ) :   0.9585 B( 17-C , 22-H ) :   0.9694
B( 20-C , 23-C ) :   0.9354 B( 20-C , 24-H ) :   0.9589 B( 20-C , 25-H ) :   0.9668
B( 23-C , 26-H ) :   0.9682 B( 23-C , 27-H ) :   0.9672

Dispersion correction           -0.057188487
FINAL SINGLE POINT ENERGY      -637.629627426371

DIPOLE MOMENT
-------------
                                X             Y             Z
Electronic contribution:     -2.86431       1.32227     -12.77001
Nuclear contribution   :      2.27881      -0.10762      14.43322
                        -----------------------------------------
Total Dipole Moment    :     -0.58550       1.21465       1.66321
                        -----------------------------------------
Magnitude (a.u.)       :      2.14113
Magnitude (Debye)      :      5.44233

Rotational constants in cm-1:     0.033336     0.023673     0.017062
Rotational constants in MHz :   999.388459   709.685364   511.514310

                             ****ORCA TERMINATED NORMALLY****
TOTAL RUN TIME: 0 days 0 hours 0 minutes 58 seconds 686 msec
