                         Program Version 5.0.0 -  RELEASE  -
|  1> !LC-PBE RIJCOSX def2-SVPD def2/J TightSCF
|  2> *xyz -1 1
|  3> C         -7.33044       -2.67899       -3.20681
|  4> S         -6.01966       -2.92697       -4.41913
|  5> O         -5.64583       -1.58838       -4.91931
|  6> O         -4.88196       -3.50370       -3.66724
|  7> O         -6.54927       -3.80515       -5.42507
|  8> C         -7.46900       -1.24615       -2.71383
|  9> H         -7.11825       -3.37982       -2.39805
| 10> H         -8.24184       -3.00474       -3.70651
| 11> H         -7.67580       -0.60214       -3.54292
| 12> H         -6.55749       -0.94096       -2.24382
| 13> H         -8.27114       -1.18777       -2.00810
| 14> *
| 15> %MaxCore 64000
| 16>
| 17> %pal nprocs 4
| 18> end
| 19>
| 20> %scf
| 21>   MaxIter 150
| 22> end
| 23>
| 24>
| 25>                          ****END OF INPUT****

CARTESIAN COORDINATES (ANGSTROEM)
---------------------------------
  C     -7.330440   -2.678990   -3.206810
  S     -6.019660   -2.926970   -4.419130
  O     -5.645830   -1.588380   -4.919310
  O     -4.881960   -3.503700   -3.667240
  O     -6.549270   -3.805150   -5.425070
  C     -7.469000   -1.246150   -2.713830
  H     -7.118250   -3.379820   -2.398050
  H     -8.241840   -3.004740   -3.706510
  H     -7.675800   -0.602140   -3.542920
  H     -6.557490   -0.940960   -2.243820
  H     -8.271140   -1.187770   -2.008100

 Total Charge           Charge          ....   -1
 Multiplicity           Mult            ....    1
 Number of Electrons    NEL             ....   58
 Basis Dimension        Dim             ....  176

ORBITAL ENERGIES
----------------

  NO   OCC          E(Eh)            E(eV)
   0   2.0000     -88.314518     -2403.1602
   1   2.0000     -18.777634      -510.9654
   2   2.0000     -18.766028      -510.6496
   3   2.0000     -18.762583      -510.5558
   4   2.0000      -9.997926      -272.0574
   5   2.0000      -9.987861      -271.7835
   6   2.0000      -7.936433      -215.9613
   7   2.0000      -5.958738      -162.1455
   8   2.0000      -5.958695      -162.1443
   9   2.0000      -5.958350      -162.1349
  10   2.0000      -1.106351       -30.1053
  11   2.0000      -0.950627       -25.8679
  12   2.0000      -0.927067       -25.2268
  13   2.0000      -0.812931       -22.1210
  14   2.0000      -0.674875       -18.3643
  15   2.0000      -0.537178       -14.6173
  16   2.0000      -0.472365       -12.8537
  17   2.0000      -0.469569       -12.7776
  18   2.0000      -0.426615       -11.6088
  19   2.0000      -0.408491       -11.1156
  20   2.0000      -0.403051       -10.9676
  21   2.0000      -0.369184       -10.0460
  22   2.0000      -0.356794        -9.7089
  23   2.0000      -0.291240        -7.9251
  24   2.0000      -0.290330        -7.9003
  25   2.0000      -0.249537        -6.7902
  26   2.0000      -0.239972        -6.5300
  27   2.0000      -0.234753        -6.3880
  28   2.0000      -0.196429        -5.3451
  29   0.0000       0.202796         5.5184
  30   0.0000       0.225343         6.1319
  31   0.0000       0.228625         6.2212
  32   0.0000       0.235970         6.4211
  33   0.0000       0.256696         6.9851

MULLIKEN ATOMIC CHARGES
-----------------------
   0 C :   -0.502813
   1 S :    1.209027
   2 O :   -0.801491
   3 O :   -0.795995
   4 O :   -0.743615
   5 C :    0.506715
   6 H :    0.053108
   7 H :    0.068223
   8 H :    0.048217
   9 H :    0.026306
  10 H :   -0.067682
Sum of atomic charges:   -1.0000000

LOEWDIN ATOMIC CHARGES
----------------------
   0 C :   -0.147480
   1 S :    0.852220
   2 O :   -0.586855
   3 O :   -0.601049
   4 O :   -0.574439
   5 C :    0.064067
   6 H :    0.015150
   7 H :    0.008767
   8 H :   -0.009392
   9 H :    0.000007
  10 H :   -0.020998

  Mayer bond orders larger than 0.100000
B(  0-C ,  1-S ) :   0.9084 B(  0-C ,  5-C ) :   1.2746 B(  0-C ,  6-H ) :   0.9921
B(  0-C ,  7-H ) :   0.9938 B(  0-C ,  8-H ) :   0.1611 B(  0-C ,  9-H ) :   0.1540
B(  0-C , 10-H ) :   0.1610 B(  1-S ,  2-O ) :   1.3237 B(  1-S ,  3-O ) :   1.3129
B(  1-S ,  4-O ) :   1.3789 B(  5-C ,  8-H ) :   0.8398 B(  5-C ,  9-H ) :   0.8477
B(  5-C , 10-H ) :   0.8428

FINAL SINGLE POINT ENERGY      -701.574892216253

DIPOLE MOMENT
-------------
                                X             Y             Z
Electronic contribution:      4.55542      -3.47890      -4.99268
Nuclear contribution   :     -6.18165       4.01759       6.33106
                        -----------------------------------------
Total Dipole Moment    :     -1.62623       0.53869       1.33838
                        -----------------------------------------
Magnitude (a.u.)       :      2.17395
Magnitude (Debye)      :      5.52575

Rotational constants in cm-1:     0.161711     0.082788     0.081165
Rotational constants in MHz :  4847.971521  2481.906910  2433.276832

                             ****ORCA TERMINATED NORMALLY****
TOTAL RUN TIME: 0 days 0 hours 0 minutes 23 seconds 549 msec
