                         Program Version 5.0.0 -  RELEASE  -
|  1> !LC-PBE RIJCOSX def2-SVPD def2/J TightSCF
|  2> *xyz 1 1
|  3> C         -2.16038       -1.36949       -3.46710
|  4> N         -3.03011       -1.91086       -4.54107
|  5> C         -2.04772        0.14658       -3.51177
|  6> H         -3.47744       -2.79151       -4.25710
|  7> H         -2.53801       -2.01786       -5.43808
|  8> H         -3.89159       -1.37604       -4.71437
|  9> H         -1.18444       -1.84400       -3.56639
| 10> H         -2.59819       -1.70838       -2.52848
| 11> H         -1.61525        0.44478       -4.44395
| 12> H         -1.42718        0.48198       -2.70720
| 13> H         -3.02145        0.57958       -3.41560
| 14> *
| 15> %MaxCore 64000
| 16>
| 17> %pal nprocs 4
| 18> end
| 19>
| 20> %scf
| 21>   MaxIter 150
| 22> end
| 23>
| 24>
| 25>                          ****END OF INPUT****

CARTESIAN COORDINATES (ANGSTROEM)
---------------------------------
  C     -2.160380   -1.369490   -3.467100
  N     -3.030110   -1.910860   -4.541070
  C     -2.047720    0.146580   -3.511770
  H     -3.477440   -2.791510   -4.257100
  H     -2.538010   -2.017860   -5.438080
  H     -3.891590   -1.376040   -4.714370
  H     -1.184440   -1.844000   -3.566390
  H     -2.598190   -1.708380   -2.528480
  H     -1.615250    0.444780   -4.443950
  H     -1.427180    0.481980   -2.707200
  H     -3.021450    0.579580   -3.415600

 Total Charge           Charge          ....    1
 Multiplicity           Mult            ....    1
 Number of Electrons    NEL             ....   26
 Basis Dimension        Dim             ....  124

ORBITAL ENERGIES
----------------

  NO   OCC          E(Eh)            E(eV)
   0   2.0000     -14.566357      -396.3707
   1   2.0000     -10.382563      -282.5239
   2   2.0000     -10.299951      -280.2759
   3   2.0000      -1.384418       -37.6719
   4   2.0000      -1.136489       -30.9254
   5   2.0000      -1.006193       -27.3799
   6   2.0000      -0.960006       -26.1231
   7   2.0000      -0.918594       -24.9962
   8   2.0000      -0.844502       -22.9801
   9   2.0000      -0.785308       -21.3693
  10   2.0000      -0.717654       -19.5284
  11   2.0000      -0.701080       -19.0774
  12   2.0000      -0.679837       -18.4993
  13   0.0000      -0.110678        -3.0117
  14   0.0000      -0.052625        -1.4320
  15   0.0000      -0.049177        -1.3382
  16   0.0000      -0.042721        -1.1625
  17   0.0000      -0.012518        -0.3406

MULLIKEN ATOMIC CHARGES
-----------------------
   0 C :    0.035725
   1 N :   -0.888695
   2 C :    0.333432
   3 H :    0.400509
   4 H :    0.439884
   5 H :    0.407960
   6 H :    0.018779
   7 H :    0.046832
   8 H :    0.084048
   9 H :    0.085771
  10 H :    0.035755
Sum of atomic charges:    1.0000000

LOEWDIN ATOMIC CHARGES
----------------------
   0 C :    0.030561
   1 N :    0.306248
   2 C :    0.137498
   3 H :    0.114604
   4 H :    0.122183
   5 H :    0.114329
   6 H :    0.064620
   7 H :    0.062386
   8 H :    0.012365
   9 H :    0.025148
  10 H :    0.010058

  Mayer bond orders larger than 0.100000
B(  0-C ,  1-N ) :   0.7483 B(  0-C ,  2-C ) :   1.3093 B(  0-C ,  6-H ) :   0.9575
B(  0-C ,  7-H ) :   0.9530 B(  0-C ,  8-H ) :   0.1162 B(  0-C ,  9-H ) :   0.1396
B(  0-C , 10-H ) :   0.1266 B(  1-N ,  3-H ) :   0.7535 B(  1-N ,  4-H ) :   0.7011
B(  1-N ,  5-H ) :   0.7489 B(  2-C ,  8-H ) :   0.8505 B(  2-C ,  9-H ) :   0.8619
B(  2-C , 10-H ) :   0.8807

FINAL SINGLE POINT ENERGY      -134.989713219082

DIPOLE MOMENT
-------------
                                X             Y             Z
Electronic contribution:     -0.66862      -1.51393      -0.79123
Nuclear contribution   :     -0.15215       0.37393      -0.04773
                        -----------------------------------------
Total Dipole Moment    :     -0.82077      -1.14000      -0.83896
                        -----------------------------------------
Magnitude (a.u.)       :      1.63619
Magnitude (Debye)      :      4.15887

Rotational constants in cm-1:     1.020762     0.277172     0.247319
Rotational constants in MHz : 30601.664035  8309.399682  7414.438136

                             ****ORCA TERMINATED NORMALLY****
TOTAL RUN TIME: 0 days 0 hours 0 minutes 12 seconds 919 msec
