                         Program Version 5.0.0 -  RELEASE  -
|  1> !LC-PBE RIJCOSX def2-SVPD def2/J TightSCF xyzfile
|  2>
|  3> *xyzfile 0 1 B.xyz
|  4>
|  5> %MaxCore 64000
|  6>
|  7> %pal nprocs 4
|  8> end
|  9>
| 10> %scf
| 11>   MaxIter 150
| 12> end
| 13>
| 14>
| 15>                          ****END OF INPUT****

CARTESIAN COORDINATES (ANGSTROEM)
---------------------------------
  C     -2.160376   -1.369486   -3.467104
  N     -3.030108   -1.910857   -4.541074
  C     -2.047717    0.146583   -3.511774
  C     -7.330440   -2.678991   -3.206811
  S     -6.019659   -2.926965   -4.419128
  H     -3.477443   -2.791513   -4.257096
  H     -2.538013   -2.017860   -5.438075
  H     -3.891589   -1.376039   -4.714365
  O     -5.645830   -1.588384   -4.919307
  O     -4.881961   -3.503697   -3.667235
  H     -1.184438   -1.843997   -3.566393
  H     -2.598195   -1.708376   -2.528477
  O     -6.549267   -3.805150   -5.425071
  C     -3.328755    0.875037   -3.103669
  H     -1.740034    0.452343   -4.517126
  H     -1.232611    0.434938   -2.842208
  C     -3.628487    0.771601   -1.609363
  H     -4.175106    0.490791   -3.682203
  H     -3.237812    1.928663   -3.381480
  C     -4.975718    1.361432   -1.190644
  H     -2.830700    1.276234   -1.054766
  H     -3.594312   -0.275838   -1.294603
  C     -6.184720    0.784347   -1.926464
  H     -4.956292    2.445725   -1.342200
  H     -5.097256    1.205252   -0.114136
  C     -6.286921   -0.735882   -1.893531
  H     -6.163994    1.100199   -2.974250
  H     -7.094530    1.223459   -1.504509
  C     -7.468999   -1.246153   -2.713833
  H     -6.360641   -1.090347   -0.859176
  H     -5.369848   -1.171853   -2.295982
  H     -7.601914   -0.601349   -3.585329
  H     -8.389791   -1.173436   -2.126922
  H     -7.118254   -3.379818   -2.398055
  H     -8.241838   -3.004745   -3.706513

 Total Charge           Charge          ....    0
 Multiplicity           Mult            ....    1
 Number of Electrons    NEL             ....  122
 Basis Dimension        Dim             ....  464

ORBITAL ENERGIES
----------------

  NO   OCC          E(Eh)            E(eV)
   0   2.0000     -88.484717     -2407.7916
   1   2.0000     -18.949955      -515.6545
   2   2.0000     -18.949381      -515.6389
   3   2.0000     -18.933255      -515.2000
   4   2.0000     -14.334439      -390.0599
   5   2.0000     -10.212823      -277.9050
   6   2.0000     -10.165230      -276.6100
   7   2.0000     -10.145190      -276.0647
   8   2.0000     -10.136934      -275.8400
   9   2.0000     -10.134752      -275.7806
  10   2.0000     -10.128963      -275.6231
  11   2.0000     -10.122967      -275.4599
  12   2.0000     -10.121723      -275.4261
  13   2.0000     -10.118821      -275.3471
  14   2.0000      -8.105859      -220.5716
  15   2.0000      -6.129199      -166.7840
  16   2.0000      -6.128145      -166.7553
  17   2.0000      -6.126711      -166.7163
  18   2.0000      -1.281552       -34.8728
  19   2.0000      -1.174145       -31.9501
  20   2.0000      -1.118436       -30.4342
  21   2.0000      -1.114719       -30.3330
  22   2.0000      -1.014725       -27.6121
  23   2.0000      -0.984827       -26.7985
  24   2.0000      -0.957474       -26.0542
  25   2.0000      -0.907699       -24.6997
  26   2.0000      -0.873335       -23.7646
  27   2.0000      -0.825266       -22.4566
  28   2.0000      -0.784588       -21.3497
  29   2.0000      -0.766018       -20.8444
  30   2.0000      -0.750608       -20.4251
  31   2.0000      -0.724765       -19.7219
  32   2.0000      -0.714577       -19.4446
  33   2.0000      -0.689884       -18.7727
  34   2.0000      -0.660356       -17.9692
  35   2.0000      -0.643871       -17.5206
  36   2.0000      -0.638373       -17.3710
  37   2.0000      -0.627342       -17.0708
  38   2.0000      -0.607079       -16.5195
  39   2.0000      -0.597624       -16.2622
  40   2.0000      -0.586153       -15.9500
  41   2.0000      -0.582322       -15.8458
  42   2.0000      -0.572599       -15.5812
  43   2.0000      -0.556862       -15.1530
  44   2.0000      -0.553721       -15.0675
  45   2.0000      -0.539347       -14.6764
  46   2.0000      -0.524813       -14.2809
  47   2.0000      -0.508666       -13.8415
  48   2.0000      -0.502703       -13.6792
  49   2.0000      -0.486692       -13.2436
  50   2.0000      -0.478221       -13.0130
  51   2.0000      -0.472914       -12.8686
  52   2.0000      -0.462272       -12.5791
  53   2.0000      -0.458924       -12.4880
  54   2.0000      -0.450401       -12.2560
  55   2.0000      -0.443289       -12.0625
  56   2.0000      -0.439788       -11.9672
  57   2.0000      -0.420396       -11.4396
  58   2.0000      -0.410586       -11.1726
  59   2.0000      -0.397214       -10.8087
  60   2.0000      -0.376754       -10.2520
  61   0.0000       0.058581         1.5941
  62   0.0000       0.082946         2.2571
  63   0.0000       0.088495         2.4081
  64   0.0000       0.095817         2.6073
  65   0.0000       0.103690         2.8215

MULLIKEN ATOMIC CHARGES
-----------------------
   0 C :    0.711942
   1 N :   -1.025278
   2 C :    0.233130
   3 C :    0.226237
   4 S :    1.154639
   5 H :    0.298701
   6 H :    0.529495
   7 H :    0.307414
   8 O :   -0.780852
   9 O :   -0.802266
  10 H :   -0.191081
  11 H :    0.038263
  12 O :   -0.751023
  13 C :    0.339439
  14 H :    0.019711
  15 H :    0.066412
  16 C :   -0.298478
  17 H :   -0.501908
  18 H :    0.000792
  19 C :    0.501395
  20 H :   -0.244443
  21 H :    0.151325
  22 C :   -0.247462
  23 H :    0.048011
  24 H :    0.085046
  25 C :    0.160598
  26 H :    0.236290
  27 H :   -0.282713
  28 C :    0.108589
  29 H :    0.015338
  30 H :   -0.282101
  31 H :    0.164570
  32 H :   -0.118431
  33 H :    0.052614
  34 H :    0.076087
Sum of atomic charges:    0.0000000

LOEWDIN ATOMIC CHARGES
----------------------
   0 C :    0.077875
   1 N :    0.318144
   2 C :   -0.035049
   3 C :   -0.068745
   4 S :    0.942573
   5 H :   -0.040546
   6 H :    0.114393
   7 H :   -0.030631
   8 O :   -0.528133
   9 O :   -0.533237
  10 H :    0.048068
  11 H :    0.044753
  12 O :   -0.506180
  13 C :   -0.037833
  14 H :    0.039317
  15 H :    0.043016
  16 C :   -0.057981
  17 H :    0.011382
  18 H :    0.045125
  19 C :   -0.051325
  20 H :    0.036530
  21 H :    0.016456
  22 C :   -0.058781
  23 H :    0.035315
  24 H :    0.036242
  25 C :   -0.048813
  26 H :    0.031097
  27 H :    0.038968
  28 C :   -0.066210
  29 H :    0.047641
  30 H :    0.001078
  31 H :    0.032392
  32 H :    0.041181
  33 H :    0.033809
  34 H :    0.028108

  Mayer bond orders larger than 0.100000
B(  0-C ,  1-N ) :   0.6680 B(  0-C ,  2-C ) :   1.1957 B(  0-C , 10-H ) :   0.9124
B(  0-C , 11-H ) :   0.7800 B(  0-C , 15-H ) :   0.1261 B(  1-N ,  5-H ) :   0.7280
B(  1-N ,  6-H ) :   0.5465 B(  1-N ,  7-H ) :   0.7254 B(  1-N , 11-H ) :   0.1681
B(  2-C , 13-C ) :   1.1956 B(  2-C , 14-H ) :   0.7808 B(  2-C , 15-H ) :   0.8180
B(  3-C ,  4-S ) :   0.9185 B(  3-C , 12-O ) :   0.1108 B(  3-C , 28-C ) :   1.2370
B(  3-C , 33-H ) :   0.9106 B(  3-C , 34-H ) :   0.8002 B(  4-S ,  8-O ) :   1.1534
B(  4-S ,  9-O ) :   1.1629 B(  4-S , 12-O ) :   1.4822 B(  5-H ,  9-O ) :   0.2140
B(  7-H ,  8-O ) :   0.2200 B( 10-H , 11-H ) :  -0.1154 B( 13-C , 14-H ) :   0.1471
B( 13-C , 16-C ) :   1.1992 B( 13-C , 17-H ) :   0.7594 B( 13-C , 18-H ) :   0.8355
B( 13-C , 20-H ) :   0.1819 B( 16-C , 17-H ) :   0.1928 B( 16-C , 18-H ) :   0.1566
B( 16-C , 19-C ) :   1.1979 B( 16-C , 20-H ) :   1.0535 B( 16-C , 21-H ) :   0.8704
B( 16-C , 23-H ) :   0.1268 B( 16-C , 24-H ) :   0.2216 B( 17-H , 26-H ) :   0.1081
B( 19-C , 22-C ) :   1.1460 B( 19-C , 23-H ) :   0.7392 B( 19-C , 24-H ) :   0.7352
B( 22-C , 23-H ) :   0.1935 B( 22-C , 25-C ) :   1.2820 B( 22-C , 26-H ) :   0.8162
B( 22-C , 27-H ) :   1.0716 B( 22-C , 28-C ) :   0.1201 B( 22-C , 30-H ) :   0.1154
B( 25-C , 27-H ) :   0.1857 B( 25-C , 28-C ) :   1.1653 B( 25-C , 29-H ) :   0.7657
B( 25-C , 30-H ) :   0.8639 B( 25-C , 32-H ) :   0.1849 B( 28-C , 29-H ) :   0.1145
B( 28-C , 31-H ) :   0.8559 B( 28-C , 32-H ) :   0.8868 B( 28-C , 34-H ) :   0.1820
B( 29-H , 30-H ) :   0.2459

FINAL SINGLE POINT ENERGY     -1031.327016147038

DIPOLE MOMENT
-------------
                                X             Y             Z
Electronic contribution:     -5.98483     -15.15838     -11.34433
Nuclear contribution   :      8.59301      16.99497      12.41069
                        -----------------------------------------
Total Dipole Moment    :      2.60818       1.83660       1.06636
                        -----------------------------------------
Magnitude (a.u.)       :      3.36345
Magnitude (Debye)      :      8.54921

Rotational constants in cm-1:     0.025617     0.015295     0.010641
Rotational constants in MHz :   767.991150   458.522408   319.013093

                             ****ORCA TERMINATED NORMALLY****
TOTAL RUN TIME: 0 days 0 hours 3 minutes 28 seconds 737 msec
