                         Program Version 5.0.0 -  RELEASE  -
|  1> !LC-PBE RIJCOSX def2-SVPD def2/J TightSCF
|  2> *xyz 0 1
|  3> C         -7.33044       -2.67899       -3.20681
|  4> S         -6.01966       -2.92697       -4.41913
|  5> F         -5.64583       -1.58838       -4.91931
|  6> O         -4.88196       -3.50370       -3.66724
|  7> O         -6.54927       -3.80515       -5.42507
|  8> C         -7.46900       -1.24615       -2.71383
|  9> H         -7.11825       -3.37982       -2.39805
| 10> H         -8.24184       -3.00474       -3.70651
| 11> H         -7.67580       -0.60214       -3.54292
| 12> H         -6.55749       -0.94096       -2.24382
| 13> H         -8.27114       -1.18777       -2.00810
| 14> *
| 15> %MaxCore 64000
| 16>
| 17> %pal nprocs 4
| 18> end
| 19>
| 20> %scf
| 21>   MaxIter 150
| 22> end
| 23>
| 24>
| 25>                          ****END OF INPUT****

CARTESIAN COORDINATES (ANGSTROEM)
---------------------------------
  C     -7.330440   -2.678990   -3.206810
  S     -6.019660   -2.926970   -4.419130
  F     -5.645830   -1.588380   -4.919310
  O     -4.881960   -3.503700   -3.667240
  O     -6.549270   -3.805150   -5.425070
  C     -7.469000   -1.246150   -2.713830
  H     -7.118250   -3.379820   -2.398050
  H     -8.241840   -3.004740   -3.706510
  H     -7.675800   -0.602140   -3.542920
  H     -6.557490   -0.940960   -2.243820
  H     -8.271140   -1.187770   -2.008100

 Total Charge           Charge          ....    0
 Multiplicity           Mult            ....    1
 Number of Electrons    NEL             ....   58
 Basis Dimension        Dim             ....  176

ORBITAL ENERGIES
----------------

  NO   OCC          E(Eh)            E(eV)
   0   2.0000     -88.574737     -2410.2411
   1   2.0000     -24.616924      -669.8606
   2   2.0000     -19.013409      -517.3812
   3   2.0000     -18.997834      -516.9574
   4   2.0000     -10.200606      -277.5726
   5   2.0000     -10.159324      -276.4493
   6   2.0000      -8.197427      -223.0633
   7   2.0000      -6.224538      -169.3783
   8   2.0000      -6.217345      -169.1826
   9   2.0000      -6.216038      -169.1470
  10   2.0000      -1.515829       -41.2478
  11   2.0000      -1.286035       -34.9948
  12   2.0000      -1.174394       -31.9569
  13   2.0000      -1.010367       -27.4935
  14   2.0000      -0.890101       -24.2209
  15   2.0000      -0.843531       -22.9536
  16   2.0000      -0.751118       -20.4389
  17   2.0000      -0.729296       -19.8452
  18   2.0000      -0.696881       -18.9631
  19   2.0000      -0.652552       -17.7568
  20   2.0000      -0.626132       -17.0379
  21   2.0000      -0.599996       -16.3267
  22   2.0000      -0.590936       -16.0802
  23   2.0000      -0.557948       -15.1825
  24   2.0000      -0.537008       -14.6127
  25   2.0000      -0.531524       -14.4635
  26   2.0000      -0.474135       -12.9019
  27   2.0000      -0.460682       -12.5358
  28   2.0000      -0.449537       -12.2325
  29   0.0000       0.060281         1.6403
  30   0.0000       0.088950         2.4204
  31   0.0000       0.092854         2.5267
  32   0.0000       0.095254         2.5920
  33   0.0000       0.123049         3.3483

MULLIKEN ATOMIC CHARGES
-----------------------
   0 C :   -0.517929
   1 S :    1.364871
   2 F :   -0.392986
   3 O :   -0.662137
   4 O :   -0.607228
   5 C :    0.485370
   6 H :    0.114015
   7 H :    0.128179
   8 H :    0.056942
   9 H :    0.044727
  10 H :   -0.013824
Sum of atomic charges:    0.0000000

LOEWDIN ATOMIC CHARGES
----------------------
   0 C :   -0.097833
   1 S :    1.109278
   2 F :   -0.258558
   3 O :   -0.485884
   4 O :   -0.460214
   5 C :    0.094387
   6 H :    0.044350
   7 H :    0.033170
   8 H :    0.002666
   9 H :    0.010825
  10 H :    0.007812

  Mayer bond orders larger than 0.100000
B(  0-C ,  1-S ) :   0.9805 B(  0-C ,  5-C ) :   1.2824 B(  0-C ,  6-H ) :   0.9760
B(  0-C ,  7-H ) :   0.9856 B(  0-C ,  8-H ) :   0.1419 B(  0-C ,  9-H ) :   0.1362
B(  0-C , 10-H ) :   0.1575 B(  1-S ,  2-F ) :   0.6946 B(  1-S ,  3-O ) :   1.5307
B(  1-S ,  4-O ) :   1.5918 B(  5-C ,  8-H ) :   0.8465 B(  5-C ,  9-H ) :   0.8550
B(  5-C , 10-H ) :   0.8495

FINAL SINGLE POINT ENERGY      -726.041936875687

DIPOLE MOMENT
-------------
                                X             Y             Z
Electronic contribution:      5.55758      -1.66079      -6.31569
Nuclear contribution   :     -6.81251       2.87933       7.15058
                        -----------------------------------------
Total Dipole Moment    :     -1.25493       1.21854       0.83488
                        -----------------------------------------
Magnitude (a.u.)       :      1.93823
Magnitude (Debye)      :      4.92659

Rotational constants in cm-1:     0.152543     0.082494     0.078987
Rotational constants in MHz :  4573.135887  2473.116216  2367.980829

                             ****ORCA TERMINATED NORMALLY****
TOTAL RUN TIME: 0 days 0 hours 0 minutes 22 seconds 61 msec
