                         Program Version 5.0.0 -  RELEASE  -
|  1> !LC-PBE RIJCOSX def2-SVPD def2/J TightSCF
|  2> *xyz 0 1
|  3> C         -2.16038       -1.36949       -3.46710
|  4> C         -3.03011       -1.91086       -4.54107
|  5> C         -2.04772        0.14658       -3.51177
|  6> H         -3.47744       -2.79151       -4.25710
|  7> H         -2.53801       -2.01786       -5.43808
|  8> H         -3.89159       -1.37604       -4.71437
|  9> H         -1.18444       -1.84400       -3.56639
| 10> H         -2.59819       -1.70838       -2.52848
| 11> H         -1.61525        0.44478       -4.44395
| 12> H         -1.42718        0.48198       -2.70720
| 13> H         -3.02145        0.57958       -3.41560
| 14> *
| 15> %MaxCore 64000
| 16>
| 17> %pal nprocs 4
| 18> end
| 19>
| 20> %scf
| 21>   MaxIter 150
| 22> end
| 23>
| 24>
| 25>                          ****END OF INPUT****

CARTESIAN COORDINATES (ANGSTROEM)
---------------------------------
  C     -2.160380   -1.369490   -3.467100
  C     -3.030110   -1.910860   -4.541070
  C     -2.047720    0.146580   -3.511770
  H     -3.477440   -2.791510   -4.257100
  H     -2.538010   -2.017860   -5.438080
  H     -3.891590   -1.376040   -4.714370
  H     -1.184440   -1.844000   -3.566390
  H     -2.598190   -1.708380   -2.528480
  H     -1.615250    0.444780   -4.443950
  H     -1.427180    0.481980   -2.707200
  H     -3.021450    0.579580   -3.415600

 Total Charge           Charge          ....    0
 Multiplicity           Mult            ....    1
 Number of Electrons    NEL             ....   26
 Basis Dimension        Dim             ....  124

ORBITAL ENERGIES
----------------

  NO   OCC          E(Eh)            E(eV)
   0   2.0000     -10.114474      -275.2288
   1   2.0000     -10.103895      -274.9410
   2   2.0000     -10.086588      -274.4700
   3   2.0000      -0.964836       -26.2545
   4   2.0000      -0.855547       -23.2806
   5   2.0000      -0.743222       -20.2241
   6   2.0000      -0.617653       -16.8072
   7   2.0000      -0.584610       -15.9080
   8   2.0000      -0.541190       -14.7265
   9   2.0000      -0.530009       -14.4223
  10   2.0000      -0.469953       -12.7881
  11   2.0000      -0.457145       -12.4395
  12   2.0000      -0.453803       -12.3486
  13   0.0000       0.096006         2.6125
  14   0.0000       0.121486         3.3058
  15   0.0000       0.129464         3.5229
  16   0.0000       0.162414         4.4195
  17   0.0000       0.182693         4.9713

MULLIKEN ATOMIC CHARGES
-----------------------
   0 C :   -0.662515
   1 C :    0.624434
   2 C :    0.392056
   3 H :   -0.101043
   4 H :   -0.112019
   5 H :   -0.163394
   6 H :   -0.032015
   7 H :    0.019844
   8 H :    0.006298
   9 H :    0.000680
  10 H :    0.027673
Sum of atomic charges:   -0.0000000

LOEWDIN ATOMIC CHARGES
----------------------
   0 C :   -0.139045
   1 C :    0.076499
   2 C :    0.083049
   3 H :   -0.025162
   4 H :   -0.015790
   5 H :   -0.023504
   6 H :    0.032840
   7 H :    0.031251
   8 H :   -0.003987
   9 H :   -0.010580
  10 H :   -0.005571

  Mayer bond orders larger than 0.100000
B(  0-C ,  1-C ) :   1.3134 B(  0-C ,  2-C ) :   1.2496 B(  0-C ,  3-H ) :   0.1644
B(  0-C ,  4-H ) :   0.1873 B(  0-C ,  5-H ) :   0.1506 B(  0-C ,  6-H ) :   0.9896
B(  0-C ,  7-H ) :   0.9566 B(  0-C ,  8-H ) :   0.1492 B(  0-C ,  9-H ) :   0.1512
B(  0-C , 10-H ) :   0.1183 B(  1-C ,  3-H ) :   0.7461 B(  1-C ,  4-H ) :   0.7872
B(  1-C ,  5-H ) :   0.7682 B(  2-C ,  8-H ) :   0.8701 B(  2-C ,  9-H ) :   0.8624
B(  2-C , 10-H ) :   0.8770 B(  3-H ,  5-H ) :   0.1878 B(  4-H ,  5-H ) :   0.1106

FINAL SINGLE POINT ENERGY      -118.611217911683

DIPOLE MOMENT
-------------
                                X             Y             Z
Electronic contribution:      0.31137      -0.13421       0.27466
Nuclear contribution   :     -0.34625       0.09603      -0.26933
                        -----------------------------------------
Total Dipole Moment    :     -0.03488      -0.03818       0.00533
                        -----------------------------------------
Magnitude (a.u.)       :      0.05198
Magnitude (Debye)      :      0.13213

Rotational constants in cm-1:     1.028617     0.291238     0.258956
Rotational constants in MHz : 30837.159054  8731.095379  7763.318586

                             ****ORCA TERMINATED NORMALLY****
TOTAL RUN TIME: 0 days 0 hours 0 minutes 12 seconds 52 msec
