                         Program Version 5.0.0 -  RELEASE  -
|  1> !LC-PBE RIJCOSX def2-SVPD def2/J TightSCF
|  2> *xyz 0 1
|  3> C         -7.33044       -2.67899       -3.20681
|  4> S         -6.01966       -2.92697       -4.41913
|  5> O         -5.64583       -1.58838       -4.91931
|  6> F         -4.88196       -3.50370       -3.66724
|  7> O         -6.54927       -3.80515       -5.42507
|  8> C         -7.46900       -1.24615       -2.71383
|  9> H         -7.11825       -3.37982       -2.39805
| 10> H         -8.24184       -3.00474       -3.70651
| 11> H         -7.67580       -0.60214       -3.54292
| 12> H         -6.55749       -0.94096       -2.24382
| 13> H         -8.27114       -1.18777       -2.00810
| 14> *
| 15> %MaxCore 64000
| 16>
| 17> %pal nprocs 4
| 18> end
| 19>
| 20> %scf
| 21>   MaxIter 150
| 22> end
| 23>
| 24>
| 25>                          ****END OF INPUT****

CARTESIAN COORDINATES (ANGSTROEM)
---------------------------------
  C     -7.330440   -2.678990   -3.206810
  S     -6.019660   -2.926970   -4.419130
  O     -5.645830   -1.588380   -4.919310
  F     -4.881960   -3.503700   -3.667240
  O     -6.549270   -3.805150   -5.425070
  C     -7.469000   -1.246150   -2.713830
  H     -7.118250   -3.379820   -2.398050
  H     -8.241840   -3.004740   -3.706510
  H     -7.675800   -0.602140   -3.542920
  H     -6.557490   -0.940960   -2.243820
  H     -8.271140   -1.187770   -2.008100

 Total Charge           Charge          ....    0
 Multiplicity           Mult            ....    1
 Number of Electrons    NEL             ....   58
 Basis Dimension        Dim             ....  176

ORBITAL ENERGIES
----------------

  NO   OCC          E(Eh)            E(eV)
   0   2.0000     -88.574891     -2410.2453
   1   2.0000     -24.614171      -669.7856
   2   2.0000     -19.013462      -517.3826
   3   2.0000     -19.001245      -517.0502
   4   2.0000     -10.200945      -277.5818
   5   2.0000     -10.149932      -276.1937
   6   2.0000      -8.197569      -223.0672
   7   2.0000      -6.224577      -169.3794
   8   2.0000      -6.217489      -169.1865
   9   2.0000      -6.216285      -169.1537
  10   2.0000      -1.512473       -41.1565
  11   2.0000      -1.286913       -35.0187
  12   2.0000      -1.177775       -32.0489
  13   2.0000      -1.005660       -27.3654
  14   2.0000      -0.892094       -24.2751
  15   2.0000      -0.835883       -22.7455
  16   2.0000      -0.740413       -20.1477
  17   2.0000      -0.725552       -19.7433
  18   2.0000      -0.706785       -19.2326
  19   2.0000      -0.646914       -17.6034
  20   2.0000      -0.634648       -17.2696
  21   2.0000      -0.604298       -16.4438
  22   2.0000      -0.574561       -15.6346
  23   2.0000      -0.545013       -14.8306
  24   2.0000      -0.542224       -14.7547
  25   2.0000      -0.523996       -14.2587
  26   2.0000      -0.474187       -12.9033
  27   2.0000      -0.466318       -12.6892
  28   2.0000      -0.452623       -12.3165
  29   0.0000       0.062881         1.7111
  30   0.0000       0.085831         2.3356
  31   0.0000       0.092726         2.5232
  32   0.0000       0.094843         2.5808
  33   0.0000       0.117982         3.2105

MULLIKEN ATOMIC CHARGES
-----------------------
   0 C :   -0.540788
   1 S :    1.378833
   2 O :   -0.672079
   3 F :   -0.383264
   4 O :   -0.613223
   5 C :    0.511996
   6 H :    0.102381
   7 H :    0.125125
   8 H :    0.076290
   9 H :    0.035041
  10 H :   -0.020312
Sum of atomic charges:    0.0000000

LOEWDIN ATOMIC CHARGES
----------------------
   0 C :   -0.103953
   1 S :    1.112459
   2 O :   -0.475726
   3 F :   -0.264070
   4 O :   -0.460895
   5 C :    0.098500
   6 H :    0.032244
   7 H :    0.037470
   8 H :    0.007440
   9 H :    0.009864
  10 H :    0.006669

  Mayer bond orders larger than 0.100000
B(  0-C ,  1-S ) :   0.9691 B(  0-C ,  5-C ) :   1.3136 B(  0-C ,  6-H ) :   0.9581
B(  0-C ,  7-H ) :   0.9880 B(  0-C ,  8-H ) :   0.1541 B(  0-C ,  9-H ) :   0.1490
B(  0-C , 10-H ) :   0.1555 B(  1-S ,  2-O ) :   1.5405 B(  1-S ,  3-F ) :   0.6829
B(  1-S ,  4-O ) :   1.5923 B(  5-C ,  8-H ) :   0.8426 B(  5-C ,  9-H ) :   0.8461
B(  5-C , 10-H ) :   0.8461

FINAL SINGLE POINT ENERGY      -726.045130860062

DIPOLE MOMENT
-------------
                                X             Y             Z
Electronic contribution:      6.91742      -4.97483      -4.17577
Nuclear contribution   :     -7.60849       4.87515       5.84588
                        -----------------------------------------
Total Dipole Moment    :     -0.69107      -0.09967       1.67011
                        -----------------------------------------
Magnitude (a.u.)       :      1.81019
Magnitude (Debye)      :      4.60114

Rotational constants in cm-1:     0.153704     0.080342     0.079431
Rotational constants in MHz :  4607.928650  2408.599360  2381.267225

                             ****ORCA TERMINATED NORMALLY****
TOTAL RUN TIME: 0 days 0 hours 0 minutes 22 seconds 513 msec
