                         Program Version 5.0.0 -  RELEASE  -
|  1> !LC-PBE RIJCOSX def2-SVPD def2/J TightSCF
|  2> *xyz 0 1
|  3> C         -7.33044       -2.67899       -3.20681
|  4> S         -6.01966       -2.92697       -4.41913
|  5> O         -5.64583       -1.58838       -4.91931
|  6> O         -4.88196       -3.50370       -3.66724
|  7> F         -6.54927       -3.80515       -5.42507
|  8> C         -7.46900       -1.24615       -2.71383
|  9> H         -7.11825       -3.37982       -2.39805
| 10> H         -8.24184       -3.00474       -3.70651
| 11> H         -7.67580       -0.60214       -3.54292
| 12> H         -6.55749       -0.94096       -2.24382
| 13> H         -8.27114       -1.18777       -2.00810
| 14> *
| 15> %MaxCore 64000
| 16>
| 17> %pal nprocs 4
| 18> end
| 19>
| 20> %scf
| 21>   MaxIter 150
| 22> end
| 23>
| 24>
| 25>                          ****END OF INPUT****

CARTESIAN COORDINATES (ANGSTROEM)
---------------------------------
  C     -7.330440   -2.678990   -3.206810
  S     -6.019660   -2.926970   -4.419130
  O     -5.645830   -1.588380   -4.919310
  O     -4.881960   -3.503700   -3.667240
  F     -6.549270   -3.805150   -5.425070
  C     -7.469000   -1.246150   -2.713830
  H     -7.118250   -3.379820   -2.398050
  H     -8.241840   -3.004740   -3.706510
  H     -7.675800   -0.602140   -3.542920
  H     -6.557490   -0.940960   -2.243820
  H     -8.271140   -1.187770   -2.008100

 Total Charge           Charge          ....    0
 Multiplicity           Mult            ....    1
 Number of Electrons    NEL             ....   58
 Basis Dimension        Dim             ....  176

ORBITAL ENERGIES
----------------

  NO   OCC          E(Eh)            E(eV)
   0   2.0000     -88.576942     -2410.3011
   1   2.0000     -24.636677      -670.3981
   2   2.0000     -19.001624      -517.0605
   3   2.0000     -18.998530      -516.9763
   4   2.0000     -10.201889      -277.6075
   5   2.0000     -10.149956      -276.1943
   6   2.0000      -8.199767      -223.1270
   7   2.0000      -6.226950      -169.4439
   8   2.0000      -6.219492      -169.2410
   9   2.0000      -6.218239      -169.2069
  10   2.0000      -1.549594       -42.1666
  11   2.0000      -1.272444       -34.6250
  12   2.0000      -1.160080       -31.5674
  13   2.0000      -1.005924       -27.3726
  14   2.0000      -0.906076       -24.6556
  15   2.0000      -0.844415       -22.9777
  16   2.0000      -0.754526       -20.5317
  17   2.0000      -0.752130       -20.4665
  18   2.0000      -0.711881       -19.3713
  19   2.0000      -0.648032       -17.6339
  20   2.0000      -0.634802       -17.2738
  21   2.0000      -0.591278       -16.0895
  22   2.0000      -0.571644       -15.5552
  23   2.0000      -0.547862       -14.9081
  24   2.0000      -0.529036       -14.3958
  25   2.0000      -0.524051       -14.2602
  26   2.0000      -0.466230       -12.6868
  27   2.0000      -0.458643       -12.4803
  28   2.0000      -0.438647       -11.9362
  29   0.0000       0.061489         1.6732
  30   0.0000       0.083024         2.2592
  31   0.0000       0.091203         2.4818
  32   0.0000       0.096105         2.6152
  33   0.0000       0.119216         3.2440

MULLIKEN ATOMIC CHARGES
-----------------------
   0 C :   -0.543055
   1 S :    1.382481
   2 O :   -0.662091
   3 O :   -0.654024
   4 F :   -0.352940
   5 C :    0.488014
   6 H :    0.107044
   7 H :    0.119860
   8 H :    0.075504
   9 H :    0.058536
  10 H :   -0.019329
Sum of atomic charges:    0.0000000

LOEWDIN ATOMIC CHARGES
----------------------
   0 C :   -0.109080
   1 S :    1.116155
   2 O :   -0.476652
   3 O :   -0.484876
   4 F :   -0.243621
   5 C :    0.105235
   6 H :    0.037262
   7 H :    0.025999
   8 H :    0.005631
   9 H :    0.016011
  10 H :    0.007935

  Mayer bond orders larger than 0.100000
B(  0-C ,  1-S ) :   0.9593 B(  0-C ,  5-C ) :   1.3262 B(  0-C ,  6-H ) :   0.9873
B(  0-C ,  7-H ) :   0.9498 B(  0-C ,  8-H ) :   0.1575 B(  0-C ,  9-H ) :   0.1434
B(  0-C , 10-H ) :   0.1551 B(  1-S ,  2-O ) :   1.5336 B(  1-S ,  3-O ) :   1.5287
B(  1-S ,  4-F ) :   0.7431 B(  5-C ,  8-H ) :   0.8361 B(  5-C ,  9-H ) :   0.8498
B(  5-C , 10-H ) :   0.8474

FINAL SINGLE POINT ENERGY      -726.025616230560

DIPOLE MOMENT
-------------
                                X             Y             Z
Electronic contribution:      4.03402      -5.47550      -7.21499
Nuclear contribution   :     -5.87110       5.18927       7.67759
                        -----------------------------------------
Total Dipole Moment    :     -1.83708      -0.28623       0.46260
                        -----------------------------------------
Magnitude (a.u.)       :      1.91593
Magnitude (Debye)      :      4.86990

Rotational constants in cm-1:     0.155988     0.080452     0.078187
Rotational constants in MHz :  4676.405251  2411.902056  2343.983816

                             ****ORCA TERMINATED NORMALLY****
TOTAL RUN TIME: 0 days 0 hours 0 minutes 22 seconds 332 msec
