                         Program Version 5.0.0 -  RELEASE  -
|  1> !wB97X-D3 RIJCOSX def2-SVPD def2/J TightSCF
|  2> *xyz 1 1
|  3> C          3.91385       -1.65829        3.01513
|  4> N          5.03927       -0.90115        2.49282
|  5> C          6.21038       -1.41726        2.17824
|  6> N          6.53591       -2.67712        2.55608
|  7> N          7.07675       -0.70082        1.47891
|  8> H          7.95464       -1.12155        1.20755
|  9> H          6.75616        0.10664        0.96028
| 10> H          4.84217        0.01761        2.11519
| 11> H          5.99388       -3.12692        3.28278
| 12> C          3.13916       -2.37657        1.91061
| 13> H          3.26723       -0.93940        3.52069
| 14> H          4.24720       -2.35509        3.79006
| 15> H          7.49844       -2.97548        2.46878
| 16> H          2.82969       -1.66654        1.17238
| 17> H          2.27790       -2.85264        2.33072
| 18> H          3.76754       -3.11338        1.45548
| 19> *
| 20> %MaxCore 64000
| 21> %pal nprocs 8
| 22> end
| 23> %scf
| 24>   MaxIter 150
| 25> end
| 26>
| 27>
| 28>                          ****END OF INPUT****

CARTESIAN COORDINATES (ANGSTROEM)
---------------------------------
  C      3.913850   -1.658290    3.015130
  N      5.039270   -0.901150    2.492820
  C      6.210380   -1.417260    2.178240
  N      6.535910   -2.677120    2.556080
  N      7.076750   -0.700820    1.478910
  H      7.954640   -1.121550    1.207550
  H      6.756160    0.106640    0.960280
  H      4.842170    0.017610    2.115190
  H      5.993880   -3.126920    3.282780
  C      3.139160   -2.376570    1.910610
  H      3.267230   -0.939400    3.520690
  H      4.247200   -2.355090    3.790060
  H      7.498440   -2.975480    2.468780
  H      2.829690   -1.666540    1.172380
  H      2.277900   -2.852640    2.330720
  H      3.767540   -3.113380    1.455480

 Total Charge           Charge          ....    1
 Multiplicity           Mult            ....    1
 Number of Electrons    NEL             ....   48
 Basis Dimension        Dim             ....  200

ORBITAL ENERGIES
----------------

  NO   OCC          E(Eh)            E(eV)
   0   2.0000     -14.664559      -399.0429
   1   2.0000     -14.663073      -399.0025
   2   2.0000     -14.660461      -398.9314
   3   2.0000     -10.630853      -289.2802
   4   2.0000     -10.499490      -285.7056
   5   2.0000     -10.425373      -283.6888
   6   2.0000      -1.329937       -36.1894
   7   2.0000      -1.218034       -33.1444
   8   2.0000      -1.200423       -32.6652
   9   2.0000      -1.042234       -28.3606
  10   2.0000      -0.949304       -25.8319
  11   2.0000      -0.910031       -24.7632
  12   2.0000      -0.894100       -24.3297
  13   2.0000      -0.849318       -23.1111
  14   2.0000      -0.795062       -21.6347
  15   2.0000      -0.788010       -21.4428
  16   2.0000      -0.759354       -20.6631
  17   2.0000      -0.733709       -19.9652
  18   2.0000      -0.702826       -19.1249
  19   2.0000      -0.662144       -18.0179
  20   2.0000      -0.629054       -17.1174
  21   2.0000      -0.608468       -16.5572
  22   2.0000      -0.575200       -15.6520
  23   2.0000      -0.544716       -14.8225
  24   0.0000      -0.091201        -2.4817
  25   0.0000      -0.076312        -2.0766
  26   0.0000      -0.042727        -1.1627
  27   0.0000      -0.035892        -0.9767
  28   0.0000      -0.009861        -0.2683

MULLIKEN ATOMIC CHARGES
-----------------------
   0 C :    0.239076
   1 N :   -0.409766
   2 C :    1.378674
   3 N :   -0.049784
   4 N :   -0.122354
   5 H :    0.015306
   6 H :   -0.019548
   7 H :   -0.203642
   8 H :   -0.013511
   9 C :    0.573319
  10 H :   -0.227230
  11 H :   -0.055113
  12 H :   -0.122505
  13 H :   -0.013270
  14 H :    0.064248
  15 H :   -0.033899
Sum of atomic charges:    1.0000000

LOEWDIN ATOMIC CHARGES
----------------------
   0 C :    0.041157
   1 N :    0.035044
   2 C :   -0.022340
   3 N :    0.274025
   4 N :    0.254563
   5 H :    0.042425
   6 H :    0.044320
   7 H :    0.065461
   8 H :    0.015955
   9 C :    0.157586
  10 H :    0.043214
  11 H :    0.025585
  12 H :    0.037376
  13 H :   -0.004546
  14 H :    0.004225
  15 H :   -0.014050

  Mayer bond orders larger than 0.100000
B(  0-C ,  1-N ) :   0.9058 B(  0-C ,  7-H ) :  -0.1439 B(  0-C ,  9-C ) :   1.2340
B(  0-C , 10-H ) :   0.9281 B(  0-C , 11-H ) :   0.9097 B(  0-C , 13-H ) :   0.2080
B(  0-C , 14-H ) :   0.1433 B(  0-C , 15-H ) :   0.1740 B(  1-N ,  2-C ) :   1.0593
B(  1-N ,  3-N ) :   0.1874 B(  1-N ,  4-N ) :   0.2441 B(  1-N ,  7-H ) :   1.2961
B(  1-N , 10-H ) :   0.1785 B(  1-N , 11-H ) :   0.1197 B(  2-C ,  3-N ) :   0.9226
B(  2-C ,  4-N ) :   0.8415 B(  2-C ,  6-H ) :  -0.1442 B(  2-C ,  7-H ) :  -0.2357
B(  2-C , 12-H ) :  -0.1331 B(  3-N ,  4-N ) :   0.1348 B(  3-N ,  8-H ) :   1.0517
B(  3-N , 12-H ) :   1.2425 B(  4-N ,  5-H ) :   1.1224 B(  4-N ,  6-H ) :   1.1739
B(  5-H ,  6-H ) :  -0.1519 B(  8-H , 12-H ) :  -0.1809 B(  9-C , 13-H ) :   0.8235
B(  9-C , 14-H ) :   0.8173 B(  9-C , 15-H ) :   0.8609

Dispersion correction           -0.003823302
FINAL SINGLE POINT ENERGY      -284.139100921246

DIPOLE MOMENT
-------------
                                X             Y             Z
Electronic contribution:      4.70793       1.91070       0.07528
Nuclear contribution   :     -3.67981      -1.62355      -0.28562
                        -----------------------------------------
Total Dipole Moment    :      1.02812       0.28715      -0.21034
                        -----------------------------------------
Magnitude (a.u.)       :      1.08800
Magnitude (Debye)      :      2.76547

Rotational constants in cm-1:     0.222027     0.074735     0.065694
Rotational constants in MHz :  6656.200457  2240.503315  1969.451902

                             ****ORCA TERMINATED NORMALLY****
TOTAL RUN TIME: 0 days 0 hours 0 minutes 22 seconds 283 msec
