                         Program Version 5.0.0 -  RELEASE  -
|  1> !wB97X-D3 RIJCOSX def2-SVPD def2/J TightSCF
|  2> *xyz 0 1
|  3> C          3.91385       -1.65829        3.01513
|  4> C          5.03927       -0.90115        2.49282
|  5> C          6.21038       -1.41726        2.17824
|  6> N          6.53591       -2.67712        2.55608
|  7> N          7.07675       -0.70082        1.47891
|  8> H          7.95464       -1.12155        1.20755
|  9> H          6.75616        0.10664        0.96028
| 10> H          4.84217        0.01761        2.11519
| 11> H          5.99388       -3.12692        3.28278
| 12> C          3.13916       -2.37657        1.91061
| 13> H          3.26723       -0.93940        3.52069
| 14> H          4.24720       -2.35509        3.79006
| 15> H          7.49844       -2.97548        2.46878
| 16> H          2.82969       -1.66654        1.17238
| 17> H          2.27790       -2.85264        2.33072
| 18> H          3.76754       -3.11338        1.45548
| 19> *
| 20> %MaxCore 64000
| 21> %pal nprocs 8
| 22> end
| 23> %scf
| 24>   MaxIter 150
| 25> end
| 26>
| 27>
| 28>                          ****END OF INPUT****

CARTESIAN COORDINATES (ANGSTROEM)
---------------------------------
  C      3.913850   -1.658290    3.015130
  C      5.039270   -0.901150    2.492820
  C      6.210380   -1.417260    2.178240
  N      6.535910   -2.677120    2.556080
  N      7.076750   -0.700820    1.478910
  H      7.954640   -1.121550    1.207550
  H      6.756160    0.106640    0.960280
  H      4.842170    0.017610    2.115190
  H      5.993880   -3.126920    3.282780
  C      3.139160   -2.376570    1.910610
  H      3.267230   -0.939400    3.520690
  H      4.247200   -2.355090    3.790060
  H      7.498440   -2.975480    2.468780
  H      2.829690   -1.666540    1.172380
  H      2.277900   -2.852640    2.330720
  H      3.767540   -3.113380    1.455480

 Total Charge           Charge          ....    0
 Multiplicity           Mult            ....    1
 Number of Electrons    NEL             ....   48
 Basis Dimension        Dim             ....  200

ORBITAL ENERGIES
----------------

  NO   OCC          E(Eh)            E(eV)
   0   2.0000     -14.438510      -392.8918
   1   2.0000     -14.436495      -392.8370
   2   2.0000     -10.333316      -281.1838
   3   2.0000     -10.265014      -279.3252
   4   2.0000     -10.253552      -279.0133
   5   2.0000     -10.209935      -277.8264
   6   2.0000      -1.070458       -29.1286
   7   2.0000      -0.977190       -26.5907
   8   2.0000      -0.885056       -24.0836
   9   2.0000      -0.802129       -21.8270
  10   2.0000      -0.722639       -19.6640
  11   2.0000      -0.682034       -18.5591
  12   2.0000      -0.644375       -17.5343
  13   2.0000      -0.612970       -16.6797
  14   2.0000      -0.572943       -15.5906
  15   2.0000      -0.538667       -14.6579
  16   2.0000      -0.520590       -14.1660
  17   2.0000      -0.489127       -13.3098
  18   2.0000      -0.480583       -13.0773
  19   2.0000      -0.451607       -12.2889
  20   2.0000      -0.423002       -11.5105
  21   2.0000      -0.413136       -11.2420
  22   2.0000      -0.362943        -9.8762
  23   2.0000      -0.247945        -6.7469
  24   0.0000       0.088357         2.4043
  25   0.0000       0.114129         3.1056
  26   0.0000       0.120659         3.2833
  27   0.0000       0.131845         3.5877
  28   0.0000       0.151961         4.1351

MULLIKEN ATOMIC CHARGES
-----------------------
   0 C :   -0.210723
   1 C :   -0.383002
   2 C :    0.934822
   3 N :   -0.085054
   4 N :   -0.063595
   5 H :   -0.116689
   6 H :   -0.026649
   7 H :   -0.206247
   8 H :   -0.012574
   9 C :    0.625408
  10 H :   -0.056815
  11 H :   -0.076099
  12 H :   -0.243206
  13 H :   -0.032595
  14 H :    0.006926
  15 H :   -0.053909
Sum of atomic charges:    0.0000000

LOEWDIN ATOMIC CHARGES
----------------------
   0 C :   -0.103142
   1 C :   -0.046255
   2 C :   -0.218874
   3 N :    0.195252
   4 N :    0.169179
   5 H :   -0.006666
   6 H :    0.010566
   7 H :   -0.044106
   8 H :   -0.014330
   9 C :    0.117722
  10 H :    0.015373
  11 H :    0.002256
  12 H :   -0.011014
  13 H :   -0.017166
  14 H :   -0.025344
  15 H :   -0.023450

  Mayer bond orders larger than 0.100000
B(  0-C ,  1-C ) :   1.2962 B(  0-C ,  7-H ) :   0.2934 B(  0-C ,  9-C ) :   1.1955
B(  0-C , 10-H ) :   0.8243 B(  0-C , 11-H ) :   0.8947 B(  0-C , 13-H ) :   0.2167
B(  0-C , 14-H ) :   0.1596 B(  0-C , 15-H ) :   0.1874 B(  1-C ,  2-C ) :   1.7514
B(  1-C ,  3-N ) :   0.1986 B(  1-C ,  4-N ) :   0.3310 B(  1-C ,  7-H ) :   0.8368
B(  1-C , 10-H ) :   0.2660 B(  1-C , 11-H ) :   0.2094 B(  2-C ,  3-N ) :   0.8590
B(  2-C ,  4-N ) :   0.7863 B(  2-C ,  7-H ) :   0.2037 B(  2-C , 12-H ) :  -0.1543
B(  3-N ,  4-N ) :   0.1002 B(  3-N ,  8-H ) :   1.0120 B(  3-N , 12-H ) :   1.3023
B(  4-N ,  5-H ) :   1.1366 B(  4-N ,  6-H ) :   1.1465 B(  5-H ,  6-H ) :  -0.1470
B(  8-H , 12-H ) :  -0.1766 B(  9-C , 13-H ) :   0.8350 B(  9-C , 14-H ) :   0.8102
B(  9-C , 15-H ) :   0.8536

Dispersion correction           -0.003816138
FINAL SINGLE POINT ENERGY      -267.669937118436

DIPOLE MOMENT
-------------
                                X             Y             Z
Electronic contribution:      4.59611       1.22618      -0.03559
Nuclear contribution   :     -3.74303      -1.46908      -0.23637
                        -----------------------------------------
Total Dipole Moment    :      0.85308      -0.24290      -0.27196
                        -----------------------------------------
Magnitude (a.u.)       :      0.92774
Magnitude (Debye)      :      2.35814

Rotational constants in cm-1:     0.225937     0.074877     0.065953
Rotational constants in MHz :  6773.424301  2244.750632  1977.214101

                             ****ORCA TERMINATED NORMALLY****
TOTAL RUN TIME: 0 days 0 hours 0 minutes 22 seconds 712 msec
