                         Program Version 5.0.0 -  RELEASE  -
|  1> !wB97X-D3 RIJCOSX def2-SVPD def2/J TightSCF
|  2> *xyz 0 1
|  3> C          4.08422        1.74208       -2.11472
|  4> C          4.26524        2.50052       -0.79589
|  5> H          4.86853        3.39267       -0.98113
|  6> H          3.30764        2.82457       -0.38781
|  7> C          4.98224        1.65026        0.24742
|  8> O          4.36806        1.38927        1.31371
|  9> F          6.12892        1.23351       -0.04562
| 10> H          3.57911        2.36849       -2.81997
| 11> H          3.50424        0.85965       -1.94198
| 12> H          5.04288        1.46841       -2.50327
| 13> *
| 14> %MaxCore 64000
| 15> %pal nprocs 8
| 16> end
| 17> %scf
| 18>   MaxIter 150
| 19> end
| 20>
| 21>
| 22>                          ****END OF INPUT****

CARTESIAN COORDINATES (ANGSTROEM)
---------------------------------
  C      4.084220    1.742080   -2.114720
  C      4.265240    2.500520   -0.795890
  H      4.868530    3.392670   -0.981130
  H      3.307640    2.824570   -0.387810
  C      4.982240    1.650260    0.247420
  O      4.368060    1.389270    1.313710
  F      6.128920    1.233510   -0.045620
  H      3.579110    2.368490   -2.819970
  H      3.504240    0.859650   -1.941980
  H      5.042880    1.468410   -2.503270

 Total Charge           Charge          ....    0
 Multiplicity           Mult            ....    1
 Number of Electrons    NEL             ....   40
 Basis Dimension        Dim             ....  146

ORBITAL ENERGIES
----------------

  NO   OCC          E(Eh)            E(eV)
   0   2.0000     -24.876254      -676.9173
   1   2.0000     -19.255031      -523.9560
   2   2.0000     -10.475195      -285.0445
   3   2.0000     -10.324216      -280.9362
   4   2.0000     -10.302006      -280.3318
   5   2.0000      -1.426633       -38.8207
   6   2.0000      -1.140446       -31.0331
   7   2.0000      -0.918802       -25.0019
   8   2.0000      -0.796722       -21.6799
   9   2.0000      -0.753954       -20.5161
  10   2.0000      -0.662193       -18.0192
  11   2.0000      -0.649759       -17.6808
  12   2.0000      -0.607324       -16.5261
  13   2.0000      -0.569448       -15.4955
  14   2.0000      -0.538589       -14.6558
  15   2.0000      -0.504526       -13.7289
  16   2.0000      -0.484419       -13.1817
  17   2.0000      -0.475231       -12.9317
  18   2.0000      -0.449957       -12.2440
  19   2.0000      -0.389396       -10.5960
  20   0.0000       0.052287         1.4228
  21   0.0000       0.084352         2.2953
  22   0.0000       0.115262         3.1364
  23   0.0000       0.124214         3.3800
  24   0.0000       0.149209         4.0602

MULLIKEN ATOMIC CHARGES
-----------------------
   0 C :    0.463084
   1 C :   -0.378383
   2 H :    0.078129
   3 H :   -0.005564
   4 C :    0.785407
   5 O :   -0.492227
   6 F :   -0.396954
   7 H :   -0.011021
   8 H :   -0.030666
   9 H :   -0.011805
Sum of atomic charges:   -0.0000000

LOEWDIN ATOMIC CHARGES
----------------------
   0 C :    0.133550
   1 C :    0.005705
   2 H :    0.036714
   3 H :    0.035272
   4 C :   -0.005287
   5 O :   -0.143165
   6 F :   -0.035254
   7 H :   -0.010338
   8 H :   -0.005340
   9 H :   -0.011856

  Mayer bond orders larger than 0.100000
B(  0-C ,  1-C ) :   1.2588 B(  0-C ,  7-H ) :   0.8769 B(  0-C ,  8-H ) :   0.8894
B(  0-C ,  9-H ) :   0.8457 B(  1-C ,  2-H ) :   0.8902 B(  1-C ,  3-H ) :   1.0082
B(  1-C ,  4-C ) :   1.0623 B(  1-C ,  7-H ) :   0.1304 B(  1-C ,  8-H ) :   0.1353
B(  1-C ,  9-H ) :   0.1478 B(  3-H ,  4-C ) :   0.1228 B(  4-C ,  5-O ) :   1.8287
B(  4-C ,  6-F ) :   0.7319

Dispersion correction           -0.001919580
FINAL SINGLE POINT ENERGY      -292.115967098064

DIPOLE MOMENT
-------------
                                X             Y             Z
Electronic contribution:      4.84311      -2.27659       5.81895
Nuclear contribution   :     -4.79499       2.78546      -7.01827
                        -----------------------------------------
Total Dipole Moment    :      0.04812       0.50887      -1.19933
                        -----------------------------------------
Magnitude (a.u.)       :      1.30371
Magnitude (Debye)      :      3.31376

Rotational constants in cm-1:     0.286098     0.133492     0.103343
Rotational constants in MHz :  8577.003657  4001.981591  3098.148068

                             ****ORCA TERMINATED NORMALLY****
TOTAL RUN TIME: 0 days 0 hours 0 minutes 12 seconds 231 msec
