                         Program Version 5.0.0 -  RELEASE  -
|  1> !wB97X-D3 RIJCOSX def2-SVPD def2/J TightSCF xyzfile
|  2>
|  3> *xyzfile 0 1 D2.xyz
|  4>
|  5> %MaxCore 64000
|  6>
|  7> %pal nprocs 18
|  8> end
|  9>
| 10> %scf
| 11>   MaxIter 150
| 12> end
| 13>
| 14>
| 15>                          ****END OF INPUT****

CARTESIAN COORDINATES (ANGSTROEM)
---------------------------------
  C      3.913853   -1.658291    3.015134
  N      5.039266   -0.901154    2.492821
  C      4.084215    1.742081   -2.114724
  C      4.265245    2.500518   -0.795890
  H      4.868534    3.392674   -0.981134
  H      3.307640    2.824571   -0.387809
  C      4.982240    1.650257    0.247422
  C      6.210384   -1.417261    2.178244
  C      6.535913   -2.677122    2.556078
  N      7.076754   -0.700820    1.478906
  H      7.954643   -1.121554    1.207554
  H      6.756161    0.106637    0.960278
  H      4.842168    0.017609    2.115191
  H      5.993876   -3.126918    3.282784
  H      7.498441   -2.975482    2.468776
  F      4.368065    1.389270    1.313706
  O      6.128919    1.233512   -0.045620
  C      3.139159   -2.376572    1.910609
  H      3.267235   -0.939401    3.520693
  H      4.247195   -2.355095    3.790065
  C      1.997274    0.430918   -1.399218
  C      3.412746    0.376886   -1.965497
  H      4.047407   -0.246590   -1.326706
  H      3.390774   -0.118719   -2.942839
  H      5.068475    1.598504   -2.565728
  H      3.503356    2.363939   -2.804565
  C      2.399946   -1.389579    1.009490
  H      2.440750   -3.087118    2.362976
  H      3.844475   -2.970462    1.318677
  C      2.070177   -1.936705   -0.372401
  H      1.481611   -1.061542    1.509912
  H      3.008628   -0.490001    0.897451
  C      1.322238   -0.935775   -1.256413
  H      1.472747   -2.850902   -0.283997
  H      3.003539   -2.234041   -0.862535
  H      1.376444    1.058920   -2.047420
  H      2.015341    0.929780   -0.426535
  H      0.316648   -0.787213   -0.848278
  H      1.185611   -1.379252   -2.248613

 Total Charge           Charge          ....    0
 Multiplicity           Mult            ....    1
 Number of Electrons    NEL             ....  126
 Basis Dimension        Dim             ....  510

ORBITAL ENERGIES
----------------

  NO   OCC          E(Eh)            E(eV)
   0   2.0000     -24.917600      -678.0424
   1   2.0000     -19.292932      -524.9874
   2   2.0000     -14.417974      -392.3330
   3   2.0000     -14.396724      -391.7548
   4   2.0000     -10.512539      -286.0607
   5   2.0000     -10.341554      -281.4080
   6   2.0000     -10.319144      -280.7982
   7   2.0000     -10.317161      -280.7442
   8   2.0000     -10.310383      -280.5598
   9   2.0000     -10.303085      -280.3612
  10   2.0000     -10.298107      -280.2258
  11   2.0000     -10.291301      -280.0405
  12   2.0000     -10.285015      -279.8695
  13   2.0000     -10.283658      -279.8326
  14   2.0000     -10.274392      -279.5804
  15   2.0000     -10.178422      -276.9689
  16   2.0000      -1.468721       -39.9659
  17   2.0000      -1.186123       -32.2760
  18   2.0000      -1.061465       -28.8839
  19   2.0000      -0.973628       -26.4938
  20   2.0000      -0.956673       -26.0324
  21   2.0000      -0.924795       -25.1650
  22   2.0000      -0.889145       -24.1949
  23   2.0000      -0.854904       -23.2631
  24   2.0000      -0.826003       -22.4767
  25   2.0000      -0.802368       -21.8335
  26   2.0000      -0.788653       -21.4603
  27   2.0000      -0.764158       -20.7938
  28   2.0000      -0.728824       -19.8323
  29   2.0000      -0.707830       -19.2610
  30   2.0000      -0.699021       -19.0213
  31   2.0000      -0.687897       -18.7186
  32   2.0000      -0.674597       -18.3567
  33   2.0000      -0.656306       -17.8590
  34   2.0000      -0.638542       -17.3756
  35   2.0000      -0.617870       -16.8131
  36   2.0000      -0.601966       -16.3803
  37   2.0000      -0.592888       -16.1333
  38   2.0000      -0.591484       -16.0951
  39   2.0000      -0.571849       -15.5608
  40   2.0000      -0.557108       -15.1597
  41   2.0000      -0.549875       -14.9628
  42   2.0000      -0.536317       -14.5939
  43   2.0000      -0.530630       -14.4392
  44   2.0000      -0.519858       -14.1460
  45   2.0000      -0.509612       -13.8672
  46   2.0000      -0.503406       -13.6984
  47   2.0000      -0.491019       -13.3613
  48   2.0000      -0.480507       -13.0753
  49   2.0000      -0.475354       -12.9350
  50   2.0000      -0.468215       -12.7408
  51   2.0000      -0.459922       -12.5151
  52   2.0000      -0.456453       -12.4207
  53   2.0000      -0.446931       -12.1616
  54   2.0000      -0.440608       -11.9896
  55   2.0000      -0.434116       -11.8129
  56   2.0000      -0.423887       -11.5346
  57   2.0000      -0.412821       -11.2334
  58   2.0000      -0.412400       -11.2220
  59   2.0000      -0.410245       -11.1633
  60   2.0000      -0.405073       -11.0226
  61   2.0000      -0.321020        -8.7354
  62   2.0000      -0.230926        -6.2838
  63   0.0000       0.014979         0.4076
  64   0.0000       0.074400         2.0245
  65   0.0000       0.092844         2.5264
  66   0.0000       0.095131         2.5887
  67   0.0000       0.100634         2.7384

MULLIKEN ATOMIC CHARGES
-----------------------
   0 C :    1.122190
   1 N :    0.298114
   2 C :    0.365948
   3 C :    0.200852
   4 H :   -0.059065
   5 H :    0.185263
   6 C :    0.572573
   7 C :    0.645768
   8 C :    0.602984
   9 N :    0.406204
  10 H :   -0.065408
  11 H :   -0.559743
  12 H :   -1.185505
  13 H :   -0.086815
  14 H :   -0.632569
  15 F :   -0.514285
  16 O :   -0.470134
  17 C :    0.296607
  18 H :   -0.331534
  19 H :   -0.110257
  20 C :   -0.102392
  21 C :   -0.135968
  22 H :   -0.028467
  23 H :   -0.137592
  24 H :    0.041529
  25 H :   -0.080361
  26 C :    0.558223
  27 H :   -0.112110
  28 H :   -0.025409
  29 C :   -0.008584
  30 H :   -0.017566
  31 H :   -0.866924
  32 C :    0.661030
  33 H :   -0.361449
  34 H :    0.123187
  35 H :   -0.369389
  36 H :    0.148226
  37 H :    0.023846
  38 H :    0.008982
Sum of atomic charges:    0.0000000

LOEWDIN ATOMIC CHARGES
----------------------
   0 C :    0.065478
   1 N :    0.003366
   2 C :   -0.010300
   3 C :    0.060263
   4 H :    0.047003
   5 H :    0.025714
   6 C :    0.063617
   7 C :   -0.215367
   8 C :    0.143162
   9 N :    0.208559
  10 H :    0.012874
  11 H :   -0.129794
  12 H :   -0.059214
  13 H :   -0.125683
  14 H :   -0.109663
  15 F :   -0.028511
  16 O :   -0.100379
  17 C :   -0.012614
  18 H :    0.024104
  19 H :    0.013757
  20 C :   -0.037284
  21 C :   -0.026960
  22 H :    0.015366
  23 H :    0.035715
  24 H :    0.031910
  25 H :    0.032546
  26 C :   -0.039675
  27 H :    0.025514
  28 H :    0.020774
  29 C :   -0.037260
  30 H :    0.034927
  31 H :   -0.028052
  32 C :   -0.031157
  33 H :    0.027982
  34 H :    0.021550
  35 H :    0.026891
  36 H :    0.002513
  37 H :    0.024487
  38 H :    0.023842

  Mayer bond orders larger than 0.100000
B(  0-C ,  1-N ) :   0.9194 B(  0-C , 12-H ) :  -0.4952 B(  0-C , 17-C ) :   1.0464
B(  0-C , 18-H ) :   0.7216 B(  0-C , 19-H ) :   0.7749 B(  0-C , 26-C ) :   0.1159
B(  1-N ,  7-C ) :   0.9123 B(  1-N ,  8-C ) :   0.3987 B(  1-N , 12-H ) :   0.7694
B(  1-N , 18-H ) :   0.2039 B(  2-C ,  3-C ) :   1.1625 B(  2-C ,  4-H ) :   0.1673
B(  2-C , 21-C ) :   1.2448 B(  2-C , 24-H ) :   0.7108 B(  2-C , 25-H ) :   0.8410
B(  3-C ,  4-H ) :   0.6911 B(  3-C ,  5-H ) :   0.7690 B(  3-C ,  6-C ) :   1.2412
B(  3-C , 24-H ) :   0.1019 B(  3-C , 25-H ) :   0.1349 B(  4-H ,  6-C ) :   0.2581
B(  5-H ,  6-C ) :   0.1698 B(  6-C , 15-F ) :   0.6576 B(  6-C , 16-O ) :   1.6720
B(  7-C ,  8-C ) :   1.6777 B(  7-C ,  9-N ) :   0.9057 B(  7-C , 11-H ) :  -0.1328
B(  7-C , 12-H ) :  -0.5399 B(  7-C , 13-H ) :   0.3541 B(  7-C , 14-H ) :   0.3488
B(  8-C ,  9-N ) :   0.2401 B(  8-C , 13-H ) :   0.5970 B(  8-C , 14-H ) :   0.6085
B(  9-N , 10-H ) :   1.1288 B(  9-N , 11-H ) :   1.0304 B( 10-H , 11-H ) :  -0.2508
B( 11-H , 12-H ) :   0.1088 B( 11-H , 16-O ) :   0.1168 B( 12-H , 15-F ) :   0.2900
B( 12-H , 18-H ) :   0.1307 B( 13-H , 19-H ) :   0.1392 B( 17-C , 19-H ) :   0.1375
B( 17-C , 26-C ) :   1.1083 B( 17-C , 27-H ) :   0.9248 B( 17-C , 28-H ) :   0.9230
B( 17-C , 30-H ) :   0.1234 B( 18-H , 19-H ) :  -0.2388 B( 20-C , 21-C ) :   1.1904
B( 20-C , 23-H ) :   0.1506 B( 20-C , 32-C ) :   1.1548 B( 20-C , 35-H ) :   1.0396
B( 20-C , 36-H ) :   0.8273 B( 20-C , 37-H ) :   0.2612 B( 20-C , 38-H ) :   0.1368
B( 21-C , 22-H ) :   0.9517 B( 21-C , 23-H ) :   0.8981 B( 21-C , 24-H ) :   0.2224
B( 21-C , 25-H ) :   0.1745 B( 21-C , 35-H ) :   0.1198 B( 24-H , 25-H ) :  -0.1073
B( 26-C , 27-H ) :   0.1504 B( 26-C , 29-C ) :   1.2301 B( 26-C , 30-H ) :   0.6411
B( 26-C , 31-H ) :   0.3768 B( 26-C , 33-H ) :   0.1029 B( 26-C , 34-H ) :   0.1444
B( 27-H , 31-H ) :   0.1056 B( 29-C , 31-H ) :   0.1228 B( 29-C , 32-C ) :   1.1050
B( 29-C , 33-H ) :   1.0535 B( 29-C , 34-H ) :   0.8390 B( 29-C , 37-H ) :   0.1124
B( 29-C , 38-H ) :   0.2155 B( 30-H , 31-H ) :   0.2936 B( 31-H , 36-H ) :   0.1060
B( 32-C , 37-H ) :   0.6820 B( 32-C , 38-H ) :   0.7114

Dispersion correction           -0.020061608
FINAL SINGLE POINT ENERGY      -754.971374101403

DIPOLE MOMENT
-------------
                                X             Y             Z
Electronic contribution:      9.71841      10.57571       5.51448
Nuclear contribution   :    -11.22009      -8.67117      -6.77523
                        -----------------------------------------
Total Dipole Moment    :     -1.50168       1.90455      -1.26075
                        -----------------------------------------
Magnitude (a.u.)       :      2.73346
Magnitude (Debye)      :      6.94791

Rotational constants in cm-1:     0.020086     0.013778     0.009581
Rotational constants in MHz :   602.172053   413.051122   287.243919

                             ****ORCA TERMINATED NORMALLY****
TOTAL RUN TIME: 0 days 0 hours 2 minutes 56 seconds 938 msec
