                         Program Version 5.0.0 -  RELEASE  -
|  1> !wB97X-D3 RIJCOSX def2-SVPD def2/J TightSCF xyzfile
|  2>
|  3> *xyzfile 0 1 D3.xyz
|  4>
|  5> %MaxCore 64000
|  6>
|  7> %pal nprocs 18
|  8> end
|  9>
| 10> %scf
| 11>   MaxIter 150
| 12> end
| 13>
| 14>
| 15>                          ****END OF INPUT****

CARTESIAN COORDINATES (ANGSTROEM)
---------------------------------
  C      3.913853   -1.658291    3.015134
  N      5.039266   -0.901154    2.492821
  C      4.084215    1.742081   -2.114724
  C      4.265245    2.500518   -0.795890
  H      4.868534    3.392674   -0.981134
  H      3.307640    2.824571   -0.387809
  C      4.982240    1.650257    0.247422
  C      6.210384   -1.417261    2.178244
  N      6.535913   -2.677122    2.556078
  C      7.076754   -0.700820    1.478906
  H      7.954643   -1.121554    1.207554
  H      6.756161    0.106637    0.960278
  H      4.842168    0.017609    2.115191
  H      5.993876   -3.126918    3.282784
  H      7.498441   -2.975482    2.468776
  F      4.368065    1.389270    1.313706
  O      6.128919    1.233512   -0.045620
  C      3.139159   -2.376572    1.910609
  H      3.267235   -0.939401    3.520693
  H      4.247195   -2.355095    3.790065
  C      1.997274    0.430918   -1.399218
  C      3.412746    0.376886   -1.965497
  H      4.047407   -0.246590   -1.326706
  H      3.390774   -0.118719   -2.942839
  H      5.068475    1.598504   -2.565728
  H      3.503356    2.363939   -2.804565
  C      2.399946   -1.389579    1.009490
  H      2.440750   -3.087118    2.362976
  H      3.844475   -2.970462    1.318677
  C      2.070177   -1.936705   -0.372401
  H      1.481611   -1.061542    1.509912
  H      3.008628   -0.490001    0.897451
  C      1.322238   -0.935775   -1.256413
  H      1.472747   -2.850902   -0.283997
  H      3.003539   -2.234041   -0.862535
  H      1.376444    1.058920   -2.047420
  H      2.015341    0.929780   -0.426535
  H      0.316648   -0.787213   -0.848278
  H      1.185611   -1.379252   -2.248613

 Total Charge           Charge          ....    0
 Multiplicity           Mult            ....    1
 Number of Electrons    NEL             ....  126
 Basis Dimension        Dim             ....  510

ORBITAL ENERGIES
----------------

  NO   OCC          E(Eh)            E(eV)
   0   2.0000     -24.899312      -677.5447
   1   2.0000     -19.263205      -524.1785
   2   2.0000     -14.419021      -392.3615
   3   2.0000     -14.413588      -392.2137
   4   2.0000     -10.487974      -285.3923
   5   2.0000     -10.327079      -281.0141
   6   2.0000     -10.318217      -280.7730
   7   2.0000     -10.312636      -280.6211
   8   2.0000     -10.308031      -280.4958
   9   2.0000     -10.294854      -280.1372
  10   2.0000     -10.292738      -280.0796
  11   2.0000     -10.288904      -279.9753
  12   2.0000     -10.285199      -279.8745
  13   2.0000     -10.284874      -279.8657
  14   2.0000     -10.280889      -279.7572
  15   2.0000     -10.161104      -276.4977
  16   2.0000      -1.450365       -39.4664
  17   2.0000      -1.158165       -31.5153
  18   2.0000      -1.060524       -28.8583
  19   2.0000      -0.974169       -26.5085
  20   2.0000      -0.947013       -25.7695
  21   2.0000      -0.920423       -25.0460
  22   2.0000      -0.890118       -24.2213
  23   2.0000      -0.851822       -23.1792
  24   2.0000      -0.825630       -22.4665
  25   2.0000      -0.800300       -21.7773
  26   2.0000      -0.775706       -21.1080
  27   2.0000      -0.752132       -20.4666
  28   2.0000      -0.717731       -19.5305
  29   2.0000      -0.707702       -19.2576
  30   2.0000      -0.688760       -18.7421
  31   2.0000      -0.680322       -18.5125
  32   2.0000      -0.668954       -18.2032
  33   2.0000      -0.653326       -17.7779
  34   2.0000      -0.635167       -17.2838
  35   2.0000      -0.613000       -16.6806
  36   2.0000      -0.594502       -16.1772
  37   2.0000      -0.586923       -15.9710
  38   2.0000      -0.576103       -15.6766
  39   2.0000      -0.564530       -15.3616
  40   2.0000      -0.559053       -15.2126
  41   2.0000      -0.544191       -14.8082
  42   2.0000      -0.533697       -14.5226
  43   2.0000      -0.529758       -14.4155
  44   2.0000      -0.518503       -14.1092
  45   2.0000      -0.501085       -13.6352
  46   2.0000      -0.496784       -13.5182
  47   2.0000      -0.487200       -13.2574
  48   2.0000      -0.475109       -12.9284
  49   2.0000      -0.467959       -12.7338
  50   2.0000      -0.463953       -12.6248
  51   2.0000      -0.461465       -12.5571
  52   2.0000      -0.452494       -12.3130
  53   2.0000      -0.445166       -12.1136
  54   2.0000      -0.438889       -11.9428
  55   2.0000      -0.430989       -11.7278
  56   2.0000      -0.423693       -11.5293
  57   2.0000      -0.411737       -11.2039
  58   2.0000      -0.409508       -11.1433
  59   2.0000      -0.406090       -11.0503
  60   2.0000      -0.366628        -9.9765
  61   2.0000      -0.332777        -9.0553
  62   2.0000      -0.226746        -6.1701
  63   0.0000       0.036086         0.9820
  64   0.0000       0.082892         2.2556
  65   0.0000       0.095955         2.6111
  66   0.0000       0.097510         2.6534
  67   0.0000       0.101561         2.7636

MULLIKEN ATOMIC CHARGES
-----------------------
   0 C :    1.176505
   1 N :    0.216292
   2 C :    0.371343
   3 C :    0.236540
   4 H :   -0.066081
   5 H :    0.182291
   6 C :    0.508803
   7 C :    0.802058
   8 N :    0.074584
   9 C :    0.899913
  10 H :   -0.363181
  11 H :   -0.816869
  12 H :   -1.049195
  13 H :   -0.098546
  14 H :   -0.164332
  15 F :   -0.488746
  16 O :   -0.466182
  17 C :    0.268275
  18 H :   -0.306263
  19 H :   -0.227887
  20 C :   -0.103507
  21 C :   -0.147197
  22 H :   -0.022278
  23 H :   -0.135959
  24 H :    0.039277
  25 H :   -0.082401
  26 C :    0.560531
  27 H :   -0.143819
  28 H :   -0.008074
  29 C :   -0.007886
  30 H :    0.003416
  31 H :   -0.880387
  32 C :    0.663792
  33 H :   -0.361517
  34 H :    0.118797
  35 H :   -0.371045
  36 H :    0.156695
  37 H :    0.023864
  38 H :    0.008378
Sum of atomic charges:    0.0000000

LOEWDIN ATOMIC CHARGES
----------------------
   0 C :    0.057318
   1 N :    0.001730
   2 C :   -0.011583
   3 C :    0.056631
   4 H :    0.044859
   5 H :    0.022315
   6 C :    0.059986
   7 C :   -0.214019
   8 N :    0.189859
   9 C :    0.167399
  10 H :   -0.092743
  11 H :   -0.196043
  12 H :   -0.050587
  13 H :   -0.033207
  14 H :    0.002665
  15 F :   -0.032822
  16 O :   -0.107455
  17 C :   -0.019690
  18 H :    0.024764
  19 H :    0.006535
  20 C :   -0.037416
  21 C :   -0.027060
  22 H :    0.016343
  23 H :    0.034402
  24 H :    0.031984
  25 H :    0.030495
  26 C :   -0.037058
  27 H :    0.022964
  28 H :    0.022350
  29 C :   -0.037779
  30 H :    0.035974
  31 H :   -0.024759
  32 C :   -0.031548
  33 H :    0.026705
  34 H :    0.021587
  35 H :    0.026580
  36 H :    0.002787
  37 H :    0.023855
  38 H :    0.023682

  Mayer bond orders larger than 0.100000
B(  0-C ,  1-N ) :   0.9116 B(  0-C , 12-H ) :  -0.4605 B(  0-C , 17-C ) :   1.0484
B(  0-C , 18-H ) :   0.6466 B(  0-C , 19-H ) :   0.7988 B(  0-C , 26-C ) :   0.1166
B(  1-N ,  7-C ) :   1.1017 B(  1-N ,  8-N ) :   0.1737 B(  1-N ,  9-C ) :   0.1293
B(  1-N , 12-H ) :   0.9111 B(  1-N , 18-H ) :   0.2010 B(  2-C ,  3-C ) :   1.1572
B(  2-C ,  4-H ) :   0.1636 B(  2-C , 21-C ) :   1.2501 B(  2-C , 24-H ) :   0.7094
B(  2-C , 25-H ) :   0.8331 B(  3-C ,  4-H ) :   0.6820 B(  3-C ,  5-H ) :   0.7613
B(  3-C ,  6-C ) :   1.2363 B(  3-C , 24-H ) :   0.1076 B(  3-C , 25-H ) :   0.1381
B(  4-H ,  6-C ) :   0.2712 B(  5-H ,  6-C ) :   0.1679 B(  6-C , 15-F ) :   0.6384
B(  6-C , 16-O ) :   1.7803 B(  7-C ,  8-N ) :   0.7975 B(  7-C ,  9-C ) :   1.6329
B(  7-C , 10-H ) :   0.2558 B(  7-C , 12-H ) :  -0.6132 B(  8-N ,  9-C ) :   0.2653
B(  8-N , 13-H ) :   0.9954 B(  8-N , 14-H ) :   1.2109 B(  8-N , 19-H ) :   0.1011
B(  9-C , 10-H ) :   0.5243 B(  9-C , 11-H ) :   0.3930 B( 10-H , 11-H ) :   0.2490
B( 12-H , 15-F ) :   0.1962 B( 12-H , 18-H ) :   0.1599 B( 13-H , 14-H ) :  -0.1817
B( 17-C , 19-H ) :   0.1582 B( 17-C , 26-C ) :   1.0932 B( 17-C , 27-H ) :   0.9396
B( 17-C , 28-H ) :   0.8844 B( 17-C , 30-H ) :   0.1283 B( 18-H , 19-H ) :  -0.2061
B( 20-C , 21-C ) :   1.1915 B( 20-C , 23-H ) :   0.1518 B( 20-C , 32-C ) :   1.1514
B( 20-C , 35-H ) :   1.0392 B( 20-C , 36-H ) :   0.8265 B( 20-C , 37-H ) :   0.2603
B( 20-C , 38-H ) :   0.1367 B( 21-C , 22-H ) :   0.9544 B( 21-C , 23-H ) :   0.8889
B( 21-C , 24-H ) :   0.2211 B( 21-C , 25-H ) :   0.1754 B( 21-C , 35-H ) :   0.1217
B( 24-H , 25-H ) :  -0.1075 B( 26-C , 27-H ) :   0.1551 B( 26-C , 29-C ) :   1.2303
B( 26-C , 30-H ) :   0.6571 B( 26-C , 31-H ) :   0.3713 B( 26-C , 33-H ) :   0.1056
B( 26-C , 34-H ) :   0.1472 B( 27-H , 31-H ) :   0.1020 B( 29-C , 31-H ) :   0.1253
B( 29-C , 32-C ) :   1.1032 B( 29-C , 33-H ) :   1.0499 B( 29-C , 34-H ) :   0.8381
B( 29-C , 37-H ) :   0.1121 B( 29-C , 38-H ) :   0.2137 B( 30-H , 31-H ) :   0.2503
B( 31-H , 36-H ) :   0.1022 B( 32-C , 37-H ) :   0.6826 B( 32-C , 38-H ) :   0.7133

Dispersion correction           -0.020075480
FINAL SINGLE POINT ENERGY      -754.950321322480

DIPOLE MOMENT
-------------
                                X             Y             Z
Electronic contribution:      9.42828       8.69150       6.68643
Nuclear contribution   :    -11.12616      -8.32792      -6.96231
                        -----------------------------------------
Total Dipole Moment    :     -1.69787       0.36358      -0.27588
                        -----------------------------------------
Magnitude (a.u.)       :      1.75814
Magnitude (Debye)      :      4.46884

Rotational constants in cm-1:     0.020226     0.013574     0.009520
Rotational constants in MHz :   606.360011   406.923773   285.390769

                             ****ORCA TERMINATED NORMALLY****
TOTAL RUN TIME: 0 days 0 hours 1 minutes 55 seconds 202 msec
