                         Program Version 5.0.0 -  RELEASE  -
|  1> !wB97X-D3 RIJCOSX def2-SVPD def2/J TightSCF xyzfile
|  2>
|  3> *xyzfile 0 1 D6.xyz
|  4>
|  5> %MaxCore 64000
|  6>
|  7> %pal nprocs 18
|  8> end
|  9>
| 10> %scf
| 11>   MaxIter 150
| 12> end
| 13>
| 14>
| 15>                          ****END OF INPUT****

CARTESIAN COORDINATES (ANGSTROEM)
---------------------------------
  C      3.913853   -1.658291    3.015134
  N      5.039266   -0.901154    2.492821
  C      4.084215    1.742081   -2.114724
  C      4.265245    2.500518   -0.795890
  H      4.868534    3.392674   -0.981134
  H      3.307640    2.824571   -0.387809
  C      4.982240    1.650257    0.247422
  C      6.210384   -1.417261    2.178244
  N      6.535913   -2.677122    2.556078
  C      7.076754   -0.700820    1.478906
  H      7.954643   -1.121554    1.207554
  H      6.756161    0.106637    0.960278
  H      4.842168    0.017609    2.115191
  H      5.993876   -3.126918    3.282784
  H      7.498441   -2.975482    2.468776
  O      4.368065    1.389270    1.313706
  F      6.128919    1.233512   -0.045620
  C      3.139159   -2.376572    1.910609
  H      3.267235   -0.939401    3.520693
  H      4.247195   -2.355095    3.790065
  C      1.997274    0.430918   -1.399218
  C      3.412746    0.376886   -1.965497
  H      4.047407   -0.246590   -1.326706
  H      3.390774   -0.118719   -2.942839
  H      5.068475    1.598504   -2.565728
  H      3.503356    2.363939   -2.804565
  C      2.399946   -1.389579    1.009490
  H      2.440750   -3.087118    2.362976
  H      3.844475   -2.970462    1.318677
  C      2.070177   -1.936705   -0.372401
  H      1.481611   -1.061542    1.509912
  H      3.008628   -0.490001    0.897451
  C      1.322238   -0.935775   -1.256413
  H      1.472747   -2.850902   -0.283997
  H      3.003539   -2.234041   -0.862535
  H      1.376444    1.058920   -2.047420
  H      2.015341    0.929780   -0.426535
  H      0.316648   -0.787213   -0.848278
  H      1.185611   -1.379252   -2.248613

 Total Charge           Charge          ....    0
 Multiplicity           Mult            ....    1
 Number of Electrons    NEL             ....  126
 Basis Dimension        Dim             ....  510

ORBITAL ENERGIES
----------------

  NO   OCC          E(Eh)            E(eV)
   0   2.0000     -24.888234      -677.2433
   1   2.0000     -19.276970      -524.5530
   2   2.0000     -14.420500      -392.4017
   3   2.0000     -14.399885      -391.8408
   4   2.0000     -10.496194      -285.6160
   5   2.0000     -10.329607      -281.0829
   6   2.0000     -10.316388      -280.7232
   7   2.0000     -10.313789      -280.6525
   8   2.0000     -10.309534      -280.5367
   9   2.0000     -10.297722      -280.2153
  10   2.0000     -10.289562      -279.9932
  11   2.0000     -10.285385      -279.8796
  12   2.0000     -10.279821      -279.7282
  13   2.0000     -10.274609      -279.5863
  14   2.0000     -10.274104      -279.5726
  15   2.0000     -10.172250      -276.8010
  16   2.0000      -1.442552       -39.2538
  17   2.0000      -1.167941       -31.7813
  18   2.0000      -1.055720       -28.7276
  19   2.0000      -0.970412       -26.4063
  20   2.0000      -0.949777       -25.8448
  21   2.0000      -0.917873       -24.9766
  22   2.0000      -0.886305       -24.1176
  23   2.0000      -0.849249       -23.1092
  24   2.0000      -0.823511       -22.4089
  25   2.0000      -0.787323       -21.4241
  26   2.0000      -0.781540       -21.2668
  27   2.0000      -0.747112       -20.3299
  28   2.0000      -0.717903       -19.5351
  29   2.0000      -0.701995       -19.1023
  30   2.0000      -0.681501       -18.5446
  31   2.0000      -0.675288       -18.3755
  32   2.0000      -0.673018       -18.3138
  33   2.0000      -0.656778       -17.8718
  34   2.0000      -0.627671       -17.0798
  35   2.0000      -0.612730       -16.6732
  36   2.0000      -0.591404       -16.0929
  37   2.0000      -0.588360       -16.0101
  38   2.0000      -0.577080       -15.7031
  39   2.0000      -0.565075       -15.3765
  40   2.0000      -0.556851       -15.1527
  41   2.0000      -0.536887       -14.6094
  42   2.0000      -0.533228       -14.5099
  43   2.0000      -0.524546       -14.2736
  44   2.0000      -0.517659       -14.0862
  45   2.0000      -0.510498       -13.8914
  46   2.0000      -0.493675       -13.4336
  47   2.0000      -0.483521       -13.1573
  48   2.0000      -0.480341       -13.0708
  49   2.0000      -0.473696       -12.8899
  50   2.0000      -0.465745       -12.6736
  51   2.0000      -0.451536       -12.2869
  52   2.0000      -0.449361       -12.2277
  53   2.0000      -0.438505       -11.9323
  54   2.0000      -0.436005       -11.8643
  55   2.0000      -0.430861       -11.7243
  56   2.0000      -0.419164       -11.4060
  57   2.0000      -0.407020       -11.0756
  58   2.0000      -0.405431       -11.0323
  59   2.0000      -0.401184       -10.9168
  60   2.0000      -0.395567       -10.7639
  61   2.0000      -0.327868        -8.9217
  62   2.0000      -0.230444        -6.2707
  63   0.0000       0.033026         0.8987
  64   0.0000       0.082969         2.2577
  65   0.0000       0.097679         2.6580
  66   0.0000       0.100478         2.7341
  67   0.0000       0.101079         2.7505

MULLIKEN ATOMIC CHARGES
-----------------------
   0 C :    1.180185
   1 N :    0.180252
   2 C :    0.372618
   3 C :    0.216754
   4 H :   -0.044067
   5 H :    0.155503
   6 C :    0.652985
   7 C :    0.775495
   8 N :    0.081398
   9 C :    1.076140
  10 H :   -0.303431
  11 H :   -0.991160
  12 H :   -1.043184
  13 H :   -0.096937
  14 H :   -0.166266
  15 O :   -0.579874
  16 F :   -0.500545
  17 C :    0.273194
  18 H :   -0.287196
  19 H :   -0.241355
  20 C :   -0.122854
  21 C :   -0.128519
  22 H :   -0.020180
  23 H :   -0.145579
  24 H :    0.006542
  25 H :   -0.085813
  26 C :    0.594541
  27 H :   -0.150819
  28 H :   -0.017565
  29 C :    0.002209
  30 H :   -0.013688
  31 H :   -0.886031
  32 C :    0.680636
  33 H :   -0.376141
  34 H :    0.119232
  35 H :   -0.374141
  36 H :    0.177902
  37 H :    0.028985
  38 H :    0.000774
Sum of atomic charges:    0.0000000

LOEWDIN ATOMIC CHARGES
----------------------
   0 C :    0.059780
   1 N :    0.008002
   2 C :   -0.017944
   3 C :    0.061786
   4 H :    0.041832
   5 H :    0.033879
   6 C :    0.066494
   7 C :   -0.209969
   8 N :    0.193311
   9 C :    0.159375
  10 H :   -0.097639
  11 H :   -0.167547
  12 H :   -0.087748
  13 H :   -0.030689
  14 H :    0.002200
  15 O :   -0.117624
  16 F :   -0.030171
  17 C :   -0.020316
  18 H :    0.027397
  19 H :    0.004294
  20 C :   -0.032931
  21 C :   -0.028150
  22 H :    0.015918
  23 H :    0.033618
  24 H :    0.027429
  25 H :    0.031006
  26 C :   -0.033060
  27 H :    0.021419
  28 H :    0.020193
  29 C :   -0.039472
  30 H :    0.036886
  31 H :   -0.025729
  32 C :   -0.031645
  33 H :    0.025410
  34 H :    0.019518
  35 H :    0.026341
  36 H :    0.007980
  37 H :    0.024261
  38 H :    0.022302

  Mayer bond orders larger than 0.100000
B(  0-C ,  1-N ) :   0.8994 B(  0-C , 12-H ) :  -0.4772 B(  0-C , 17-C ) :   1.0458
B(  0-C , 18-H ) :   0.6515 B(  0-C , 19-H ) :   0.7962 B(  0-C , 26-C ) :   0.1208
B(  1-N ,  7-C ) :   1.0952 B(  1-N ,  8-N ) :   0.1659 B(  1-N ,  9-C ) :   0.1164
B(  1-N , 12-H ) :   0.9781 B(  1-N , 18-H ) :   0.2029 B(  2-C ,  3-C ) :   1.1567
B(  2-C ,  4-H ) :   0.1611 B(  2-C , 21-C ) :   1.2332 B(  2-C , 24-H ) :   0.7112
B(  2-C , 25-H ) :   0.8451 B(  3-C ,  4-H ) :   0.6923 B(  3-C ,  5-H ) :   0.7737
B(  3-C ,  6-C ) :   1.2211 B(  3-C , 24-H ) :   0.1034 B(  3-C , 25-H ) :   0.1357
B(  4-H ,  6-C ) :   0.2561 B(  5-H ,  6-C ) :   0.1855 B(  6-C , 15-O ) :   1.6694
B(  6-C , 16-F ) :   0.5643 B(  7-C ,  8-N ) :   0.8255 B(  7-C ,  9-C ) :   1.6530
B(  7-C , 10-H ) :   0.2785 B(  7-C , 12-H ) :  -0.6147 B(  8-N ,  9-C ) :   0.2491
B(  8-N , 13-H ) :   0.9941 B(  8-N , 14-H ) :   1.2108 B(  8-N , 19-H ) :   0.1016
B(  9-C , 10-H ) :   0.4763 B(  9-C , 11-H ) :   0.1433 B( 10-H , 11-H ) :   0.2661
B( 11-H , 16-F ) :   0.2701 B( 12-H , 15-O ) :   0.1665 B( 12-H , 18-H ) :   0.1608
B( 13-H , 14-H ) :  -0.1793 B( 15-O , 16-F ) :   0.1041 B( 17-C , 19-H ) :   0.1599
B( 17-C , 26-C ) :   1.0990 B( 17-C , 27-H ) :   0.9368 B( 17-C , 28-H ) :   0.8849
B( 17-C , 30-H ) :   0.1288 B( 18-H , 19-H ) :  -0.2060 B( 20-C , 21-C ) :   1.2085
B( 20-C , 22-H ) :   0.1037 B( 20-C , 23-H ) :   0.1469 B( 20-C , 32-C ) :   1.1454
B( 20-C , 35-H ) :   1.0419 B( 20-C , 36-H ) :   0.8219 B( 20-C , 37-H ) :   0.2566
B( 20-C , 38-H ) :   0.1366 B( 21-C , 22-H ) :   0.9310 B( 21-C , 23-H ) :   0.9023
B( 21-C , 24-H ) :   0.2254 B( 21-C , 25-H ) :   0.1646 B( 21-C , 35-H ) :   0.1223
B( 21-C , 36-H ) :   0.1022 B( 24-H , 25-H ) :  -0.1050 B( 26-C , 27-H ) :   0.1588
B( 26-C , 29-C ) :   1.2317 B( 26-C , 30-H ) :   0.6410 B( 26-C , 31-H ) :   0.3259
B( 26-C , 34-H ) :   0.1475 B( 27-H , 31-H ) :   0.1000 B( 29-C , 31-H ) :   0.1180
B( 29-C , 32-C ) :   1.1037 B( 29-C , 33-H ) :   1.0519 B( 29-C , 34-H ) :   0.8338
B( 29-C , 37-H ) :   0.1123 B( 29-C , 38-H ) :   0.2135 B( 30-H , 31-H ) :   0.2815
B( 31-H , 36-H ) :   0.1031 B( 32-C , 37-H ) :   0.6858 B( 32-C , 38-H ) :   0.7075
B( 37-H , 38-H ) :  -0.1030

Dispersion correction           -0.020134997
FINAL SINGLE POINT ENERGY      -754.964070674063

DIPOLE MOMENT
-------------
                                X             Y             Z
Electronic contribution:     12.38542       8.53719       4.37350
Nuclear contribution   :    -13.25777      -8.13937      -5.31678
                        -----------------------------------------
Total Dipole Moment    :     -0.87235       0.39782      -0.94328
                        -----------------------------------------
Magnitude (a.u.)       :      1.34500
Magnitude (Debye)      :      3.41872

Rotational constants in cm-1:     0.020021     0.013636     0.009443
Rotational constants in MHz :   600.208195   408.782966   283.102361

                             ****ORCA TERMINATED NORMALLY****
TOTAL RUN TIME: 0 days 0 hours 2 minutes 35 seconds 502 msec
