                         Program Version 5.0.0 -  RELEASE  -
|  1> !LC-BLYP RIJCOSX def2-SVPD def2/J TightSCF
|  2> *xyz -1 1
|  3> C          3.93993        0.32036       -4.36773
|  4> C          5.10585        0.66802       -5.30546
|  5> O          4.80913        1.15019       -6.41436
|  6> O          6.26737        0.56500       -4.81948
|  7> H          3.01376        0.44480       -4.88890
|  8> H          3.96058        0.96928       -3.51722
|  9> H          4.03331       -0.69517       -4.04388
| 10> *
| 11>
| 12> %MaxCore 64000
| 13>
| 14> %pal nprocs 4
| 15> end
| 16>
| 17> %scf
| 18>   MaxIter 150
| 19> end
| 20>
| 21>
| 22>                          ****END OF INPUT****

CARTESIAN COORDINATES (ANGSTROEM)
---------------------------------
  C      3.939930    0.320360   -4.367730
  C      5.105850    0.668020   -5.305460
  O      4.809130    1.150190   -6.414360
  O      6.267370    0.565000   -4.819480
  H      3.013760    0.444800   -4.888900
  H      3.960580    0.969280   -3.517220
  H      4.033310   -0.695170   -4.043880

 Total Charge           Charge          ....   -1
 Multiplicity           Mult            ....    1
 Number of Electrons    NEL             ....   32
 Basis Dimension        Dim             ....  110

ORBITAL ENERGIES
----------------

  NO   OCC          E(Eh)            E(eV)
   0   2.0000     -18.696684      -508.7626
   1   2.0000     -18.692303      -508.6434
   2   2.0000      -9.975451      -271.4458
   3   2.0000      -9.898285      -269.3460
   4   2.0000      -0.906128       -24.6570
   5   2.0000      -0.811784       -22.0898
   6   2.0000      -0.646769       -17.5995
   7   2.0000      -0.405360       -11.0304
   8   2.0000      -0.367813       -10.0087
   9   2.0000      -0.349235        -9.5032
  10   2.0000      -0.330815        -9.0019
  11   2.0000      -0.288562        -7.8522
  12   2.0000      -0.274034        -7.4568
  13   2.0000      -0.149693        -4.0734
  14   2.0000      -0.141471        -3.8496
  15   2.0000      -0.128835        -3.5058
  16   0.0000       0.221451         6.0260
  17   0.0000       0.257692         7.0122
  18   0.0000       0.281491         7.6597
  19   0.0000       0.291643         7.9360
  20   0.0000       0.317074         8.6280

MULLIKEN ATOMIC CHARGES
-----------------------
   0 C :    0.694507
   1 C :   -0.200042
   2 O :   -0.507675
   3 O :   -0.563889
   4 H :   -0.149356
   5 H :   -0.139088
   6 H :   -0.134457
Sum of atomic charges:   -1.0000000

LOEWDIN ATOMIC CHARGES
----------------------
   0 C :    0.131014
   1 C :   -0.375826
   2 O :   -0.314351
   3 O :   -0.332114
   4 H :   -0.041026
   5 H :   -0.031750
   6 H :   -0.035946

  Mayer bond orders larger than 0.100000
B(  0-C ,  1-C ) :   1.1844 B(  0-C ,  4-H ) :   0.8247 B(  0-C ,  5-H ) :   0.7899
B(  0-C ,  6-H ) :   0.7685 B(  1-C ,  2-O ) :   1.6423 B(  1-C ,  3-O ) :   1.6183
B(  1-C ,  4-H ) :   0.2746 B(  1-C ,  5-H ) :   0.1760 B(  1-C ,  6-H ) :   0.1948

FINAL SINGLE POINT ENERGY      -227.894579402944

DIPOLE MOMENT
-------------
                                X             Y             Z
Electronic contribution:      2.67280       0.84830      -2.19575
Nuclear contribution   :     -3.81330      -1.22874       3.01208
                        -----------------------------------------
Total Dipole Moment    :     -1.14050      -0.38044       0.81633
                        -----------------------------------------
Magnitude (a.u.)       :      1.45323
Magnitude (Debye)      :      3.69381

Rotational constants in cm-1:     0.390282     0.335702     0.186718
Rotational constants in MHz : 11700.346989 10064.094211  5597.661196

                             ****ORCA TERMINATED NORMALLY****
TOTAL RUN TIME: 0 days 0 hours 0 minutes 8 seconds 173 msec
