                         Program Version 5.0.0 -  RELEASE  -
|  1> !LC-BLYP RIJCOSX def2-SVPD def2/J TightSCF
|  2> *xyz 1 1
|  3> C          3.90595        2.81985       -3.75292
|  4> N          5.29562        3.13151       -4.10533
|  5> C          5.70862        3.46889       -5.32419
|  6> N          6.90470        3.03895       -5.71708
|  7> N          4.98188        4.29357       -6.09746
|  8> H          5.00055        4.10131       -7.08776
|  9> H          4.08469        4.59690       -5.73965
| 10> H          5.96336        2.52611       -3.64239
| 11> H          7.04716        2.06686       -5.47360
| 12> H          7.19815        3.30799       -6.64523
| 13> H          3.24866        3.48801       -4.26909
| 14> H          3.77188        2.93227       -2.69732
| 15> H          3.68381        1.81198       -4.03533
| 16> *
| 17>
| 18> %MaxCore 64000
| 19>
| 20> %pal nprocs 4
| 21> end
| 22>
| 23> %scf
| 24>   MaxIter 150
| 25> end
| 26>
| 27>
| 28>                          ****END OF INPUT****

CARTESIAN COORDINATES (ANGSTROEM)
---------------------------------
  C      3.905950    2.819850   -3.752920
  N      5.295620    3.131510   -4.105330
  C      5.708620    3.468890   -5.324190
  N      6.904700    3.038950   -5.717080
  N      4.981880    4.293570   -6.097460
  H      5.000550    4.101310   -7.087760
  H      4.084690    4.596900   -5.739650
  H      5.963360    2.526110   -3.642390
  H      7.047160    2.066860   -5.473600
  H      7.198150    3.307990   -6.645230
  H      3.248660    3.488010   -4.269090
  H      3.771880    2.932270   -2.697320
  H      3.683810    1.811980   -4.035330

 Total Charge           Charge          ....    1
 Multiplicity           Mult            ....    1
 Number of Electrons    NEL             ....   40
 Basis Dimension        Dim             ....  164

ORBITAL ENERGIES
----------------

  NO   OCC          E(Eh)            E(eV)
   0   2.0000     -14.424057      -392.4985
   1   2.0000     -14.421115      -392.4185
   2   2.0000     -14.420748      -392.4085
   3   2.0000     -10.432878      -283.8930
   4   2.0000     -10.295846      -280.1642
   5   2.0000      -1.322861       -35.9969
   6   2.0000      -1.208721       -32.8910
   7   2.0000      -1.200313       -32.6622
   8   2.0000      -1.015594       -27.6357
   9   2.0000      -0.931515       -25.3478
  10   2.0000      -0.892679       -24.2910
  11   2.0000      -0.865136       -23.5416
  12   2.0000      -0.814118       -22.1533
  13   2.0000      -0.796779       -21.6815
  14   2.0000      -0.755488       -20.5579
  15   2.0000      -0.748645       -20.3717
  16   2.0000      -0.695556       -18.9270
  17   2.0000      -0.685075       -18.6419
  18   2.0000      -0.596640       -16.2354
  19   2.0000      -0.566975       -15.4282
  20   0.0000      -0.122438        -3.3317
  21   0.0000      -0.103587        -2.8187
  22   0.0000      -0.062242        -1.6937
  23   0.0000      -0.056721        -1.5435
  24   0.0000      -0.026172        -0.7122

MULLIKEN ATOMIC CHARGES
-----------------------
   0 C :    1.395855
   1 N :   -0.282472
   2 C :    0.354330
   3 N :    0.215074
   4 N :    0.314731
   5 H :   -0.039559
   6 H :   -0.077818
   7 H :   -0.177903
   8 H :   -0.006446
   9 H :   -0.019570
  10 H :   -0.268494
  11 H :   -0.253293
  12 H :   -0.154435
Sum of atomic charges:    1.0000000

LOEWDIN ATOMIC CHARGES
----------------------
   0 C :    0.248955
   1 N :    0.043424
   2 C :   -0.081515
   3 N :    0.282510
   4 N :    0.294393
   5 H :    0.039601
   6 H :    0.019166
   7 H :    0.053271
   8 H :    0.039771
   9 H :    0.038929
  10 H :   -0.009636
  11 H :    0.017129
  12 H :    0.014003

  Mayer bond orders larger than 0.100000
B(  0-C ,  1-N ) :   0.9689 B(  0-C , 10-H ) :   0.7605 B(  0-C , 11-H ) :   0.7190
B(  0-C , 12-H ) :   0.7410 B(  1-N ,  2-C ) :   1.2811 B(  1-N ,  3-N ) :   0.1697
B(  1-N ,  7-H ) :   1.1479 B(  1-N , 10-H ) :   0.1448 B(  1-N , 11-H ) :   0.2167
B(  1-N , 12-H ) :   0.1257 B(  2-C ,  3-N ) :   1.1163 B(  2-C ,  4-N ) :   1.1196
B(  2-C ,  7-H ) :  -0.1606 B(  3-N ,  4-N ) :   0.1123 B(  3-N ,  8-H ) :   1.0371
B(  3-N ,  9-H ) :   0.9821 B(  4-N ,  5-H ) :   1.1033 B(  4-N ,  6-H ) :   1.0033
B(  5-H ,  6-H ) :  -0.1303

FINAL SINGLE POINT ENERGY      -244.296481548891

DIPOLE MOMENT
-------------
                                X             Y             Z
Electronic contribution:      2.49507       1.06812      -1.19812
Nuclear contribution   :     -2.62204      -1.73043       0.52001
                        -----------------------------------------
Total Dipole Moment    :     -0.12697      -0.66231      -0.67811
                        -----------------------------------------
Magnitude (a.u.)       :      0.95635
Magnitude (Debye)      :      2.43085

Rotational constants in cm-1:     0.299316     0.133886     0.097604
Rotational constants in MHz :  8973.254382  4013.798371  2926.103660

                             ****ORCA TERMINATED NORMALLY****
TOTAL RUN TIME: 0 days 0 hours 0 minutes 16 seconds 391 msec
