                         Program Version 5.0.0 -  RELEASE  -
|  1> !LC-BLYP RIJCOSX def2-SVPD def2/J TightSCF xyzfile
|  2>
|  3> *xyzfile 0 1 B.xyz
|  4>
|  5> %MaxCore 64000
|  6>
|  7> %pal nprocs 4
|  8> end
|  9>
| 10> %scf
| 11>   MaxIter 150
| 12> end
| 13>
| 14>
| 15>                          ****END OF INPUT****

CARTESIAN COORDINATES (ANGSTROEM)
---------------------------------
  C      3.905947    2.819855   -3.752920
  N      5.295615    3.131515   -4.105334
  C      3.803511    1.374716   -3.260807
  C      3.939934    0.320362   -4.367729
  H      4.105043   -0.655085   -3.907733
  H      3.022801    0.280517   -4.957117
  C      5.105846    0.668022   -5.305463
  C      5.708619    3.468885   -5.324190
  N      6.904696    3.038954   -5.717084
  N      4.981884    4.293570   -6.097457
  H      5.000546    4.101311   -7.087761
  H      4.084693    4.596899   -5.739652
  H      5.963358    2.526112   -3.642391
  H      7.047164    2.066861   -5.473604
  H      7.198145    3.307994   -6.645225
  H      3.282025    2.949187   -4.640259
  H      3.565254    3.514574   -2.982523
  H      4.574833    1.215157   -2.500443
  H      2.843514    1.260845   -2.751465
  O      4.809132    1.150187   -6.414361
  O      6.267366    0.564999   -4.819481

 Total Charge           Charge          ....    0
 Multiplicity           Mult            ....    1
 Number of Electrons    NEL             ....   78
 Basis Dimension        Dim             ....  294

ORBITAL ENERGIES
----------------

  NO   OCC          E(Eh)            E(eV)
   0   2.0000     -18.879768      -513.7446
   1   2.0000     -18.876944      -513.6678
   2   2.0000     -14.255600      -387.9146
   3   2.0000     -14.247036      -387.6815
   4   2.0000     -14.224484      -387.0679
   5   2.0000     -10.257309      -279.1156
   6   2.0000     -10.151655      -276.2406
   7   2.0000     -10.147877      -276.1378
   8   2.0000     -10.098651      -274.7983
   9   2.0000     -10.065787      -273.9040
  10   2.0000      -1.148168       -31.2432
  11   2.0000      -1.092706       -29.7340
  12   2.0000      -1.040056       -28.3014
  13   2.0000      -1.020799       -27.7774
  14   2.0000      -0.997910       -27.1545
  15   2.0000      -0.902317       -24.5533
  16   2.0000      -0.820489       -22.3266
  17   2.0000      -0.762714       -20.7545
  18   2.0000      -0.731973       -19.9180
  19   2.0000      -0.716915       -19.5082
  20   2.0000      -0.681682       -18.5495
  21   2.0000      -0.645356       -17.5610
  22   2.0000      -0.622820       -16.9478
  23   2.0000      -0.606852       -16.5133
  24   2.0000      -0.586607       -15.9624
  25   2.0000      -0.578002       -15.7282
  26   2.0000      -0.540091       -14.6966
  27   2.0000      -0.528122       -14.3709
  28   2.0000      -0.515570       -14.0294
  29   2.0000      -0.498392       -13.5619
  30   2.0000      -0.486317       -13.2334
  31   2.0000      -0.480374       -13.0716
  32   2.0000      -0.445633       -12.1263
  33   2.0000      -0.437869       -11.9150
  34   2.0000      -0.419585       -11.4175
  35   2.0000      -0.392313       -10.6754
  36   2.0000      -0.336865        -9.1666
  37   2.0000      -0.320785        -8.7290
  38   2.0000      -0.311946        -8.4885
  39   0.0000       0.050575         1.3762
  40   0.0000       0.052761         1.4357
  41   0.0000       0.074249         2.0204
  42   0.0000       0.085127         2.3164
  43   0.0000       0.106184         2.8894

MULLIKEN ATOMIC CHARGES
-----------------------
   0 C :    0.904106
   1 N :   -0.185904
   2 C :    0.243506
   3 C :    0.565547
   4 H :   -0.178088
   5 H :   -0.085658
   6 C :    0.006698
   7 C :    0.347733
   8 N :    0.378614
   9 N :    0.147858
  10 H :   -0.035649
  11 H :   -0.024051
  12 H :   -0.095162
  13 H :   -0.164317
  14 H :   -0.003564
  15 H :   -0.066957
  16 H :   -0.460140
  17 H :   -0.016558
  18 H :   -0.277106
  19 O :   -0.429766
  20 O :   -0.571142
Sum of atomic charges:   -0.0000000

LOEWDIN ATOMIC CHARGES
----------------------
   0 C :    0.057711
   1 N :    0.077703
   2 C :   -0.019572
   3 C :    0.028161
   4 H :    0.031663
   5 H :    0.025696
   6 C :   -0.296618
   7 C :   -0.108567
   8 N :    0.293877
   9 N :    0.275127
  10 H :    0.025812
  11 H :    0.007898
  12 H :    0.024274
  13 H :   -0.068060
  14 H :    0.028437
  15 H :    0.028300
  16 H :    0.025016
  17 H :    0.032901
  18 H :    0.028234
  19 O :   -0.243705
  20 O :   -0.254287

  Mayer bond orders larger than 0.100000
B(  0-C ,  1-N ) :   0.9401 B(  0-C ,  2-C ) :   1.1792 B(  0-C ,  3-C ) :   0.1171
B(  0-C , 15-H ) :   0.6872 B(  0-C , 16-H ) :   0.7890 B(  0-C , 18-H ) :   0.2064
B(  1-N ,  2-C ) :   0.1644 B(  1-N ,  7-C ) :   1.2017 B(  1-N ,  8-N ) :   0.1486
B(  1-N , 12-H ) :   1.0896 B(  1-N , 15-H ) :   0.1274 B(  2-C ,  3-C ) :   1.1870
B(  2-C ,  4-H ) :   0.1989 B(  2-C ,  5-H ) :   0.1468 B(  2-C , 15-H ) :   0.1050
B(  2-C , 17-H ) :   0.8056 B(  2-C , 18-H ) :   0.8652 B(  3-C ,  4-H ) :   0.7353
B(  3-C ,  5-H ) :   0.7778 B(  3-C ,  6-C ) :   1.0012 B(  4-H ,  6-C ) :   0.1412
B(  5-H ,  6-C ) :   0.3041 B(  5-H , 19-O ) :  -0.1046 B(  6-C , 19-O ) :   1.7700
B(  6-C , 20-O ) :   1.5488 B(  7-C ,  8-N ) :   1.0963 B(  7-C ,  9-N ) :   0.9728
B(  7-C , 12-H ) :  -0.2146 B(  8-N ,  9-N ) :   0.1424 B(  8-N , 13-H ) :   0.9491
B(  8-N , 14-H ) :   0.9147 B(  9-N , 10-H ) :   1.1139 B(  9-N , 11-H ) :   0.9453
B( 10-H , 11-H ) :  -0.1301 B( 13-H , 20-O ) :   0.1885 B( 15-H , 16-H ) :  -0.1510
B( 17-H , 18-H ) :  -0.1160

FINAL SINGLE POINT ENERGY      -510.379701413299

DIPOLE MOMENT
-------------
                                X             Y             Z
Electronic contribution:      4.12757       0.41298      -3.39322
Nuclear contribution   :     -4.94498       2.03334       3.78956
                        -----------------------------------------
Total Dipole Moment    :     -0.81741       2.44632       0.39634
                        -----------------------------------------
Magnitude (a.u.)       :      2.60955
Magnitude (Debye)      :      6.63295

Rotational constants in cm-1:     0.062533     0.042832     0.033687
Rotational constants in MHz :  1874.701390  1284.063603  1009.911042

                             ****ORCA TERMINATED NORMALLY****
TOTAL RUN TIME: 0 days 0 hours 1 minutes 21 seconds 647 msec
