                         Program Version 5.0.0 -  RELEASE  -
|  1> !LC-BLYP RIJCOSX def2-SVPD def2/J TightSCF
|  2> *xyz 0 1
|  3> C          3.93993        0.32036       -4.36773
|  4> C          5.10585        0.66802       -5.30546
|  5> F          4.80913        1.15019       -6.41436
|  6> O          6.26737        0.56500       -4.81948
|  7> H          3.01376        0.44480       -4.88890
|  8> H          3.96058        0.96928       -3.51722
|  9> H          4.03331       -0.69517       -4.04388
| 10> *
| 11>
| 12> %MaxCore 64000
| 13>
| 14> %pal nprocs 4
| 15> end
| 16>
| 17> %scf
| 18>   MaxIter 150
| 19> end
| 20>
| 21>
| 22>                          ****END OF INPUT****

CARTESIAN COORDINATES (ANGSTROEM)
---------------------------------
  C      3.939930    0.320360   -4.367730
  C      5.105850    0.668020   -5.305460
  F      4.809130    1.150190   -6.414360
  O      6.267370    0.565000   -4.819480
  H      3.013760    0.444800   -4.888900
  H      3.960580    0.969280   -3.517220
  H      4.033310   -0.695170   -4.043880

 Total Charge           Charge          ....    0
 Multiplicity           Mult            ....    1
 Number of Electrons    NEL             ....   32
 Basis Dimension        Dim             ....  110

ORBITAL ENERGIES
----------------

  NO   OCC          E(Eh)            E(eV)
   0   2.0000     -24.556264      -668.2099
   1   2.0000     -18.970596      -516.2162
   2   2.0000     -10.279253      -279.7127
   3   2.0000     -10.114454      -275.2283
   4   2.0000      -1.400808       -38.1179
   5   2.0000      -1.119516       -30.4636
   6   2.0000      -0.877553       -23.8794
   7   2.0000      -0.769795       -20.9472
   8   2.0000      -0.668322       -18.1860
   9   2.0000      -0.659021       -17.9329
  10   2.0000      -0.608647       -16.5621
  11   2.0000      -0.550534       -14.9808
  12   2.0000      -0.538204       -14.6453
  13   2.0000      -0.506520       -13.7831
  14   2.0000      -0.459940       -12.5156
  15   2.0000      -0.399343       -10.8667
  16   0.0000       0.043941         1.1957
  17   0.0000       0.063068         1.7162
  18   0.0000       0.103418         2.8142
  19   0.0000       0.137361         3.7378
  20   0.0000       0.140391         3.8202

MULLIKEN ATOMIC CHARGES
-----------------------
   0 C :    0.638462
   1 C :    0.178393
   2 F :   -0.237474
   3 O :   -0.350611
   4 H :   -0.114734
   5 H :   -0.053274
   6 H :   -0.060762
Sum of atomic charges:   -0.0000000

LOEWDIN ATOMIC CHARGES
----------------------
   0 C :    0.203732
   1 C :   -0.076008
   2 F :   -0.007385
   3 O :   -0.124379
   4 H :   -0.010397
   5 H :    0.008343
   6 H :    0.006093

  Mayer bond orders larger than 0.100000
B(  0-C ,  1-C ) :   1.2349 B(  0-C ,  4-H ) :   0.8404 B(  0-C ,  5-H ) :   0.7862
B(  0-C ,  6-H ) :   0.7632 B(  1-C ,  2-F ) :   0.9469 B(  1-C ,  3-O ) :   1.9374
B(  1-C ,  4-H ) :   0.1848 B(  1-C ,  5-H ) :   0.1491 B(  1-C ,  6-H ) :   0.1734

FINAL SINGLE POINT ENERGY      -252.408188361706

DIPOLE MOMENT
-------------
                                X             Y             Z
Electronic contribution:      2.38004       1.62186      -4.15797
Nuclear contribution   :     -3.58567      -1.71656       4.24175
                        -----------------------------------------
Total Dipole Moment    :     -1.20563      -0.09470       0.08378
                        -----------------------------------------
Magnitude (a.u.)       :      1.21224
Magnitude (Debye)      :      3.08127

Rotational constants in cm-1:     0.365806     0.323297     0.177262
Rotational constants in MHz : 10966.600844  9692.195205  5314.176777

                             ****ORCA TERMINATED NORMALLY****
TOTAL RUN TIME: 0 days 0 hours 0 minutes 8 seconds 150 msec
