                         Program Version 5.0.0 -  RELEASE  -
|  1> !LC-BLYP RIJCOSX def2-SVPD def2/J TightSCF
|  2> *xyz 0 1
|  3> C          3.90595        2.81985       -3.75292
|  4> C          5.29562        3.13151       -4.10533
|  5> C          5.70862        3.46889       -5.32419
|  6> N          6.90470        3.03895       -5.71708
|  7> N          4.98188        4.29357       -6.09746
|  8> H          5.00055        4.10131       -7.08776
|  9> H          4.08469        4.59690       -5.73965
| 10> H          5.96336        2.52611       -3.64239
| 11> H          7.04716        2.06686       -5.47360
| 12> H          7.19815        3.30799       -6.64523
| 13> H          3.24866        3.48801       -4.26909
| 14> H          3.77188        2.93227       -2.69732
| 15> H          3.68381        1.81198       -4.03533
| 16> *
| 17>
| 18> %MaxCore 64000
| 19>
| 20> %pal nprocs 4
| 21> end
| 22>
| 23> %scf
| 24>   MaxIter 150
| 25> end
| 26>
| 27>
| 28>                          ****END OF INPUT****

CARTESIAN COORDINATES (ANGSTROEM)
---------------------------------
  C      3.905950    2.819850   -3.752920
  C      5.295620    3.131510   -4.105330
  C      5.708620    3.468890   -5.324190
  N      6.904700    3.038950   -5.717080
  N      4.981880    4.293570   -6.097460
  H      5.000550    4.101310   -7.087760
  H      4.084690    4.596900   -5.739650
  H      5.963360    2.526110   -3.642390
  H      7.047160    2.066860   -5.473600
  H      7.198150    3.307990   -6.645230
  H      3.248660    3.488010   -4.269090
  H      3.771880    2.932270   -2.697320
  H      3.683810    1.811980   -4.035330

 Total Charge           Charge          ....    0
 Multiplicity           Mult            ....    1
 Number of Electrons    NEL             ....   40
 Basis Dimension        Dim             ....  164

ORBITAL ENERGIES
----------------

  NO   OCC          E(Eh)            E(eV)
   0   2.0000     -14.191711      -386.1761
   1   2.0000     -14.189554      -386.1174
   2   2.0000     -10.130448      -275.6635
   3   2.0000     -10.054722      -273.6029
   4   2.0000     -10.014793      -272.5164
   5   2.0000      -1.060540       -28.8588
   6   2.0000      -0.970491       -26.4084
   7   2.0000      -0.858272       -23.3548
   8   2.0000      -0.760454       -20.6930
   9   2.0000      -0.686679       -18.6855
  10   2.0000      -0.643749       -17.5173
  11   2.0000      -0.610845       -16.6219
  12   2.0000      -0.581376       -15.8201
  13   2.0000      -0.535025       -14.5588
  14   2.0000      -0.508664       -13.8415
  15   2.0000      -0.485717       -13.2170
  16   2.0000      -0.456366       -12.4183
  17   2.0000      -0.433229       -11.7888
  18   2.0000      -0.375958       -10.2303
  19   2.0000      -0.262858        -7.1527
  20   0.0000       0.067761         1.8439
  21   0.0000       0.096872         2.6360
  22   0.0000       0.108747         2.9592
  23   0.0000       0.123312         3.3555
  24   0.0000       0.139912         3.8072

MULLIKEN ATOMIC CHARGES
-----------------------
   0 C :    1.088625
   1 C :   -0.310293
   2 C :   -0.074373
   3 N :    0.226822
   4 N :    0.260335
   5 H :   -0.112607
   6 H :   -0.066837
   7 H :   -0.306948
   8 H :   -0.015975
   9 H :   -0.115859
  10 H :   -0.340988
  11 H :   -0.064939
  12 H :   -0.166964
Sum of atomic charges:    0.0000000

LOEWDIN ATOMIC CHARGES
----------------------
   0 C :    0.086286
   1 C :   -0.059096
   2 C :   -0.269547
   3 N :    0.197313
   4 N :    0.208058
   5 H :   -0.012446
   6 H :   -0.014204
   7 H :   -0.052158
   8 H :    0.002373
   9 H :   -0.012578
  10 H :   -0.040443
  11 H :   -0.018223
  12 H :   -0.015333

  Mayer bond orders larger than 0.100000
B(  0-C ,  1-C ) :   1.0966 B(  0-C ,  7-H ) :   0.2397 B(  0-C , 10-H ) :   0.6342
B(  0-C , 11-H ) :   0.6151 B(  0-C , 12-H ) :   0.7663 B(  1-C ,  2-C ) :   1.9665
B(  1-C ,  3-N ) :   0.3002 B(  1-C ,  4-N ) :   0.1568 B(  1-C ,  7-H ) :   0.6352
B(  1-C , 10-H ) :   0.3494 B(  1-C , 11-H ) :   0.2742 B(  1-C , 12-H ) :   0.1122
B(  2-C ,  3-N ) :   1.0680 B(  2-C ,  4-N ) :   1.1400 B(  2-C ,  7-H ) :   0.3832
B(  2-C ,  9-H ) :   0.1072 B(  3-N ,  8-H ) :   1.0141 B(  3-N ,  9-H ) :   0.9306
B(  4-N ,  5-H ) :   1.0624 B(  4-N ,  6-H ) :   0.9869 B(  5-H ,  6-H ) :  -0.1024
B( 10-H , 11-H ) :   0.1403

FINAL SINGLE POINT ENERGY      -227.840234453616

DIPOLE MOMENT
-------------
                                X             Y             Z
Electronic contribution:      2.49682       1.33220      -1.80815
Nuclear contribution   :     -2.63304      -1.77161       0.70501
                        -----------------------------------------
Total Dipole Moment    :     -0.13622      -0.43942      -1.10314
                        -----------------------------------------
Magnitude (a.u.)       :      1.19522
Magnitude (Debye)      :      3.03802

Rotational constants in cm-1:     0.303572     0.135185     0.098519
Rotational constants in MHz :  9100.846149  4052.756012  2953.539431

                             ****ORCA TERMINATED NORMALLY****
TOTAL RUN TIME: 0 days 0 hours 0 minutes 18 seconds 460 msec
