                         Program Version 5.0.0 -  RELEASE  -
|  1> !LC-BLYP RIJCOSX def2-SVPD def2/J TightSCF
|  2> *xyz 0 1
|  3> C          3.93993        0.32036       -4.36773
|  4> C          5.10585        0.66802       -5.30546
|  5> O          4.80913        1.15019       -6.41436
|  6> F          6.26737        0.56500       -4.81948
|  7> H          3.01376        0.44480       -4.88890
|  8> H          3.96058        0.96928       -3.51722
|  9> H          4.03331       -0.69517       -4.04388
| 10> *
| 11>
| 12> %MaxCore 64000
| 13>
| 14> %pal nprocs 4
| 15> end
| 16>
| 17> %scf
| 18>   MaxIter 150
| 19> end
| 20>
| 21>
| 22>                          ****END OF INPUT****

CARTESIAN COORDINATES (ANGSTROEM)
---------------------------------
  C      3.939930    0.320360   -4.367730
  C      5.105850    0.668020   -5.305460
  O      4.809130    1.150190   -6.414360
  F      6.267370    0.565000   -4.819480
  H      3.013760    0.444800   -4.888900
  H      3.960580    0.969280   -3.517220
  H      4.033310   -0.695170   -4.043880

 Total Charge           Charge          ....    0
 Multiplicity           Mult            ....    1
 Number of Electrons    NEL             ....   32
 Basis Dimension        Dim             ....  110

ORBITAL ENERGIES
----------------

  NO   OCC          E(Eh)            E(eV)
   0   2.0000     -24.549539      -668.0269
   1   2.0000     -18.973830      -516.3042
   2   2.0000     -10.277589      -279.6674
   3   2.0000     -10.114070      -275.2178
   4   2.0000      -1.387105       -37.7451
   5   2.0000      -1.130707       -30.7681
   6   2.0000      -0.876940       -23.8627
   7   2.0000      -0.762520       -20.7492
   8   2.0000      -0.661335       -17.9958
   9   2.0000      -0.652552       -17.7569
  10   2.0000      -0.608384       -16.5550
  11   2.0000      -0.548952       -14.9377
  12   2.0000      -0.539596       -14.6831
  13   2.0000      -0.508788       -13.8448
  14   2.0000      -0.469087       -12.7645
  15   2.0000      -0.401571       -10.9273
  16   0.0000       0.048352         1.3157
  17   0.0000       0.064152         1.7457
  18   0.0000       0.103603         2.8192
  19   0.0000       0.134800         3.6681
  20   0.0000       0.142437         3.8759

MULLIKEN ATOMIC CHARGES
-----------------------
   0 C :    0.657304
   1 C :    0.188499
   2 O :   -0.303833
   3 F :   -0.285610
   4 H :   -0.125315
   5 H :   -0.062697
   6 H :   -0.068349
Sum of atomic charges:   -0.0000000

LOEWDIN ATOMIC CHARGES
----------------------
   0 C :    0.203740
   1 C :   -0.076697
   2 O :   -0.111636
   3 F :   -0.019527
   4 H :    0.002108
   5 H :    0.003401
   6 H :   -0.001390

  Mayer bond orders larger than 0.100000
B(  0-C ,  1-C ) :   1.2111 B(  0-C ,  4-H ) :   0.8418 B(  0-C ,  5-H ) :   0.7831
B(  0-C ,  6-H ) :   0.7689 B(  1-C ,  2-O ) :   1.9847 B(  1-C ,  3-F ) :   0.8814
B(  1-C ,  4-H ) :   0.2350 B(  1-C ,  5-H ) :   0.1434 B(  1-C ,  6-H ) :   0.1555

FINAL SINGLE POINT ENERGY      -252.413900037651

DIPOLE MOMENT
-------------
                                X             Y             Z
Electronic contribution:      4.75619       0.66788      -1.55656
Nuclear contribution   :     -5.09247      -1.11188       2.59376
                        -----------------------------------------
Total Dipole Moment    :     -0.33628      -0.44401       1.03721
                        -----------------------------------------
Magnitude (a.u.)       :      1.17730
Magnitude (Debye)      :      2.99245

Rotational constants in cm-1:     0.367940     0.321271     0.177147
Rotational constants in MHz : 11030.570495  9631.458923  5310.737691

                             ****ORCA TERMINATED NORMALLY****
TOTAL RUN TIME: 0 days 0 hours 0 minutes 8 seconds 87 msec
