                         Program Version 5.0.0 -  RELEASE  -
|  1> !LC-BLYP RIJCOSX def2-SVPD def2/J TightSCF
|  2> *xyz 0 1
|  3> C          3.90595        2.81985       -3.75292
|  4> N          5.29562        3.13151       -4.10533
|  5> C          5.70862        3.46889       -5.32419
|  6> C          6.90470        3.03895       -5.71708
|  7> N          4.98188        4.29357       -6.09746
|  8> H          5.00055        4.10131       -7.08776
|  9> H          4.08469        4.59690       -5.73965
| 10> H          5.96336        2.52611       -3.64239
| 11> H          7.04716        2.06686       -5.47360
| 12> H          7.19815        3.30799       -6.64523
| 13> H          3.24866        3.48801       -4.26909
| 14> H          3.77188        2.93227       -2.69732
| 15> H          3.68381        1.81198       -4.03533
| 16> *
| 17>
| 18> %MaxCore 64000
| 19>
| 20> %pal nprocs 4
| 21> end
| 22>
| 23> %scf
| 24>   MaxIter 150
| 25> end
| 26>
| 27>
| 28>                          ****END OF INPUT****

CARTESIAN COORDINATES (ANGSTROEM)
---------------------------------
  C      3.905950    2.819850   -3.752920
  N      5.295620    3.131510   -4.105330
  C      5.708620    3.468890   -5.324190
  C      6.904700    3.038950   -5.717080
  N      4.981880    4.293570   -6.097460
  H      5.000550    4.101310   -7.087760
  H      4.084690    4.596900   -5.739650
  H      5.963360    2.526110   -3.642390
  H      7.047160    2.066860   -5.473600
  H      7.198150    3.307990   -6.645230
  H      3.248660    3.488010   -4.269090
  H      3.771880    2.932270   -2.697320
  H      3.683810    1.811980   -4.035330

 Total Charge           Charge          ....    0
 Multiplicity           Mult            ....    1
 Number of Electrons    NEL             ....   40
 Basis Dimension        Dim             ....  164

ORBITAL ENERGIES
----------------

  NO   OCC          E(Eh)            E(eV)
   0   2.0000     -14.193575      -386.2268
   1   2.0000     -14.193507      -386.2250
   2   2.0000     -10.137581      -275.8576
   3   2.0000     -10.119591      -275.3681
   4   2.0000     -10.000868      -272.1375
   5   2.0000      -1.066840       -29.0302
   6   2.0000      -0.981833       -26.7170
   7   2.0000      -0.851433       -23.1687
   8   2.0000      -0.775911       -21.1136
   9   2.0000      -0.702763       -19.1232
  10   2.0000      -0.641280       -17.4501
  11   2.0000      -0.597597       -16.2614
  12   2.0000      -0.586346       -15.9553
  13   2.0000      -0.558978       -15.2106
  14   2.0000      -0.509228       -13.8568
  15   2.0000      -0.496186       -13.5019
  16   2.0000      -0.488315       -13.2877
  17   2.0000      -0.447325       -12.1723
  18   2.0000      -0.360282        -9.8038
  19   2.0000      -0.272204        -7.4071
  20   0.0000       0.063018         1.7148
  21   0.0000       0.098179         2.6716
  22   0.0000       0.105251         2.8640
  23   0.0000       0.124663         3.3923
  24   0.0000       0.137988         3.7548

MULLIKEN ATOMIC CHARGES
-----------------------
   0 C :    1.379180
   1 N :   -0.337907
   2 C :   -0.117931
   3 C :    0.705188
   4 N :    0.328833
   5 H :   -0.076257
   6 H :   -0.166648
   7 H :   -0.156539
   8 H :   -0.333423
   9 H :   -0.434838
  10 H :   -0.312745
  11 H :   -0.305408
  12 H :   -0.171504
Sum of atomic charges:    0.0000000

LOEWDIN ATOMIC CHARGES
----------------------
   0 C :    0.193950
   1 N :   -0.021116
   2 C :   -0.268581
   3 C :    0.137184
   4 N :    0.214379
   5 H :    0.003778
   6 H :   -0.026793
   7 H :    0.022624
   8 H :   -0.100853
   9 H :   -0.101667
  10 H :   -0.029771
  11 H :   -0.011353
  12 H :   -0.011779

  Mayer bond orders larger than 0.100000
B(  0-C ,  1-N ) :   0.9531 B(  0-C , 10-H ) :   0.7554 B(  0-C , 11-H ) :   0.6957
B(  0-C , 12-H ) :   0.7377 B(  1-N ,  2-C ) :   1.2682 B(  1-N ,  3-C ) :   0.2121
B(  1-N ,  7-H ) :   1.1130 B(  1-N , 10-H ) :   0.1499 B(  1-N , 11-H ) :   0.2233
B(  1-N , 12-H ) :   0.1069 B(  2-C ,  3-C ) :   1.8353 B(  2-C ,  4-N ) :   1.1012
B(  2-C ,  7-H ) :  -0.1120 B(  2-C ,  8-H ) :   0.2710 B(  2-C ,  9-H ) :   0.3829
B(  3-C ,  4-N ) :   0.2131 B(  3-C ,  8-H ) :   0.7357 B(  3-C ,  9-H ) :   0.4784
B(  4-N ,  5-H ) :   1.0802 B(  4-N ,  6-H ) :   0.9713 B(  5-H ,  6-H ) :  -0.1279
B(  8-H ,  9-H ) :   0.2319

FINAL SINGLE POINT ENERGY      -227.826825787745

DIPOLE MOMENT
-------------
                                X             Y             Z
Electronic contribution:      0.93393       1.43405      -0.29194
Nuclear contribution   :     -2.30713      -1.79036       0.37856
                        -----------------------------------------
Total Dipole Moment    :     -1.37320      -0.35632       0.08662
                        -----------------------------------------
Magnitude (a.u.)       :      1.42132
Magnitude (Debye)      :      3.61270

Rotational constants in cm-1:     0.307513     0.139026     0.101190
Rotational constants in MHz :  9218.994719  4167.905268  3033.592538

                             ****ORCA TERMINATED NORMALLY****
TOTAL RUN TIME: 0 days 0 hours 0 minutes 18 seconds 54 msec
