                         Program Version 5.0.0 -  RELEASE  -
|  1> !LC-BLYP RIJCOSX def2-SVPD def2/J TightSCF
|  2> *xyz 0 1
|  3> C          3.90595        2.81985       -3.75292
|  4> N          5.29562        3.13151       -4.10533
|  5> C          5.70862        3.46889       -5.32419
|  6> N          6.90470        3.03895       -5.71708
|  7> C          4.98188        4.29357       -6.09746
|  8> H          5.00055        4.10131       -7.08776
|  9> H          4.08469        4.59690       -5.73965
| 10> H          5.96336        2.52611       -3.64239
| 11> H          7.04716        2.06686       -5.47360
| 12> H          7.19815        3.30799       -6.64523
| 13> H          3.24866        3.48801       -4.26909
| 14> H          3.77188        2.93227       -2.69732
| 15> H          3.68381        1.81198       -4.03533
| 16> *
| 17>
| 18> %MaxCore 64000
| 19>
| 20> %pal nprocs 4
| 21> end
| 22>
| 23> %scf
| 24>   MaxIter 150
| 25> end
| 26>
| 27>
| 28>                          ****END OF INPUT****

CARTESIAN COORDINATES (ANGSTROEM)
---------------------------------
  C      3.905950    2.819850   -3.752920
  N      5.295620    3.131510   -4.105330
  C      5.708620    3.468890   -5.324190
  N      6.904700    3.038950   -5.717080
  C      4.981880    4.293570   -6.097460
  H      5.000550    4.101310   -7.087760
  H      4.084690    4.596900   -5.739650
  H      5.963360    2.526110   -3.642390
  H      7.047160    2.066860   -5.473600
  H      7.198150    3.307990   -6.645230
  H      3.248660    3.488010   -4.269090
  H      3.771880    2.932270   -2.697320
  H      3.683810    1.811980   -4.035330

 Total Charge           Charge          ....    0
 Multiplicity           Mult            ....    1
 Number of Electrons    NEL             ....   40
 Basis Dimension        Dim             ....  164

ORBITAL ENERGIES
----------------

  NO   OCC          E(Eh)            E(eV)
   0   2.0000     -14.194971      -386.2648
   1   2.0000     -14.193212      -386.2169
   2   2.0000     -10.137051      -275.8432
   3   2.0000     -10.112787      -275.1829
   4   2.0000     -10.005225      -272.2560
   5   2.0000      -1.071665       -29.1615
   6   2.0000      -0.983892       -26.7731
   7   2.0000      -0.826395       -22.4873
   8   2.0000      -0.802508       -21.8373
   9   2.0000      -0.671294       -18.2668
  10   2.0000      -0.648775       -17.6541
  11   2.0000      -0.627204       -17.0671
  12   2.0000      -0.562298       -15.3009
  13   2.0000      -0.552747       -15.0410
  14   2.0000      -0.521659       -14.1951
  15   2.0000      -0.489862       -13.3298
  16   2.0000      -0.479408       -13.0453
  17   2.0000      -0.450788       -12.2666
  18   2.0000      -0.361221        -9.8293
  19   2.0000      -0.272555        -7.4166
  20   0.0000       0.066268         1.8033
  21   0.0000       0.095463         2.5977
  22   0.0000       0.108756         2.9594
  23   0.0000       0.121830         3.3152
  24   0.0000       0.138812         3.7773

MULLIKEN ATOMIC CHARGES
-----------------------
   0 C :    1.419064
   1 N :   -0.213867
   2 C :   -0.180800
   3 N :    0.167673
   4 C :    0.683788
   5 H :   -0.405792
   6 H :   -0.352252
   7 H :   -0.283558
   8 H :   -0.048072
   9 H :    0.000286
  10 H :   -0.290487
  11 H :   -0.291615
  12 H :   -0.204368
Sum of atomic charges:    0.0000000

LOEWDIN ATOMIC CHARGES
----------------------
   0 C :    0.201929
   1 N :   -0.022084
   2 C :   -0.279362
   3 N :    0.200265
   4 C :    0.156352
   5 H :   -0.101752
   6 H :   -0.113361
   7 H :    0.011344
   8 H :   -0.008677
   9 H :    0.002788
  10 H :   -0.024186
  11 H :   -0.011555
  12 H :   -0.011703

  Mayer bond orders larger than 0.100000
B(  0-C ,  1-N ) :   0.9351 B(  0-C , 10-H ) :   0.7599 B(  0-C , 11-H ) :   0.6894
B(  0-C , 12-H ) :   0.7259 B(  1-N ,  2-C ) :   1.2555 B(  1-N ,  3-N ) :   0.1320
B(  1-N ,  4-C ) :   0.2058 B(  1-N ,  7-H ) :   1.0683 B(  1-N , 10-H ) :   0.1311
B(  1-N , 11-H ) :   0.2122 B(  1-N , 12-H ) :   0.1437 B(  2-C ,  3-N ) :   1.1187
B(  2-C ,  4-C ) :   1.9129 B(  2-C ,  5-H ) :   0.2501 B(  2-C ,  6-H ) :   0.3158
B(  2-C , 10-H ) :   0.1082 B(  3-N ,  4-C ) :   0.1556 B(  3-N ,  8-H ) :   0.9597
B(  3-N ,  9-H ) :   0.9713 B(  4-C ,  5-H ) :   0.6794 B(  4-C ,  6-H ) :   0.4824
B(  5-H ,  6-H ) :   0.3292

FINAL SINGLE POINT ENERGY      -227.830110451702

DIPOLE MOMENT
-------------
                                X             Y             Z
Electronic contribution:      2.77804       0.25811      -0.00604
Nuclear contribution   :     -2.69659      -1.53624       0.30152
                        -----------------------------------------
Total Dipole Moment    :      0.08145      -1.27813       0.29547
                        -----------------------------------------
Magnitude (a.u.)       :      1.31437
Magnitude (Debye)      :      3.34086

Rotational constants in cm-1:     0.320409     0.134796     0.100241
Rotational constants in MHz :  9605.632807  4041.079317  3005.150506

                             ****ORCA TERMINATED NORMALLY****
TOTAL RUN TIME: 0 days 0 hours 0 minutes 18 seconds 577 msec
