                         Program Version 5.0.0 -  RELEASE  -
|  1> !LC-BLYP RIJCOSX def2-SVPD def2/J TightSCF xyzfile
|  2>
|  3> *xyzfile 0 1 D5.xyz
|  4>
|  5> %MaxCore 64000
|  6>
|  7> %pal nprocs 4
|  8> end
|  9>
| 10> %scf
| 11>   MaxIter 150
| 12> end
| 13>
| 14>
| 15>                          ****END OF INPUT****

CARTESIAN COORDINATES (ANGSTROEM)
---------------------------------
  C      3.905947    2.819855   -3.752920
  N      5.295615    3.131515   -4.105334
  C      3.803511    1.374716   -3.260807
  C      3.939934    0.320362   -4.367729
  H      4.105043   -0.655085   -3.907733
  H      3.022801    0.280517   -4.957117
  C      5.105846    0.668022   -5.305463
  C      5.708619    3.468885   -5.324190
  C      6.904696    3.038954   -5.717084
  N      4.981884    4.293570   -6.097457
  H      5.000546    4.101311   -7.087761
  H      4.084693    4.596899   -5.739652
  H      5.963358    2.526112   -3.642391
  H      7.047164    2.066861   -5.473604
  H      7.198145    3.307994   -6.645225
  H      3.282025    2.949187   -4.640259
  H      3.565254    3.514574   -2.982523
  H      4.574833    1.215157   -2.500443
  H      2.843514    1.260845   -2.751465
  O      4.809132    1.150187   -6.414361
  F      6.267366    0.564999   -4.819481

 Total Charge           Charge          ....    0
 Multiplicity           Mult            ....    1
 Number of Electrons    NEL             ....   78
 Basis Dimension        Dim             ....  294

ORBITAL ENERGIES
----------------

  NO   OCC          E(Eh)            E(eV)
   0   2.0000     -24.552811      -668.1159
   1   2.0000     -18.973863      -516.3051
   2   2.0000     -14.195930      -386.2909
   3   2.0000     -14.185957      -386.0195
   4   2.0000     -10.275725      -279.6167
   5   2.0000     -10.133821      -275.7553
   6   2.0000     -10.129273      -275.6315
   7   2.0000     -10.125916      -275.5402
   8   2.0000     -10.119421      -275.3634
   9   2.0000      -9.987796      -271.7818
  10   2.0000      -1.392987       -37.9051
  11   2.0000      -1.133129       -30.8340
  12   2.0000      -1.067806       -29.0565
  13   2.0000      -0.985230       -26.8095
  14   2.0000      -0.925929       -25.1958
  15   2.0000      -0.849656       -23.1203
  16   2.0000      -0.806420       -21.9438
  17   2.0000      -0.765191       -20.8219
  18   2.0000      -0.729772       -19.8581
  19   2.0000      -0.707588       -19.2545
  20   2.0000      -0.670794       -18.2532
  21   2.0000      -0.663937       -18.0666
  22   2.0000      -0.629571       -17.1315
  23   2.0000      -0.613003       -16.6807
  24   2.0000      -0.605729       -16.4827
  25   2.0000      -0.595585       -16.2067
  26   2.0000      -0.571302       -15.5459
  27   2.0000      -0.545609       -14.8468
  28   2.0000      -0.528175       -14.3724
  29   2.0000      -0.511512       -13.9190
  30   2.0000      -0.497649       -13.5417
  31   2.0000      -0.491015       -13.3612
  32   2.0000      -0.476756       -12.9732
  33   2.0000      -0.467459       -12.7202
  34   2.0000      -0.463073       -12.6009
  35   2.0000      -0.427419       -11.6307
  36   2.0000      -0.398522       -10.8443
  37   2.0000      -0.361798        -9.8450
  38   2.0000      -0.262374        -7.1396
  39   0.0000       0.042257         1.1499
  40   0.0000       0.059930         1.6308
  41   0.0000       0.079299         2.1578
  42   0.0000       0.087065         2.3692
  43   0.0000       0.096314         2.6208

MULLIKEN ATOMIC CHARGES
-----------------------
   0 C :    0.910752
   1 N :   -0.146402
   2 C :    0.276385
   3 C :    0.486742
   4 H :   -0.167941
   5 H :   -0.060741
   6 C :    0.308721
   7 C :   -0.247675
   8 C :    1.085861
   9 N :    0.250429
  10 H :   -0.032736
  11 H :   -0.043172
  12 H :   -0.068032
  13 H :   -0.701168
  14 H :   -0.334471
  15 H :   -0.070813
  16 H :   -0.448210
  17 H :   -0.069087
  18 H :   -0.257474
  19 O :   -0.258483
  20 F :   -0.412483
Sum of atomic charges:    0.0000000

LOEWDIN ATOMIC CHARGES
----------------------
   0 C :    0.043150
   1 N :    0.024651
   2 C :   -0.020886
   3 C :    0.054043
   4 H :    0.037249
   5 H :    0.041977
   6 C :   -0.050107
   7 C :   -0.276736
   8 C :    0.153994
   9 N :    0.227304
  10 H :    0.008252
  11 H :   -0.018265
  12 H :    0.012208
  13 H :   -0.138108
  14 H :   -0.082675
  15 H :    0.024723
  16 H :    0.021731
  17 H :    0.032516
  18 H :    0.031505
  19 O :   -0.098517
  20 F :   -0.028008

  Mayer bond orders larger than 0.100000
B(  0-C ,  1-N ) :   0.9244 B(  0-C ,  2-C ) :   1.1691 B(  0-C ,  3-C ) :   0.1012
B(  0-C , 15-H ) :   0.6790 B(  0-C , 16-H ) :   0.7707 B(  0-C , 18-H ) :   0.2013
B(  1-N ,  2-C ) :   0.1608 B(  1-N ,  7-C ) :   1.2572 B(  1-N ,  8-C ) :   0.1913
B(  1-N , 12-H ) :   1.0174 B(  1-N , 15-H ) :   0.1436 B(  2-C ,  3-C ) :   1.1746
B(  2-C ,  4-H ) :   0.2053 B(  2-C ,  5-H ) :   0.1263 B(  2-C , 17-H ) :   0.7967
B(  2-C , 18-H ) :   0.8607 B(  3-C ,  4-H ) :   0.7506 B(  3-C ,  5-H ) :   0.8021
B(  3-C ,  6-C ) :   1.1020 B(  4-H ,  6-C ) :   0.1255 B(  5-H ,  6-C ) :   0.2467
B(  6-C , 13-H ) :   0.1136 B(  6-C , 19-O ) :   1.9761 B(  6-C , 20-F ) :   0.7699
B(  7-C ,  8-C ) :   1.9006 B(  7-C ,  9-N ) :   0.9871 B(  7-C , 11-H ) :   0.1824
B(  7-C , 12-H ) :  -0.1583 B(  7-C , 13-H ) :   0.2024 B(  7-C , 14-H ) :   0.5354
B(  8-C ,  9-N ) :   0.2680 B(  8-C , 13-H ) :   0.2553 B(  8-C , 14-H ) :   0.1860
B(  9-N , 10-H ) :   1.0330 B(  9-N , 11-H ) :   0.8384 B( 10-H , 11-H ) :  -0.1370
B( 13-H , 14-H ) :   0.1632 B( 13-H , 20-F ) :   0.2331 B( 15-H , 16-H ) :  -0.1559
B( 17-H , 18-H ) :  -0.1047 B( 19-O , 20-F ) :   0.1236

FINAL SINGLE POINT ENERGY      -518.231045577186

DIPOLE MOMENT
-------------
                                X             Y             Z
Electronic contribution:      4.38202      -4.69197      -2.57460
Nuclear contribution   :     -6.05797       3.87976       3.55209
                        -----------------------------------------
Total Dipole Moment    :     -1.67594      -0.81221       0.97749
                        -----------------------------------------
Magnitude (a.u.)       :      2.10332
Magnitude (Debye)      :      5.34621

Rotational constants in cm-1:     0.061282     0.043164     0.033679
Rotational constants in MHz :  1837.191639  1294.028651  1009.659886

                             ****ORCA TERMINATED NORMALLY****
TOTAL RUN TIME: 0 days 0 hours 1 minutes 29 seconds 966 msec
