                         Program Version 5.0.0 -  RELEASE  -
|  1> !wB97X-D3 RIJCOSX def2-SVP def2/J TightSCF
|  2> *xyz -1 1
|  3> C          3.38093        2.08304       -3.35013
|  4> C          2.49556        1.81615       -2.13636
|  5> C          1.87218        0.42790       -2.07750
|  6> H          2.61427       -0.36583       -2.19889
|  7> H          1.38995        0.27309       -1.11236
|  8> S          0.57902        0.14047       -3.29794
|  9> O          0.22886       -1.24687       -3.12787
| 10> O         -0.43927        1.11897       -3.01455
| 11> O          1.24788        0.40347       -4.59565
| 12> H          1.69700        2.56197       -2.14111
| 13> H          3.08079        1.98744       -1.22584
| 14> H          2.81820        1.91840       -4.24519
| 15> H          4.22171        1.42153       -3.33067
| 16> H          3.72372        3.09635       -3.32565
| 17> *
| 18>
| 19> %MaxCore 64000
| 20>
| 21> %pal nprocs 8
| 22> end
| 23>
| 24> %scf
| 25>   MaxIter 150
| 26> end
| 27>
| 28>
| 29>                          ****END OF INPUT****

CARTESIAN COORDINATES (ANGSTROEM)
---------------------------------
  C      3.380930    2.083040   -3.350130
  C      2.495560    1.816150   -2.136360
  C      1.872180    0.427900   -2.077500
  H      2.614270   -0.365830   -2.198890
  H      1.389950    0.273090   -1.112360
  S      0.579020    0.140470   -3.297940
  O      0.228860   -1.246870   -3.127870
  O     -0.439270    1.118970   -3.014550
  O      1.247880    0.403470   -4.595650
  H      1.697000    2.561970   -2.141110
  H      3.080790    1.987440   -1.225840
  H      2.818200    1.918400   -4.245190
  H      4.221710    1.421530   -3.330670
  H      3.723720    3.096350   -3.325650

 Total Charge           Charge          ....   -1
 Multiplicity           Mult            ....    1
 Number of Electrons    NEL             ....   66
 Basis Dimension        Dim             ....  137

ORBITAL ENERGIES
----------------

  NO   OCC          E(Eh)            E(eV)
   0   2.0000     -88.943924     -2420.2872
   1   2.0000     -18.997376      -516.9449
   2   2.0000     -18.997153      -516.9388
   3   2.0000     -18.983234      -516.5601
   4   2.0000     -10.148706      -276.1603
   5   2.0000     -10.135207      -275.7930
   6   2.0000     -10.129824      -275.6465
   7   2.0000      -8.024616      -218.3609
   8   2.0000      -5.983563      -162.8210
   9   2.0000      -5.983507      -162.8195
  10   2.0000      -5.983351      -162.8153
  11   2.0000      -1.028927       -27.9985
  12   2.0000      -0.887005       -24.1366
  13   2.0000      -0.861245       -23.4357
  14   2.0000      -0.757869       -20.6227
  15   2.0000      -0.664105       -18.0712
  16   2.0000      -0.563551       -15.3350
  17   2.0000      -0.472556       -12.8589
  18   2.0000      -0.422872       -11.5069
  19   2.0000      -0.410196       -11.1620
  20   2.0000      -0.379096       -10.3157
  21   2.0000      -0.367469        -9.9993
  22   2.0000      -0.348078        -9.4717
  23   2.0000      -0.336242        -9.1496
  24   2.0000      -0.305164        -8.3039
  25   2.0000      -0.298203        -8.1145
  26   2.0000      -0.286579        -7.7982
  27   2.0000      -0.228843        -6.2271
  28   2.0000      -0.226841        -6.1727
  29   2.0000      -0.192486        -5.2378
  30   2.0000      -0.182372        -4.9626
  31   2.0000      -0.169589        -4.6148
  32   2.0000      -0.138019        -3.7557
  33   0.0000       0.276111         7.5134
  34   0.0000       0.322845         8.7851
  35   0.0000       0.325000         8.8437
  36   0.0000       0.349570         9.5123
  37   0.0000       0.360220         9.8021

MULLIKEN ATOMIC CHARGES
-----------------------
   0 C :   -0.006712
   1 C :   -0.063636
   2 C :   -0.093498
   3 H :    0.012652
   4 H :    0.011915
   5 S :    0.884787
   6 O :   -0.574073
   7 O :   -0.575711
   8 O :   -0.610664
   9 H :    0.021091
  10 H :   -0.020097
  11 H :    0.056153
  12 H :   -0.017415
  13 H :   -0.024793
Sum of atomic charges:   -1.0000000

LOEWDIN ATOMIC CHARGES
----------------------
   0 C :   -0.067360
   1 C :   -0.059312
   2 C :   -0.187669
   3 H :    0.009579
   4 H :    0.008882
   5 S :    1.102626
   6 O :   -0.608244
   7 O :   -0.608104
   8 O :   -0.642306
   9 H :    0.019434
  10 H :    0.002511
  11 H :    0.023924
  12 H :    0.005244
  13 H :    0.000794

  Mayer bond orders larger than 0.100000
B(  0-C ,  1-C ) :   1.0853 B(  0-C , 11-H ) :   0.9523 B(  0-C , 12-H ) :   0.9718
B(  0-C , 13-H ) :   0.9681 B(  1-C ,  2-C ) :   1.0310 B(  1-C ,  9-H ) :   0.9484
B(  1-C , 10-H ) :   0.9544 B(  2-C ,  3-H ) :   0.9445 B(  2-C ,  4-H ) :   0.9435
B(  2-C ,  5-S ) :   0.9064 B(  5-S ,  6-O ) :   1.6486 B(  5-S ,  7-O ) :   1.6327
B(  5-S ,  8-O ) :   1.5588

Dispersion correction           -0.004485001
FINAL SINGLE POINT ENERGY      -741.917103456607

DIPOLE MOMENT
-------------
                                X             Y             Z
Electronic contribution:     -8.97432      -5.65067      -2.97962
Nuclear contribution   :     10.42821       6.37804       4.08250
                        -----------------------------------------
Total Dipole Moment    :      1.45390       0.72737       1.10288
                        -----------------------------------------
Magnitude (a.u.)       :      1.96449
Magnitude (Debye)      :      4.99334

Rotational constants in cm-1:     0.136992     0.054831     0.052480
Rotational constants in MHz :  4106.928256  1643.799656  1573.299166

                             ****ORCA TERMINATED NORMALLY****
TOTAL RUN TIME: 0 days 0 hours 0 minutes 12 seconds 347 msec
