                         Program Version 5.0.0 -  RELEASE  -
|  1> !wB97X-D3 RIJCOSX def2-SVP def2/J TightSCF
|  2> *xyz 1 1
|  3> C          3.38093        2.08304       -3.35013
|  4> N          4.53592        1.18245       -3.42852
|  5> C          2.49556        1.81615       -2.13636
|  6> C          1.87218        0.42790       -2.07750
|  7> C          4.67196        0.12227       -4.22060
|  8> N          5.86602       -0.50785       -4.22428
|  9> N          3.69888       -0.31284       -4.98699
| 10> H          2.73141       -0.05009       -4.84900
| 11> H          3.89005       -1.05517       -5.64373
| 12> H          5.25193        1.30346       -2.72101
| 13> H          6.69516       -0.06232       -3.85160
| 14> H          5.97538       -1.39688       -4.69141
| 15> H          1.69700        2.56197       -2.14111
| 16> H          3.08079        1.98744       -1.22584
| 17> H          2.80646        1.98651       -4.26848
| 18> H          3.77871        3.09828       -3.30738
| 19> H          1.29954        0.25615       -2.96490
| 20> H          1.23321        0.35984       -1.22194
| 21> H          2.64581       -0.30765       -2.00430
| 22> *
| 23>
| 24> %MaxCore 64000
| 25>
| 26> %pal nprocs 8
| 27> end
| 28>
| 29> %scf
| 30>   MaxIter 150
| 31> end
| 32>
| 33>
| 34>                          ****END OF INPUT****

CARTESIAN COORDINATES (ANGSTROEM)
---------------------------------
  C      3.380930    2.083040   -3.350130
  N      4.535920    1.182450   -3.428520
  C      2.495560    1.816150   -2.136360
  C      1.872180    0.427900   -2.077500
  C      4.671960    0.122270   -4.220600
  N      5.866020   -0.507850   -4.224280
  N      3.698880   -0.312840   -4.986990
  H      2.731410   -0.050090   -4.849000
  H      3.890050   -1.055170   -5.643730
  H      5.251930    1.303460   -2.721010
  H      6.695160   -0.062320   -3.851600
  H      5.975380   -1.396880   -4.691410
  H      1.697000    2.561970   -2.141110
  H      3.080790    1.987440   -1.225840
  H      2.806460    1.986510   -4.268480
  H      3.778710    3.098280   -3.307380
  H      1.299540    0.256150   -2.964900
  H      1.233210    0.359840   -1.221940
  H      2.645810   -0.307650   -2.004300

 Total Charge           Charge          ....    1
 Multiplicity           Mult            ....    1
 Number of Electrons    NEL             ....   56
 Basis Dimension        Dim             ....  158

ORBITAL ENERGIES
----------------

  NO   OCC          E(Eh)            E(eV)
   0   2.0000     -14.659456      -398.9041
   1   2.0000     -14.653869      -398.7520
   2   2.0000     -14.652371      -398.7113
   3   2.0000     -10.625384      -289.1314
   4   2.0000     -10.489527      -285.4345
   5   2.0000     -10.428095      -283.7629
   6   2.0000     -10.409392      -283.2539
   7   2.0000      -1.321704       -35.9654
   8   2.0000      -1.208904       -32.8959
   9   2.0000      -1.193451       -32.4754
  10   2.0000      -1.049325       -28.5536
  11   2.0000      -0.971997       -26.4494
  12   2.0000      -0.928662       -25.2702
  13   2.0000      -0.889216       -24.1968
  14   2.0000      -0.865868       -23.5615
  15   2.0000      -0.831487       -22.6259
  16   2.0000      -0.794523       -21.6201
  17   2.0000      -0.788778       -21.4637
  18   2.0000      -0.741157       -20.1679
  19   2.0000      -0.731647       -19.9091
  20   2.0000      -0.698621       -19.0105
  21   2.0000      -0.676595       -18.4111
  22   2.0000      -0.650839       -17.7102
  23   2.0000      -0.605230       -16.4691
  24   2.0000      -0.583081       -15.8664
  25   2.0000      -0.575396       -15.6573
  26   2.0000      -0.567657       -15.4467
  27   2.0000      -0.532196       -14.4818
  28   0.0000      -0.072273        -1.9667
  29   0.0000      -0.043510        -1.1840
  30   0.0000      -0.013061        -0.3554
  31   0.0000       0.000334         0.0091
  32   0.0000       0.012922         0.3516

MULLIKEN ATOMIC CHARGES
-----------------------
   0 C :    0.046600
   1 N :   -0.183355
   2 C :   -0.095819
   3 C :   -0.055118
   4 C :    0.108877
   5 N :   -0.101020
   6 N :   -0.052416
   7 H :    0.181110
   8 H :    0.181778
   9 H :    0.176796
  10 H :    0.185938
  11 H :    0.180899
  12 H :    0.078879
  13 H :    0.057457
  14 H :    0.057981
  15 H :    0.092170
  16 H :    0.026600
  17 H :    0.081549
  18 H :    0.031093
Sum of atomic charges:    1.0000000

LOEWDIN ATOMIC CHARGES
----------------------
   0 C :    0.045682
   1 N :    0.017990
   2 C :   -0.047175
   3 C :   -0.055677
   4 C :    0.157389
   5 N :    0.023189
   6 N :    0.054167
   7 H :    0.108754
   8 H :    0.114064
   9 H :    0.107680
  10 H :    0.112360
  11 H :    0.108795
  12 H :    0.047887
  13 H :    0.035365
  14 H :    0.031980
  15 H :    0.050937
  16 H :    0.019277
  17 H :    0.048670
  18 H :    0.018666

  Mayer bond orders larger than 0.100000
B(  0-C ,  1-N ) :   0.9100 B(  0-C ,  2-C ) :   1.0648 B(  0-C , 14-H ) :   0.9574
B(  0-C , 15-H ) :   0.9512 B(  1-N ,  4-C ) :   1.3736 B(  1-N ,  9-H ) :   0.9106
B(  2-C ,  3-C ) :   1.0755 B(  2-C , 12-H ) :   0.9495 B(  2-C , 13-H ) :   0.9513
B(  3-C , 16-H ) :   0.9725 B(  3-C , 17-H ) :   0.9670 B(  3-C , 18-H ) :   0.9712
B(  4-C ,  5-N ) :   1.3677 B(  4-C ,  6-N ) :   1.4170 B(  5-N , 10-H ) :   0.9258
B(  5-N , 11-H ) :   0.9300 B(  6-N ,  7-H ) :   0.9185 B(  6-N ,  8-H ) :   0.9241

Dispersion correction           -0.005588697
FINAL SINGLE POINT ENERGY      -323.398904231495

DIPOLE MOMENT
-------------
                                X             Y             Z
Electronic contribution:      5.37300      -1.52865      -3.83319
Nuclear contribution   :     -4.20917       0.72396       2.93051
                        -----------------------------------------
Total Dipole Moment    :      1.16383      -0.80469      -0.90268
                        -----------------------------------------
Magnitude (a.u.)       :      1.67834
Magnitude (Debye)      :      4.26601

Rotational constants in cm-1:     0.153116     0.051500     0.046494
Rotational constants in MHz :  4590.307026  1543.937577  1393.864628

                             ****ORCA TERMINATED NORMALLY****
TOTAL RUN TIME: 0 days 0 hours 0 minutes 16 seconds 685 msec
