                         Program Version 5.0.0 -  RELEASE  -
|  1> !wB97X-D3 RIJCOSX def2-SVP def2/J TightSCF xyzfile
|  2>
|  3> *xyzfile 0 1 B.xyz
|  4>
|  5> %MaxCore 64000
|  6>
|  7> %pal nprocs 18
|  8> end
|  9>
| 10> %scf
| 11>   MaxIter 150
| 12> end
| 13>
| 14>
| 15>                          ****END OF INPUT****

CARTESIAN COORDINATES (ANGSTROEM)
---------------------------------
  C      3.380928    2.083045   -3.350127
  N      4.535924    1.182447   -3.428518
  C      2.495557    1.816150   -2.136364
  C      1.872181    0.427903   -2.077497
  H      2.614270   -0.365825   -2.198894
  H      1.389953    0.273087   -1.112360
  S      0.579024    0.140472   -3.297943
  C      4.671956    0.122273   -4.220598
  N      5.866023   -0.507849   -4.224284
  N      3.698881   -0.312844   -4.986988
  H      2.731405   -0.050091   -4.849000
  H      3.890046   -1.055172   -5.643730
  H      5.251933    1.303459   -2.721014
  H      6.695165   -0.062322   -3.851596
  H      5.975383   -1.396884   -4.691414
  O      0.228860   -1.246868   -3.127871
  O     -0.439269    1.118966   -3.014550
  O      1.247881    0.403474   -4.595647
  H      1.697003    2.561969   -2.141109
  H      3.080787    1.987436   -1.225838
  H      2.806463    1.986511   -4.268484
  H      3.778714    3.098282   -3.307383

 Total Charge           Charge          ....    0
 Multiplicity           Mult            ....    1
 Number of Electrons    NEL             ....   96
 Basis Dimension        Dim             ....  213

ORBITAL ENERGIES
----------------

  NO   OCC          E(Eh)            E(eV)
   0   2.0000     -89.094134     -2424.3746
   1   2.0000     -19.156855      -521.2845
   2   2.0000     -19.137965      -520.7705
   3   2.0000     -19.137607      -520.7608
   4   2.0000     -14.529745      -395.3745
   5   2.0000     -14.521825      -395.1590
   6   2.0000     -14.490813      -394.3151
   7   2.0000     -10.486673      -285.3569
   8   2.0000     -10.350374      -281.6480
   9   2.0000     -10.300883      -280.3013
  10   2.0000     -10.281593      -279.7764
  11   2.0000      -8.174930      -222.4512
  12   2.0000      -6.134617      -166.9314
  13   2.0000      -6.133496      -166.9009
  14   2.0000      -6.133194      -166.8927
  15   2.0000      -1.185292       -32.2534
  16   2.0000      -1.178956       -32.0810
  17   2.0000      -1.073293       -29.2058
  18   2.0000      -1.055749       -28.7284
  19   2.0000      -1.027775       -27.9672
  20   2.0000      -1.027276       -27.9536
  21   2.0000      -0.916828       -24.9482
  22   2.0000      -0.843660       -22.9571
  23   2.0000      -0.788109       -21.4455
  24   2.0000      -0.753512       -20.5041
  25   2.0000      -0.742871       -20.2145
  26   2.0000      -0.706010       -19.2115
  27   2.0000      -0.663703       -18.0603
  28   2.0000      -0.648308       -17.6414
  29   2.0000      -0.626179       -17.0392
  30   2.0000      -0.609113       -16.5748
  31   2.0000      -0.583244       -15.8709
  32   2.0000      -0.570323       -15.5193
  33   2.0000      -0.548392       -14.9225
  34   2.0000      -0.529703       -14.4140
  35   2.0000      -0.509387       -13.8611
  36   2.0000      -0.486948       -13.2505
  37   2.0000      -0.473158       -12.8753
  38   2.0000      -0.464862       -12.6495
  39   2.0000      -0.452507       -12.3133
  40   2.0000      -0.431277       -11.7356
  41   2.0000      -0.399939       -10.8829
  42   2.0000      -0.381897       -10.3919
  43   2.0000      -0.374112       -10.1801
  44   2.0000      -0.343100        -9.3362
  45   2.0000      -0.331257        -9.0140
  46   2.0000      -0.322969        -8.7884
  47   2.0000      -0.291223        -7.9246
  48   0.0000       0.064570         1.7570
  49   0.0000       0.071115         1.9351
  50   0.0000       0.108750         2.9592
  51   0.0000       0.125894         3.4257
  52   0.0000       0.162762         4.4290

MULLIKEN ATOMIC CHARGES
-----------------------
   0 C :    0.068868
   1 N :   -0.194231
   2 C :   -0.019503
   3 C :   -0.141543
   4 H :    0.024704
   5 H :    0.069225
   6 S :    0.912821
   7 C :    0.079252
   8 N :   -0.120733
   9 N :   -0.022775
  10 H :    0.149448
  11 H :    0.149830
  12 H :    0.149719
  13 H :    0.159742
  14 H :    0.163320
  15 O :   -0.527597
  16 O :   -0.523256
  17 O :   -0.598324
  18 H :    0.070357
  19 H :    0.018576
  20 H :    0.084617
  21 H :    0.047482
Sum of atomic charges:    0.0000000

LOEWDIN ATOMIC CHARGES
----------------------
   0 C :    0.039947
   1 N :    0.005192
   2 C :   -0.057298
   3 C :   -0.189063
   4 H :    0.008383
   5 H :    0.035213
   6 S :    1.119954
   7 C :    0.142691
   8 N :   -0.004370
   9 N :    0.062897
  10 H :    0.026182
  11 H :    0.096644
  12 H :    0.091066
  13 H :    0.095617
  14 H :    0.097478
  15 O :   -0.568837
  16 O :   -0.563091
  17 O :   -0.571219
  18 H :    0.044832
  19 H :    0.020130
  20 H :    0.037296
  21 H :    0.030358

  Mayer bond orders larger than 0.100000
B(  0-C ,  1-N ) :   0.9012 B(  0-C ,  2-C ) :   1.0693 B(  0-C , 20-H ) :   0.9318
B(  0-C , 21-H ) :   0.9553 B(  1-N ,  7-C ) :   1.3433 B(  1-N , 12-H ) :   0.9186
B(  2-C ,  3-C ) :   1.0163 B(  2-C , 18-H ) :   0.9358 B(  2-C , 19-H ) :   0.9482
B(  3-C ,  4-H ) :   0.9405 B(  3-C ,  5-H ) :   0.9416 B(  3-C ,  6-S ) :   0.9138
B(  6-S , 15-O ) :   1.6974 B(  6-S , 16-O ) :   1.6924 B(  6-S , 17-O ) :   1.3695
B(  7-C ,  8-N ) :   1.2980 B(  7-C ,  9-N ) :   1.5201 B(  8-N , 13-H ) :   0.9352
B(  8-N , 14-H ) :   0.9383 B(  9-N , 10-H ) :   0.7997 B(  9-N , 11-H ) :   0.9286
B( 10-H , 17-O ) :   0.2454

Dispersion correction           -0.009899726
FINAL SINGLE POINT ENERGY      -946.443025433956

DIPOLE MOMENT
-------------
                                X             Y             Z
Electronic contribution:     -7.00130      -3.30394      -2.47910
Nuclear contribution   :     13.40759       3.44219       2.21042
                        -----------------------------------------
Total Dipole Moment    :      6.40629       0.13826      -0.26868
                        -----------------------------------------
Magnitude (a.u.)       :      6.41342
Magnitude (Debye)      :     16.30161

Rotational constants in cm-1:     0.059860     0.020817     0.017914
Rotational constants in MHz :  1794.564877   624.092098   537.039275

                             ****ORCA TERMINATED NORMALLY****
TOTAL RUN TIME: 0 days 0 hours 0 minutes 16 seconds 823 msec
