                         Program Version 5.0.0 -  RELEASE  -
|  1> !wB97X-D3 RIJCOSX def2-SVP def2/J TightSCF
|  2> *xyz 0 1
|  3> C          3.38093        2.08304       -3.35013
|  4> C          2.49556        1.81615       -2.13636
|  5> C          1.87218        0.42790       -2.07750
|  6> H          2.61427       -0.36583       -2.19889
|  7> H          1.38995        0.27309       -1.11236
|  8> S          0.57902        0.14047       -3.29794
|  9> F          0.22886       -1.24687       -3.12787
| 10> O         -0.43927        1.11897       -3.01455
| 11> O          1.24788        0.40347       -4.59565
| 12> H          1.69700        2.56197       -2.14111
| 13> H          3.08079        1.98744       -1.22584
| 14> H          2.81820        1.91840       -4.24519
| 15> H          4.22171        1.42153       -3.33067
| 16> H          3.72372        3.09635       -3.32565
| 17> *
| 18>
| 19> %MaxCore 64000
| 20>
| 21> %pal nprocs 8
| 22> end
| 23>
| 24> %scf
| 25>   MaxIter 150
| 26> end
| 27>
| 28>
| 29>                          ****END OF INPUT****

CARTESIAN COORDINATES (ANGSTROEM)
---------------------------------
  C      3.380930    2.083040   -3.350130
  C      2.495560    1.816150   -2.136360
  C      1.872180    0.427900   -2.077500
  H      2.614270   -0.365830   -2.198890
  H      1.389950    0.273090   -1.112360
  S      0.579020    0.140470   -3.297940
  F      0.228860   -1.246870   -3.127870
  O     -0.439270    1.118970   -3.014550
  O      1.247880    0.403470   -4.595650
  H      1.697000    2.561970   -2.141110
  H      3.080790    1.987440   -1.225840
  H      2.818200    1.918400   -4.245190
  H      4.221710    1.421530   -3.330670
  H      3.723720    3.096350   -3.325650

 Total Charge           Charge          ....    0
 Multiplicity           Mult            ....    1
 Number of Electrons    NEL             ....   66
 Basis Dimension        Dim             ....  137

ORBITAL ENERGIES
----------------

  NO   OCC          E(Eh)            E(eV)
   0   2.0000     -89.214742     -2427.6566
   1   2.0000     -24.911186      -677.8678
   2   2.0000     -19.245656      -523.7009
   3   2.0000     -19.230377      -523.2852
   4   2.0000     -10.344217      -281.4805
   5   2.0000     -10.312424      -280.6153
   6   2.0000     -10.273262      -279.5497
   7   2.0000      -8.297821      -225.7952
   8   2.0000      -6.260946      -170.3690
   9   2.0000      -6.254370      -170.1901
  10   2.0000      -6.253096      -170.1554
  11   2.0000      -1.491882       -40.5962
  12   2.0000      -1.219377       -33.1809
  13   2.0000      -1.109968       -30.2038
  14   2.0000      -0.939695       -25.5704
  15   2.0000      -0.863245       -23.4901
  16   2.0000      -0.811967       -22.0947
  17   2.0000      -0.737935       -20.0802
  18   2.0000      -0.692761       -18.8510
  19   2.0000      -0.682613       -18.5748
  20   2.0000      -0.655520       -17.8376
  21   2.0000      -0.591304       -16.0902
  22   2.0000      -0.584906       -15.9161
  23   2.0000      -0.546925       -14.8826
  24   2.0000      -0.536787       -14.6067
  25   2.0000      -0.525638       -14.3033
  26   2.0000      -0.481012       -13.0890
  27   2.0000      -0.463800       -12.6206
  28   2.0000      -0.462538       -12.5863
  29   2.0000      -0.448463       -12.2033
  30   2.0000      -0.422801       -11.5050
  31   2.0000      -0.399397       -10.8681
  32   2.0000      -0.392707       -10.6861
  33   0.0000       0.123162         3.3514
  34   0.0000       0.129901         3.5348
  35   0.0000       0.157564         4.2875
  36   0.0000       0.170314         4.6345
  37   0.0000       0.179686         4.8895

MULLIKEN ATOMIC CHARGES
-----------------------
   0 C :   -0.028205
   1 C :   -0.097838
   2 C :   -0.123948
   3 H :    0.074632
   4 H :    0.077634
   5 S :    0.962106
   6 F :   -0.171439
   7 O :   -0.440100
   8 O :   -0.484008
   9 H :    0.061834
  10 H :    0.051992
  11 H :    0.066260
  12 H :    0.019054
  13 H :    0.032026
Sum of atomic charges:   -0.0000000

LOEWDIN ATOMIC CHARGES
----------------------
   0 C :   -0.057948
   1 C :   -0.047574
   2 C :   -0.152317
   3 H :    0.034126
   4 H :    0.035112
   5 S :    1.161137
   6 F :   -0.115036
   7 O :   -0.481600
   8 O :   -0.521015
   9 H :    0.035905
  10 H :    0.036679
  11 H :    0.027216
  12 H :    0.019499
  13 H :    0.025815

  Mayer bond orders larger than 0.100000
B(  0-C ,  1-C ) :   1.0833 B(  0-C , 11-H ) :   0.9658 B(  0-C , 12-H ) :   0.9748
B(  0-C , 13-H ) :   0.9707 B(  1-C ,  2-C ) :   1.0371 B(  1-C ,  9-H ) :   0.9526
B(  1-C , 10-H ) :   0.9527 B(  2-C ,  3-H ) :   0.9317 B(  2-C ,  4-H ) :   0.9339
B(  2-C ,  5-S ) :   0.9309 B(  5-S ,  6-F ) :   1.0292 B(  5-S ,  7-O ) :   1.7835
B(  5-S ,  8-O ) :   1.7198

Dispersion correction           -0.004465404
FINAL SINGLE POINT ENERGY      -766.411017235461

DIPOLE MOMENT
-------------
                                X             Y             Z
Electronic contribution:    -10.76742      -8.97322      -2.87027
Nuclear contribution   :     11.47400       8.34657       4.07449
                        -----------------------------------------
Total Dipole Moment    :      0.70657      -0.62664       1.20422
                        -----------------------------------------
Magnitude (a.u.)       :      1.53039
Magnitude (Debye)      :      3.88993

Rotational constants in cm-1:     0.134491     0.052696     0.050832
Rotational constants in MHz :  4031.952949  1579.780527  1523.918863

                             ****ORCA TERMINATED NORMALLY****
TOTAL RUN TIME: 0 days 0 hours 0 minutes 13 seconds 201 msec
