                         Program Version 5.0.0 -  RELEASE  -
|  1> !wB97X-D3 RIJCOSX def2-SVP def2/J TightSCF
|  2> *xyz 0 1
|  3> C          3.38093        2.08304       -3.35013
|  4> C          4.53592        1.18245       -3.42852
|  5> C          2.49556        1.81615       -2.13636
|  6> C          1.87218        0.42790       -2.07750
|  7> C          4.67196        0.12227       -4.22060
|  8> N          5.86602       -0.50785       -4.22428
|  9> N          3.69888       -0.31284       -4.98699
| 10> H          2.73141       -0.05009       -4.84900
| 11> H          3.89005       -1.05517       -5.64373
| 12> H          5.25193        1.30346       -2.72101
| 13> H          6.69516       -0.06232       -3.85160
| 14> H          5.97538       -1.39688       -4.69141
| 15> H          1.69700        2.56197       -2.14111
| 16> H          3.08079        1.98744       -1.22584
| 17> H          2.80646        1.98651       -4.26848
| 18> H          3.77871        3.09828       -3.30738
| 19> H          1.29954        0.25615       -2.96490
| 20> H          1.23321        0.35984       -1.22194
| 21> H          2.64581       -0.30765       -2.00430
| 22> *
| 23>
| 24> %MaxCore 64000
| 25>
| 26> %pal nprocs 8
| 27> end
| 28>
| 29> %scf
| 30>   MaxIter 150
| 31> end
| 32>
| 33>
| 34>                          ****END OF INPUT****

CARTESIAN COORDINATES (ANGSTROEM)
---------------------------------
  C      3.380930    2.083040   -3.350130
  C      4.535920    1.182450   -3.428520
  C      2.495560    1.816150   -2.136360
  C      1.872180    0.427900   -2.077500
  C      4.671960    0.122270   -4.220600
  N      5.866020   -0.507850   -4.224280
  N      3.698880   -0.312840   -4.986990
  H      2.731410   -0.050090   -4.849000
  H      3.890050   -1.055170   -5.643730
  H      5.251930    1.303460   -2.721010
  H      6.695160   -0.062320   -3.851600
  H      5.975380   -1.396880   -4.691410
  H      1.697000    2.561970   -2.141110
  H      3.080790    1.987440   -1.225840
  H      2.806460    1.986510   -4.268480
  H      3.778710    3.098280   -3.307380
  H      1.299540    0.256150   -2.964900
  H      1.233210    0.359840   -1.221940
  H      2.645810   -0.307650   -2.004300

 Total Charge           Charge          ....    0
 Multiplicity           Mult            ....    1
 Number of Electrons    NEL             ....   56
 Basis Dimension        Dim             ....  158

ORBITAL ENERGIES
----------------

  NO   OCC          E(Eh)            E(eV)
   0   2.0000     -14.431894      -392.7118
   1   2.0000     -14.424274      -392.5045
   2   2.0000     -10.327756      -281.0325
   3   2.0000     -10.260264      -279.1960
   4   2.0000     -10.257087      -279.1095
   5   2.0000     -10.255119      -279.0560
   6   2.0000     -10.199553      -277.5440
   7   2.0000      -1.062949       -28.9243
   8   2.0000      -0.967704       -26.3326
   9   2.0000      -0.889323       -24.1997
  10   2.0000      -0.822885       -22.3918
  11   2.0000      -0.760865       -20.7042
  12   2.0000      -0.697308       -18.9747
  13   2.0000      -0.661899       -18.0112
  14   2.0000      -0.639091       -17.3905
  15   2.0000      -0.602574       -16.3969
  16   2.0000      -0.573312       -15.6006
  17   2.0000      -0.538966       -14.6660
  18   2.0000      -0.528886       -14.3917
  19   2.0000      -0.508536       -13.8380
  20   2.0000      -0.477469       -12.9926
  21   2.0000      -0.467533       -12.7222
  22   2.0000      -0.440288       -11.9809
  23   2.0000      -0.421452       -11.4683
  24   2.0000      -0.403497       -10.9797
  25   2.0000      -0.397209       -10.8086
  26   2.0000      -0.351313        -9.5597
  27   2.0000      -0.234270        -6.3748
  28   0.0000       0.130804         3.5593
  29   0.0000       0.155228         4.2240
  30   0.0000       0.177781         4.8377
  31   0.0000       0.185636         5.0514
  32   0.0000       0.194925         5.3042

MULLIKEN ATOMIC CHARGES
-----------------------
   0 C :    0.056925
   1 C :   -0.236950
   2 C :   -0.052134
   3 C :   -0.023617
   4 C :    0.011864
   5 N :   -0.136047
   6 N :   -0.093049
   7 H :    0.129860
   8 H :    0.112731
   9 H :   -0.075561
  10 H :    0.133522
  11 H :    0.106665
  12 H :    0.007549
  13 H :    0.011692
  14 H :   -0.019240
  15 H :    0.009798
  16 H :   -0.001057
  17 H :    0.022935
  18 H :    0.034116
Sum of atomic charges:   -0.0000000

LOEWDIN ATOMIC CHARGES
----------------------
   0 C :   -0.040106
   1 C :   -0.227019
   2 C :   -0.042959
   3 C :   -0.059932
   4 C :    0.030101
   5 N :   -0.042605
   6 N :   -0.016469
   7 H :    0.078757
   8 H :    0.068002
   9 H :   -0.010356
  10 H :    0.083274
  11 H :    0.061614
  12 H :    0.012469
  13 H :    0.018301
  14 H :    0.008386
  15 H :    0.024378
  16 H :    0.009799
  17 H :    0.021966
  18 H :    0.022399

  Mayer bond orders larger than 0.100000
B(  0-C ,  1-C ) :   1.0555 B(  0-C ,  2-C ) :   1.0685 B(  0-C , 14-H ) :   0.9471
B(  0-C , 15-H ) :   0.9271 B(  1-C ,  4-C ) :   1.6893 B(  1-C ,  9-H ) :   0.9608
B(  2-C ,  3-C ) :   1.0814 B(  2-C , 12-H ) :   0.9543 B(  2-C , 13-H ) :   0.9539
B(  3-C , 16-H ) :   0.9701 B(  3-C , 17-H ) :   0.9710 B(  3-C , 18-H ) :   0.9711
B(  4-C ,  5-N ) :   1.2086 B(  4-C ,  6-N ) :   1.2539 B(  5-N , 10-H ) :   0.9450
B(  5-N , 11-H ) :   0.9538 B(  6-N ,  7-H ) :   0.9386 B(  6-N ,  8-H ) :   0.9484

Dispersion correction           -0.005564286
FINAL SINGLE POINT ENERGY      -306.923430846170

DIPOLE MOMENT
-------------
                                X             Y             Z
Electronic contribution:      4.28188      -1.80483      -3.58156
Nuclear contribution   :     -4.04774       0.83876       2.94666
                        -----------------------------------------
Total Dipole Moment    :      0.23414      -0.96607      -0.63489
                        -----------------------------------------
Magnitude (a.u.)       :      1.17949
Magnitude (Debye)      :      2.99802

Rotational constants in cm-1:     0.155283     0.051523     0.046710
Rotational constants in MHz :  4655.262593  1544.606434  1400.328421

                             ****ORCA TERMINATED NORMALLY****
TOTAL RUN TIME: 0 days 0 hours 0 minutes 16 seconds 866 msec
