                         Program Version 5.0.0 -  RELEASE  -
|  1> !wB97X-D3 RIJCOSX def2-SVP def2/J TightSCF
|  2> *xyz 0 1
|  3> C          3.38093        2.08304       -3.35013
|  4> C          2.49556        1.81615       -2.13636
|  5> C          1.87218        0.42790       -2.07750
|  6> H          2.61427       -0.36583       -2.19889
|  7> H          1.38995        0.27309       -1.11236
|  8> S          0.57902        0.14047       -3.29794
|  9> O          0.22886       -1.24687       -3.12787
| 10> F         -0.43927        1.11897       -3.01455
| 11> O          1.24788        0.40347       -4.59565
| 12> H          1.69700        2.56197       -2.14111
| 13> H          3.08079        1.98744       -1.22584
| 14> H          2.81820        1.91840       -4.24519
| 15> H          4.22171        1.42153       -3.33067
| 16> H          3.72372        3.09635       -3.32565
| 17> *
| 18>
| 19> %MaxCore 64000
| 20>
| 21> %pal nprocs 8
| 22> end
| 23>
| 24> %scf
| 25>   MaxIter 150
| 26> end
| 27>
| 28>
| 29>                          ****END OF INPUT****

CARTESIAN COORDINATES (ANGSTROEM)
---------------------------------
  C      3.380930    2.083040   -3.350130
  C      2.495560    1.816150   -2.136360
  C      1.872180    0.427900   -2.077500
  H      2.614270   -0.365830   -2.198890
  H      1.389950    0.273090   -1.112360
  S      0.579020    0.140470   -3.297940
  O      0.228860   -1.246870   -3.127870
  F     -0.439270    1.118970   -3.014550
  O      1.247880    0.403470   -4.595650
  H      1.697000    2.561970   -2.141110
  H      3.080790    1.987440   -1.225840
  H      2.818200    1.918400   -4.245190
  H      4.221710    1.421530   -3.330670
  H      3.723720    3.096350   -3.325650

 Total Charge           Charge          ....    0
 Multiplicity           Mult            ....    1
 Number of Electrons    NEL             ....   66
 Basis Dimension        Dim             ....  137

ORBITAL ENERGIES
----------------

  NO   OCC          E(Eh)            E(eV)
   0   2.0000     -89.215209     -2427.6693
   1   2.0000     -24.911586      -677.8787
   2   2.0000     -19.246095      -523.7129
   3   2.0000     -19.231798      -523.3238
   4   2.0000     -10.344092      -281.4771
   5   2.0000     -10.316052      -280.7140
   6   2.0000     -10.276754      -279.6447
   7   2.0000      -8.298246      -225.8068
   8   2.0000      -6.261479      -170.3835
   9   2.0000      -6.254749      -170.2004
  10   2.0000      -6.253478      -170.1658
  11   2.0000      -1.492397       -40.6102
  12   2.0000      -1.219139       -33.1744
  13   2.0000      -1.111695       -30.2508
  14   2.0000      -0.943529       -25.6747
  15   2.0000      -0.860608       -23.4183
  16   2.0000      -0.815151       -22.1814
  17   2.0000      -0.738199       -20.0874
  18   2.0000      -0.700336       -19.0571
  19   2.0000      -0.690414       -18.7871
  20   2.0000      -0.645548       -17.5663
  21   2.0000      -0.589879       -16.0514
  22   2.0000      -0.586624       -15.9628
  23   2.0000      -0.553683       -15.0665
  24   2.0000      -0.536227       -14.5915
  25   2.0000      -0.529126       -14.3983
  26   2.0000      -0.482597       -13.1321
  27   2.0000      -0.469511       -12.7760
  28   2.0000      -0.466170       -12.6851
  29   2.0000      -0.451675       -12.2907
  30   2.0000      -0.422168       -11.4878
  31   2.0000      -0.402656       -10.9568
  32   2.0000      -0.391815       -10.6618
  33   0.0000       0.113129         3.0784
  34   0.0000       0.137666         3.7461
  35   0.0000       0.152544         4.1509
  36   0.0000       0.173405         4.7186
  37   0.0000       0.179486         4.8841

MULLIKEN ATOMIC CHARGES
-----------------------
   0 C :   -0.022083
   1 C :   -0.112783
   2 C :   -0.127069
   3 H :    0.105171
   4 H :    0.078450
   5 S :    0.961680
   6 O :   -0.434477
   7 F :   -0.173200
   8 O :   -0.479917
   9 H :    0.037114
  10 H :    0.051960
  11 H :    0.059022
  12 H :    0.025021
  13 H :    0.031114
Sum of atomic charges:    0.0000000

LOEWDIN ATOMIC CHARGES
----------------------
   0 C :   -0.058966
   1 C :   -0.060618
   2 C :   -0.148204
   3 H :    0.053416
   4 H :    0.034772
   5 S :    1.161781
   6 O :   -0.479870
   7 F :   -0.114712
   8 O :   -0.518264
   9 H :    0.023883
  10 H :    0.035472
  11 H :    0.024020
  12 H :    0.022364
  13 H :    0.024926

  Mayer bond orders larger than 0.100000
B(  0-C ,  1-C ) :   1.0768 B(  0-C , 11-H ) :   0.9630 B(  0-C , 12-H ) :   0.9753
B(  0-C , 13-H ) :   0.9708 B(  1-C ,  2-C ) :   1.0155 B(  1-C ,  9-H ) :   0.9573
B(  1-C , 10-H ) :   0.9513 B(  2-C ,  3-H ) :   0.9372 B(  2-C ,  4-H ) :   0.9377
B(  2-C ,  5-S ) :   0.9303 B(  5-S ,  6-O ) :   1.7956 B(  5-S ,  7-F ) :   1.0218
B(  5-S ,  8-O ) :   1.7208

Dispersion correction           -0.004429326
FINAL SINGLE POINT ENERGY      -766.411054491234

DIPOLE MOMENT
-------------
                                X             Y             Z
Electronic contribution:    -11.91089      -4.88526      -2.67079
Nuclear contribution   :     12.19253       5.80225       3.95262
                        -----------------------------------------
Total Dipole Moment    :      0.28164       0.91699       1.28183
                        -----------------------------------------
Magnitude (a.u.)       :      1.60103
Magnitude (Debye)      :      4.06948

Rotational constants in cm-1:     0.130581     0.053444     0.051914
Rotational constants in MHz :  3914.711139  1602.211061  1556.338643

                             ****ORCA TERMINATED NORMALLY****
TOTAL RUN TIME: 0 days 0 hours 0 minutes 12 seconds 901 msec
