                         Program Version 5.0.0 -  RELEASE  -
|  1> !wB97X-D3 RIJCOSX def2-SVP def2/J TightSCF
|  2> *xyz 0 1
|  3> C          3.38093        2.08304       -3.35013
|  4> N          4.53592        1.18245       -3.42852
|  5> C          2.49556        1.81615       -2.13636
|  6> C          1.87218        0.42790       -2.07750
|  7> C          4.67196        0.12227       -4.22060
|  8> C          5.86602       -0.50785       -4.22428
|  9> N          3.69888       -0.31284       -4.98699
| 10> H          2.73141       -0.05009       -4.84900
| 11> H          3.89005       -1.05517       -5.64373
| 12> H          5.25193        1.30346       -2.72101
| 13> H          6.69516       -0.06232       -3.85160
| 14> H          5.97538       -1.39688       -4.69141
| 15> H          1.69700        2.56197       -2.14111
| 16> H          3.08079        1.98744       -1.22584
| 17> H          2.80646        1.98651       -4.26848
| 18> H          3.77871        3.09828       -3.30738
| 19> H          1.29954        0.25615       -2.96490
| 20> H          1.23321        0.35984       -1.22194
| 21> H          2.64581       -0.30765       -2.00430
| 22> *
| 23>
| 24> %MaxCore 64000
| 25>
| 26> %pal nprocs 8
| 27> end
| 28>
| 29> %scf
| 30>   MaxIter 150
| 31> end
| 32>
| 33>
| 34>                          ****END OF INPUT****

CARTESIAN COORDINATES (ANGSTROEM)
---------------------------------
  C      3.380930    2.083040   -3.350130
  N      4.535920    1.182450   -3.428520
  C      2.495560    1.816150   -2.136360
  C      1.872180    0.427900   -2.077500
  C      4.671960    0.122270   -4.220600
  C      5.866020   -0.507850   -4.224280
  N      3.698880   -0.312840   -4.986990
  H      2.731410   -0.050090   -4.849000
  H      3.890050   -1.055170   -5.643730
  H      5.251930    1.303460   -2.721010
  H      6.695160   -0.062320   -3.851600
  H      5.975380   -1.396880   -4.691410
  H      1.697000    2.561970   -2.141110
  H      3.080790    1.987440   -1.225840
  H      2.806460    1.986510   -4.268480
  H      3.778710    3.098280   -3.307380
  H      1.299540    0.256150   -2.964900
  H      1.233210    0.359840   -1.221940
  H      2.645810   -0.307650   -2.004300

 Total Charge           Charge          ....    0
 Multiplicity           Mult            ....    1
 Number of Electrons    NEL             ....   56
 Basis Dimension        Dim             ....  158

ORBITAL ENERGIES
----------------

  NO   OCC          E(Eh)            E(eV)
   0   2.0000     -14.431840      -392.7103
   1   2.0000     -14.428385      -392.6163
   2   2.0000     -10.331455      -281.1332
   3   2.0000     -10.325077      -280.9596
   4   2.0000     -10.289840      -280.0008
   5   2.0000     -10.278733      -279.6985
   6   2.0000     -10.189602      -277.2732
   7   2.0000      -1.071681       -29.1619
   8   2.0000      -0.988905       -26.9095
   9   2.0000      -0.899027       -24.4638
  10   2.0000      -0.825279       -22.4570
  11   2.0000      -0.772265       -21.0144
  12   2.0000      -0.701579       -19.0909
  13   2.0000      -0.698777       -19.0147
  14   2.0000      -0.641763       -17.4633
  15   2.0000      -0.595282       -16.1984
  16   2.0000      -0.571349       -15.5472
  17   2.0000      -0.560666       -15.2565
  18   2.0000      -0.548084       -14.9141
  19   2.0000      -0.500081       -13.6079
  20   2.0000      -0.490679       -13.3521
  21   2.0000      -0.480499       -13.0751
  22   2.0000      -0.463352       -12.6084
  23   2.0000      -0.444174       -12.0866
  24   2.0000      -0.438118       -11.9218
  25   2.0000      -0.435125       -11.8403
  26   2.0000      -0.339814        -9.2468
  27   2.0000      -0.235621        -6.4116
  28   0.0000       0.126317         3.4373
  29   0.0000       0.152945         4.1618
  30   0.0000       0.168621         4.5884
  31   0.0000       0.184226         5.0130
  32   0.0000       0.187811         5.1106

MULLIKEN ATOMIC CHARGES
-----------------------
   0 C :    0.083892
   1 N :   -0.206194
   2 C :   -0.076328
   3 C :   -0.037842
   4 C :   -0.002835
   5 C :   -0.152123
   6 N :   -0.097747
   7 H :    0.109999
   8 H :    0.136211
   9 H :    0.133649
  10 H :   -0.039597
  11 H :   -0.048384
  12 H :    0.025062
  13 H :    0.024552
  14 H :    0.019580
  15 H :    0.034213
  16 H :    0.010346
  17 H :    0.035034
  18 H :    0.048513
Sum of atomic charges:   -0.0000000

LOEWDIN ATOMIC CHARGES
----------------------
   0 C :    0.034009
   1 N :   -0.037761
   2 C :   -0.056073
   3 C :   -0.058543
   4 C :    0.041401
   5 C :   -0.280064
   6 N :   -0.013326
   7 H :    0.062480
   8 H :    0.087586
   9 H :    0.084925
  10 H :   -0.010018
  11 H :   -0.012653
  12 H :    0.023236
  13 H :    0.022064
  14 H :    0.018642
  15 H :    0.024407
  16 H :    0.014292
  17 H :    0.027603
  18 H :    0.027792

  Mayer bond orders larger than 0.100000
B(  0-C ,  1-N ) :   0.9954 B(  0-C ,  2-C ) :   1.0590 B(  0-C , 14-H ) :   0.9554
B(  0-C , 15-H ) :   0.9573 B(  1-N ,  4-C ) :   1.1805 B(  1-N ,  9-H ) :   0.9313
B(  2-C ,  3-C ) :   1.0800 B(  2-C , 12-H ) :   0.9511 B(  2-C , 13-H ) :   0.9516
B(  3-C , 16-H ) :   0.9725 B(  3-C , 17-H ) :   0.9710 B(  3-C , 18-H ) :   0.9716
B(  4-C ,  5-C ) :   1.7202 B(  4-C ,  6-N ) :   1.2449 B(  5-C , 10-H ) :   0.9532
B(  5-C , 11-H ) :   0.9536 B(  6-N ,  7-H ) :   0.9473 B(  6-N ,  8-H ) :   0.9419

Dispersion correction           -0.005635410
FINAL SINGLE POINT ENERGY      -306.914170593049

DIPOLE MOMENT
-------------
                                X             Y             Z
Electronic contribution:      2.65299      -0.01642      -2.63620
Nuclear contribution   :     -3.75638       0.46849       2.77235
                        -----------------------------------------
Total Dipole Moment    :     -1.10339       0.45207       0.13615
                        -----------------------------------------
Magnitude (a.u.)       :      1.20015
Magnitude (Debye)      :      3.05055

Rotational constants in cm-1:     0.154609     0.053528     0.048030
Rotational constants in MHz :  4635.053294  1604.739826  1439.897073

                             ****ORCA TERMINATED NORMALLY****
TOTAL RUN TIME: 0 days 0 hours 0 minutes 16 seconds 853 msec
