                         Program Version 5.0.0 -  RELEASE  -
|  1> !wB97X-D3 RIJCOSX def2-SVP def2/J TightSCF
|  2> *xyz 0 1
|  3> C          3.38093        2.08304       -3.35013
|  4> C          2.49556        1.81615       -2.13636
|  5> C          1.87218        0.42790       -2.07750
|  6> H          2.61427       -0.36583       -2.19889
|  7> H          1.38995        0.27309       -1.11236
|  8> S          0.57902        0.14047       -3.29794
|  9> O          0.22886       -1.24687       -3.12787
| 10> O         -0.43927        1.11897       -3.01455
| 11> F          1.24788        0.40347       -4.59565
| 12> H          1.69700        2.56197       -2.14111
| 13> H          3.08079        1.98744       -1.22584
| 14> H          2.81820        1.91840       -4.24519
| 15> H          4.22171        1.42153       -3.33067
| 16> H          3.72372        3.09635       -3.32565
| 17> *
| 18>
| 19> %MaxCore 64000
| 20>
| 21> %pal nprocs 8
| 22> end
| 23>
| 24> %scf
| 25>   MaxIter 150
| 26> end
| 27>
| 28>
| 29>                          ****END OF INPUT****

CARTESIAN COORDINATES (ANGSTROEM)
---------------------------------
  C      3.380930    2.083040   -3.350130
  C      2.495560    1.816150   -2.136360
  C      1.872180    0.427900   -2.077500
  H      2.614270   -0.365830   -2.198890
  H      1.389950    0.273090   -1.112360
  S      0.579020    0.140470   -3.297940
  O      0.228860   -1.246870   -3.127870
  O     -0.439270    1.118970   -3.014550
  F      1.247880    0.403470   -4.595650
  H      1.697000    2.561970   -2.141110
  H      3.080790    1.987440   -1.225840
  H      2.818200    1.918400   -4.245190
  H      4.221710    1.421530   -3.330670
  H      3.723720    3.096350   -3.325650

 Total Charge           Charge          ....    0
 Multiplicity           Mult            ....    1
 Number of Electrons    NEL             ....   66
 Basis Dimension        Dim             ....  137

ORBITAL ENERGIES
----------------

  NO   OCC          E(Eh)            E(eV)
   0   2.0000     -89.212081     -2427.5841
   1   2.0000     -24.888868      -677.2605
   2   2.0000     -19.245698      -523.7021
   3   2.0000     -19.244854      -523.6791
   4   2.0000     -10.342739      -281.4402
   5   2.0000     -10.316257      -280.7196
   6   2.0000     -10.292260      -280.0666
   7   2.0000      -8.295011      -225.7187
   8   2.0000      -6.258056      -170.2904
   9   2.0000      -6.251702      -170.1175
  10   2.0000      -6.250475      -170.0841
  11   2.0000      -1.455395       -39.6033
  12   2.0000      -1.228671       -33.4338
  13   2.0000      -1.131704       -30.7952
  14   2.0000      -0.945535       -25.7293
  15   2.0000      -0.859737       -23.3946
  16   2.0000      -0.802574       -21.8392
  17   2.0000      -0.742940       -20.2164
  18   2.0000      -0.679944       -18.5022
  19   2.0000      -0.665658       -18.1135
  20   2.0000      -0.646134       -17.5822
  21   2.0000      -0.591448       -16.0941
  22   2.0000      -0.578551       -15.7432
  23   2.0000      -0.562562       -15.3081
  24   2.0000      -0.549553       -14.9541
  25   2.0000      -0.530816       -14.4442
  26   2.0000      -0.492929       -13.4133
  27   2.0000      -0.479900       -13.0588
  28   2.0000      -0.462637       -12.5890
  29   2.0000      -0.455997       -12.4083
  30   2.0000      -0.430386       -11.7114
  31   2.0000      -0.415594       -11.3089
  32   2.0000      -0.408516       -11.1163
  33   0.0000       0.114177         3.1069
  34   0.0000       0.143744         3.9115
  35   0.0000       0.161166         4.3856
  36   0.0000       0.168958         4.5976
  37   0.0000       0.175744         4.7822

MULLIKEN ATOMIC CHARGES
-----------------------
   0 C :   -0.036145
   1 C :   -0.110842
   2 C :   -0.130358
   3 H :    0.080098
   4 H :    0.105814
   5 S :    0.966972
   6 O :   -0.440108
   7 O :   -0.445077
   8 F :   -0.211530
   9 H :    0.060627
  10 H :    0.052572
  11 H :    0.033656
  12 H :    0.030282
  13 H :    0.044039
Sum of atomic charges:    0.0000000

LOEWDIN ATOMIC CHARGES
----------------------
   0 C :   -0.060504
   1 C :   -0.060496
   2 C :   -0.150421
   3 H :    0.036560
   4 H :    0.053508
   5 S :    1.166047
   6 O :   -0.484957
   7 O :   -0.485826
   8 F :   -0.151878
   9 H :    0.032937
  10 H :    0.036368
  11 H :    0.014578
  12 H :    0.023097
  13 H :    0.030989

  Mayer bond orders larger than 0.100000
B(  0-C ,  1-C ) :   1.0794 B(  0-C , 11-H ) :   0.9741 B(  0-C , 12-H ) :   0.9756
B(  0-C , 13-H ) :   0.9719 B(  1-C ,  2-C ) :   1.0194 B(  1-C ,  9-H ) :   0.9527
B(  1-C , 10-H ) :   0.9495 B(  2-C ,  3-H ) :   0.9375 B(  2-C ,  4-H ) :   0.9374
B(  2-C ,  5-S ) :   0.9292 B(  5-S ,  6-O ) :   1.7978 B(  5-S ,  7-O ) :   1.7854
B(  5-S ,  8-F ) :   0.9656

Dispersion correction           -0.004450802
FINAL SINGLE POINT ENERGY      -766.430818781373

DIPOLE MOMENT
-------------
                                X             Y             Z
Electronic contribution:     -8.93280      -6.06996      -5.37751
Nuclear contribution   :     10.37810       6.57173       5.65300
                        -----------------------------------------
Total Dipole Moment    :      1.44530       0.50177       0.27550
                        -----------------------------------------
Magnitude (a.u.)       :      1.55453
Magnitude (Debye)      :      3.95130

Rotational constants in cm-1:     0.130522     0.054787     0.051463
Rotational constants in MHz :  3912.959799  1642.486768  1542.828917

                             ****ORCA TERMINATED NORMALLY****
TOTAL RUN TIME: 0 days 0 hours 0 minutes 12 seconds 842 msec
