                         Program Version 5.0.0 -  RELEASE  -
|  1> !wB97X-D3 RIJCOSX def2-SVP def2/J TightSCF
|  2> *xyz 0 1
|  3> C          3.38093        2.08304       -3.35013
|  4> N          4.53592        1.18245       -3.42852
|  5> C          2.49556        1.81615       -2.13636
|  6> C          1.87218        0.42790       -2.07750
|  7> C          4.67196        0.12227       -4.22060
|  8> N          5.86602       -0.50785       -4.22428
|  9> C          3.69888       -0.31284       -4.98699
| 10> H          2.73141       -0.05009       -4.84900
| 11> H          3.89005       -1.05517       -5.64373
| 12> H          5.25193        1.30346       -2.72101
| 13> H          6.69516       -0.06232       -3.85160
| 14> H          5.97538       -1.39688       -4.69141
| 15> H          1.69700        2.56197       -2.14111
| 16> H          3.08079        1.98744       -1.22584
| 17> H          2.80646        1.98651       -4.26848
| 18> H          3.77871        3.09828       -3.30738
| 19> H          1.29954        0.25615       -2.96490
| 20> H          1.23321        0.35984       -1.22194
| 21> H          2.64581       -0.30765       -2.00430
| 22> *
| 23>
| 24> %MaxCore 64000
| 25>
| 26> %pal nprocs 8
| 27> end
| 28>
| 29> %scf
| 30>   MaxIter 150
| 31> end
| 32>
| 33>
| 34>                          ****END OF INPUT****

CARTESIAN COORDINATES (ANGSTROEM)
---------------------------------
  C      3.380930    2.083040   -3.350130
  N      4.535920    1.182450   -3.428520
  C      2.495560    1.816150   -2.136360
  C      1.872180    0.427900   -2.077500
  C      4.671960    0.122270   -4.220600
  N      5.866020   -0.507850   -4.224280
  C      3.698880   -0.312840   -4.986990
  H      2.731410   -0.050090   -4.849000
  H      3.890050   -1.055170   -5.643730
  H      5.251930    1.303460   -2.721010
  H      6.695160   -0.062320   -3.851600
  H      5.975380   -1.396880   -4.691410
  H      1.697000    2.561970   -2.141110
  H      3.080790    1.987440   -1.225840
  H      2.806460    1.986510   -4.268480
  H      3.778710    3.098280   -3.307380
  H      1.299540    0.256150   -2.964900
  H      1.233210    0.359840   -1.221940
  H      2.645810   -0.307650   -2.004300

 Total Charge           Charge          ....    0
 Multiplicity           Mult            ....    1
 Number of Electrons    NEL             ....   56
 Basis Dimension        Dim             ....  158

ORBITAL ENERGIES
----------------

  NO   OCC          E(Eh)            E(eV)
   0   2.0000     -14.428675      -392.6242
   1   2.0000     -14.425310      -392.5326
   2   2.0000     -10.329111      -281.0694
   3   2.0000     -10.315711      -280.7048
   4   2.0000     -10.281224      -279.7663
   5   2.0000     -10.264453      -279.3100
   6   2.0000     -10.193112      -277.3687
   7   2.0000      -1.065208       -28.9858
   8   2.0000      -0.980059       -26.6688
   9   2.0000      -0.884145       -24.0588
  10   2.0000      -0.818541       -22.2736
  11   2.0000      -0.788617       -21.4594
  12   2.0000      -0.703443       -19.1416
  13   2.0000      -0.660831       -17.9821
  14   2.0000      -0.637262       -17.3408
  15   2.0000      -0.608870       -16.5682
  16   2.0000      -0.562472       -15.3056
  17   2.0000      -0.555033       -15.1032
  18   2.0000      -0.524285       -14.2665
  19   2.0000      -0.504058       -13.7161
  20   2.0000      -0.481160       -13.0930
  21   2.0000      -0.478112       -13.0101
  22   2.0000      -0.461824       -12.5669
  23   2.0000      -0.436423       -11.8757
  24   2.0000      -0.433278       -11.7901
  25   2.0000      -0.420606       -11.4453
  26   2.0000      -0.332733        -9.0541
  27   2.0000      -0.247518        -6.7353
  28   0.0000       0.135756         3.6941
  29   0.0000       0.157573         4.2878
  30   0.0000       0.172936         4.7058
  31   0.0000       0.187044         5.0897
  32   0.0000       0.197652         5.3784

MULLIKEN ATOMIC CHARGES
-----------------------
   0 C :    0.118532
   1 N :   -0.228033
   2 C :   -0.092237
   3 C :   -0.018683
   4 C :    0.063084
   5 N :   -0.151724
   6 C :   -0.151548
   7 H :   -0.040545
   8 H :   -0.048597
   9 H :    0.109394
  10 H :    0.112046
  11 H :    0.132652
  12 H :    0.023440
  13 H :    0.013850
  14 H :    0.041222
  15 H :    0.025218
  16 H :    0.030319
  17 H :    0.024140
  18 H :    0.037470
Sum of atomic charges:   -0.0000000

LOEWDIN ATOMIC CHARGES
----------------------
   0 C :    0.046706
   1 N :   -0.043659
   2 C :   -0.054042
   3 C :   -0.054167
   4 C :    0.047909
   5 N :   -0.042338
   6 C :   -0.257054
   7 H :   -0.008948
   8 H :   -0.006995
   9 H :    0.064960
  10 H :    0.064297
  11 H :    0.081528
  12 H :    0.023039
  13 H :    0.016870
  14 H :    0.030364
  15 H :    0.021017
  16 H :    0.022594
  17 H :    0.022487
  18 H :    0.025435

  Mayer bond orders larger than 0.100000
B(  0-C ,  1-N ) :   0.9711 B(  0-C ,  2-C ) :   1.0758 B(  0-C , 14-H ) :   0.9444
B(  0-C , 15-H ) :   0.9597 B(  1-N ,  4-C ) :   1.1562 B(  1-N ,  9-H ) :   0.9361
B(  2-C ,  3-C ) :   1.0842 B(  2-C , 12-H ) :   0.9512 B(  2-C , 13-H ) :   0.9526
B(  3-C , 16-H ) :   0.9730 B(  3-C , 17-H ) :   0.9710 B(  3-C , 18-H ) :   0.9722
B(  4-C ,  5-N ) :   1.2064 B(  4-C ,  6-C ) :   1.7654 B(  5-N , 10-H ) :   0.9537
B(  5-N , 11-H ) :   0.9475 B(  6-C ,  7-H ) :   0.9471 B(  6-C ,  8-H ) :   0.9432

Dispersion correction           -0.005583955
FINAL SINGLE POINT ENERGY      -306.917296936579

DIPOLE MOMENT
-------------
                                X             Y             Z
Electronic contribution:      4.99862      -0.24305      -1.93479
Nuclear contribution   :     -4.23110       0.51121       2.60527
                        -----------------------------------------
Total Dipole Moment    :      0.76752       0.26816       0.67049
                        -----------------------------------------
Magnitude (a.u.)       :      1.05382
Magnitude (Debye)      :      2.67861

Rotational constants in cm-1:     0.158478     0.052124     0.047173
Rotational constants in MHz :  4751.056263  1562.646208  1414.197352

                             ****ORCA TERMINATED NORMALLY****
TOTAL RUN TIME: 0 days 0 hours 0 minutes 18 seconds 541 msec
