                         Program Version 5.0.0 -  RELEASE  -
|  1> !wB97X-D3 RIJCOSX def2-SVP def2/J TightSCF xyzfile
|  2>
|  3> *xyzfile 0 1 D4.xyz
|  4>
|  5> %MaxCore 64000
|  6>
|  7> %pal nprocs 18
|  8> end
|  9>
| 10> %scf
| 11>   MaxIter 150
| 12> end
| 13>
| 14>
| 15>                          ****END OF INPUT****

CARTESIAN COORDINATES (ANGSTROEM)
---------------------------------
  C      3.380928    2.083045   -3.350127
  C      4.535924    1.182447   -3.428518
  C      2.495557    1.816150   -2.136364
  C      1.872181    0.427903   -2.077497
  H      2.614270   -0.365825   -2.198894
  H      1.389953    0.273087   -1.112360
  S      0.579024    0.140472   -3.297943
  C      4.671956    0.122273   -4.220598
  N      5.866023   -0.507849   -4.224284
  N      3.698881   -0.312844   -4.986988
  H      2.731405   -0.050091   -4.849000
  H      3.890046   -1.055172   -5.643730
  H      5.251933    1.303459   -2.721014
  H      6.695165   -0.062322   -3.851596
  H      5.975383   -1.396884   -4.691414
  O      0.228860   -1.246868   -3.127871
  F     -0.439269    1.118966   -3.014550
  O      1.247881    0.403474   -4.595647
  H      1.697003    2.561969   -2.141109
  H      3.080787    1.987436   -1.225838
  H      2.806463    1.986511   -4.268484
  H      3.778714    3.098282   -3.307383

 Total Charge           Charge          ....    0
 Multiplicity           Mult            ....    1
 Number of Electrons    NEL             ....   96
 Basis Dimension        Dim             ....  213

ORBITAL ENERGIES
----------------

  NO   OCC          E(Eh)            E(eV)
   0   2.0000     -89.225764     -2427.9565
   1   2.0000     -24.918823      -678.0757
   2   2.0000     -19.254694      -523.9469
   3   2.0000     -19.248753      -523.7852
   4   2.0000     -14.420171      -392.3928
   5   2.0000     -14.401704      -391.8903
   6   2.0000     -10.337874      -281.3079
   7   2.0000     -10.323807      -280.9251
   8   2.0000     -10.298116      -280.2260
   9   2.0000     -10.261492      -279.2294
  10   2.0000     -10.197805      -277.4964
  11   2.0000      -8.308770      -226.0931
  12   2.0000      -6.271956      -170.6686
  13   2.0000      -6.265665      -170.4974
  14   2.0000      -6.263646      -170.4425
  15   2.0000      -1.499487       -40.8031
  16   2.0000      -1.232112       -33.5275
  17   2.0000      -1.130038       -30.7499
  18   2.0000      -1.051572       -28.6147
  19   2.0000      -0.956201       -26.0196
  20   2.0000      -0.937878       -25.5209
  21   2.0000      -0.867957       -23.6183
  22   2.0000      -0.830126       -22.5889
  23   2.0000      -0.786342       -21.3975
  24   2.0000      -0.729511       -19.8510
  25   2.0000      -0.706964       -19.2375
  26   2.0000      -0.695016       -18.9123
  27   2.0000      -0.678920       -18.4744
  28   2.0000      -0.646160       -17.5829
  29   2.0000      -0.628599       -17.1051
  30   2.0000      -0.610823       -16.6213
  31   2.0000      -0.584481       -15.9045
  32   2.0000      -0.577314       -15.7095
  33   2.0000      -0.571967       -15.5640
  34   2.0000      -0.549780       -14.9603
  35   2.0000      -0.532450       -14.4887
  36   2.0000      -0.503813       -13.7094
  37   2.0000      -0.493680       -13.4337
  38   2.0000      -0.491610       -13.3774
  39   2.0000      -0.471134       -12.8202
  40   2.0000      -0.449534       -12.2324
  41   2.0000      -0.437262       -11.8985
  42   2.0000      -0.428818       -11.6687
  43   2.0000      -0.422658       -11.5011
  44   2.0000      -0.412466       -11.2238
  45   2.0000      -0.394046       -10.7225
  46   2.0000      -0.338738        -9.2175
  47   2.0000      -0.233143        -6.3441
  48   0.0000       0.110446         3.0054
  49   0.0000       0.141289         3.8447
  50   0.0000       0.145979         3.9723
  51   0.0000       0.152324         4.1450
  52   0.0000       0.178417         4.8550

MULLIKEN ATOMIC CHARGES
-----------------------
   0 C :    0.063244
   1 C :   -0.272038
   2 C :   -0.019906
   3 C :   -0.135830
   4 H :    0.116428
   5 H :    0.077812
   6 S :    0.986951
   7 C :    0.015823
   8 N :   -0.133339
   9 N :   -0.091822
  10 H :    0.124439
  11 H :    0.105916
  12 H :   -0.083591
  13 H :    0.129533
  14 H :    0.108123
  15 O :   -0.428953
  16 F :   -0.166310
  17 O :   -0.491671
  18 H :    0.019022
  19 H :    0.040538
  20 H :    0.022404
  21 H :    0.013228
Sum of atomic charges:   -0.0000000

LOEWDIN ATOMIC CHARGES
----------------------
   0 C :   -0.044428
   1 C :   -0.253254
   2 C :   -0.055791
   3 C :   -0.142387
   4 H :    0.055637
   5 H :    0.035303
   6 S :    1.179923
   7 C :    0.037048
   8 N :   -0.043027
   9 N :   -0.020924
  10 H :    0.022192
  11 H :    0.064148
  12 H :   -0.015183
  13 H :    0.080712
  14 H :    0.062648
  15 O :   -0.474077
  16 F :   -0.107500
  17 O :   -0.474310
  18 H :    0.015491
  19 H :    0.034951
  20 H :    0.017311
  21 H :    0.025517

  Mayer bond orders larger than 0.100000
B(  0-C ,  1-C ) :   1.0524 B(  0-C ,  2-C ) :   1.0593 B(  0-C , 20-H ) :   0.9439
B(  0-C , 21-H ) :   0.9253 B(  1-C ,  7-C ) :   1.6390 B(  1-C , 12-H ) :   0.9601
B(  2-C ,  3-C ) :   1.0017 B(  2-C , 18-H ) :   0.9493 B(  2-C , 19-H ) :   0.9426
B(  3-C ,  4-H ) :   0.9226 B(  3-C ,  5-H ) :   0.9358 B(  3-C ,  6-S ) :   0.9441
B(  6-S , 15-O ) :   1.8067 B(  6-S , 16-F ) :   1.0374 B(  6-S , 17-O ) :   1.6084
B(  7-C ,  8-N ) :   1.2142 B(  7-C ,  9-N ) :   1.3083 B(  8-N , 13-H ) :   0.9452
B(  8-N , 14-H ) :   0.9534 B(  9-N , 10-H ) :   0.8876 B(  9-N , 11-H ) :   0.9457
B( 10-H , 17-O ) :   0.1287

Dispersion correction           -0.009839859
FINAL SINGLE POINT ENERGY      -954.322140988900

DIPOLE MOMENT
-------------
                                X             Y             Z
Electronic contribution:    -16.44086      -2.83417      -1.04116
Nuclear contribution   :     16.65743       2.74852       1.69529
                        -----------------------------------------
Total Dipole Moment    :      0.21657      -0.08565       0.65413
                        -----------------------------------------
Magnitude (a.u.)       :      0.69435
Magnitude (Debye)      :      1.76490

Rotational constants in cm-1:     0.059907     0.020458     0.017675
Rotational constants in MHz :  1795.978106   613.328205   529.885290

                             ****ORCA TERMINATED NORMALLY****
TOTAL RUN TIME: 0 days 0 hours 0 minutes 16 seconds 802 msec
