                         Program Version 5.0.0 -  RELEASE  -
|  1> !wB97X-D3 RIJCOSX def2-SVP def2/J TightSCF xyzfile
|  2>
|  3> *xyzfile 0 1 D5.xyz
|  4>
|  5> %MaxCore 64000
|  6>
|  7> %pal nprocs 18
|  8> end
|  9>
| 10> %scf
| 11>   MaxIter 150
| 12> end
| 13>
| 14>
| 15>                          ****END OF INPUT****

CARTESIAN COORDINATES (ANGSTROEM)
---------------------------------
  C      3.380928    2.083045   -3.350127
  N      4.535924    1.182447   -3.428518
  C      2.495557    1.816150   -2.136364
  C      1.872181    0.427903   -2.077497
  H      2.614270   -0.365825   -2.198894
  H      1.389953    0.273087   -1.112360
  S      0.579024    0.140472   -3.297943
  C      4.671956    0.122273   -4.220598
  C      5.866023   -0.507849   -4.224284
  N      3.698881   -0.312844   -4.986988
  H      2.731405   -0.050091   -4.849000
  H      3.890046   -1.055172   -5.643730
  H      5.251933    1.303459   -2.721014
  H      6.695165   -0.062322   -3.851596
  H      5.975383   -1.396884   -4.691414
  O      0.228860   -1.246868   -3.127871
  F     -0.439269    1.118966   -3.014550
  O      1.247881    0.403474   -4.595647
  H      1.697003    2.561969   -2.141109
  H      3.080787    1.987436   -1.225838
  H      2.806463    1.986511   -4.268484
  H      3.778714    3.098282   -3.307383

 Total Charge           Charge          ....    0
 Multiplicity           Mult            ....    1
 Number of Electrons    NEL             ....   96
 Basis Dimension        Dim             ....  213

ORBITAL ENERGIES
----------------

  NO   OCC          E(Eh)            E(eV)
   0   2.0000     -89.240695     -2428.3628
   1   2.0000     -24.933031      -678.4623
   2   2.0000     -19.267833      -524.3044
   3   2.0000     -19.262976      -524.1722
   4   2.0000     -14.430326      -392.6691
   5   2.0000     -14.398487      -391.8027
   6   2.0000     -10.359308      -281.8911
   7   2.0000     -10.332728      -281.1678
   8   2.0000     -10.328756      -281.0597
   9   2.0000     -10.321654      -280.8665
  10   2.0000     -10.180724      -277.0316
  11   2.0000      -8.323615      -226.4971
  12   2.0000      -6.286756      -171.0713
  13   2.0000      -6.280429      -170.8992
  14   2.0000      -6.278671      -170.8513
  15   2.0000      -1.513788       -41.1923
  16   2.0000      -1.245739       -33.8983
  17   2.0000      -1.143786       -31.1240
  18   2.0000      -1.064439       -28.9649
  19   2.0000      -0.982227       -26.7278
  20   2.0000      -0.949199       -25.8290
  21   2.0000      -0.877186       -23.8694
  22   2.0000      -0.834957       -22.7203
  23   2.0000      -0.792493       -21.5648
  24   2.0000      -0.741666       -20.1818
  25   2.0000      -0.717416       -19.5219
  26   2.0000      -0.714368       -19.4389
  27   2.0000      -0.693475       -18.8704
  28   2.0000      -0.673884       -18.3373
  29   2.0000      -0.639491       -17.4014
  30   2.0000      -0.610705       -16.6181
  31   2.0000      -0.595743       -16.2110
  32   2.0000      -0.586275       -15.9533
  33   2.0000      -0.577208       -15.7066
  34   2.0000      -0.555350       -15.1118
  35   2.0000      -0.547097       -14.8873
  36   2.0000      -0.515220       -14.0198
  37   2.0000      -0.508640       -13.8408
  38   2.0000      -0.501141       -13.6367
  39   2.0000      -0.484992       -13.1973
  40   2.0000      -0.473433       -12.8828
  41   2.0000      -0.456613       -12.4251
  42   2.0000      -0.443158       -12.0589
  43   2.0000      -0.431257       -11.7351
  44   2.0000      -0.427390       -11.6299
  45   2.0000      -0.421594       -11.4722
  46   2.0000      -0.332054        -9.0356
  47   2.0000      -0.227619        -6.1938
  48   0.0000       0.096405         2.6233
  49   0.0000       0.119431         3.2499
  50   0.0000       0.130624         3.5545
  51   0.0000       0.158545         4.3142
  52   0.0000       0.161779         4.4022

MULLIKEN ATOMIC CHARGES
-----------------------
   0 C :    0.094579
   1 N :   -0.215409
   2 C :   -0.045083
   3 C :   -0.152550
   4 H :    0.131582
   5 H :    0.088816
   6 S :    0.990327
   7 C :   -0.013637
   8 C :   -0.157669
   9 N :   -0.103028
  10 H :    0.110722
  11 H :    0.128854
  12 H :    0.129027
  13 H :   -0.048135
  14 H :   -0.049281
  15 O :   -0.418408
  16 F :   -0.164953
  17 O :   -0.487970
  18 H :    0.036774
  19 H :    0.053086
  20 H :    0.054094
  21 H :    0.038263
Sum of atomic charges:   -0.0000000

LOEWDIN ATOMIC CHARGES
----------------------
   0 C :    0.030441
   1 N :   -0.043090
   2 C :   -0.067494
   3 C :   -0.145169
   4 H :    0.061133
   5 H :    0.040329
   6 S :    1.179061
   7 C :    0.035975
   8 C :   -0.290609
   9 N :   -0.022259
  10 H :    0.010943
  11 H :    0.083171
  12 H :    0.081299
  13 H :   -0.014228
  14 H :   -0.012954
  15 O :   -0.464413
  16 F :   -0.106522
  17 O :   -0.471606
  18 H :    0.026234
  19 H :    0.038290
  20 H :    0.025114
  21 H :    0.026352

  Mayer bond orders larger than 0.100000
B(  0-C ,  1-N ) :   1.0029 B(  0-C ,  2-C ) :   1.0490 B(  0-C , 20-H ) :   0.9460
B(  0-C , 21-H ) :   0.9553 B(  1-N ,  7-C ) :   1.1511 B(  1-N , 12-H ) :   0.9322
B(  2-C ,  3-C ) :   1.0048 B(  2-C , 18-H ) :   0.9477 B(  2-C , 19-H ) :   0.9419
B(  3-C ,  4-H ) :   0.9249 B(  3-C ,  5-H ) :   0.9359 B(  3-C ,  6-S ) :   0.9428
B(  6-S , 15-O ) :   1.8168 B(  6-S , 16-F ) :   1.0372 B(  6-S , 17-O ) :   1.6130
B(  7-C ,  8-C ) :   1.7110 B(  7-C ,  9-N ) :   1.2846 B(  8-C , 13-H ) :   0.9519
B(  8-C , 14-H ) :   0.9538 B(  9-N , 10-H ) :   0.9038 B(  9-N , 11-H ) :   0.9404
B( 10-H , 17-O ) :   0.1190

Dispersion correction           -0.009879548
FINAL SINGLE POINT ENERGY      -954.306143178528

DIPOLE MOMENT
-------------
                                X             Y             Z
Electronic contribution:    -18.00634      -1.23082      -0.15570
Nuclear contribution   :     16.78714       2.58368       1.61768
                        -----------------------------------------
Total Dipole Moment    :     -1.21921       1.35286       1.46198
                        -----------------------------------------
Magnitude (a.u.)       :      2.33540
Magnitude (Debye)      :      5.93612

Rotational constants in cm-1:     0.059928     0.020911     0.017993
Rotational constants in MHz :  1796.610847   626.896941   539.414615

                             ****ORCA TERMINATED NORMALLY****
TOTAL RUN TIME: 0 days 0 hours 0 minutes 19 seconds 975 msec
