                         Program Version 5.0.0 -  RELEASE  -
|  1> !wB97X-D3 RIJCOSX def2-SVP def2/J TightSCF xyzfile
|  2>
|  3> *xyzfile 0 1 D9.xyz
|  4>
|  5> %MaxCore 64000
|  6>
|  7> %pal nprocs 18
|  8> end
|  9>
| 10> %scf
| 11>   MaxIter 150
| 12> end
| 13>
| 14>
| 15>                          ****END OF INPUT****

CARTESIAN COORDINATES (ANGSTROEM)
---------------------------------
  C      3.380928    2.083045   -3.350127
  N      4.535924    1.182447   -3.428518
  C      2.495557    1.816150   -2.136364
  C      1.872181    0.427903   -2.077497
  H      2.614270   -0.365825   -2.198894
  H      1.389953    0.273087   -1.112360
  S      0.579024    0.140472   -3.297943
  C      4.671956    0.122273   -4.220598
  N      5.866023   -0.507849   -4.224284
  C      3.698881   -0.312844   -4.986988
  H      2.731405   -0.050091   -4.849000
  H      3.890046   -1.055172   -5.643730
  H      5.251933    1.303459   -2.721014
  H      6.695165   -0.062322   -3.851596
  H      5.975383   -1.396884   -4.691414
  O      0.228860   -1.246868   -3.127871
  O     -0.439269    1.118966   -3.014550
  F      1.247881    0.403474   -4.595647
  H      1.697003    2.561969   -2.141109
  H      3.080787    1.987436   -1.225838
  H      2.806463    1.986511   -4.268484
  H      3.778714    3.098282   -3.307383

 Total Charge           Charge          ....    0
 Multiplicity           Mult            ....    1
 Number of Electrons    NEL             ....   96
 Basis Dimension        Dim             ....  213

ORBITAL ENERGIES
----------------

  NO   OCC          E(Eh)            E(eV)
   0   2.0000     -89.209943     -2427.5260
   1   2.0000     -24.887414      -677.2210
   2   2.0000     -19.243647      -523.6463
   3   2.0000     -19.241460      -523.5868
   4   2.0000     -14.444953      -393.0671
   5   2.0000     -14.433802      -392.7637
   6   2.0000     -10.339593      -281.3546
   7   2.0000     -10.339520      -281.3527
   8   2.0000     -10.339294      -281.3465
   9   2.0000     -10.318469      -280.7798
  10   2.0000     -10.195276      -277.4276
  11   2.0000      -8.292672      -225.6551
  12   2.0000      -6.255828      -170.2297
  13   2.0000      -6.249287      -170.0518
  14   2.0000      -6.248122      -170.0200
  15   2.0000      -1.458533       -39.6887
  16   2.0000      -1.226700       -33.3802
  17   2.0000      -1.128789       -30.7159
  18   2.0000      -1.079180       -29.3660
  19   2.0000      -0.994796       -27.0698
  20   2.0000      -0.935689       -25.4614
  21   2.0000      -0.856494       -23.3064
  22   2.0000      -0.833312       -22.6756
  23   2.0000      -0.798442       -21.7267
  24   2.0000      -0.757560       -20.6143
  25   2.0000      -0.691060       -18.8047
  26   2.0000      -0.684120       -18.6159
  27   2.0000      -0.664260       -18.0754
  28   2.0000      -0.654030       -17.7971
  29   2.0000      -0.640258       -17.4223
  30   2.0000      -0.613575       -16.6962
  31   2.0000      -0.596177       -16.2228
  32   2.0000      -0.579689       -15.7741
  33   2.0000      -0.565176       -15.3792
  34   2.0000      -0.558590       -15.2000
  35   2.0000      -0.538648       -14.6574
  36   2.0000      -0.513485       -13.9726
  37   2.0000      -0.502357       -13.6698
  38   2.0000      -0.491049       -13.3621
  39   2.0000      -0.479055       -13.0357
  40   2.0000      -0.473328       -12.8799
  41   2.0000      -0.464006       -12.6262
  42   2.0000      -0.445328       -12.1180
  43   2.0000      -0.426842       -11.6150
  44   2.0000      -0.413143       -11.2422
  45   2.0000      -0.405422       -11.0321
  46   2.0000      -0.347118        -9.4456
  47   2.0000      -0.258215        -7.0264
  48   0.0000       0.115645         3.1469
  49   0.0000       0.128696         3.5020
  50   0.0000       0.147355         4.0097
  51   0.0000       0.163083         4.4377
  52   0.0000       0.171232         4.6594

MULLIKEN ATOMIC CHARGES
-----------------------
   0 C :    0.104328
   1 N :   -0.230076
   2 C :   -0.050982
   3 C :   -0.135978
   4 H :    0.099615
   5 H :    0.103334
   6 S :    0.972932
   7 C :    0.060043
   8 N :   -0.148025
   9 C :   -0.198577
  10 H :   -0.016017
  11 H :   -0.043374
  12 H :    0.111875
  13 H :    0.112665
  14 H :    0.135944
  15 O :   -0.437004
  16 O :   -0.442775
  17 F :   -0.192067
  18 H :    0.059226
  19 H :    0.041589
  20 H :    0.052052
  21 H :    0.041272
Sum of atomic charges:   -0.0000000

LOEWDIN ATOMIC CHARGES
----------------------
   0 C :    0.042405
   1 N :   -0.047377
   2 C :   -0.064728
   3 C :   -0.148027
   4 H :    0.043249
   5 H :    0.052502
   6 S :    1.173128
   7 C :    0.040916
   8 N :   -0.041448
   9 C :   -0.270188
  10 H :   -0.040547
  11 H :   -0.005196
  12 H :    0.065704
  13 H :    0.064552
  14 H :    0.083472
  15 O :   -0.480078
  16 O :   -0.487461
  17 F :   -0.104843
  18 H :    0.035365
  19 H :    0.033317
  20 H :    0.026519
  21 H :    0.028766

  Mayer bond orders larger than 0.100000
B(  0-C ,  1-N ) :   0.9733 B(  0-C ,  2-C ) :   1.0723 B(  0-C , 20-H ) :   0.9450
B(  0-C , 21-H ) :   0.9573 B(  1-N ,  7-C ) :   1.1418 B(  1-N , 12-H ) :   0.9349
B(  2-C ,  3-C ) :   1.0130 B(  2-C , 18-H ) :   0.9436 B(  2-C , 19-H ) :   0.9415
B(  3-C ,  4-H ) :   0.9303 B(  3-C ,  5-H ) :   0.9368 B(  3-C ,  6-S ) :   0.9379
B(  6-S , 15-O ) :   1.7980 B(  6-S , 16-O ) :   1.7837 B(  6-S , 17-F ) :   0.9338
B(  7-C ,  8-N ) :   1.2111 B(  7-C ,  9-C ) :   1.7632 B(  8-N , 13-H ) :   0.9533
B(  8-N , 14-H ) :   0.9463 B(  9-C , 10-H ) :   0.9439 B(  9-C , 11-H ) :   0.9403

Dispersion correction           -0.009826618
FINAL SINGLE POINT ENERGY      -954.308928530160

DIPOLE MOMENT
-------------
                                X             Y             Z
Electronic contribution:    -12.59091      -2.66137      -2.39111
Nuclear contribution   :     14.72648       3.38697       3.27638
                        -----------------------------------------
Total Dipole Moment    :      2.13558       0.72560       0.88527
                        -----------------------------------------
Magnitude (a.u.)       :      2.42299
Magnitude (Debye)      :      6.15875

Rotational constants in cm-1:     0.059651     0.020833     0.018010
Rotational constants in MHz :  1788.283887   624.555661   539.921162

                             ****ORCA TERMINATED NORMALLY****
TOTAL RUN TIME: 0 days 0 hours 0 minutes 21 seconds 870 msec
