                         Program Version 5.0.0 -  RELEASE  -
|  1> !wB97X-D3 RIJCOSX def2-TZVP def2/J TightSCF
|  2> *xyz -1 1
|  3> C          3.90595        2.81985       -3.75292
|  4> C          3.80351        1.37472       -3.26081
|  5> C          3.93993        0.32036       -4.36773
|  6> H          4.10504       -0.65508       -3.90773
|  7> H          3.02280        0.28052       -4.95712
|  8> C          5.10585        0.66802       -5.30546
|  9> H          4.57483        1.21516       -2.50044
| 10> H          2.84351        1.26085       -2.75146
| 11> O          4.80913        1.15019       -6.41436
| 12> O          6.26737        0.56500       -4.81948
| 13> H          3.15892        2.99660       -4.49832
| 14> H          4.87575        2.98549       -4.17357
| 15> H          3.75481        3.48808       -2.93101
| 16> *
| 17>
| 18> %MaxCore 64000
| 19>
| 20> %pal nprocs 18
| 21> end
| 22>
| 23> %scf
| 24>   MaxIter 150
| 25> end
| 26>
| 27>
| 28>                          ****END OF INPUT****

CARTESIAN COORDINATES (ANGSTROEM)
---------------------------------
  C      3.905950    2.819850   -3.752920
  C      3.803510    1.374720   -3.260810
  C      3.939930    0.320360   -4.367730
  H      4.105040   -0.655080   -3.907730
  H      3.022800    0.280520   -4.957120
  C      5.105850    0.668020   -5.305460
  H      4.574830    1.215160   -2.500440
  H      2.843510    1.260850   -2.751460
  O      4.809130    1.150190   -6.414360
  O      6.267370    0.565000   -4.819480
  H      3.158920    2.996600   -4.498320
  H      4.875750    2.985490   -4.173570
  H      3.754810    3.488080   -2.931010

 Total Charge           Charge          ....   -1
 Multiplicity           Mult            ....    1
 Number of Electrons    NEL             ....   48
 Basis Dimension        Dim             ....  228

ORBITAL ENERGIES
----------------

  NO   OCC          E(Eh)            E(eV)
   0   2.0000     -18.958948      -515.8992
   1   2.0000     -18.955075      -515.7938
   2   2.0000     -10.153048      -276.2785
   3   2.0000     -10.123835      -275.4836
   4   2.0000     -10.109780      -275.1011
   5   2.0000     -10.095698      -274.7179
   6   2.0000      -0.932069       -25.3629
   7   2.0000      -0.837356       -22.7856
   8   2.0000      -0.749553       -20.3964
   9   2.0000      -0.649650       -17.6779
  10   2.0000      -0.550320       -14.9750
  11   2.0000      -0.426056       -11.5936
  12   2.0000      -0.401182       -10.9167
  13   2.0000      -0.389080       -10.5874
  14   2.0000      -0.346194        -9.4204
  15   2.0000      -0.329493        -8.9660
  16   2.0000      -0.302256        -8.2248
  17   2.0000      -0.297248        -8.0885
  18   2.0000      -0.287671        -7.8279
  19   2.0000      -0.263877        -7.1805
  20   2.0000      -0.255178        -6.9438
  21   2.0000      -0.137242        -3.7345
  22   2.0000      -0.128304        -3.4913
  23   2.0000      -0.119589        -3.2542
  24   0.0000       0.252460         6.8698
  25   0.0000       0.288160         7.8412
  26   0.0000       0.300948         8.1892
  27   0.0000       0.312757         8.5106
  28   0.0000       0.325980         8.8704

MULLIKEN ATOMIC CHARGES
-----------------------
   0 C :   -0.332282
   1 C :   -0.154740
   2 C :   -0.135060
   3 H :    0.039443
   4 H :    0.038605
   5 C :    0.268926
   6 H :    0.066524
   7 H :    0.034811
   8 O :   -0.543561
   9 O :   -0.571642
  10 H :    0.087535
  11 H :    0.142999
  12 H :    0.058441
Sum of atomic charges:   -1.0000000

LOEWDIN ATOMIC CHARGES
----------------------
   0 C :   -0.312862
   1 C :   -0.302143
   2 C :   -0.266367
   3 H :    0.119931
   4 H :    0.119831
   5 C :   -0.698318
   6 H :    0.126156
   7 H :    0.110518
   8 O :   -0.098123
   9 O :   -0.130907
  10 H :    0.111016
  11 H :    0.125850
  12 H :    0.095418

  Mayer bond orders larger than 0.100000
B(  0-C ,  1-C ) :   0.9940 B(  0-C , 10-H ) :   0.9791 B(  0-C , 11-H ) :   0.9797
B(  0-C , 12-H ) :   0.9763 B(  1-C ,  2-C ) :   0.9929 B(  1-C ,  6-H ) :   0.9712
B(  1-C ,  7-H ) :   0.9709 B(  2-C ,  3-H ) :   0.9594 B(  2-C ,  4-H ) :   0.9649
B(  2-C ,  5-C ) :   0.9256 B(  5-C ,  8-O ) :   1.8552 B(  5-C ,  9-O ) :   1.8205

Dispersion correction           -0.003543483
FINAL SINGLE POINT ENERGY      -307.184130284260

DIPOLE MOMENT
-------------
                                X             Y             Z
Electronic contribution:      4.21468      -2.84638      -4.86665
Nuclear contribution   :     -5.80393       3.20473       6.46101
                        -----------------------------------------
Total Dipole Moment    :     -1.58925       0.35834       1.59436
                        -----------------------------------------
Magnitude (a.u.)       :      2.27950
Magnitude (Debye)      :      5.79403

Rotational constants in cm-1:     0.184459     0.088019     0.082330
Rotational constants in MHz :  5529.929668  2638.753248  2468.201746

                             ****ORCA TERMINATED NORMALLY****
TOTAL RUN TIME: 0 days 0 hours 0 minutes 14 seconds 698 msec
