                         Program Version 5.0.0 -  RELEASE  -
|  1> !wB97X-D3 RIJCOSX def2-TZVP def2/J TightSCF
|  2> *xyz 1 1
|  3> C          3.90595        2.81985       -3.75292
|  4> N          5.29562        3.13151       -4.10533
|  5> C          3.80351        1.37472       -3.26081
|  6> C          3.93993        0.32036       -4.36773
|  7> C          5.70862        3.46889       -5.32419
|  8> N          6.90470        3.03895       -5.71708
|  9> N          4.98188        4.29357       -6.09746
| 10> H          5.00055        4.10131       -7.08776
| 11> H          4.08469        4.59690       -5.73965
| 12> H          5.96336        2.52611       -3.64239
| 13> H          7.04716        2.06686       -5.47360
| 14> H          7.19815        3.30799       -6.64523
| 15> H          3.28202        2.94919       -4.64026
| 16> H          3.56525        3.51457       -2.98252
| 17> H          4.57483        1.21516       -2.50044
| 18> H          2.84351        1.26085       -2.75146
| 19> H          3.18417        0.48061       -5.10803
| 20> H          3.82485       -0.65632       -3.94614
| 21> H          4.90589        0.40174       -4.82073
| 22> *
| 23>
| 24> %MaxCore 64000
| 25>
| 26> %pal nprocs 18
| 27> end
| 28>
| 29> %scf
| 30>   MaxIter 150
| 31> end
| 32>
| 33>
| 34>                          ****END OF INPUT****

CARTESIAN COORDINATES (ANGSTROEM)
---------------------------------
  C      3.905950    2.819850   -3.752920
  N      5.295620    3.131510   -4.105330
  C      3.803510    1.374720   -3.260810
  C      3.939930    0.320360   -4.367730
  C      5.708620    3.468890   -5.324190
  N      6.904700    3.038950   -5.717080
  N      4.981880    4.293570   -6.097460
  H      5.000550    4.101310   -7.087760
  H      4.084690    4.596900   -5.739650
  H      5.963360    2.526110   -3.642390
  H      7.047160    2.066860   -5.473600
  H      7.198150    3.307990   -6.645230
  H      3.282020    2.949190   -4.640260
  H      3.565250    3.514570   -2.982520
  H      4.574830    1.215160   -2.500440
  H      2.843510    1.260850   -2.751460
  H      3.184170    0.480610   -5.108030
  H      3.824850   -0.656320   -3.946140
  H      4.905890    0.401740   -4.820730

 Total Charge           Charge          ....    1
 Multiplicity           Mult            ....    1
 Number of Electrons    NEL             ....   56
 Basis Dimension        Dim             ....  289

ORBITAL ENERGIES
----------------

  NO   OCC          E(Eh)            E(eV)
   0   2.0000     -14.646378      -398.5482
   1   2.0000     -14.645890      -398.5349
   2   2.0000     -14.645239      -398.5172
   3   2.0000     -10.612667      -288.7854
   4   2.0000     -10.480888      -285.1995
   5   2.0000     -10.425443      -283.6907
   6   2.0000     -10.398711      -282.9633
   7   2.0000      -1.338252       -36.4157
   8   2.0000      -1.222963       -33.2785
   9   2.0000      -1.214844       -33.0576
  10   2.0000      -1.060656       -28.8619
  11   2.0000      -0.978257       -26.6197
  12   2.0000      -0.928760       -25.2729
  13   2.0000      -0.886248       -24.1160
  14   2.0000      -0.869990       -23.6736
  15   2.0000      -0.841310       -22.8932
  16   2.0000      -0.799399       -21.7528
  17   2.0000      -0.784310       -21.3422
  18   2.0000      -0.746843       -20.3226
  19   2.0000      -0.730232       -19.8706
  20   2.0000      -0.689562       -18.7639
  21   2.0000      -0.682645       -18.5757
  22   2.0000      -0.654897       -17.8207
  23   2.0000      -0.608493       -16.5579
  24   2.0000      -0.589758       -16.0481
  25   2.0000      -0.588347       -16.0097
  26   2.0000      -0.579684       -15.7740
  27   2.0000      -0.545781       -14.8515
  28   0.0000      -0.107205        -2.9172
  29   0.0000      -0.068573        -1.8660
  30   0.0000      -0.037121        -1.0101
  31   0.0000      -0.018651        -0.5075
  32   0.0000      -0.003417        -0.0930

MULLIKEN ATOMIC CHARGES
-----------------------
   0 C :   -0.111092
   1 N :   -0.272862
   2 C :   -0.280455
   3 C :   -0.325010
   4 C :    0.438493
   5 N :   -0.416304
   6 N :   -0.435387
   7 H :    0.295624
   8 H :    0.297785
   9 H :    0.255429
  10 H :    0.290989
  11 H :    0.289879
  12 H :    0.126872
  13 H :    0.180310
  14 H :    0.141975
  15 H :    0.155475
  16 H :    0.133655
  17 H :    0.167999
  18 H :    0.066625
Sum of atomic charges:    1.0000000

LOEWDIN ATOMIC CHARGES
----------------------
   0 C :   -0.257832
   1 N :    0.169977
   2 C :   -0.283390
   3 C :   -0.289399
   4 C :   -0.407244
   5 N :    0.058326
   6 N :    0.060746
   7 H :    0.197793
   8 H :    0.197631
   9 H :    0.212326
  10 H :    0.200357
  11 H :    0.198750
  12 H :    0.137780
  13 H :    0.147269
  14 H :    0.142607
  15 H :    0.154224
  16 H :    0.123139
  17 H :    0.133083
  18 H :    0.103858

  Mayer bond orders larger than 0.100000
B(  0-C ,  1-N ) :   0.8400 B(  0-C ,  2-C ) :   0.9640 B(  0-C , 12-H ) :   0.9850
B(  0-C , 13-H ) :   0.9544 B(  1-N ,  4-C ) :   1.3919 B(  1-N ,  9-H ) :   0.9019
B(  2-C ,  3-C ) :   0.9662 B(  2-C , 14-H ) :   0.9763 B(  2-C , 15-H ) :   0.9593
B(  3-C , 16-H ) :   0.9721 B(  3-C , 17-H ) :   0.9728 B(  3-C , 18-H ) :   0.9722
B(  4-C ,  5-N ) :   1.3005 B(  4-C ,  6-N ) :   1.3229 B(  5-N , 10-H ) :   0.8875
B(  5-N , 11-H ) :   0.8933 B(  6-N ,  7-H ) :   0.8842 B(  6-N ,  8-H ) :   0.8925

Dispersion correction           -0.005480949
FINAL SINGLE POINT ENERGY      -323.738541710849

DIPOLE MOMENT
-------------
                                X             Y             Z
Electronic contribution:      4.02438       5.68937      -2.07996
Nuclear contribution   :     -3.60155      -5.39511       0.90505
                        -----------------------------------------
Total Dipole Moment    :      0.42283       0.29427      -1.17491
                        -----------------------------------------
Magnitude (a.u.)       :      1.28288
Magnitude (Debye)      :      3.26083

Rotational constants in cm-1:     0.145371     0.050507     0.045444
Rotational constants in MHz :  4358.114605  1514.164418  1362.368391

                             ****ORCA TERMINATED NORMALLY****
TOTAL RUN TIME: 0 days 0 hours 0 minutes 22 seconds 489 msec
