                         Program Version 5.0.0 -  RELEASE  -
|  1> !wB97X-D3 RIJCOSX def2-TZVP def2/J TightSCF
|  2> *xyz 0 1
|  3> C          3.90595        2.81985       -3.75292
|  4> C          3.80351        1.37472       -3.26081
|  5> C          3.93993        0.32036       -4.36773
|  6> H          4.10504       -0.65508       -3.90773
|  7> H          3.02280        0.28052       -4.95712
|  8> C          5.10585        0.66802       -5.30546
|  9> H          4.57483        1.21516       -2.50044
| 10> H          2.84351        1.26085       -2.75146
| 11> F          4.80913        1.15019       -6.41436
| 12> O          6.26737        0.56500       -4.81948
| 13> H          3.15892        2.99660       -4.49832
| 14> H          4.87575        2.98549       -4.17357
| 15> H          3.75481        3.48808       -2.93101
| 16> *
| 17>
| 18> %MaxCore 64000
| 19>
| 20> %pal nprocs 18
| 21> end
| 22>
| 23> %scf
| 24>   MaxIter 150
| 25> end
| 26>
| 27>
| 28>                          ****END OF INPUT****

CARTESIAN COORDINATES (ANGSTROEM)
---------------------------------
  C      3.905950    2.819850   -3.752920
  C      3.803510    1.374720   -3.260810
  C      3.939930    0.320360   -4.367730
  H      4.105040   -0.655080   -3.907730
  H      3.022800    0.280520   -4.957120
  C      5.105850    0.668020   -5.305460
  H      4.574830    1.215160   -2.500440
  H      2.843510    1.260850   -2.751460
  F      4.809130    1.150190   -6.414360
  O      6.267370    0.565000   -4.819480
  H      3.158920    2.996600   -4.498320
  H      4.875750    2.985490   -4.173570
  H      3.754810    3.488080   -2.931010

 Total Charge           Charge          ....    0
 Multiplicity           Mult            ....    1
 Number of Electrons    NEL             ....   48
 Basis Dimension        Dim             ....  228

ORBITAL ENERGIES
----------------

  NO   OCC          E(Eh)            E(eV)
   0   2.0000     -24.859039      -676.4489
   1   2.0000     -19.233071      -523.3585
   2   2.0000     -10.455075      -284.4971
   3   2.0000     -10.303801      -280.3807
   4   2.0000     -10.290603      -280.0215
   5   2.0000     -10.266735      -279.3721
   6   2.0000      -1.443113       -39.2691
   7   2.0000      -1.142950       -31.1012
   8   2.0000      -0.931722       -25.3534
   9   2.0000      -0.843151       -22.9433
  10   2.0000      -0.776341       -21.1253
  11   2.0000      -0.722007       -19.6468
  12   2.0000      -0.657816       -17.9001
  13   2.0000      -0.639993       -17.4151
  14   2.0000      -0.613284       -16.6883
  15   2.0000      -0.567321       -15.4376
  16   2.0000      -0.556725       -15.1493
  17   2.0000      -0.516536       -14.0557
  18   2.0000      -0.499693       -13.5973
  19   2.0000      -0.468517       -12.7490
  20   2.0000      -0.451383       -12.2828
  21   2.0000      -0.441859       -12.0236
  22   2.0000      -0.436170       -11.8688
  23   2.0000      -0.384687       -10.4679
  24   0.0000       0.055994         1.5237
  25   0.0000       0.113376         3.0851
  26   0.0000       0.152393         4.1468
  27   0.0000       0.154704         4.2097
  28   0.0000       0.165802         4.5117

MULLIKEN ATOMIC CHARGES
-----------------------
   0 C :   -0.365963
   1 C :   -0.194449
   2 C :   -0.219511
   3 H :    0.137509
   4 H :    0.115170
   5 C :    0.390148
   6 H :    0.119948
   7 H :    0.107519
   8 F :   -0.095880
   9 O :   -0.362851
  10 H :    0.114447
  11 H :    0.131195
  12 H :    0.122719
Sum of atomic charges:   -0.0000000

LOEWDIN ATOMIC CHARGES
----------------------
   0 C :   -0.299735
   1 C :   -0.281957
   2 C :   -0.236111
   3 H :    0.153273
   4 H :    0.140093
   5 C :   -0.499536
   6 H :    0.141701
   7 H :    0.135915
   8 F :    0.342972
   9 O :    0.048331
  10 H :    0.115997
  11 H :    0.120229
  12 H :    0.118827

  Mayer bond orders larger than 0.100000
B(  0-C ,  1-C ) :   0.9763 B(  0-C , 10-H ) :   0.9781 B(  0-C , 11-H ) :   0.9690
B(  0-C , 12-H ) :   0.9758 B(  1-C ,  2-C ) :   0.9758 B(  1-C ,  6-H ) :   0.9673
B(  1-C ,  7-H ) :   0.9743 B(  2-C ,  3-H ) :   0.9560 B(  2-C ,  4-H ) :   0.9641
B(  2-C ,  5-C ) :   0.9697 B(  5-C ,  8-F ) :   1.1620 B(  5-C ,  9-O ) :   2.0279

Dispersion correction           -0.003458981
FINAL SINGLE POINT ENERGY      -331.749655792296

DIPOLE MOMENT
-------------
                                X             Y             Z
Electronic contribution:      4.81376      -3.19631      -8.25940
Nuclear contribution   :     -5.98367       3.22001       8.44002
                        -----------------------------------------
Total Dipole Moment    :     -1.16992       0.02371       0.18063
                        -----------------------------------------
Magnitude (a.u.)       :      1.18401
Magnitude (Debye)      :      3.00952

Rotational constants in cm-1:     0.177409     0.085514     0.078973
Rotational constants in MHz :  5318.577687  2563.657993  2367.557452

                             ****ORCA TERMINATED NORMALLY****
TOTAL RUN TIME: 0 days 0 hours 0 minutes 17 seconds 419 msec
