                         Program Version 5.0.0 -  RELEASE  -
|  1> !wB97X-D3 RIJCOSX def2-TZVP def2/J TightSCF
|  2> *xyz 0 1
|  3> C          3.90595        2.81985       -3.75292
|  4> C          5.29562        3.13151       -4.10533
|  5> C          3.80351        1.37472       -3.26081
|  6> C          3.93993        0.32036       -4.36773
|  7> C          5.70862        3.46889       -5.32419
|  8> N          6.90470        3.03895       -5.71708
|  9> N          4.98188        4.29357       -6.09746
| 10> H          5.00055        4.10131       -7.08776
| 11> H          4.08469        4.59690       -5.73965
| 12> H          5.96336        2.52611       -3.64239
| 13> H          7.04716        2.06686       -5.47360
| 14> H          7.19815        3.30799       -6.64523
| 15> H          3.28202        2.94919       -4.64026
| 16> H          3.56525        3.51457       -2.98252
| 17> H          4.57483        1.21516       -2.50044
| 18> H          2.84351        1.26085       -2.75146
| 19> H          3.18417        0.48061       -5.10803
| 20> H          3.82485       -0.65632       -3.94614
| 21> H          4.90589        0.40174       -4.82073
| 22> *
| 23>
| 24> %MaxCore 64000
| 25>
| 26> %pal nprocs 18
| 27> end
| 28>
| 29> %scf
| 30>   MaxIter 150
| 31> end
| 32>
| 33>
| 34>                          ****END OF INPUT****

CARTESIAN COORDINATES (ANGSTROEM)
---------------------------------
  C      3.905950    2.819850   -3.752920
  C      5.295620    3.131510   -4.105330
  C      3.803510    1.374720   -3.260810
  C      3.939930    0.320360   -4.367730
  C      5.708620    3.468890   -5.324190
  N      6.904700    3.038950   -5.717080
  N      4.981880    4.293570   -6.097460
  H      5.000550    4.101310   -7.087760
  H      4.084690    4.596900   -5.739650
  H      5.963360    2.526110   -3.642390
  H      7.047160    2.066860   -5.473600
  H      7.198150    3.307990   -6.645230
  H      3.282020    2.949190   -4.640260
  H      3.565250    3.514570   -2.982520
  H      4.574830    1.215160   -2.500440
  H      2.843510    1.260850   -2.751460
  H      3.184170    0.480610   -5.108030
  H      3.824850   -0.656320   -3.946140
  H      4.905890    0.401740   -4.820730

 Total Charge           Charge          ....    0
 Multiplicity           Mult            ....    1
 Number of Electrons    NEL             ....   56
 Basis Dimension        Dim             ....  289

ORBITAL ENERGIES
----------------

  NO   OCC          E(Eh)            E(eV)
   0   2.0000     -14.423602      -392.4862
   1   2.0000     -14.420600      -392.4045
   2   2.0000     -10.317723      -280.7595
   3   2.0000     -10.256679      -279.0984
   4   2.0000     -10.250229      -278.9229
   5   2.0000     -10.248628      -278.8794
   6   2.0000     -10.196781      -277.4685
   7   2.0000      -1.083159       -29.4743
   8   2.0000      -0.992189       -26.9988
   9   2.0000      -0.906800       -24.6753
  10   2.0000      -0.837813       -22.7980
  11   2.0000      -0.772819       -21.0295
  12   2.0000      -0.700517       -19.0620
  13   2.0000      -0.675310       -18.3761
  14   2.0000      -0.636430       -17.3181
  15   2.0000      -0.614993       -16.7348
  16   2.0000      -0.576036       -15.6747
  17   2.0000      -0.546103       -14.8602
  18   2.0000      -0.537960       -14.6386
  19   2.0000      -0.513156       -13.9637
  20   2.0000      -0.480828       -13.0840
  21   2.0000      -0.469280       -12.7698
  22   2.0000      -0.445345       -12.1185
  23   2.0000      -0.425612       -11.5815
  24   2.0000      -0.411971       -11.2103
  25   2.0000      -0.406366       -11.0578
  26   2.0000      -0.368674       -10.0321
  27   2.0000      -0.255102        -6.9417
  28   0.0000       0.096761         2.6330
  29   0.0000       0.127728         3.4757
  30   0.0000       0.134643         3.6638
  31   0.0000       0.143604         3.9077
  32   0.0000       0.159448         4.3388

MULLIKEN ATOMIC CHARGES
-----------------------
   0 C :   -0.112528
   1 C :   -0.327881
   2 C :   -0.199525
   3 C :   -0.328170
   4 C :    0.297304
   5 N :   -0.489359
   6 N :   -0.503895
   7 H :    0.220224
   8 H :    0.252831
   9 H :    0.072328
  10 H :    0.255301
  11 H :    0.221682
  12 H :    0.042528
  13 H :    0.099669
  14 H :    0.101259
  15 H :    0.091256
  16 H :    0.101594
  17 H :    0.115964
  18 H :    0.089419
Sum of atomic charges:   -0.0000000

LOEWDIN ATOMIC CHARGES
----------------------
   0 C :   -0.286020
   1 C :   -0.271852
   2 C :   -0.285275
   3 C :   -0.302612
   4 C :   -0.469237
   5 N :   -0.018666
   6 N :   -0.021964
   7 H :    0.157966
   8 H :    0.176053
   9 H :    0.125012
  10 H :    0.179870
  11 H :    0.161879
  12 H :    0.127054
  13 H :    0.131075
  14 H :    0.133196
  15 H :    0.127735
  16 H :    0.112962
  17 H :    0.113570
  18 H :    0.109255

  Mayer bond orders larger than 0.100000
B(  0-C ,  1-C ) :   0.9420 B(  0-C ,  2-C ) :   0.9658 B(  0-C , 12-H ) :   0.9739
B(  0-C , 13-H ) :   0.9700 B(  1-C ,  4-C ) :   1.6865 B(  1-C ,  9-H ) :   1.0470
B(  2-C ,  3-C ) :   0.9749 B(  2-C , 14-H ) :   0.9855 B(  2-C , 15-H ) :   0.9782
B(  3-C , 16-H ) :   0.9801 B(  3-C , 17-H ) :   0.9827 B(  3-C , 18-H ) :   0.9798
B(  4-C ,  5-N ) :   1.1232 B(  4-C ,  6-N ) :   1.1452 B(  5-N , 10-H ) :   0.9160
B(  5-N , 11-H ) :   0.9281 B(  6-N ,  7-H ) :   0.9150 B(  6-N ,  8-H ) :   0.9201

Dispersion correction           -0.005455308
FINAL SINGLE POINT ENERGY      -307.253746661259

DIPOLE MOMENT
-------------
                                X             Y             Z
Electronic contribution:      3.42110       4.92505      -2.19000
Nuclear contribution   :     -3.52450      -5.28471       1.03374
                        -----------------------------------------
Total Dipole Moment    :     -0.10340      -0.35966      -1.15626
                        -----------------------------------------
Magnitude (a.u.)       :      1.21531
Magnitude (Debye)      :      3.08908

Rotational constants in cm-1:     0.147126     0.050704     0.045476
Rotational constants in MHz :  4410.719889  1520.080198  1363.327077

                             ****ORCA TERMINATED NORMALLY****
TOTAL RUN TIME: 0 days 0 hours 0 minutes 23 seconds 215 msec
