                         Program Version 5.0.0 -  RELEASE  -
|  1> !wB97X-D3 RIJCOSX def2-TZVP def2/J TightSCF
|  2> *xyz 0 1
|  3> C          3.90595        2.81985       -3.75292
|  4> C          3.80351        1.37472       -3.26081
|  5> C          3.93993        0.32036       -4.36773
|  6> H          4.10504       -0.65508       -3.90773
|  7> H          3.02280        0.28052       -4.95712
|  8> C          5.10585        0.66802       -5.30546
|  9> H          4.57483        1.21516       -2.50044
| 10> H          2.84351        1.26085       -2.75146
| 11> O          4.80913        1.15019       -6.41436
| 12> F          6.26737        0.56500       -4.81948
| 13> H          3.15892        2.99660       -4.49832
| 14> H          4.87575        2.98549       -4.17357
| 15> H          3.75481        3.48808       -2.93101
| 16> *
| 17>
| 18> %MaxCore 64000
| 19>
| 20> %pal nprocs 18
| 21> end
| 22>
| 23> %scf
| 24>   MaxIter 150
| 25> end
| 26>
| 27>
| 28>                          ****END OF INPUT****

CARTESIAN COORDINATES (ANGSTROEM)
---------------------------------
  C      3.905950    2.819850   -3.752920
  C      3.803510    1.374720   -3.260810
  C      3.939930    0.320360   -4.367730
  H      4.105040   -0.655080   -3.907730
  H      3.022800    0.280520   -4.957120
  C      5.105850    0.668020   -5.305460
  H      4.574830    1.215160   -2.500440
  H      2.843510    1.260850   -2.751460
  O      4.809130    1.150190   -6.414360
  F      6.267370    0.565000   -4.819480
  H      3.158920    2.996600   -4.498320
  H      4.875750    2.985490   -4.173570
  H      3.754810    3.488080   -2.931010

 Total Charge           Charge          ....    0
 Multiplicity           Mult            ....    1
 Number of Electrons    NEL             ....   48
 Basis Dimension        Dim             ....  228

ORBITAL ENERGIES
----------------

  NO   OCC          E(Eh)            E(eV)
   0   2.0000     -24.852394      -676.2680
   1   2.0000     -19.235922      -523.4360
   2   2.0000     -10.452923      -284.4385
   3   2.0000     -10.303165      -280.3634
   4   2.0000     -10.292680      -280.0781
   5   2.0000     -10.265157      -279.3291
   6   2.0000      -1.429738       -38.9052
   7   2.0000      -1.154061       -31.4036
   8   2.0000      -0.932859       -25.3844
   9   2.0000      -0.841434       -22.8966
  10   2.0000      -0.768406       -20.9094
  11   2.0000      -0.722001       -19.6466
  12   2.0000      -0.652374       -17.7520
  13   2.0000      -0.639347       -17.3975
  14   2.0000      -0.601381       -16.3644
  15   2.0000      -0.574415       -15.6306
  16   2.0000      -0.556445       -15.1416
  17   2.0000      -0.516535       -14.0556
  18   2.0000      -0.496605       -13.5133
  19   2.0000      -0.467829       -12.7303
  20   2.0000      -0.459779       -12.5112
  21   2.0000      -0.444821       -12.1042
  22   2.0000      -0.440488       -11.9863
  23   2.0000      -0.384738       -10.4693
  24   0.0000       0.060536         1.6473
  25   0.0000       0.111006         3.0206
  26   0.0000       0.151912         4.1337
  27   0.0000       0.155629         4.2349
  28   0.0000       0.167993         4.5713

MULLIKEN ATOMIC CHARGES
-----------------------
   0 C :   -0.342996
   1 C :   -0.217529
   2 C :   -0.214034
   3 H :    0.124201
   4 H :    0.135238
   5 C :    0.382757
   6 H :    0.110632
   7 H :    0.112256
   8 O :   -0.341780
   9 F :   -0.112931
  10 H :    0.125200
  11 H :    0.119237
  12 H :    0.119749
Sum of atomic charges:    0.0000000

LOEWDIN ATOMIC CHARGES
----------------------
   0 C :   -0.296468
   1 C :   -0.288032
   2 C :   -0.233808
   3 H :    0.143933
   4 H :    0.152760
   5 C :   -0.496857
   6 H :    0.136290
   7 H :    0.137577
   8 O :    0.075038
   9 F :    0.313206
  10 H :    0.121120
  11 H :    0.118006
  12 H :    0.117234

  Mayer bond orders larger than 0.100000
B(  0-C ,  1-C ) :   0.9792 B(  0-C , 10-H ) :   0.9759 B(  0-C , 11-H ) :   0.9713
B(  0-C , 12-H ) :   0.9744 B(  1-C ,  2-C ) :   0.9696 B(  1-C ,  6-H ) :   0.9721
B(  1-C ,  7-H ) :   0.9734 B(  2-C ,  3-H ) :   0.9566 B(  2-C ,  4-H ) :   0.9698
B(  2-C ,  5-C ) :   0.9791 B(  5-C ,  8-O ) :   2.0525 B(  5-C ,  9-F ) :   1.1399

Dispersion correction           -0.003455041
FINAL SINGLE POINT ENERGY      -331.754914185965

DIPOLE MOMENT
-------------
                                X             Y             Z
Electronic contribution:      7.28196      -4.19220      -5.55069
Nuclear contribution   :     -7.63086       3.88103       6.63849
                        -----------------------------------------
Total Dipole Moment    :     -0.34890      -0.31118       1.08779
                        -----------------------------------------
Magnitude (a.u.)       :      1.18400
Magnitude (Debye)      :      3.00949

Rotational constants in cm-1:     0.177064     0.085023     0.079676
Rotational constants in MHz :  5308.232158  2548.918275  2388.614336

                             ****ORCA TERMINATED NORMALLY****
TOTAL RUN TIME: 0 days 0 hours 0 minutes 17 seconds 315 msec
