                         Program Version 5.0.0 -  RELEASE  -
|  1> !wB97X-D3 RIJCOSX def2-TZVP def2/J TightSCF
|  2> *xyz 0 1
|  3> C          3.90595        2.81985       -3.75292
|  4> N          5.29562        3.13151       -4.10533
|  5> C          3.80351        1.37472       -3.26081
|  6> C          3.93993        0.32036       -4.36773
|  7> C          5.70862        3.46889       -5.32419
|  8> C          6.90470        3.03895       -5.71708
|  9> N          4.98188        4.29357       -6.09746
| 10> H          5.00055        4.10131       -7.08776
| 11> H          4.08469        4.59690       -5.73965
| 12> H          5.96336        2.52611       -3.64239
| 13> H          7.04716        2.06686       -5.47360
| 14> H          7.19815        3.30799       -6.64523
| 15> H          3.28202        2.94919       -4.64026
| 16> H          3.56525        3.51457       -2.98252
| 17> H          4.57483        1.21516       -2.50044
| 18> H          2.84351        1.26085       -2.75146
| 19> H          3.18417        0.48061       -5.10803
| 20> H          3.82485       -0.65632       -3.94614
| 21> H          4.90589        0.40174       -4.82073
| 22> *
| 23>
| 24> %MaxCore 64000
| 25>
| 26> %pal nprocs 18
| 27> end
| 28>
| 29> %scf
| 30>   MaxIter 150
| 31> end
| 32>
| 33>
| 34>                          ****END OF INPUT****

CARTESIAN COORDINATES (ANGSTROEM)
---------------------------------
  C      3.905950    2.819850   -3.752920
  N      5.295620    3.131510   -4.105330
  C      3.803510    1.374720   -3.260810
  C      3.939930    0.320360   -4.367730
  C      5.708620    3.468890   -5.324190
  C      6.904700    3.038950   -5.717080
  N      4.981880    4.293570   -6.097460
  H      5.000550    4.101310   -7.087760
  H      4.084690    4.596900   -5.739650
  H      5.963360    2.526110   -3.642390
  H      7.047160    2.066860   -5.473600
  H      7.198150    3.307990   -6.645230
  H      3.282020    2.949190   -4.640260
  H      3.565250    3.514570   -2.982520
  H      4.574830    1.215160   -2.500440
  H      2.843510    1.260850   -2.751460
  H      3.184170    0.480610   -5.108030
  H      3.824850   -0.656320   -3.946140
  H      4.905890    0.401740   -4.820730

 Total Charge           Charge          ....    0
 Multiplicity           Mult            ....    1
 Number of Electrons    NEL             ....   56
 Basis Dimension        Dim             ....  289

ORBITAL ENERGIES
----------------

  NO   OCC          E(Eh)            E(eV)
   0   2.0000     -14.423834      -392.4925
   1   2.0000     -14.423171      -392.4744
   2   2.0000     -10.323501      -280.9168
   3   2.0000     -10.313509      -280.6448
   4   2.0000     -10.284584      -279.8578
   5   2.0000     -10.265190      -279.3300
   6   2.0000     -10.182461      -277.0788
   7   2.0000      -1.088716       -29.6255
   8   2.0000      -1.005045       -27.3487
   9   2.0000      -0.908806       -24.7299
  10   2.0000      -0.843132       -22.9428
  11   2.0000      -0.787616       -21.4321
  12   2.0000      -0.714244       -19.4356
  13   2.0000      -0.701680       -19.0937
  14   2.0000      -0.636969       -17.3328
  15   2.0000      -0.598900       -16.2969
  16   2.0000      -0.578866       -15.7517
  17   2.0000      -0.564078       -15.3493
  18   2.0000      -0.546644       -14.8749
  19   2.0000      -0.505448       -13.7539
  20   2.0000      -0.496671       -13.5151
  21   2.0000      -0.483799       -13.1648
  22   2.0000      -0.460752       -12.5377
  23   2.0000      -0.448689       -12.2094
  24   2.0000      -0.446319       -12.1450
  25   2.0000      -0.430794       -11.7225
  26   2.0000      -0.353786        -9.6270
  27   2.0000      -0.260812        -7.0971
  28   0.0000       0.102281         2.7832
  29   0.0000       0.121837         3.3154
  30   0.0000       0.132700         3.6110
  31   0.0000       0.139369         3.7924
  32   0.0000       0.150263         4.0889

MULLIKEN ATOMIC CHARGES
-----------------------
   0 C :   -0.070371
   1 N :   -0.317585
   2 C :   -0.245864
   3 C :   -0.326451
   4 C :    0.331319
   5 C :   -0.489445
   6 N :   -0.503313
   7 H :    0.258931
   8 H :    0.228388
   9 H :    0.223018
  10 H :    0.079351
  11 H :    0.068120
  12 H :    0.086884
  13 H :    0.118761
  14 H :    0.110557
  15 H :    0.102265
  16 H :    0.104102
  17 H :    0.122824
  18 H :    0.118508
Sum of atomic charges:   -0.0000000

LOEWDIN ATOMIC CHARGES
----------------------
   0 C :   -0.284730
   1 N :    0.113843
   2 C :   -0.296378
   3 C :   -0.298731
   4 C :   -0.466515
   5 C :   -0.355325
   6 N :   -0.013336
   7 H :    0.176412
   8 H :    0.161694
   9 H :    0.197105
  10 H :    0.100101
  11 H :    0.095489
  12 H :    0.126958
  13 H :    0.125809
  14 H :    0.133593
  15 H :    0.134476
  16 H :    0.115361
  17 H :    0.116949
  18 H :    0.117225

  Mayer bond orders larger than 0.100000
B(  0-C ,  1-N ) :   0.9113 B(  0-C ,  2-C ) :   0.9787 B(  0-C , 12-H ) :   0.9814
B(  0-C , 13-H ) :   0.9685 B(  1-N ,  4-C ) :   1.2183 B(  1-N ,  9-H ) :   0.9223
B(  2-C ,  3-C ) :   0.9731 B(  2-C , 14-H ) :   0.9829 B(  2-C , 15-H ) :   0.9719
B(  3-C , 16-H ) :   0.9775 B(  3-C , 17-H ) :   0.9788 B(  3-C , 18-H ) :   0.9753
B(  4-C ,  5-C ) :   1.6404 B(  4-C ,  6-N ) :   1.1079 B(  5-C , 10-H ) :   0.9903
B(  5-C , 11-H ) :   1.0278 B(  6-N ,  7-H ) :   0.9152 B(  6-N ,  8-H ) :   0.9288

Dispersion correction           -0.005520942
FINAL SINGLE POINT ENERGY      -307.243667899862

DIPOLE MOMENT
-------------
                                X             Y             Z
Electronic contribution:      1.72035       4.88095      -0.59870
Nuclear contribution   :     -3.17203      -5.30499       0.68068
                        -----------------------------------------
Total Dipole Moment    :     -1.45168      -0.42404       0.08198
                        -----------------------------------------
Magnitude (a.u.)       :      1.51457
Magnitude (Debye)      :      3.84972

Rotational constants in cm-1:     0.149640     0.051631     0.046708
Rotational constants in MHz :  4486.107270  1547.846261  1400.277765

                             ****ORCA TERMINATED NORMALLY****
TOTAL RUN TIME: 0 days 0 hours 0 minutes 29 seconds 685 msec
