                         Program Version 5.0.0 -  RELEASE  -
|  1> !wB97X-D3 RIJCOSX def2-TZVP def2/J TightSCF
|  2> *xyz 0 1
|  3> C          3.90595        2.81985       -3.75292
|  4> N          5.29562        3.13151       -4.10533
|  5> C          3.80351        1.37472       -3.26081
|  6> C          3.93993        0.32036       -4.36773
|  7> C          5.70862        3.46889       -5.32419
|  8> N          6.90470        3.03895       -5.71708
|  9> C          4.98188        4.29357       -6.09746
| 10> H          5.00055        4.10131       -7.08776
| 11> H          4.08469        4.59690       -5.73965
| 12> H          5.96336        2.52611       -3.64239
| 13> H          7.04716        2.06686       -5.47360
| 14> H          7.19815        3.30799       -6.64523
| 15> H          3.28202        2.94919       -4.64026
| 16> H          3.56525        3.51457       -2.98252
| 17> H          4.57483        1.21516       -2.50044
| 18> H          2.84351        1.26085       -2.75146
| 19> H          3.18417        0.48061       -5.10803
| 20> H          3.82485       -0.65632       -3.94614
| 21> H          4.90589        0.40174       -4.82073
| 22> *
| 23>
| 24> %MaxCore 64000
| 25>
| 26> %pal nprocs 18
| 27> end
| 28>
| 29> %scf
| 30>   MaxIter 150
| 31> end
| 32>
| 33>
| 34>                          ****END OF INPUT****

CARTESIAN COORDINATES (ANGSTROEM)
---------------------------------
  C      3.905950    2.819850   -3.752920
  N      5.295620    3.131510   -4.105330
  C      3.803510    1.374720   -3.260810
  C      3.939930    0.320360   -4.367730
  C      5.708620    3.468890   -5.324190
  N      6.904700    3.038950   -5.717080
  C      4.981880    4.293570   -6.097460
  H      5.000550    4.101310   -7.087760
  H      4.084690    4.596900   -5.739650
  H      5.963360    2.526110   -3.642390
  H      7.047160    2.066860   -5.473600
  H      7.198150    3.307990   -6.645230
  H      3.282020    2.949190   -4.640260
  H      3.565250    3.514570   -2.982520
  H      4.574830    1.215160   -2.500440
  H      2.843510    1.260850   -2.751460
  H      3.184170    0.480610   -5.108030
  H      3.824850   -0.656320   -3.946140
  H      4.905890    0.401740   -4.820730

 Total Charge           Charge          ....    0
 Multiplicity           Mult            ....    1
 Number of Electrons    NEL             ....   56
 Basis Dimension        Dim             ....  289

ORBITAL ENERGIES
----------------

  NO   OCC          E(Eh)            E(eV)
   0   2.0000     -14.424919      -392.5220
   1   2.0000     -14.423029      -392.4706
   2   2.0000     -10.321893      -280.8730
   3   2.0000     -10.307622      -280.4847
   4   2.0000     -10.282818      -279.8097
   5   2.0000     -10.266951      -279.3779
   6   2.0000     -10.187366      -277.2123
   7   2.0000      -1.093410       -29.7532
   8   2.0000      -1.006879       -27.3986
   9   2.0000      -0.903838       -24.5947
  10   2.0000      -0.828727       -22.5508
  11   2.0000      -0.805601       -21.9215
  12   2.0000      -0.720193       -19.5974
  13   2.0000      -0.673921       -18.3383
  14   2.0000      -0.637357       -17.3434
  15   2.0000      -0.619116       -16.8470
  16   2.0000      -0.574491       -15.6327
  17   2.0000      -0.567959       -15.4549
  18   2.0000      -0.531855       -14.4725
  19   2.0000      -0.513495       -13.9729
  20   2.0000      -0.495455       -13.4820
  21   2.0000      -0.478896       -13.0314
  22   2.0000      -0.463206       -12.6045
  23   2.0000      -0.449671       -12.2362
  24   2.0000      -0.443864       -12.0782
  25   2.0000      -0.430873       -11.7246
  26   2.0000      -0.351349        -9.5607
  27   2.0000      -0.263511        -7.1705
  28   0.0000       0.095095         2.5877
  29   0.0000       0.126333         3.4377
  30   0.0000       0.132747         3.6122
  31   0.0000       0.142852         3.8872
  32   0.0000       0.152318         4.1448

MULLIKEN ATOMIC CHARGES
-----------------------
   0 C :   -0.054549
   1 N :   -0.336990
   2 C :   -0.248710
   3 C :   -0.309442
   4 C :    0.342334
   5 N :   -0.487787
   6 C :   -0.504411
   7 H :    0.096763
   8 H :    0.076624
   9 H :    0.188548
  10 H :    0.216116
  11 H :    0.252793
  12 H :    0.118543
  13 H :    0.118181
  14 H :    0.105552
  15 H :    0.104678
  16 H :    0.115725
  17 H :    0.122675
  18 H :    0.083357
Sum of atomic charges:    0.0000000

LOEWDIN ATOMIC CHARGES
----------------------
   0 C :   -0.269879
   1 N :    0.115752
   2 C :   -0.297759
   3 C :   -0.299725
   4 C :   -0.477799
   5 N :   -0.018314
   6 C :   -0.339964
   7 H :    0.097198
   8 H :    0.096347
   9 H :    0.179411
  10 H :    0.160251
  11 H :    0.178442
  12 H :    0.138290
  13 H :    0.127958
  14 H :    0.131075
  15 H :    0.135603
  16 H :    0.118330
  17 H :    0.116512
  18 H :    0.108269

  Mayer bond orders larger than 0.100000
B(  0-C ,  1-N ) :   0.9004 B(  0-C ,  2-C ) :   0.9789 B(  0-C , 12-H ) :   0.9782
B(  0-C , 13-H ) :   0.9730 B(  1-N ,  4-C ) :   1.1644 B(  1-N ,  9-H ) :   0.9320
B(  2-C ,  3-C ) :   0.9731 B(  2-C , 14-H ) :   0.9845 B(  2-C , 15-H ) :   0.9724
B(  3-C , 16-H ) :   0.9772 B(  3-C , 17-H ) :   0.9801 B(  3-C , 18-H ) :   0.9763
B(  4-C ,  5-N ) :   1.1299 B(  4-C ,  6-C ) :   1.6115 B(  5-N , 10-H ) :   0.9205
B(  5-N , 11-H ) :   0.9196 B(  6-C ,  7-H ) :   0.9820 B(  6-C ,  8-H ) :   1.0202

Dispersion correction           -0.005502046
FINAL SINGLE POINT ENERGY      -307.247857814669

DIPOLE MOMENT
-------------
                                X             Y             Z
Electronic contribution:      3.63682       3.66233      -0.29036
Nuclear contribution   :     -3.59323      -5.03016       0.59736
                        -----------------------------------------
Total Dipole Moment    :      0.04358      -1.36782       0.30700
                        -----------------------------------------
Magnitude (a.u.)       :      1.40253
Magnitude (Debye)      :      3.56495

Rotational constants in cm-1:     0.148888     0.051791     0.046487
Rotational constants in MHz :  4463.542717  1552.665696  1393.643356

                             ****ORCA TERMINATED NORMALLY****
TOTAL RUN TIME: 0 days 0 hours 0 minutes 26 seconds 65 msec
