                         Program Version 5.0.0 -  RELEASE  -
|  1> !wB97X-D3 RIJCOSX def2-TZVP def2/J TightSCF xyzfile
|  2>
|  3> *xyzfile 0 1 D1.xyz
|  4>
|  5> %MaxCore 64000
|  6>
|  7> %pal nprocs 18
|  8> end
|  9>
| 10> %scf
| 11>   MaxIter 150
| 12> end
| 13>
| 14>
| 15>                          ****END OF INPUT****

CARTESIAN COORDINATES (ANGSTROEM)
---------------------------------
  C      3.905947    2.819855   -3.752920
  C      5.295615    3.131515   -4.105334
  C      3.803511    1.374716   -3.260807
  C      3.939934    0.320362   -4.367729
  H      4.105043   -0.655085   -3.907733
  H      3.022801    0.280517   -4.957117
  C      5.105846    0.668022   -5.305463
  C      5.708619    3.468885   -5.324190
  N      6.904696    3.038954   -5.717084
  N      4.981884    4.293570   -6.097457
  H      5.000546    4.101311   -7.087761
  H      4.084693    4.596899   -5.739652
  H      5.963358    2.526112   -3.642391
  H      7.047164    2.066861   -5.473604
  H      7.198145    3.307994   -6.645225
  H      3.282025    2.949187   -4.640259
  H      3.565254    3.514574   -2.982523
  H      4.574833    1.215157   -2.500443
  H      2.843514    1.260845   -2.751465
  F      4.809132    1.150187   -6.414361
  O      6.267366    0.564999   -4.819481

 Total Charge           Charge          ....    0
 Multiplicity           Mult            ....    1
 Number of Electrons    NEL             ....   78
 Basis Dimension        Dim             ....  376

ORBITAL ENERGIES
----------------

  NO   OCC          E(Eh)            E(eV)
   0   2.0000     -24.865660      -676.6290
   1   2.0000     -19.238308      -523.5010
   2   2.0000     -14.422177      -392.4474
   3   2.0000     -14.400667      -391.8621
   4   2.0000     -10.463518      -284.7268
   5   2.0000     -10.315515      -280.6994
   6   2.0000     -10.303561      -280.3741
   7   2.0000     -10.281755      -279.7808
   8   2.0000     -10.263370      -279.2805
   9   2.0000     -10.196419      -277.4587
  10   2.0000      -1.450539       -39.4712
  11   2.0000      -1.155426       -31.4408
  12   2.0000      -1.076778       -29.3006
  13   2.0000      -0.984479       -26.7890
  14   2.0000      -0.935370       -25.4527
  15   2.0000      -0.866910       -23.5898
  16   2.0000      -0.807561       -21.9748
  17   2.0000      -0.770718       -20.9723
  18   2.0000      -0.718150       -19.5418
  19   2.0000      -0.684301       -18.6208
  20   2.0000      -0.665110       -18.0986
  21   2.0000      -0.648151       -17.6371
  22   2.0000      -0.637632       -17.3509
  23   2.0000      -0.622714       -16.9449
  24   2.0000      -0.603541       -16.4232
  25   2.0000      -0.566699       -15.4207
  26   2.0000      -0.560558       -15.2536
  27   2.0000      -0.540536       -14.7087
  28   2.0000      -0.529610       -14.4114
  29   2.0000      -0.495741       -13.4898
  30   2.0000      -0.484626       -13.1874
  31   2.0000      -0.462729       -12.5915
  32   2.0000      -0.459921       -12.5151
  33   2.0000      -0.440952       -11.9989
  34   2.0000      -0.428531       -11.6609
  35   2.0000      -0.414669       -11.2837
  36   2.0000      -0.394998       -10.7484
  37   2.0000      -0.358047        -9.7429
  38   2.0000      -0.254940        -6.9373
  39   0.0000       0.048541         1.3209
  40   0.0000       0.106191         2.8896
  41   0.0000       0.126590         3.4447
  42   0.0000       0.136437         3.7126
  43   0.0000       0.146213         3.9786

MULLIKEN ATOMIC CHARGES
-----------------------
   0 C :   -0.181377
   1 C :   -0.288798
   2 C :   -0.215112
   3 C :   -0.242271
   4 H :    0.137915
   5 H :    0.115868
   6 C :    0.475629
   7 C :    0.171894
   8 N :   -0.448952
   9 N :   -0.489839
  10 H :    0.221506
  11 H :    0.248778
  12 H :    0.111844
  13 H :    0.262842
  14 H :    0.213599
  15 H :    0.059128
  16 H :    0.111839
  17 H :    0.130656
  18 H :    0.109543
  19 F :   -0.098377
  20 O :   -0.406314
Sum of atomic charges:   -0.0000000

LOEWDIN ATOMIC CHARGES
----------------------
   0 C :   -0.285042
   1 C :   -0.268379
   2 C :   -0.247513
   3 C :   -0.225191
   4 H :    0.154119
   5 H :    0.140820
   6 C :   -0.487968
   7 C :   -0.483904
   8 N :   -0.009036
   9 N :   -0.020963
  10 H :    0.157481
  11 H :    0.173541
  12 H :    0.130909
  13 H :    0.166289
  14 H :    0.158962
  15 H :    0.129549
  16 H :    0.134896
  17 H :    0.146268
  18 H :    0.136596
  19 F :    0.353723
  20 O :    0.044843

  Mayer bond orders larger than 0.100000
B(  0-C ,  1-C ) :   0.9552 B(  0-C ,  2-C ) :   0.9628 B(  0-C , 15-H ) :   0.9754
B(  0-C , 16-H ) :   0.9664 B(  1-C ,  7-C ) :   1.6265 B(  1-C , 12-H ) :   1.0413
B(  2-C ,  3-C ) :   0.9763 B(  2-C , 17-H ) :   0.9745 B(  2-C , 18-H ) :   0.9741
B(  3-C ,  4-H ) :   0.9529 B(  3-C ,  5-H ) :   0.9622 B(  3-C ,  6-C ) :   0.9881
B(  6-C , 19-F ) :   1.1606 B(  6-C , 20-O ) :   1.9208 B(  7-C ,  8-N ) :   1.1893
B(  7-C ,  9-N ) :   1.1627 B(  8-N , 13-H ) :   0.8665 B(  8-N , 14-H ) :   0.9279
B(  9-N , 10-H ) :   0.9156 B(  9-N , 11-H ) :   0.9216

Dispersion correction           -0.008897222
FINAL SINGLE POINT ENERGY      -519.851145704046

DIPOLE MOMENT
-------------
                                X             Y             Z
Electronic contribution:      3.39098      -3.66368      -6.53549
Nuclear contribution   :     -4.60158       3.22721       5.56005
                        -----------------------------------------
Total Dipole Moment    :     -1.21060      -0.43647      -0.97544
                        -----------------------------------------
Magnitude (a.u.)       :      1.61479
Magnitude (Debye)      :      4.10446

Rotational constants in cm-1:     0.061224     0.042534     0.033552
Rotational constants in MHz :  1835.464095  1275.135177  1005.856966

                             ****ORCA TERMINATED NORMALLY****
TOTAL RUN TIME: 0 days 0 hours 0 minutes 52 seconds 285 msec
