                         Program Version 5.0.0 -  RELEASE  -
|  1> !wB97X-D3 RIJCOSX def2-TZVP def2/J TightSCF xyzfile
|  2>
|  3> *xyzfile 0 1 D3.xyz
|  4>
|  5> %MaxCore 64000
|  6>
|  7> %pal nprocs 18
|  8> end
|  9>
| 10> %scf
| 11>   MaxIter 150
| 12> end
| 13>
| 14>
| 15>                          ****END OF INPUT****

CARTESIAN COORDINATES (ANGSTROEM)
---------------------------------
  C      3.905947    2.819855   -3.752920
  N      5.295615    3.131515   -4.105334
  C      3.803511    1.374716   -3.260807
  C      3.939934    0.320362   -4.367729
  H      4.105043   -0.655085   -3.907733
  H      3.022801    0.280517   -4.957117
  C      5.105846    0.668022   -5.305463
  C      5.708619    3.468885   -5.324190
  N      6.904696    3.038954   -5.717084
  C      4.981884    4.293570   -6.097457
  H      5.000546    4.101311   -7.087761
  H      4.084693    4.596899   -5.739652
  H      5.963358    2.526112   -3.642391
  H      7.047164    2.066861   -5.473604
  H      7.198145    3.307994   -6.645225
  H      3.282025    2.949187   -4.640259
  H      3.565254    3.514574   -2.982523
  H      4.574833    1.215157   -2.500443
  H      2.843514    1.260845   -2.751465
  F      4.809132    1.150187   -6.414361
  O      6.267366    0.564999   -4.819481

 Total Charge           Charge          ....    0
 Multiplicity           Mult            ....    1
 Number of Electrons    NEL             ....   78
 Basis Dimension        Dim             ....  376

ORBITAL ENERGIES
----------------

  NO   OCC          E(Eh)            E(eV)
   0   2.0000     -24.876040      -676.9115
   1   2.0000     -19.255998      -523.9823
   2   2.0000     -14.424673      -392.5153
   3   2.0000     -14.400293      -391.8519
   4   2.0000     -10.480174      -285.1800
   5   2.0000     -10.321402      -280.8596
   6   2.0000     -10.320512      -280.8354
   7   2.0000     -10.316123      -280.7160
   8   2.0000     -10.307702      -280.4868
   9   2.0000     -10.181996      -277.0662
  10   2.0000      -1.460512       -39.7425
  11   2.0000      -1.173887       -31.9431
  12   2.0000      -1.088599       -29.6223
  13   2.0000      -1.003212       -27.2988
  14   2.0000      -0.936608       -25.4864
  15   2.0000      -0.854008       -23.2387
  16   2.0000      -0.817237       -22.2381
  17   2.0000      -0.789551       -21.4848
  18   2.0000      -0.744237       -20.2517
  19   2.0000      -0.679794       -18.4981
  20   2.0000      -0.674559       -18.3557
  21   2.0000      -0.663626       -18.0582
  22   2.0000      -0.647144       -17.6097
  23   2.0000      -0.617504       -16.8031
  24   2.0000      -0.606582       -16.5059
  25   2.0000      -0.585674       -15.9370
  26   2.0000      -0.574673       -15.6377
  27   2.0000      -0.535423       -14.5696
  28   2.0000      -0.527228       -14.3466
  29   2.0000      -0.507411       -13.8073
  30   2.0000      -0.490090       -13.3360
  31   2.0000      -0.487470       -13.2647
  32   2.0000      -0.473122       -12.8743
  33   2.0000      -0.466310       -12.6889
  34   2.0000      -0.453241       -12.3333
  35   2.0000      -0.429078       -11.6758
  36   2.0000      -0.409449       -11.1417
  37   2.0000      -0.345035        -9.3889
  38   2.0000      -0.257883        -7.0174
  39   0.0000       0.031264         0.8507
  40   0.0000       0.105278         2.8648
  41   0.0000       0.129728         3.5301
  42   0.0000       0.142881         3.8880
  43   0.0000       0.144711         3.9378

MULLIKEN ATOMIC CHARGES
-----------------------
   0 C :   -0.116528
   1 N :   -0.291162
   2 C :   -0.261797
   3 C :   -0.211693
   4 H :    0.144843
   5 H :    0.129121
   6 C :    0.422125
   7 C :    0.214425
   8 N :   -0.455496
   9 C :   -0.472198
  10 H :    0.091346
  11 H :    0.068328
  12 H :    0.215190
  13 H :    0.245275
  14 H :    0.242504
  15 H :    0.130179
  16 H :    0.128592
  17 H :    0.136060
  18 H :    0.125907
  19 F :   -0.069319
  20 O :   -0.415701
Sum of atomic charges:    0.0000000

LOEWDIN ATOMIC CHARGES
----------------------
   0 C :   -0.268577
   1 N :    0.123551
   2 C :   -0.259492
   3 C :   -0.224525
   4 H :    0.156251
   5 H :    0.145150
   6 C :   -0.486925
   7 C :   -0.497536
   8 N :   -0.012334
   9 C :   -0.347996
  10 H :    0.095308
  11 H :    0.093384
  12 H :    0.184859
  13 H :    0.154667
  14 H :    0.174481
  15 H :    0.140450
  16 H :    0.131524
  17 H :    0.144252
  18 H :    0.144241
  19 F :    0.371614
  20 O :    0.037656

  Mayer bond orders larger than 0.100000
B(  0-C ,  1-N ) :   0.9379 B(  0-C ,  2-C ) :   0.9659 B(  0-C , 15-H ) :   0.9752
B(  0-C , 16-H ) :   0.9734 B(  1-N ,  7-C ) :   1.1422 B(  1-N , 12-H ) :   0.9229
B(  2-C ,  3-C ) :   0.9638 B(  2-C , 17-H ) :   0.9760 B(  2-C , 18-H ) :   0.9708
B(  3-C ,  4-H ) :   0.9528 B(  3-C ,  5-H ) :   0.9606 B(  3-C ,  6-C ) :   0.9762
B(  6-C , 19-F ) :   1.2022 B(  6-C , 20-O ) :   1.9159 B(  7-C ,  8-N ) :   1.1950
B(  7-C ,  9-C ) :   1.6618 B(  8-N , 13-H ) :   0.8849 B(  8-N , 14-H ) :   0.9230
B(  9-C , 10-H ) :   0.9844 B(  9-C , 11-H ) :   1.0209

Dispersion correction           -0.008980838
FINAL SINGLE POINT ENERGY      -519.842241987308

DIPOLE MOMENT
-------------
                                X             Y             Z
Electronic contribution:      3.56499      -4.90272      -4.88758
Nuclear contribution   :     -4.64021       3.37029       5.31478
                        -----------------------------------------
Total Dipole Moment    :     -1.07522      -1.53243       0.42720
                        -----------------------------------------
Magnitude (a.u.)       :      1.92014
Magnitude (Debye)      :      4.88060

Rotational constants in cm-1:     0.061077     0.043622     0.034103
Rotational constants in MHz :  1831.041375  1307.759852  1022.388536

                             ****ORCA TERMINATED NORMALLY****
TOTAL RUN TIME: 0 days 0 hours 0 minutes 41 seconds 418 msec
