                         Program Version 5.0.0 -  RELEASE  -
|  1> !BLYP D3BJ RIJCOSX def2-SVPD def2/J TightSCF
|  2> *xyz -1 1
|  3> C         -5.57236       -5.80780       -0.81644
|  4> S         -6.90318       -4.61903       -0.52846
|  5> O         -8.11485       -5.25093       -0.95701
|  6> O         -6.53271       -3.42684       -1.31485
|  7> O         -6.86563       -4.29496        0.91412
|  8> H         -5.55376       -6.07856       -1.85145
|  9> H         -5.73990       -6.68165       -0.22212
| 10> H         -4.63562       -5.36690       -0.54622
| 11> *
| 12> %MaxCore 64000
| 13>
| 14> %pal nprocs 4
| 15> end
| 16>
| 17> %scf
| 18>   MaxIter 150
| 19> end
| 20>
| 21>                          ****END OF INPUT****

CARTESIAN COORDINATES (ANGSTROEM)
---------------------------------
  C     -5.572360   -5.807800   -0.816440
  S     -6.903180   -4.619030   -0.528460
  O     -8.114850   -5.250930   -0.957010
  O     -6.532710   -3.426840   -1.314850
  O     -6.865630   -4.294960    0.914120
  H     -5.553760   -6.078560   -1.851450
  H     -5.739900   -6.681650   -0.222120
  H     -4.635620   -5.366900   -0.546220

 Total Charge           Charge          ....   -1
 Multiplicity           Mult            ....    1
 Number of Electrons    NEL             ....   50
 Basis Dimension        Dim             ....  140

ORBITAL ENERGIES
----------------

  NO   OCC          E(Eh)            E(eV)
   0   2.0000     -88.129260     -2398.1191
   1   2.0000     -18.573427      -505.4086
   2   2.0000     -18.561386      -505.0810
   3   2.0000     -18.560423      -505.0548
   4   2.0000      -9.776657      -266.0364
   5   2.0000      -7.665658      -208.5931
   6   2.0000      -5.700733      -155.1248
   7   2.0000      -5.700580      -155.1207
   8   2.0000      -5.700175      -155.1096
   9   2.0000      -0.830961       -22.6116
  10   2.0000      -0.696013       -18.9395
  11   2.0000      -0.673136       -18.3170
  12   2.0000      -0.504454       -13.7269
  13   2.0000      -0.324574        -8.8321
  14   2.0000      -0.241578        -6.5737
  15   2.0000      -0.236824        -6.4443
  16   2.0000      -0.235701        -6.4138
  17   2.0000      -0.192988        -5.2515
  18   2.0000      -0.191458        -5.2098
  19   2.0000      -0.098157        -2.6710
  20   2.0000      -0.096353        -2.6219
  21   2.0000      -0.069317        -1.8862
  22   2.0000      -0.060195        -1.6380
  23   2.0000      -0.051043        -1.3889
  24   2.0000      -0.013766        -0.3746
  25   0.0000       0.135177         3.6783
  26   0.0000       0.174701         4.7539
  27   0.0000       0.174928         4.7600
  28   0.0000       0.177748         4.8368
  29   0.0000       0.197537         5.3753

MULLIKEN ATOMIC CHARGES
-----------------------
   0 C :    0.907876
   1 S :    0.905295
   2 O :   -0.679188
   3 O :   -0.731378
   4 O :   -0.732495
   5 H :   -0.221411
   6 H :   -0.227845
   7 H :   -0.220854
Sum of atomic charges:   -1.0000000

LOEWDIN ATOMIC CHARGES
----------------------
   0 C :    0.068676
   1 S :    0.792658
   2 O :   -0.558339
   3 O :   -0.580500
   4 O :   -0.579609
   5 H :   -0.047890
   6 H :   -0.048632
   7 H :   -0.046364

  Mayer bond orders larger than 0.100000
B(  0-C ,  1-S ) :   0.9013 B(  0-C ,  5-H ) :   0.8451 B(  0-C ,  6-H ) :   0.8455
B(  0-C ,  7-H ) :   0.8493 B(  1-S ,  2-O ) :   1.3914 B(  1-S ,  3-O ) :   1.3481
B(  1-S ,  4-O ) :   1.3443 B(  1-S ,  5-H ) :   0.1389 B(  1-S ,  6-H ) :   0.1390
B(  1-S ,  7-H ) :   0.1483

Dispersion correction           -0.013575366
FINAL SINGLE POINT ENERGY      -663.445650366422

DIPOLE MOMENT
-------------
                                X             Y             Z
Electronic contribution:     -3.28467       2.77403       0.64596
Nuclear contribution   :      4.23639      -3.86101      -0.94151
                        -----------------------------------------
Total Dipole Moment    :      0.95171      -1.08698      -0.29555
                        -----------------------------------------
Magnitude (a.u.)       :      1.47466
Magnitude (Debye)      :      3.74829

Rotational constants in cm-1:     0.172406     0.155169     0.153146
Rotational constants in MHz :  5168.590738  4651.861875  4591.214998

                             ****ORCA TERMINATED NORMALLY****
TOTAL RUN TIME: 0 days 0 hours 0 minutes 4 seconds 686 msec
