                         Program Version 5.0.0 -  RELEASE  -
|  1> !BLYP D3BJ RIJCOSX def2-SVPD def2/J TightSCF
|  2> *xyz 1 1
|  3> C         -4.38262       -1.67089        1.21620
|  4> N         -5.76354       -1.91517        0.70501
|  5> H         -5.84081       -2.11520       -0.30065
|  6> H         -6.40882       -1.14866        0.93612
|  7> H         -6.17478       -2.79061        1.05143
|  8> H         -4.01369       -0.74796        0.81997
|  9> H         -3.74223       -2.47168        0.91037
| 10> H         -4.40201       -1.61791        2.28471
| 11> *
| 12> %MaxCore 64000
| 13>
| 14> %pal nprocs 4
| 15> end
| 16>
| 17> %scf
| 18>   MaxIter 150
| 19> end
| 20>
| 21>                          ****END OF INPUT****

CARTESIAN COORDINATES (ANGSTROEM)
---------------------------------
  C     -4.382620   -1.670890    1.216200
  N     -5.763540   -1.915170    0.705010
  H     -5.840810   -2.115200   -0.300650
  H     -6.408820   -1.148660    0.936120
  H     -6.174780   -2.790610    1.051430
  H     -4.013690   -0.747960    0.819970
  H     -3.742230   -2.471680    0.910370
  H     -4.402010   -1.617910    2.284710

 Total Charge           Charge          ....    1
 Multiplicity           Mult            ....    1
 Number of Electrons    NEL             ....   18
 Basis Dimension        Dim             ....   88

ORBITAL ENERGIES
----------------

  NO   OCC          E(Eh)            E(eV)
   0   2.0000     -14.372614      -391.0987
   1   2.0000     -10.183622      -277.1104
   2   2.0000      -1.131951       -30.8020
   3   2.0000      -0.869212       -23.6525
   4   2.0000      -0.760326       -20.6895
   5   2.0000      -0.736692       -20.0464
   6   2.0000      -0.670413       -18.2429
   7   2.0000      -0.581034       -15.8107
   8   2.0000      -0.578171       -15.7328
   9   0.0000      -0.232002        -6.3131
  10   0.0000      -0.167957        -4.5703
  11   0.0000      -0.164867        -4.4862
  12   0.0000      -0.156763        -4.2657
  13   0.0000      -0.108235        -2.9452

MULLIKEN ATOMIC CHARGES
-----------------------
   0 C :    1.376066
   1 N :   -0.713024
   2 H :    0.292137
   3 H :    0.324489
   4 H :    0.301002
   5 H :   -0.196786
   6 H :   -0.200445
   7 H :   -0.183440
Sum of atomic charges:    1.0000000

LOEWDIN ATOMIC CHARGES
----------------------
   0 C :    0.301365
   1 N :    0.322288
   2 H :    0.104714
   3 H :    0.107215
   4 H :    0.102136
   5 H :    0.020452
   6 H :    0.020429
   7 H :    0.021400

  Mayer bond orders larger than 0.100000
B(  0-C ,  1-N ) :   0.7681 B(  0-C ,  5-H ) :   0.8117 B(  0-C ,  6-H ) :   0.8122
B(  0-C ,  7-H ) :   0.8037 B(  1-N ,  2-H ) :   0.8397 B(  1-N ,  3-H ) :   0.7863
B(  1-N ,  4-H ) :   0.8366 B(  1-N ,  5-H ) :   0.1221 B(  1-N ,  6-H ) :   0.1229
B(  1-N ,  7-H ) :   0.1268

Dispersion correction           -0.006767932
FINAL SINGLE POINT ENERGY       -96.097496903137

DIPOLE MOMENT
-------------
                                X             Y             Z
Electronic contribution:     -0.95068      -0.13052      -0.34980
Nuclear contribution   :      0.12888      -0.05969       0.04130
                        -----------------------------------------
Total Dipole Moment    :     -0.82180      -0.19022      -0.30850
                        -----------------------------------------
Magnitude (a.u.)       :      0.89817
Magnitude (Debye)      :      2.28297

Rotational constants in cm-1:     2.932748     0.676653     0.669753
Rotational constants in MHz : 87921.559023 20285.538082 20078.692306

                             ****ORCA TERMINATED NORMALLY****
TOTAL RUN TIME: 0 days 0 hours 0 minutes 2 seconds 696 msec
