                         Program Version 5.0.0 -  RELEASE  -
|  1> !BLYP D3BJ RIJCOSX def2-SVPD def2/J TightSCF
|  2> *xyz 0 1
|  3> C         -5.57236       -5.80780       -0.81644
|  4> S         -6.90318       -4.61903       -0.52846
|  5> F         -8.11485       -5.25093       -0.95701
|  6> O         -6.53271       -3.42684       -1.31485
|  7> O         -6.86563       -4.29496        0.91412
|  8> H         -5.55376       -6.07856       -1.85145
|  9> H         -5.73990       -6.68165       -0.22212
| 10> H         -4.63562       -5.36690       -0.54622
| 11> *
| 12> %MaxCore 64000
| 13>
| 14> %pal nprocs 4
| 15> end
| 16>
| 17> %scf
| 18>   MaxIter 150
| 19> end
| 20>
| 21>                          ****END OF INPUT****

CARTESIAN COORDINATES (ANGSTROEM)
---------------------------------
  C     -5.572360   -5.807800   -0.816440
  S     -6.903180   -4.619030   -0.528460
  F     -8.114850   -5.250930   -0.957010
  O     -6.532710   -3.426840   -1.314850
  O     -6.865630   -4.294960    0.914120
  H     -5.553760   -6.078560   -1.851450
  H     -5.739900   -6.681650   -0.222120
  H     -4.635620   -5.366900   -0.546220

 Total Charge           Charge          ....    0
 Multiplicity           Mult            ....    1
 Number of Electrons    NEL             ....   50
 Basis Dimension        Dim             ....  140

ORBITAL ENERGIES
----------------

  NO   OCC          E(Eh)            E(eV)
   0   2.0000     -88.391267     -2405.2487
   1   2.0000     -24.427594      -664.7086
   2   2.0000     -18.798049      -511.5209
   3   2.0000     -18.797051      -511.4938
   4   2.0000      -9.985621      -271.7226
   5   2.0000      -7.928398      -215.7427
   6   2.0000      -5.967879      -162.3942
   7   2.0000      -5.961029      -162.2078
   8   2.0000      -5.959890      -162.1769
   9   2.0000      -1.278070       -34.7780
  10   2.0000      -1.005294       -27.3554
  11   2.0000      -0.906906       -24.6782
  12   2.0000      -0.726422       -19.7669
  13   2.0000      -0.654617       -17.8130
  14   2.0000      -0.547101       -14.8874
  15   2.0000      -0.529265       -14.4020
  16   2.0000      -0.498072       -13.5532
  17   2.0000      -0.429131       -11.6773
  18   2.0000      -0.424227       -11.5438
  19   2.0000      -0.416269       -11.3273
  20   2.0000      -0.385872       -10.5001
  21   2.0000      -0.331971        -9.0334
  22   2.0000      -0.288846        -7.8599
  23   2.0000      -0.280102        -7.6220
  24   2.0000      -0.255093        -6.9414
  25   0.0000      -0.034757        -0.9458
  26   0.0000       0.001219         0.0332
  27   0.0000       0.010544         0.2869
  28   0.0000       0.027063         0.7364
  29   0.0000       0.031423         0.8551

MULLIKEN ATOMIC CHARGES
-----------------------
   0 C :    0.877348
   1 S :    1.081170
   2 F :   -0.321005
   3 O :   -0.580763
   4 O :   -0.580972
   5 H :   -0.154475
   6 H :   -0.159449
   7 H :   -0.161854
Sum of atomic charges:   -0.0000000

LOEWDIN ATOMIC CHARGES
----------------------
   0 C :    0.136384
   1 S :    1.066448
   2 F :   -0.241448
   3 O :   -0.459122
   4 O :   -0.457620
   5 H :   -0.019764
   6 H :   -0.020057
   7 H :   -0.004821

  Mayer bond orders larger than 0.100000
B(  0-C ,  1-S ) :   0.9603 B(  0-C ,  5-H ) :   0.8486 B(  0-C ,  6-H ) :   0.8503
B(  0-C ,  7-H ) :   0.8507 B(  1-S ,  2-F ) :   0.7779 B(  1-S ,  3-O ) :   1.5499
B(  1-S ,  4-O ) :   1.5460 B(  1-S ,  5-H ) :   0.1111 B(  1-S ,  6-H ) :   0.1117
B(  1-S ,  7-H ) :   0.1465

Dispersion correction           -0.012718233
FINAL SINGLE POINT ENERGY      -687.932455381038

DIPOLE MOMENT
-------------
                                X             Y             Z
Electronic contribution:     -5.22676       1.67689      -0.06878
Nuclear contribution   :      5.53040      -3.27628      -0.52239
                        -----------------------------------------
Total Dipole Moment    :      0.30364      -1.59939      -0.59118
                        -----------------------------------------
Magnitude (a.u.)       :      1.73197
Magnitude (Debye)      :      4.40232

Rotational constants in cm-1:     0.163239     0.153903     0.144751
Rotational constants in MHz :  4893.777363  4613.882823  4339.513182

                             ****ORCA TERMINATED NORMALLY****
TOTAL RUN TIME: 0 days 0 hours 0 minutes 4 seconds 614 msec
