                         Program Version 5.0.0 -  RELEASE  -
|  1> !BLYP D3BJ RIJCOSX def2-SVPD def2/J TightSCF
|  2> *xyz 0 1
|  3> C         -4.38262       -1.67089        1.21620
|  4> C         -5.76354       -1.91517        0.70501
|  5> H         -5.84081       -2.11520       -0.30065
|  6> H         -6.40882       -1.14866        0.93612
|  7> H         -6.17478       -2.79061        1.05143
|  8> H         -4.01369       -0.74796        0.81997
|  9> H         -3.74223       -2.47168        0.91037
| 10> H         -4.40201       -1.61791        2.28471
| 11> *
| 12> %MaxCore 64000
| 13>
| 14> %pal nprocs 4
| 15> end
| 16>
| 17> %scf
| 18>   MaxIter 150
| 19> end
| 20>
| 21>                          ****END OF INPUT****

CARTESIAN COORDINATES (ANGSTROEM)
---------------------------------
  C     -4.382620   -1.670890    1.216200
  C     -5.763540   -1.915170    0.705010
  H     -5.840810   -2.115200   -0.300650
  H     -6.408820   -1.148660    0.936120
  H     -6.174780   -2.790610    1.051430
  H     -4.013690   -0.747960    0.819970
  H     -3.742230   -2.471680    0.910370
  H     -4.402010   -1.617910    2.284710

 Total Charge           Charge          ....    0
 Multiplicity           Mult            ....    1
 Number of Electrons    NEL             ....   18
 Basis Dimension        Dim             ....   88

ORBITAL ENERGIES
----------------

  NO   OCC          E(Eh)            E(eV)
   0   2.0000      -9.903700      -269.4934
   1   2.0000      -9.889564      -269.1087
   2   2.0000      -0.682807       -18.5801
   3   2.0000      -0.554582       -15.0910
   4   2.0000      -0.398305       -10.8384
   5   2.0000      -0.385763       -10.4971
   6   2.0000      -0.329105        -8.9554
   7   2.0000      -0.304976        -8.2988
   8   2.0000      -0.292308        -7.9541
   9   0.0000       0.010148         0.2761
  10   0.0000       0.040581         1.1043
  11   0.0000       0.079461         2.1622
  12   0.0000       0.082412         2.2425
  13   0.0000       0.103223         2.8088

MULLIKEN ATOMIC CHARGES
-----------------------
   0 C :    0.686735
   1 C :    0.907504
   2 H :   -0.364313
   3 H :   -0.326472
   4 H :   -0.349573
   5 H :   -0.192804
   6 H :   -0.179859
   7 H :   -0.181217
Sum of atomic charges:    0.0000000

LOEWDIN ATOMIC CHARGES
----------------------
   0 C :    0.102810
   1 C :    0.092686
   2 H :   -0.043361
   3 H :   -0.038450
   4 H :   -0.044851
   5 H :   -0.023651
   6 H :   -0.022965
   7 H :   -0.022218

  Mayer bond orders larger than 0.100000
B(  0-C ,  1-C ) :   1.4234 B(  0-C ,  2-H ) :   0.1741 B(  0-C ,  3-H ) :   0.2072
B(  0-C ,  4-H ) :   0.1931 B(  0-C ,  5-H ) :   0.7643 B(  0-C ,  6-H ) :   0.7789
B(  0-C ,  7-H ) :   0.7482 B(  1-C ,  2-H ) :   0.5919 B(  1-C ,  3-H ) :   0.6412
B(  1-C ,  4-H ) :   0.5858 B(  1-C ,  5-H ) :   0.2060 B(  1-C ,  6-H ) :   0.2113
B(  1-C ,  7-H ) :   0.2124 B(  2-H ,  4-H ) :   0.2848 B(  3-H ,  4-H ) :   0.1008

Dispersion correction           -0.006813163
FINAL SINGLE POINT ENERGY       -79.697741574572

DIPOLE MOMENT
-------------
                                X             Y             Z
Electronic contribution:      0.07860       0.07618       0.03243
Nuclear contribution   :     -0.10782      -0.10031      -0.04623
                        -----------------------------------------
Total Dipole Moment    :     -0.02922      -0.02413      -0.01380
                        -----------------------------------------
Magnitude (a.u.)       :      0.04033
Magnitude (Debye)      :      0.10250

Rotational constants in cm-1:     2.932831     0.705715     0.698218
Rotational constants in MHz : 87924.050302 21156.813368 20932.044240

                             ****ORCA TERMINATED NORMALLY****
TOTAL RUN TIME: 0 days 0 hours 0 minutes 2 seconds 580 msec
