                         Program Version 5.0.0 -  RELEASE  -
|  1> !BLYP D3BJ RIJCOSX def2-SVPD def2/J TightSCF
|  2> *xyz 0 1
|  3> C         -5.57236       -5.80780       -0.81644
|  4> S         -6.90318       -4.61903       -0.52846
|  5> O         -8.11485       -5.25093       -0.95701
|  6> F         -6.53271       -3.42684       -1.31485
|  7> O         -6.86563       -4.29496        0.91412
|  8> H         -5.55376       -6.07856       -1.85145
|  9> H         -5.73990       -6.68165       -0.22212
| 10> H         -4.63562       -5.36690       -0.54622
| 11> *
| 12> %MaxCore 64000
| 13>
| 14> %pal nprocs 4
| 15> end
| 16>
| 17> %scf
| 18>   MaxIter 150
| 19> end
| 20>
| 21>                          ****END OF INPUT****

CARTESIAN COORDINATES (ANGSTROEM)
---------------------------------
  C     -5.572360   -5.807800   -0.816440
  S     -6.903180   -4.619030   -0.528460
  O     -8.114850   -5.250930   -0.957010
  F     -6.532710   -3.426840   -1.314850
  O     -6.865630   -4.294960    0.914120
  H     -5.553760   -6.078560   -1.851450
  H     -5.739900   -6.681650   -0.222120
  H     -4.635620   -5.366900   -0.546220

 Total Charge           Charge          ....    0
 Multiplicity           Mult            ....    1
 Number of Electrons    NEL             ....   50
 Basis Dimension        Dim             ....  140

ORBITAL ENERGIES
----------------

  NO   OCC          E(Eh)            E(eV)
   0   2.0000     -88.388790     -2405.1813
   1   2.0000     -24.406970      -664.1474
   2   2.0000     -18.810050      -511.8475
   3   2.0000     -18.797511      -511.5063
   4   2.0000      -9.984842      -271.7014
   5   2.0000      -7.925979      -215.6768
   6   2.0000      -5.965167      -162.3204
   7   2.0000      -5.958877      -162.1493
   8   2.0000      -5.957680      -162.1167
   9   2.0000      -1.242200       -33.8020
  10   2.0000      -1.020863       -27.7791
  11   2.0000      -0.922053       -25.0903
  12   2.0000      -0.724120       -19.7043
  13   2.0000      -0.637873       -17.3574
  14   2.0000      -0.532149       -14.4805
  15   2.0000      -0.504656       -13.7324
  16   2.0000      -0.492373       -13.3982
  17   2.0000      -0.428605       -11.6629
  18   2.0000      -0.425906       -11.5895
  19   2.0000      -0.415866       -11.3163
  20   2.0000      -0.391609       -10.6562
  21   2.0000      -0.341138        -9.2828
  22   2.0000      -0.299689        -8.1549
  23   2.0000      -0.285312        -7.7637
  24   2.0000      -0.266925        -7.2634
  25   0.0000      -0.033504        -0.9117
  26   0.0000       0.000125         0.0034
  27   0.0000       0.011609         0.3159
  28   0.0000       0.031781         0.8648
  29   0.0000       0.032185         0.8758

MULLIKEN ATOMIC CHARGES
-----------------------
   0 C :    0.876130
   1 S :    1.086781
   2 O :   -0.546173
   3 F :   -0.346254
   4 O :   -0.592417
   5 H :   -0.153850
   6 H :   -0.166785
   7 H :   -0.157432
Sum of atomic charges:   -0.0000000

LOEWDIN ATOMIC CHARGES
----------------------
   0 C :    0.137132
   1 S :    1.064708
   2 O :   -0.439654
   3 F :   -0.259396
   4 O :   -0.458253
   5 H :   -0.019421
   6 H :   -0.006259
   7 H :   -0.018857

  Mayer bond orders larger than 0.100000
B(  0-C ,  1-S ) :   0.9592 B(  0-C ,  5-H ) :   0.8505 B(  0-C ,  6-H ) :   0.8457
B(  0-C ,  7-H ) :   0.8538 B(  1-S ,  2-O ) :   1.5888 B(  1-S ,  3-F ) :   0.7229
B(  1-S ,  4-O ) :   1.5431 B(  1-S ,  5-H ) :   0.1131 B(  1-S ,  6-H ) :   0.1390
B(  1-S ,  7-H ) :   0.1209 B(  2-O ,  4-O ) :   0.1093

Dispersion correction           -0.012718276
FINAL SINGLE POINT ENERGY      -687.950156590764

DIPOLE MOMENT
-------------
                                X             Y             Z
Electronic contribution:     -2.63810       4.66510      -0.66789
Nuclear contribution   :      3.94974      -5.09866      -0.16489
                        -----------------------------------------
Total Dipole Moment    :      1.31164      -0.43356      -0.83278
                        -----------------------------------------
Magnitude (a.u.)       :      1.61304
Magnitude (Debye)      :      4.10002

Rotational constants in cm-1:     0.163657     0.151977     0.145976
Rotational constants in MHz :  4906.325390  4556.144033  4376.262759

                             ****ORCA TERMINATED NORMALLY****
TOTAL RUN TIME: 0 days 0 hours 0 minutes 4 seconds 859 msec
