                         Program Version 5.0.0 -  RELEASE  -
|  1> !BLYP D3BJ RIJCOSX def2-SVPD def2/J TightSCF
|  2> *xyz 0 1
|  3> C         -5.57236       -5.80780       -0.81644
|  4> S         -6.90318       -4.61903       -0.52846
|  5> O         -8.11485       -5.25093       -0.95701
|  6> O         -6.53271       -3.42684       -1.31485
|  7> F         -6.86563       -4.29496        0.91412
|  8> H         -5.55376       -6.07856       -1.85145
|  9> H         -5.73990       -6.68165       -0.22212
| 10> H         -4.63562       -5.36690       -0.54622
| 11> *
| 12> %MaxCore 64000
| 13>
| 14> %pal nprocs 4
| 15> end
| 16>
| 17> %scf
| 18>   MaxIter 150
| 19> end
| 20>
| 21>                          ****END OF INPUT****

CARTESIAN COORDINATES (ANGSTROEM)
---------------------------------
  C     -5.572360   -5.807800   -0.816440
  S     -6.903180   -4.619030   -0.528460
  O     -8.114850   -5.250930   -0.957010
  O     -6.532710   -3.426840   -1.314850
  F     -6.865630   -4.294960    0.914120
  H     -5.553760   -6.078560   -1.851450
  H     -5.739900   -6.681650   -0.222120
  H     -4.635620   -5.366900   -0.546220

 Total Charge           Charge          ....    0
 Multiplicity           Mult            ....    1
 Number of Electrons    NEL             ....   50
 Basis Dimension        Dim             ....  140

ORBITAL ENERGIES
----------------

  NO   OCC          E(Eh)            E(eV)
   0   2.0000     -88.388500     -2405.1733
   1   2.0000     -24.406808      -664.1430
   2   2.0000     -18.810154      -511.8503
   3   2.0000     -18.796655      -511.4830
   4   2.0000      -9.984838      -271.7013
   5   2.0000      -7.925727      -215.6700
   6   2.0000      -5.964885      -162.3128
   7   2.0000      -5.958622      -162.1423
   8   2.0000      -5.957454      -162.1106
   9   2.0000      -1.240281       -33.7498
  10   2.0000      -1.021601       -27.7992
  11   2.0000      -0.922851       -25.1120
  12   2.0000      -0.723416       -19.6851
  13   2.0000      -0.637627       -17.3507
  14   2.0000      -0.531587       -14.4652
  15   2.0000      -0.503432       -13.6991
  16   2.0000      -0.491793       -13.3824
  17   2.0000      -0.428363       -11.6564
  18   2.0000      -0.425627       -11.5819
  19   2.0000      -0.416709       -11.3392
  20   2.0000      -0.391631       -10.6568
  21   2.0000      -0.341357        -9.2888
  22   2.0000      -0.299584        -8.1521
  23   2.0000      -0.284846        -7.7510
  24   2.0000      -0.267037        -7.2664
  25   0.0000      -0.035827        -0.9749
  26   0.0000      -0.001506        -0.0410
  27   0.0000       0.011871         0.3230
  28   0.0000       0.031606         0.8600
  29   0.0000       0.032282         0.8784

MULLIKEN ATOMIC CHARGES
-----------------------
   0 C :    0.877036
   1 S :    1.086883
   2 O :   -0.545734
   3 O :   -0.591884
   4 F :   -0.348388
   5 H :   -0.160884
   6 H :   -0.161428
   7 H :   -0.155600
Sum of atomic charges:    0.0000000

LOEWDIN ATOMIC CHARGES
----------------------
   0 C :    0.137289
   1 S :    1.065069
   2 O :   -0.439413
   3 O :   -0.459305
   4 F :   -0.258984
   5 H :   -0.005786
   6 H :   -0.020462
   7 H :   -0.018409

  Mayer bond orders larger than 0.100000
B(  0-C ,  1-S ) :   0.9594 B(  0-C ,  5-H ) :   0.8455 B(  0-C ,  6-H ) :   0.8498
B(  0-C ,  7-H ) :   0.8548 B(  1-S ,  2-O ) :   1.5882 B(  1-S ,  3-O ) :   1.5461
B(  1-S ,  4-F ) :   0.7182 B(  1-S ,  5-H ) :   0.1384 B(  1-S ,  6-H ) :   0.1124
B(  1-S ,  7-H ) :   0.1209 B(  2-O ,  3-O ) :   0.1085

Dispersion correction           -0.012721953
FINAL SINGLE POINT ENERGY      -687.949784976835

DIPOLE MOMENT
-------------
                                X             Y             Z
Electronic contribution:     -3.18557       3.23254       3.00010
Nuclear contribution   :      4.28235      -4.23136      -2.39177
                        -----------------------------------------
Total Dipole Moment    :      1.09678      -0.99882       0.60832
                        -----------------------------------------
Magnitude (a.u.)       :      1.60332
Magnitude (Debye)      :      4.07530

Rotational constants in cm-1:     0.164456     0.151338     0.145749
Rotational constants in MHz :  4930.268698  4537.002642  4369.437533

                             ****ORCA TERMINATED NORMALLY****
TOTAL RUN TIME: 0 days 0 hours 0 minutes 5 seconds 38 msec
