                         Program Version 5.0.0 -  RELEASE  -
|  1> !BLYP D3BJ RIJCOSX def2-SVPD def2/J TightSCF xyzfile
|  2>
|  3> *xyzfile 0 1 D1.xyz
|  4>
|  5> %MaxCore 64000
|  6>
|  7> %pal nprocs 4
|  8> end
|  9>
| 10> %scf
| 11>   MaxIter 150
| 12> end
| 13>
| 14>
| 15>                          ****END OF INPUT****

CARTESIAN COORDINATES (ANGSTROEM)
---------------------------------
  C     -4.382623   -1.670889    1.216201
  C     -5.763539   -1.915170    0.705012
  C     -3.281728   -2.191272    0.294361
  C     -5.572364   -5.807798   -0.816445
  S     -6.903179   -4.619033   -0.528458
  H     -5.840812   -2.115205   -0.300646
  H     -6.408823   -1.148656    0.936124
  H     -6.174781   -2.790606    1.051433
  F     -8.114853   -5.250932   -0.957007
  O     -6.532715   -3.426838   -1.314848
  H     -4.328618   -2.139223    2.198103
  H     -4.261583   -0.597399    1.357248
  O     -6.865632   -4.294957    0.914118
  C     -3.474641   -3.605898   -0.259608
  H     -2.354548   -2.127602    0.871433
  H     -3.166611   -1.499693   -0.545037
  C     -3.827078   -4.661097    0.786174
  H     -2.560559   -3.889391   -0.788050
  H     -4.255932   -3.570040   -1.019300
  C     -4.457800   -5.941875    0.229195
  H     -5.177347   -5.542575   -1.797714
  H     -6.074202   -6.768894   -0.921272
  H     -4.530506   -4.253640    1.511979
  H     -2.933400   -4.932302    1.356825
  H     -3.681064   -6.562236   -0.229885
  H     -4.843942   -6.512728    1.075805

 Total Charge           Charge          ....    0
 Multiplicity           Mult            ....    1
 Number of Electrons    NEL             ....   98
 Basis Dimension        Dim             ....  356

ORBITAL ENERGIES
----------------

  NO   OCC          E(Eh)            E(eV)
   0   2.0000     -88.391555     -2405.2565
   1   2.0000     -24.427627      -664.7095
   2   2.0000     -18.801082      -511.6035
   3   2.0000     -18.799738      -511.5669
   4   2.0000      -9.985404      -271.7167
   5   2.0000      -9.950387      -270.7638
   6   2.0000      -9.918425      -269.8941
   7   2.0000      -9.907939      -269.6087
   8   2.0000      -9.899741      -269.3856
   9   2.0000      -9.886394      -269.0225
  10   2.0000      -9.832798      -267.5640
  11   2.0000      -7.927938      -215.7302
  12   2.0000      -5.967348      -162.3798
  13   2.0000      -5.960792      -162.2014
  14   2.0000      -5.959322      -162.1614
  15   2.0000      -1.277309       -34.7573
  16   2.0000      -1.013165       -27.5696
  17   2.0000      -0.915040       -24.8995
  18   2.0000      -0.751489       -20.4491
  19   2.0000      -0.711646       -19.3649
  20   2.0000      -0.676092       -18.3974
  21   2.0000      -0.651175       -17.7194
  22   2.0000      -0.617559       -16.8046
  23   2.0000      -0.574258       -15.6264
  24   2.0000      -0.544394       -14.8137
  25   2.0000      -0.531594       -14.4654
  26   2.0000      -0.518527       -14.1098
  27   2.0000      -0.493207       -13.4209
  28   2.0000      -0.475455       -12.9378
  29   2.0000      -0.441139       -12.0040
  30   2.0000      -0.440597       -11.9892
  31   2.0000      -0.416049       -11.3213
  32   2.0000      -0.413767       -11.2592
  33   2.0000      -0.390481       -10.6255
  34   2.0000      -0.384083       -10.4514
  35   2.0000      -0.363877        -9.9016
  36   2.0000      -0.362821        -9.8729
  37   2.0000      -0.340573        -9.2675
  38   2.0000      -0.331728        -9.0268
  39   2.0000      -0.328195        -8.9307
  40   2.0000      -0.299582        -8.1520
  41   2.0000      -0.294204        -8.0057
  42   2.0000      -0.290280        -7.8989
  43   2.0000      -0.288490        -7.8502
  44   2.0000      -0.278971        -7.5912
  45   2.0000      -0.267259        -7.2725
  46   2.0000      -0.252957        -6.8833
  47   2.0000      -0.245975        -6.6933
  48   2.0000      -0.223979        -6.0948
  49   0.0000      -0.029851        -0.8123
  50   0.0000      -0.016564        -0.4507
  51   0.0000       0.010523         0.2863
  52   0.0000       0.013144         0.3577
  53   0.0000       0.014770         0.4019

MULLIKEN ATOMIC CHARGES
-----------------------
   0 C :    0.275316
   1 C :    2.431881
   2 C :    0.773440
   3 C :    0.510193
   4 S :    1.477821
   5 H :   -0.553079
   6 H :   -0.575313
   7 H :   -1.108147
   8 F :   -0.473656
   9 O :   -0.632741
  10 H :    0.020949
  11 H :   -0.621531
  12 O :   -0.708588
  13 C :    0.431844
  14 H :   -0.210152
  15 H :   -0.087160
  16 C :    0.317671
  17 H :   -0.514028
  18 H :   -0.201863
  19 C :    0.807006
  20 H :    0.006011
  21 H :   -0.474826
  22 H :   -0.119854
  23 H :   -0.434985
  24 H :   -0.179113
  25 H :   -0.157098
Sum of atomic charges:    0.0000000

LOEWDIN ATOMIC CHARGES
----------------------
   0 C :   -0.035456
   1 C :    0.150731
   2 C :   -0.013981
   3 C :   -0.032628
   4 S :    1.159104
   5 H :   -0.099241
   6 H :   -0.024084
   7 H :   -0.138868
   8 F :   -0.233915
   9 O :   -0.441451
  10 H :    0.009919
  11 H :    0.009311
  12 O :   -0.429796
  13 C :   -0.000818
  14 H :    0.009913
  15 H :    0.020323
  16 C :    0.000546
  17 H :    0.018212
  18 H :   -0.020127
  19 C :   -0.004707
  20 H :    0.016887
  21 H :    0.004787
  22 H :   -0.006867
  23 H :    0.026247
  24 H :    0.030040
  25 H :    0.025921

  Mayer bond orders larger than 0.100000
B(  0-C ,  1-C ) :   0.9589 B(  0-C ,  2-C ) :   1.0985 B(  0-C ,  5-H ) :   0.4045
B(  0-C ,  6-H ) :   0.1351 B(  0-C ,  7-H ) :   0.5249 B(  0-C , 10-H ) :   0.5913
B(  0-C , 11-H ) :   0.8278 B(  0-C , 13-C ) :   0.1322 B(  0-C , 14-H ) :   0.2199
B(  0-C , 15-H ) :   0.2138 B(  0-C , 16-C ) :   0.1122 B(  1-C ,  2-C ) :   0.2548
B(  1-C ,  5-H ) :  -0.4279 B(  1-C ,  6-H ) :   0.1586 B(  1-C ,  7-H ) :  -1.0739
B(  1-C , 10-H ) :   0.2542 B(  1-C , 17-H ) :   0.1700 B(  2-C ,  7-H ) :  -0.1164
B(  2-C , 10-H ) :   0.1694 B(  2-C , 13-C ) :   1.2160 B(  2-C , 14-H ) :   0.6143
B(  2-C , 15-H ) :   0.4968 B(  2-C , 17-H ) :   0.1273 B(  2-C , 18-H ) :   0.1631
B(  3-C ,  4-S ) :   0.9173 B(  3-C ,  8-F ) :   0.1126 B(  3-C , 16-C ) :   0.1482
B(  3-C , 19-C ) :   1.1766 B(  3-C , 20-H ) :   0.8111 B(  3-C , 21-H ) :   0.6703
B(  3-C , 24-H ) :   0.1953 B(  3-C , 25-H ) :   0.1570 B(  4-S ,  8-F ) :   0.6707
B(  4-S ,  9-O ) :   1.4135 B(  4-S , 12-O ) :   1.3980 B(  5-H ,  6-H ) :  -0.1378
B(  5-H ,  7-H ) :   1.1860 B(  5-H ,  9-O ) :   0.2296 B(  5-H , 11-H ) :   0.1983
B(  5-H , 17-H ) :  -0.1461 B(  5-H , 18-H ) :   0.1994 B(  6-H ,  7-H ) :   0.1817
B(  6-H , 11-H ) :  -0.1773 B(  6-H , 13-C ) :   0.1127 B(  6-H , 17-H ) :   0.1563
B(  6-H , 18-H ) :  -0.1884 B(  7-H , 10-H ) :  -0.1516 B(  7-H , 11-H ) :   0.1392
B(  7-H , 12-O ) :   0.1934 B(  7-H , 17-H ) :  -0.1764 B(  9-O , 12-O ) :   0.1968
B( 10-H , 11-H ) :  -0.3227 B( 10-H , 22-H ) :   0.1857 B( 11-H , 14-H ) :   0.1344
B( 11-H , 22-H ) :  -0.1064 B( 13-C , 14-H ) :   0.2257 B( 13-C , 15-H ) :   0.3363
B( 13-C , 16-C ) :   1.1744 B( 13-C , 17-H ) :   0.6086 B( 13-C , 18-H ) :   0.6725
B( 13-C , 22-H ) :   0.1598 B( 13-C , 23-H ) :   0.1935 B( 14-H , 15-H ) :  -0.1648
B( 16-C , 17-H ) :   0.2351 B( 16-C , 18-H ) :   0.2413 B( 16-C , 19-C ) :   1.2177
B( 16-C , 22-H ) :   0.7840 B( 16-C , 23-H ) :   0.6326 B( 16-C , 24-H ) :   0.1658
B( 16-C , 25-H ) :   0.3359 B( 19-C , 20-H ) :   0.1157 B( 19-C , 21-H ) :   0.2680
B( 19-C , 22-H ) :   0.1010 B( 19-C , 23-H ) :   0.1138 B( 19-C , 24-H ) :   0.5994
B( 19-C , 25-H ) :   0.5051 B( 24-H , 25-H ) :  -0.1428

Dispersion correction           -0.062316465
FINAL SINGLE POINT ENERGY      -923.472846981144

DIPOLE MOMENT
-------------
                                X             Y             Z
Electronic contribution:    -18.92614      -8.61209      -6.70104
Nuclear contribution   :     19.08524       6.89775       6.14221
                        -----------------------------------------
Total Dipole Moment    :      0.15910      -1.71434      -0.55883
                        -----------------------------------------
Magnitude (a.u.)       :      1.81013
Magnitude (Debye)      :      4.60097

Rotational constants in cm-1:     0.049343     0.024787     0.019726
Rotational constants in MHz :  1479.262779   743.087234   591.370705

                             ****ORCA TERMINATED NORMALLY****
TOTAL RUN TIME: 0 days 0 hours 0 minutes 27 seconds 653 msec
