                         Program Version 5.0.0 -  RELEASE  -
|  1> !BLYP D3BJ RIJCOSX def2-SVPD def2/J TightSCF xyzfile
|  2>
|  3> *xyzfile 0 1 D2.xyz
|  4>
|  5> %MaxCore 64000
|  6>
|  7> %pal nprocs 4
|  8> end
|  9>
| 10> %scf
| 11>   MaxIter 150
| 12> end
| 13>
| 14>
| 15>                          ****END OF INPUT****

CARTESIAN COORDINATES (ANGSTROEM)
---------------------------------
  C     -4.382623   -1.670889    1.216201
  C     -5.763539   -1.915170    0.705012
  C     -3.281728   -2.191272    0.294361
  C     -5.572364   -5.807798   -0.816445
  S     -6.903179   -4.619033   -0.528458
  H     -5.840812   -2.115205   -0.300646
  H     -6.408823   -1.148656    0.936124
  H     -6.174781   -2.790606    1.051433
  O     -8.114853   -5.250932   -0.957007
  F     -6.532715   -3.426838   -1.314848
  H     -4.328618   -2.139223    2.198103
  H     -4.261583   -0.597399    1.357248
  O     -6.865632   -4.294957    0.914118
  C     -3.474641   -3.605898   -0.259608
  H     -2.354548   -2.127602    0.871433
  H     -3.166611   -1.499693   -0.545037
  C     -3.827078   -4.661097    0.786174
  H     -2.560559   -3.889391   -0.788050
  H     -4.255932   -3.570040   -1.019300
  C     -4.457800   -5.941875    0.229195
  H     -5.177347   -5.542575   -1.797714
  H     -6.074202   -6.768894   -0.921272
  H     -4.530506   -4.253640    1.511979
  H     -2.933400   -4.932302    1.356825
  H     -3.681064   -6.562236   -0.229885
  H     -4.843942   -6.512728    1.075805

 Total Charge           Charge          ....    0
 Multiplicity           Mult            ....    1
 Number of Electrons    NEL             ....   98
 Basis Dimension        Dim             ....  356

ORBITAL ENERGIES
----------------

  NO   OCC          E(Eh)            E(eV)
   0   2.0000     -88.387184     -2405.1376
   1   2.0000     -24.405900      -664.1183
   2   2.0000     -18.810725      -511.8658
   3   2.0000     -18.796738      -511.4852
   4   2.0000      -9.984013      -271.6788
   5   2.0000      -9.950228      -270.7595
   6   2.0000      -9.925181      -270.0779
   7   2.0000      -9.923472      -270.0314
   8   2.0000      -9.912881      -269.7432
   9   2.0000      -9.900544      -269.4075
  10   2.0000      -9.853878      -268.1377
  11   2.0000      -7.923640      -215.6132
  12   2.0000      -5.962848      -162.2574
  13   2.0000      -5.956748      -162.0914
  14   2.0000      -5.955068      -162.0456
  15   2.0000      -1.244822       -33.8733
  16   2.0000      -1.022195       -27.8153
  17   2.0000      -0.927179       -25.2298
  18   2.0000      -0.753384       -20.5006
  19   2.0000      -0.719720       -19.5846
  20   2.0000      -0.676530       -18.4093
  21   2.0000      -0.653890       -17.7932
  22   2.0000      -0.621129       -16.9018
  23   2.0000      -0.583833       -15.8869
  24   2.0000      -0.549649       -14.9567
  25   2.0000      -0.516605       -14.0575
  26   2.0000      -0.504784       -13.7359
  27   2.0000      -0.492572       -13.4036
  28   2.0000      -0.489853       -13.3296
  29   2.0000      -0.444340       -12.0911
  30   2.0000      -0.436392       -11.8748
  31   2.0000      -0.417454       -11.3595
  32   2.0000      -0.410108       -11.1596
  33   2.0000      -0.404029       -10.9942
  34   2.0000      -0.387777       -10.5520
  35   2.0000      -0.376126       -10.2349
  36   2.0000      -0.355276        -9.6676
  37   2.0000      -0.348052        -9.4710
  38   2.0000      -0.343745        -9.3538
  39   2.0000      -0.339098        -9.2273
  40   2.0000      -0.314456        -8.5568
  41   2.0000      -0.308444        -8.3932
  42   2.0000      -0.306148        -8.3307
  43   2.0000      -0.290375        -7.9015
  44   2.0000      -0.285482        -7.7684
  45   2.0000      -0.276153        -7.5145
  46   2.0000      -0.269867        -7.3435
  47   2.0000      -0.268409        -7.3038
  48   2.0000      -0.232790        -6.3345
  49   0.0000      -0.025853        -0.7035
  50   0.0000      -0.012749        -0.3469
  51   0.0000       0.001996         0.0543
  52   0.0000       0.010928         0.2974
  53   0.0000       0.016202         0.4409

MULLIKEN ATOMIC CHARGES
-----------------------
   0 C :    0.281034
   1 C :    2.444772
   2 C :    0.759421
   3 C :    0.530887
   4 S :    1.336334
   5 H :   -0.560504
   6 H :   -0.579323
   7 H :   -1.096211
   8 O :   -0.601511
   9 F :   -0.423939
  10 H :    0.028329
  11 H :   -0.615520
  12 O :   -0.697954
  13 C :    0.401782
  14 H :   -0.205517
  15 H :   -0.084679
  16 C :    0.322845
  17 H :   -0.501469
  18 H :   -0.203538
  19 C :    0.829259
  20 H :    0.009806
  21 H :   -0.507442
  22 H :   -0.135943
  23 H :   -0.393699
  24 H :   -0.175724
  25 H :   -0.161495
Sum of atomic charges:    0.0000000

LOEWDIN ATOMIC CHARGES
----------------------
   0 C :   -0.032133
   1 C :    0.148667
   2 C :   -0.014501
   3 C :   -0.027384
   4 S :    1.130885
   5 H :   -0.082969
   6 H :   -0.021875
   7 H :   -0.142011
   8 O :   -0.421355
   9 F :   -0.263998
  10 H :    0.013896
  11 H :    0.011508
  12 O :   -0.423536
  13 C :   -0.004785
  14 H :    0.013270
  15 H :    0.019994
  16 C :   -0.001466
  17 H :    0.021075
  18 H :   -0.020958
  19 C :   -0.008173
  20 H :    0.012040
  21 H :    0.016972
  22 H :   -0.007232
  23 H :    0.027715
  24 H :    0.028028
  25 H :    0.028327

  Mayer bond orders larger than 0.100000
B(  0-C ,  1-C ) :   0.9616 B(  0-C ,  2-C ) :   1.1070 B(  0-C ,  5-H ) :   0.4074
B(  0-C ,  6-H ) :   0.1229 B(  0-C ,  7-H ) :   0.5263 B(  0-C , 10-H ) :   0.5874
B(  0-C , 11-H ) :   0.8321 B(  0-C , 13-C ) :   0.1386 B(  0-C , 14-H ) :   0.2126
B(  0-C , 15-H ) :   0.2111 B(  0-C , 16-C ) :   0.1136 B(  1-C ,  2-C ) :   0.2503
B(  1-C ,  4-S ) :   0.1040 B(  1-C ,  5-H ) :  -0.4817 B(  1-C ,  6-H ) :   0.1791
B(  1-C ,  7-H ) :  -1.0967 B(  1-C , 10-H ) :   0.2551 B(  1-C , 17-H ) :   0.1706
B(  2-C ,  7-H ) :  -0.1109 B(  2-C , 10-H ) :   0.1749 B(  2-C , 13-C ) :   1.2086
B(  2-C , 14-H ) :   0.6156 B(  2-C , 15-H ) :   0.4994 B(  2-C , 17-H ) :   0.1305
B(  2-C , 18-H ) :   0.1709 B(  3-C ,  4-S ) :   0.8835 B(  3-C ,  8-O ) :   0.1071
B(  3-C , 16-C ) :   0.1663 B(  3-C , 19-C ) :   1.1579 B(  3-C , 20-H ) :   0.7949
B(  3-C , 21-H ) :   0.7060 B(  3-C , 24-H ) :   0.1903 B(  3-C , 25-H ) :   0.1637
B(  4-S ,  8-O ) :   1.6596 B(  4-S ,  9-F ) :   0.6308 B(  4-S , 12-O ) :   1.4595
B(  5-H ,  6-H ) :  -0.1504 B(  5-H ,  7-H ) :   1.1793 B(  5-H ,  9-F ) :   0.1978
B(  5-H , 11-H ) :   0.1856 B(  5-H , 17-H ) :  -0.1492 B(  5-H , 18-H ) :   0.1924
B(  6-H ,  7-H ) :   0.1882 B(  6-H , 11-H ) :  -0.1763 B(  6-H , 13-C ) :   0.1036
B(  6-H , 17-H ) :   0.1599 B(  6-H , 18-H ) :  -0.1845 B(  7-H ,  9-F ) :   0.1121
B(  7-H , 10-H ) :  -0.1534 B(  7-H , 11-H ) :   0.1273 B(  7-H , 12-O ) :   0.1913
B(  7-H , 17-H ) :  -0.1886 B(  8-O , 12-O ) :   0.1049 B(  9-F , 12-O ) :   0.1252
B( 10-H , 11-H ) :  -0.3199 B( 10-H , 22-H ) :   0.1839 B( 11-H , 14-H ) :   0.1339
B( 11-H , 22-H ) :  -0.1064 B( 13-C , 14-H ) :   0.2241 B( 13-C , 15-H ) :   0.3353
B( 13-C , 16-C ) :   1.1788 B( 13-C , 17-H ) :   0.6563 B( 13-C , 18-H ) :   0.6739
B( 13-C , 22-H ) :   0.1614 B( 13-C , 23-H ) :   0.1891 B( 14-H , 15-H ) :  -0.1649
B( 16-C , 17-H ) :   0.2270 B( 16-C , 18-H ) :   0.2329 B( 16-C , 19-C ) :   1.2238
B( 16-C , 22-H ) :   0.7975 B( 16-C , 23-H ) :   0.6252 B( 16-C , 24-H ) :   0.1655
B( 16-C , 25-H ) :   0.3311 B( 19-C , 20-H ) :   0.1215 B( 19-C , 21-H ) :   0.2350
B( 19-C , 22-H ) :   0.1013 B( 19-C , 23-H ) :   0.1087 B( 19-C , 24-H ) :   0.6013
B( 19-C , 25-H ) :   0.5008 B( 24-H , 25-H ) :  -0.1452

Dispersion correction           -0.061695953
FINAL SINGLE POINT ENERGY      -923.489912890721

DIPOLE MOMENT
-------------
                                X             Y             Z
Electronic contribution:    -15.99084      -5.37152      -7.18303
Nuclear contribution   :     17.25367       4.78608       6.55647
                        -----------------------------------------
Total Dipole Moment    :      1.26283      -0.58544      -0.62656
                        -----------------------------------------
Magnitude (a.u.)       :      1.52645
Magnitude (Debye)      :      3.87992

Rotational constants in cm-1:     0.048508     0.025517     0.020225
Rotational constants in MHz :  1454.219007   764.979652   606.316599

                             ****ORCA TERMINATED NORMALLY****
TOTAL RUN TIME: 0 days 0 hours 0 minutes 27 seconds 416 msec
