                         Program Version 5.0.0 -  RELEASE  -
|  1> !wB97X-D3 RIJCOSX def2-SVPD def2/J TightSCF
|  2> *xyz -1 1
|  3> C          0.70466        1.44313       -4.50363
|  4> C          1.72854        1.42432       -5.63944
|  5> H          2.64672        1.95379       -5.38105
|  6> H          1.29992        1.93061       -6.50361
|  7> S          2.25263       -0.18811       -6.27184
|  8> O          3.56261       -0.44446       -5.63155
|  9> O          2.34494       -0.03374       -7.69650
| 10> C          1.05255        0.69566       -3.21491
| 11> H         -0.23248        1.03293       -4.88445
| 12> H          0.51170        2.49579       -4.26797
| 13> O          1.26606       -1.15918       -5.80536
| 14> H          1.24200       -0.33323       -3.43942
| 15> H          0.23391        0.76629       -2.52954
| 16> H          1.92506        1.13113       -2.77446
| 17> *
| 18>
| 19> %MaxCore 64000
| 20>
| 21> %pal nprocs 8
| 22> end
| 23>
| 24> %scf
| 25>   MaxIter 150
| 26> end
| 27>
| 28>
| 29>                          ****END OF INPUT****

CARTESIAN COORDINATES (ANGSTROEM)
---------------------------------
  C      0.704660    1.443130   -4.503630
  C      1.728540    1.424320   -5.639440
  H      2.646720    1.953790   -5.381050
  H      1.299920    1.930610   -6.503610
  S      2.252630   -0.188110   -6.271840
  O      3.562610   -0.444460   -5.631550
  O      2.344940   -0.033740   -7.696500
  C      1.052550    0.695660   -3.214910
  H     -0.232480    1.032930   -4.884450
  H      0.511700    2.495790   -4.267970
  O      1.266060   -1.159180   -5.805360
  H      1.242000   -0.333230   -3.439420
  H      0.233910    0.766290   -2.529540
  H      1.925060    1.131130   -2.774460

 Total Charge           Charge          ....   -1
 Multiplicity           Mult            ....    1
 Number of Electrons    NEL             ....   66
 Basis Dimension        Dim             ....  212

ORBITAL ENERGIES
----------------

  NO   OCC          E(Eh)            E(eV)
   0   2.0000     -88.978922     -2421.2396
   1   2.0000     -19.030927      -517.8579
   2   2.0000     -19.024518      -517.6835
   3   2.0000     -19.015247      -517.4312
   4   2.0000     -10.164477      -276.5895
   5   2.0000     -10.155155      -276.3358
   6   2.0000     -10.144218      -276.0382
   7   2.0000      -8.052357      -219.1158
   8   2.0000      -6.011905      -163.5923
   9   2.0000      -6.011797      -163.5893
  10   2.0000      -6.011425      -163.5792
  11   2.0000      -1.049793       -28.5663
  12   2.0000      -0.907620       -24.6976
  13   2.0000      -0.883690       -24.0464
  14   2.0000      -0.770070       -20.9547
  15   2.0000      -0.679802       -18.4983
  16   2.0000      -0.580993       -15.8096
  17   2.0000      -0.488291       -13.2871
  18   2.0000      -0.438269       -11.9259
  19   2.0000      -0.422378       -11.4935
  20   2.0000      -0.398762       -10.8509
  21   2.0000      -0.384551       -10.4642
  22   2.0000      -0.367614       -10.0033
  23   2.0000      -0.355746        -9.6804
  24   2.0000      -0.320916        -8.7326
  25   2.0000      -0.315686        -8.5902
  26   2.0000      -0.300388        -8.1740
  27   2.0000      -0.252195        -6.8626
  28   2.0000      -0.250083        -6.8051
  29   2.0000      -0.213825        -5.8185
  30   2.0000      -0.204064        -5.5529
  31   2.0000      -0.196004        -5.3335
  32   2.0000      -0.161541        -4.3958
  33   0.0000       0.202730         5.5166
  34   0.0000       0.223506         6.0819
  35   0.0000       0.226746         6.1701
  36   0.0000       0.233129         6.3438
  37   0.0000       0.253452         6.8968

MULLIKEN ATOMIC CHARGES
-----------------------
   0 C :   -0.301532
   1 C :    0.013983
   2 H :    0.001315
   3 H :    0.015896
   4 S :    1.329899
   5 O :   -0.822195
   6 O :   -0.811476
   7 C :    0.716513
   8 H :   -0.006656
   9 H :   -0.131839
  10 O :   -0.829515
  11 H :   -0.118720
  12 H :   -0.027862
  13 H :   -0.027811
Sum of atomic charges:   -1.0000000

LOEWDIN ATOMIC CHARGES
----------------------
   0 C :   -0.098220
   1 C :   -0.082493
   2 H :    0.005027
   3 H :   -0.003452
   4 S :    0.872983
   5 O :   -0.604080
   6 O :   -0.575562
   7 C :    0.119718
   8 H :    0.016993
   9 H :    0.007286
  10 O :   -0.580351
  11 H :   -0.028583
  12 H :   -0.029537
  13 H :   -0.019729

  Mayer bond orders larger than 0.100000
B(  0-C ,  1-C ) :   1.2504 B(  0-C ,  2-H ) :   0.1220 B(  0-C ,  3-H ) :   0.1361
B(  0-C ,  7-C ) :   1.2470 B(  0-C ,  8-H ) :   0.9093 B(  0-C ,  9-H ) :   0.8973
B(  0-C , 11-H ) :   0.2096 B(  0-C , 12-H ) :   0.2033 B(  0-C , 13-H ) :   0.2047
B(  1-C ,  2-H ) :   0.9320 B(  1-C ,  3-H ) :   0.8945 B(  1-C ,  4-S ) :   0.9018
B(  1-C ,  8-H ) :   0.1362 B(  1-C ,  9-H ) :   0.1408 B(  4-S ,  5-O ) :   1.2719
B(  4-S ,  6-O ) :   1.3634 B(  4-S , 10-O ) :   1.2801 B(  7-C , 11-H ) :   0.8453
B(  7-C , 12-H ) :   0.7522 B(  7-C , 13-H ) :   0.7828

Dispersion correction           -0.004507072
FINAL SINGLE POINT ENERGY      -741.969150080915

DIPOLE MOMENT
-------------
                                X             Y             Z
Electronic contribution:      4.37556      -5.60029      -8.00688
Nuclear contribution   :     -5.44810       7.35485       9.25157
                        -----------------------------------------
Total Dipole Moment    :     -1.07254       1.75456       1.24469
                        -----------------------------------------
Magnitude (a.u.)       :      2.40376
Magnitude (Debye)      :      6.10988

Rotational constants in cm-1:     0.135801     0.054229     0.051056
Rotational constants in MHz :  4071.225075  1625.746654  1530.611411

                             ****ORCA TERMINATED NORMALLY****
TOTAL RUN TIME: 0 days 0 hours 0 minutes 23 seconds 621 msec
