                         Program Version 5.0.0 -  RELEASE  -
|  1> !wB97X-D3 RIJCOSX def2-SVPD def2/J TightSCF
|  2> *xyz 1 1
|  3> C          2.91632       -1.24259       -1.54313
|  4> C          3.46659       -1.59097       -2.88908
|  5> N          4.65227       -1.14316       -3.25969
|  6> N          2.75226       -2.29204       -3.72803
|  7> H          1.77836       -2.48960       -3.51274
|  8> H          2.94861       -2.20854       -4.71681
|  9> H          5.14672       -0.51251       -2.63385
| 10> H          4.78303       -1.00720       -4.25350
| 11> C          2.80408        0.29070       -1.35924
| 12> C          2.38838        1.09367       -2.59711
| 13> H          3.76342        0.67472       -0.99989
| 14> H          2.09479        0.46122       -0.54576
| 15> H          1.94047       -1.71653       -1.44116
| 16> H          3.55857       -1.66343       -0.76637
| 17> H          3.08894        0.91965       -3.38694
| 18> H          2.37301        2.13633       -2.35728
| 19> H          1.41303        0.78551       -2.91115
| 20> *
| 21>
| 22> %MaxCore 64000
| 23>
| 24> %pal nprocs 8
| 25> end
| 26>
| 27> %scf
| 28>   MaxIter 150
| 29> end
| 30>
| 31>
| 32>                          ****END OF INPUT****

CARTESIAN COORDINATES (ANGSTROEM)
---------------------------------
  C      2.916320   -1.242590   -1.543130
  C      3.466590   -1.590970   -2.889080
  N      4.652270   -1.143160   -3.259690
  N      2.752260   -2.292040   -3.728030
  H      1.778360   -2.489600   -3.512740
  H      2.948610   -2.208540   -4.716810
  H      5.146720   -0.512510   -2.633850
  H      4.783030   -1.007200   -4.253500
  C      2.804080    0.290700   -1.359240
  C      2.388380    1.093670   -2.597110
  H      3.763420    0.674720   -0.999890
  H      2.094790    0.461220   -0.545760
  H      1.940470   -1.716530   -1.441160
  H      3.558570   -1.663430   -0.766370
  H      3.088940    0.919650   -3.386940
  H      2.373010    2.136330   -2.357280
  H      1.413030    0.785510   -2.911150

 Total Charge           Charge          ....    1
 Multiplicity           Mult            ....    1
 Number of Electrons    NEL             ....   48
 Basis Dimension        Dim             ....  208

ORBITAL ENERGIES
----------------

  NO   OCC          E(Eh)            E(eV)
   0   2.0000     -14.685248      -399.6059
   1   2.0000     -14.679277      -399.4434
   2   2.0000     -10.615812      -288.8709
   3   2.0000     -10.487522      -285.3800
   4   2.0000     -10.457921      -284.5745
   5   2.0000     -10.425682      -283.6972
   6   2.0000      -1.320385       -35.9295
   7   2.0000      -1.217756       -33.1368
   8   2.0000      -1.087640       -29.5962
   9   2.0000      -1.001626       -27.2556
  10   2.0000      -0.942567       -25.6485
  11   2.0000      -0.891661       -24.2633
  12   2.0000      -0.872327       -23.7372
  13   2.0000      -0.837742       -22.7961
  14   2.0000      -0.797083       -21.6897
  15   2.0000      -0.769222       -20.9316
  16   2.0000      -0.732686       -19.9374
  17   2.0000      -0.693069       -18.8594
  18   2.0000      -0.676238       -18.4014
  19   2.0000      -0.663926       -18.0663
  20   2.0000      -0.607632       -16.5345
  21   2.0000      -0.603083       -16.4107
  22   2.0000      -0.594108       -16.1665
  23   2.0000      -0.585398       -15.9295
  24   0.0000      -0.138713        -3.7746
  25   0.0000      -0.079285        -2.1575
  26   0.0000      -0.040180        -1.0934
  27   0.0000      -0.037753        -1.0273
  28   0.0000      -0.012380        -0.3369

MULLIKEN ATOMIC CHARGES
-----------------------
   0 C :    0.238041
   1 C :    0.380521
   2 N :    0.044770
   3 N :    0.018787
   4 H :    0.082513
   5 H :   -0.056983
   6 H :    0.083499
   7 H :   -0.000870
   8 C :   -0.418413
   9 C :    0.706369
  10 H :    0.015670
  11 H :   -0.122879
  12 H :    0.106923
  13 H :    0.047787
  14 H :   -0.080913
  15 H :   -0.041259
  16 H :   -0.003563
Sum of atomic charges:    1.0000000

LOEWDIN ATOMIC CHARGES
----------------------
   0 C :    0.054149
   1 C :   -0.056014
   2 N :    0.281451
   3 N :    0.283504
   4 H :    0.058118
   5 H :    0.051791
   6 H :    0.055771
   7 H :    0.049309
   8 C :   -0.036970
   9 C :    0.139763
  10 H :    0.026350
  11 H :    0.038898
  12 H :    0.036665
  13 H :    0.054479
  14 H :   -0.036310
  15 H :    0.004014
  16 H :   -0.004968

  Mayer bond orders larger than 0.100000
B(  0-C ,  1-C ) :   1.2232 B(  0-C ,  8-C ) :   1.1816 B(  0-C , 11-H ) :   0.1073
B(  0-C , 12-H ) :   0.7884 B(  0-C , 13-H ) :   0.7764 B(  1-C ,  2-N ) :   1.1491
B(  1-C ,  3-N ) :   1.0881 B(  1-C , 12-H ) :   0.1329 B(  1-C , 13-H ) :   0.1865
B(  2-N ,  3-N ) :   0.1601 B(  2-N ,  6-H ) :   0.9670 B(  2-N ,  7-H ) :   1.1064
B(  3-N ,  4-H ) :   1.0202 B(  3-N ,  5-H ) :   1.1615 B(  4-H ,  5-H ) :  -0.1282
B(  6-H ,  7-H ) :  -0.1120 B(  8-C ,  9-C ) :   1.2992 B(  8-C , 10-H ) :   0.9181
B(  8-C , 11-H ) :   1.0090 B(  8-C , 12-H ) :   0.1422 B(  8-C , 14-H ) :   0.2122
B(  8-C , 15-H ) :   0.2032 B(  8-C , 16-H ) :   0.1803 B(  9-C , 14-H ) :   0.8303
B(  9-C , 15-H ) :   0.7854 B(  9-C , 16-H ) :   0.7922 B( 14-H , 16-H ) :   0.1015

Dispersion correction           -0.004872023
FINAL SINGLE POINT ENERGY      -268.092057337122

DIPOLE MOMENT
-------------
                                X             Y             Z
Electronic contribution:      2.03258      -4.55910      -1.88603
Nuclear contribution   :     -1.81078       3.96608       0.97433
                        -----------------------------------------
Total Dipole Moment    :      0.22180      -0.59303      -0.91170
                        -----------------------------------------
Magnitude (a.u.)       :      1.10999
Magnitude (Debye)      :      2.82136

Rotational constants in cm-1:     0.170042     0.080945     0.078209
Rotational constants in MHz :  5097.737821  2426.678005  2344.636232

                             ****ORCA TERMINATED NORMALLY****
TOTAL RUN TIME: 0 days 0 hours 0 minutes 21 seconds 366 msec
