                         Program Version 5.0.0 -  RELEASE  -
|  1> !wB97X-D3 RIJCOSX def2-SVPD def2/J TightSCF xyzfile
|  2>
|  3> *xyzfile 0 1 B.xyz
|  4>
|  5> %MaxCore 64000
|  6>
|  7> %pal nprocs 18
|  8> end
|  9>
| 10> %scf
| 11>   MaxIter 150
| 12> end
| 13>
| 14>
| 15>                          ****END OF INPUT****

CARTESIAN COORDINATES (ANGSTROEM)
---------------------------------
  C      2.916324   -1.242589   -1.543125
  C      0.704661    1.443129   -4.503630
  C      1.728539    1.424320   -5.639443
  H      2.646718    1.953794   -5.381054
  H      1.299916    1.930613   -6.503614
  S      2.252625   -0.188115   -6.271840
  C      3.466585   -1.590971   -2.889082
  N      4.652275   -1.143164   -3.259692
  N      2.752264   -2.292043   -3.728029
  H      1.778364   -2.489604   -3.512738
  H      2.948612   -2.208544   -4.716813
  H      5.146723   -0.512508   -2.633852
  H      4.783030   -1.007203   -4.253498
  O      3.562607   -0.444464   -5.631552
  O      2.344944   -0.033742   -7.696501
  C      2.804084    0.290698   -1.359243
  C      1.052550    0.695659   -3.214915
  H     -0.232483    1.032925   -4.884449
  H      0.511700    2.495794   -4.267966
  C      2.388380    1.093669   -2.597108
  H      3.763425    0.674718   -0.999889
  H      2.094788    0.461222   -0.545756
  O      1.266058   -1.159177   -5.805365
  H      3.167316    1.013242   -3.359430
  H      2.357690    2.149375   -2.310997
  H      1.039284   -0.368429   -3.449329
  H      0.250787    0.865605   -2.488283
  H      1.940472   -1.716529   -1.441161
  H      3.558569   -1.663433   -0.766371

 Total Charge           Charge          ....    0
 Multiplicity           Mult            ....    1
 Number of Electrons    NEL             ....  112
 Basis Dimension        Dim             ....  404

ORBITAL ENERGIES
----------------

  NO   OCC          E(Eh)            E(eV)
   0   2.0000     -89.132891     -2425.4293
   1   2.0000     -19.186755      -522.0982
   2   2.0000     -19.179314      -521.8957
   3   2.0000     -19.170526      -521.6565
   4   2.0000     -14.512233      -394.8979
   5   2.0000     -14.511676      -394.8828
   6   2.0000     -10.455087      -284.4974
   7   2.0000     -10.356688      -281.8198
   8   2.0000     -10.335955      -281.2556
   9   2.0000     -10.307194      -280.4730
  10   2.0000     -10.294532      -280.1285
  11   2.0000     -10.291094      -280.0349
  12   2.0000     -10.289281      -279.9856
  13   2.0000      -8.205354      -223.2790
  14   2.0000      -6.165722      -167.7778
  15   2.0000      -6.164714      -167.7504
  16   2.0000      -6.163814      -167.7259
  17   2.0000      -1.204795       -32.7841
  18   2.0000      -1.154165       -31.4064
  19   2.0000      -1.056719       -28.7548
  20   2.0000      -1.052816       -28.6486
  21   2.0000      -1.048385       -28.5280
  22   2.0000      -0.961231       -26.1564
  23   2.0000      -0.914677       -24.8896
  24   2.0000      -0.866655       -23.5829
  25   2.0000      -0.812128       -22.0991
  26   2.0000      -0.781056       -21.2536
  27   2.0000      -0.747590       -20.3430
  28   2.0000      -0.710178       -19.3249
  29   2.0000      -0.699875       -19.0446
  30   2.0000      -0.688172       -18.7261
  31   2.0000      -0.642882       -17.4937
  32   2.0000      -0.629189       -17.1211
  33   2.0000      -0.621520       -16.9124
  34   2.0000      -0.601445       -16.3662
  35   2.0000      -0.576856       -15.6970
  36   2.0000      -0.570924       -15.5356
  37   2.0000      -0.551969       -15.0198
  38   2.0000      -0.538832       -14.6624
  39   2.0000      -0.535326       -14.5670
  40   2.0000      -0.529574       -14.4104
  41   2.0000      -0.517481       -14.0814
  42   2.0000      -0.508559       -13.8386
  43   2.0000      -0.484592       -13.1864
  44   2.0000      -0.476743       -12.9728
  45   2.0000      -0.471711       -12.8359
  46   2.0000      -0.443628       -12.0717
  47   2.0000      -0.436214       -11.8700
  48   2.0000      -0.422611       -11.4998
  49   2.0000      -0.420558       -11.4440
  50   2.0000      -0.404865       -11.0169
  51   2.0000      -0.402261       -10.9461
  52   2.0000      -0.365053        -9.9336
  53   2.0000      -0.358638        -9.7590
  54   2.0000      -0.347730        -9.4622
  55   2.0000      -0.321614        -8.7516
  56   0.0000       0.019055         0.5185
  57   0.0000       0.055458         1.5091
  58   0.0000       0.078829         2.1451
  59   0.0000       0.093508         2.5445
  60   0.0000       0.097257         2.6465

MULLIKEN ATOMIC CHARGES
-----------------------
   0 C :    0.349026
   1 C :    0.451745
   2 C :    0.106961
   3 H :    0.111268
   4 H :   -0.163552
   5 S :    1.343002
   6 C :    0.344445
   7 N :    0.184200
   8 N :    0.220702
   9 H :    0.091397
  10 H :   -0.167766
  11 H :    0.067647
  12 H :   -0.206378
  13 O :   -0.858122
  14 O :   -0.768392
  15 C :    0.354033
  16 C :    0.184798
  17 H :    0.031930
  18 H :   -0.052696
  19 C :   -0.074170
  20 H :   -0.009011
  21 H :   -0.084129
  22 O :   -0.878240
  23 H :   -0.003736
  24 H :   -0.160843
  25 H :   -0.342213
  26 H :   -0.062812
  27 H :    0.146708
  28 H :   -0.155802
Sum of atomic charges:    0.0000000

LOEWDIN ATOMIC CHARGES
----------------------
   0 C :    0.050217
   1 C :   -0.031818
   2 C :   -0.054565
   3 H :    0.007728
   4 H :    0.012288
   5 S :    0.941448
   6 C :   -0.056574
   7 N :    0.283501
   8 N :    0.297779
   9 H :    0.042575
  10 H :   -0.022841
  11 H :    0.041157
  12 H :   -0.032979
  13 O :   -0.573495
  14 O :   -0.517115
  15 C :   -0.006279
  16 C :   -0.021499
  17 H :    0.030861
  18 H :    0.027139
  19 C :   -0.022272
  20 H :    0.019279
  21 H :    0.028474
  22 O :   -0.551731
  23 H :   -0.002468
  24 H :    0.033394
  25 H :   -0.019404
  26 H :    0.030420
  27 H :    0.028769
  28 H :    0.038011

  Mayer bond orders larger than 0.100000
B(  0-C ,  6-C ) :   1.1752 B(  0-C , 15-C ) :   1.1532 B(  0-C , 21-H ) :   0.1079
B(  0-C , 27-H ) :   0.7487 B(  0-C , 28-H ) :   0.7439 B(  1-C ,  2-C ) :   1.2106
B(  1-C ,  4-H ) :   0.1913 B(  1-C , 16-C ) :   1.2434 B(  1-C , 17-H ) :   0.6861
B(  1-C , 18-H ) :   0.7599 B(  2-C ,  3-H ) :   0.8785 B(  2-C ,  4-H ) :   0.9047
B(  2-C ,  5-S ) :   0.9286 B(  2-C , 14-O ) :   0.1013 B(  2-C , 17-H ) :   0.1208
B(  2-C , 18-H ) :   0.1560 B(  5-S , 13-O ) :   1.1505 B(  5-S , 14-O ) :   1.4284
B(  5-S , 22-O ) :   1.2363 B(  6-C ,  7-N ) :   1.0440 B(  6-C ,  8-N ) :   1.1602
B(  6-C , 27-H ) :   0.1695 B(  6-C , 28-H ) :   0.2494 B(  7-N ,  8-N ) :   0.1653
B(  7-N , 11-H ) :   0.9878 B(  7-N , 12-H ) :   1.1117 B(  8-N ,  9-H ) :   0.9533
B(  8-N , 10-H ) :   1.0992 B(  9-H , 10-H ) :  -0.1307 B( 10-H , 13-O ) :   0.1229
B( 11-H , 12-H ) :  -0.1485 B( 12-H , 13-O ) :   0.1377 B( 15-C , 19-C ) :   1.2396
B( 15-C , 20-H ) :   0.7177 B( 15-C , 21-H ) :   0.8562 B( 15-C , 23-H ) :   0.1209
B( 15-C , 27-H ) :   0.1175 B( 16-C , 17-H ) :   0.2615 B( 16-C , 19-C ) :   1.2396
B( 16-C , 23-H ) :   0.1370 B( 16-C , 24-H ) :   0.1713 B( 16-C , 25-H ) :   0.9116
B( 16-C , 26-H ) :   0.7195 B( 19-C , 20-H ) :   0.2432 B( 19-C , 21-H ) :   0.1587
B( 19-C , 23-H ) :   0.8753 B( 19-C , 24-H ) :   0.8518 B( 19-C , 25-H ) :   0.1171
B( 19-C , 26-H ) :   0.2088 B( 20-H , 21-H ) :  -0.1197

Dispersion correction           -0.016427544
FINAL SINGLE POINT ENERGY     -1009.037684421428

DIPOLE MOMENT
-------------
                                X             Y             Z
Electronic contribution:      2.74602      -6.24126     -13.24565
Nuclear contribution   :     -1.90023       6.18953      17.82209
                        -----------------------------------------
Total Dipole Moment    :      0.84579      -0.05174       4.57644
                        -----------------------------------------
Magnitude (a.u.)       :      4.65423
Magnitude (Debye)      :     11.83011

Rotational constants in cm-1:     0.036337     0.018755     0.015005
Rotational constants in MHz :  1089.341704   562.266628   449.834770

                             ****ORCA TERMINATED NORMALLY****
TOTAL RUN TIME: 0 days 0 hours 1 minutes 16 seconds 514 msec
