                         Program Version 5.0.0 -  RELEASE  -
|  1> !wB97X-D3 RIJCOSX def2-SVPD def2/J TightSCF
|  2> *xyz 0 1
|  3> C          0.70466        1.44313       -4.50363
|  4> C          1.72854        1.42432       -5.63944
|  5> H          2.64672        1.95379       -5.38105
|  6> H          1.29992        1.93061       -6.50361
|  7> S          2.25263       -0.18811       -6.27184
|  8> F          3.56261       -0.44446       -5.63155
|  9> O          2.34494       -0.03374       -7.69650
| 10> C          1.05255        0.69566       -3.21491
| 11> H         -0.23248        1.03293       -4.88445
| 12> H          0.51170        2.49579       -4.26797
| 13> O          1.26606       -1.15918       -5.80536
| 14> H          1.24200       -0.33323       -3.43942
| 15> H          0.23391        0.76629       -2.52954
| 16> H          1.92506        1.13113       -2.77446
| 17> *
| 18>
| 19> %MaxCore 64000
| 20>
| 21> %pal nprocs 8
| 22> end
| 23>
| 24> %scf
| 25>   MaxIter 150
| 26> end
| 27>
| 28>
| 29>                          ****END OF INPUT****

CARTESIAN COORDINATES (ANGSTROEM)
---------------------------------
  C      0.704660    1.443130   -4.503630
  C      1.728540    1.424320   -5.639440
  H      2.646720    1.953790   -5.381050
  H      1.299920    1.930610   -6.503610
  S      2.252630   -0.188110   -6.271840
  F      3.562610   -0.444460   -5.631550
  O      2.344940   -0.033740   -7.696500
  C      1.052550    0.695660   -3.214910
  H     -0.232480    1.032930   -4.884450
  H      0.511700    2.495790   -4.267970
  O      1.266060   -1.159180   -5.805360
  H      1.242000   -0.333230   -3.439420
  H      0.233910    0.766290   -2.529540
  H      1.925060    1.131130   -2.774460

 Total Charge           Charge          ....    0
 Multiplicity           Mult            ....    1
 Number of Electrons    NEL             ....   66
 Basis Dimension        Dim             ....  212

ORBITAL ENERGIES
----------------

  NO   OCC          E(Eh)            E(eV)
   0   2.0000     -89.234964     -2428.2068
   1   2.0000     -24.903515      -677.6591
   2   2.0000     -19.263341      -524.1822
   3   2.0000     -19.255659      -523.9731
   4   2.0000     -10.354056      -281.7482
   5   2.0000     -10.320578      -280.8372
   6   2.0000     -10.288686      -279.9694
   7   2.0000      -8.309146      -226.1034
   8   2.0000      -6.272760      -170.6905
   9   2.0000      -6.266476      -170.5195
  10   2.0000      -6.265276      -170.4868
  11   2.0000      -1.463436       -39.8221
  12   2.0000      -1.233328       -33.5606
  13   2.0000      -1.134385       -30.8682
  14   2.0000      -0.945071       -25.7167
  15   2.0000      -0.864609       -23.5272
  16   2.0000      -0.811419       -22.0798
  17   2.0000      -0.744037       -20.2463
  18   2.0000      -0.678509       -18.4632
  19   2.0000      -0.673199       -18.3187
  20   2.0000      -0.659299       -17.9404
  21   2.0000      -0.603025       -16.4091
  22   2.0000      -0.585041       -15.9198
  23   2.0000      -0.558368       -15.1940
  24   2.0000      -0.550943       -14.9919
  25   2.0000      -0.538087       -14.6421
  26   2.0000      -0.496208       -13.5025
  27   2.0000      -0.480299       -13.0696
  28   2.0000      -0.471049       -12.8179
  29   2.0000      -0.456518       -12.4225
  30   2.0000      -0.434503       -11.8234
  31   2.0000      -0.423479       -11.5234
  32   2.0000      -0.414502       -11.2792
  33   0.0000       0.068468         1.8631
  34   0.0000       0.087945         2.3931
  35   0.0000       0.095974         2.6116
  36   0.0000       0.097031         2.6403
  37   0.0000       0.115477         3.1423

MULLIKEN ATOMIC CHARGES
-----------------------
   0 C :   -0.291081
   1 C :   -0.044935
   2 H :    0.064652
   3 H :    0.074419
   4 S :    1.493257
   5 F :   -0.404804
   6 O :   -0.680616
   7 C :    0.701577
   8 H :    0.021762
   9 H :   -0.084501
  10 O :   -0.706037
  11 H :   -0.141567
  12 H :    0.007357
  13 H :   -0.009484
Sum of atomic charges:    0.0000000

LOEWDIN ATOMIC CHARGES
----------------------
   0 C :   -0.075434
   1 C :   -0.041497
   2 H :    0.021694
   3 H :    0.025058
   4 S :    1.135474
   5 F :   -0.276306
   6 O :   -0.464155
   7 C :    0.134995
   8 H :    0.031088
   9 H :    0.031621
  10 O :   -0.473226
  11 H :   -0.029060
  12 H :   -0.008488
  13 H :   -0.011765

  Mayer bond orders larger than 0.100000
B(  0-C ,  1-C ) :   1.2922 B(  0-C ,  2-H ) :   0.1218 B(  0-C ,  3-H ) :   0.1258
B(  0-C ,  7-C ) :   1.2655 B(  0-C ,  8-H ) :   0.9115 B(  0-C ,  9-H ) :   0.8972
B(  0-C , 11-H ) :   0.1927 B(  0-C , 12-H ) :   0.1928 B(  0-C , 13-H ) :   0.1943
B(  1-C ,  2-H ) :   0.9145 B(  1-C ,  3-H ) :   0.8988 B(  1-C ,  4-S ) :   0.9629
B(  1-C ,  8-H ) :   0.1344 B(  1-C ,  9-H ) :   0.1340 B(  4-S ,  5-F ) :   0.6221
B(  4-S ,  6-O ) :   1.5747 B(  4-S , 10-O ) :   1.5016 B(  7-C , 11-H ) :   0.8500
B(  7-C , 12-H ) :   0.7671 B(  7-C , 13-H ) :   0.7907

Dispersion correction           -0.004443396
FINAL SINGLE POINT ENERGY      -766.468671200328

DIPOLE MOMENT
-------------
                                X             Y             Z
Electronic contribution:      7.36735      -6.67377      -8.19644
Nuclear contribution   :     -7.21372       8.00417       9.21533
                        -----------------------------------------
Total Dipole Moment    :      0.15363       1.33040       1.01889
                        -----------------------------------------
Magnitude (a.u.)       :      1.68276
Magnitude (Debye)      :      4.27724

Rotational constants in cm-1:     0.129205     0.053290     0.050128
Rotational constants in MHz :  3873.458819  1597.595736  1502.810344

                             ****ORCA TERMINATED NORMALLY****
TOTAL RUN TIME: 0 days 0 hours 0 minutes 22 seconds 487 msec
