                         Program Version 5.0.0 -  RELEASE  -
|  1> !wB97X-D3 RIJCOSX def2-SVPD def2/J TightSCF
|  2> *xyz 0 1
|  3> C          2.91632       -1.24259       -1.54313
|  4> C          3.46659       -1.59097       -2.88908
|  5> C          4.65227       -1.14316       -3.25969
|  6> N          2.75226       -2.29204       -3.72803
|  7> H          1.77836       -2.48960       -3.51274
|  8> H          2.94861       -2.20854       -4.71681
|  9> H          5.14672       -0.51251       -2.63385
| 10> H          4.78303       -1.00720       -4.25350
| 11> C          2.80408        0.29070       -1.35924
| 12> C          2.38838        1.09367       -2.59711
| 13> H          3.76342        0.67472       -0.99989
| 14> H          2.09479        0.46122       -0.54576
| 15> H          1.94047       -1.71653       -1.44116
| 16> H          3.55857       -1.66343       -0.76637
| 17> H          3.08894        0.91965       -3.38694
| 18> H          2.37301        2.13633       -2.35728
| 19> H          1.41303        0.78551       -2.91115
| 20> *
| 21>
| 22> %MaxCore 64000
| 23>
| 24> %pal nprocs 8
| 25> end
| 26>
| 27> %scf
| 28>   MaxIter 150
| 29> end
| 30>
| 31>
| 32>                          ****END OF INPUT****

CARTESIAN COORDINATES (ANGSTROEM)
---------------------------------
  C      2.916320   -1.242590   -1.543130
  C      3.466590   -1.590970   -2.889080
  C      4.652270   -1.143160   -3.259690
  N      2.752260   -2.292040   -3.728030
  H      1.778360   -2.489600   -3.512740
  H      2.948610   -2.208540   -4.716810
  H      5.146720   -0.512510   -2.633850
  H      4.783030   -1.007200   -4.253500
  C      2.804080    0.290700   -1.359240
  C      2.388380    1.093670   -2.597110
  H      3.763420    0.674720   -0.999890
  H      2.094790    0.461220   -0.545760
  H      1.940470   -1.716530   -1.441160
  H      3.558570   -1.663430   -0.766370
  H      3.088940    0.919650   -3.386940
  H      2.373010    2.136330   -2.357280
  H      1.413030    0.785510   -2.911150

 Total Charge           Charge          ....    0
 Multiplicity           Mult            ....    1
 Number of Electrons    NEL             ....   48
 Basis Dimension        Dim             ....  208

ORBITAL ENERGIES
----------------

  NO   OCC          E(Eh)            E(eV)
   0   2.0000     -14.442209      -392.9925
   1   2.0000     -10.312211      -280.6095
   2   2.0000     -10.291683      -280.0509
   3   2.0000     -10.288698      -279.9697
   4   2.0000     -10.268182      -279.4114
   5   2.0000     -10.217352      -278.0283
   6   2.0000      -1.048355       -28.5272
   7   2.0000      -0.906412       -24.6647
   8   2.0000      -0.837691       -22.7947
   9   2.0000      -0.797636       -21.7048
  10   2.0000      -0.714155       -19.4332
  11   2.0000      -0.664477       -18.0813
  12   2.0000      -0.622399       -16.9363
  13   2.0000      -0.586078       -15.9480
  14   2.0000      -0.558296       -15.1920
  15   2.0000      -0.536521       -14.5995
  16   2.0000      -0.500322       -13.6145
  17   2.0000      -0.486846       -13.2478
  18   2.0000      -0.464208       -12.6317
  19   2.0000      -0.460853       -12.5404
  20   2.0000      -0.431730       -11.7480
  21   2.0000      -0.420403       -11.4398
  22   2.0000      -0.418453       -11.3867
  23   2.0000      -0.278774        -7.5858
  24   0.0000       0.088252         2.4015
  25   0.0000       0.100128         2.7246
  26   0.0000       0.117128         3.1872
  27   0.0000       0.125870         3.4251
  28   0.0000       0.134380         3.6567

MULLIKEN ATOMIC CHARGES
-----------------------
   0 C :    0.453708
   1 C :   -0.402624
   2 C :    0.488066
   3 N :    0.094746
   4 H :   -0.042821
   5 H :   -0.080462
   6 H :   -0.105773
   7 H :   -0.336062
   8 C :   -0.430670
   9 C :    0.735896
  10 H :    0.003500
  11 H :   -0.170871
  12 H :   -0.004918
  13 H :   -0.019639
  14 H :   -0.061052
  15 H :   -0.103863
  16 H :   -0.017161
Sum of atomic charges:   -0.0000000

LOEWDIN ATOMIC CHARGES
----------------------
   0 C :    0.015425
   1 C :   -0.270403
   2 C :    0.156183
   3 N :    0.169957
   4 H :    0.004118
   5 H :    0.011530
   6 H :   -0.074269
   7 H :   -0.080837
   8 C :   -0.058813
   9 C :    0.124452
  10 H :    0.016628
  11 H :    0.013951
  12 H :    0.010615
  13 H :    0.029969
  14 H :   -0.033404
  15 H :   -0.017993
  16 H :   -0.017109

  Mayer bond orders larger than 0.100000
B(  0-C ,  1-C ) :   1.1853 B(  0-C ,  8-C ) :   1.1777 B(  0-C , 11-H ) :   0.1666
B(  0-C , 12-H ) :   0.6729 B(  0-C , 13-H ) :   0.7851 B(  1-C ,  2-C ) :   2.1609
B(  1-C ,  3-N ) :   1.0163 B(  1-C ,  6-H ) :   0.2007 B(  1-C ,  7-H ) :   0.2630
B(  1-C , 12-H ) :   0.2277 B(  1-C , 13-H ) :   0.1742 B(  2-C ,  3-N ) :   0.2214
B(  2-C ,  6-H ) :   0.6810 B(  2-C ,  7-H ) :   0.7433 B(  3-N ,  4-H ) :   1.0299
B(  3-N ,  5-H ) :   1.0553 B(  4-H ,  5-H ) :  -0.1175 B(  8-C ,  9-C ) :   1.2741
B(  8-C , 10-H ) :   0.9081 B(  8-C , 11-H ) :   0.9698 B(  8-C , 12-H ) :   0.1494
B(  8-C , 13-H ) :   0.1083 B(  8-C , 14-H ) :   0.2435 B(  8-C , 15-H ) :   0.2214
B(  8-C , 16-H ) :   0.1949 B(  9-C , 14-H ) :   0.8324 B(  9-C , 15-H ) :   0.7676
B(  9-C , 16-H ) :   0.7778 B( 14-H , 16-H ) :   0.1005

Dispersion correction           -0.004829793
FINAL SINGLE POINT ENERGY      -251.629542366202

DIPOLE MOMENT
-------------
                                X             Y             Z
Electronic contribution:      0.58000      -3.80738      -0.93927
Nuclear contribution   :     -1.45921       3.88617       0.81775
                        -----------------------------------------
Total Dipole Moment    :     -0.87921       0.07878      -0.12152
                        -----------------------------------------
Magnitude (a.u.)       :      0.89106
Magnitude (Debye)      :      2.26490

Rotational constants in cm-1:     0.176264     0.082132     0.079980
Rotational constants in MHz :  5284.261828  2462.256672  2397.741351

                             ****ORCA TERMINATED NORMALLY****
TOTAL RUN TIME: 0 days 0 hours 0 minutes 23 seconds 7 msec
