                         Program Version 5.0.0 -  RELEASE  -
|  1> !wB97X-D3 RIJCOSX def2-SVPD def2/J TightSCF
|  2> *xyz 0 1
|  3> C          0.70466        1.44313       -4.50363
|  4> C          1.72854        1.42432       -5.63944
|  5> H          2.64672        1.95379       -5.38105
|  6> H          1.29992        1.93061       -6.50361
|  7> S          2.25263       -0.18811       -6.27184
|  8> O          3.56261       -0.44446       -5.63155
|  9> F          2.34494       -0.03374       -7.69650
| 10> C          1.05255        0.69566       -3.21491
| 11> H         -0.23248        1.03293       -4.88445
| 12> H          0.51170        2.49579       -4.26797
| 13> O          1.26606       -1.15918       -5.80536
| 14> H          1.24200       -0.33323       -3.43942
| 15> H          0.23391        0.76629       -2.52954
| 16> H          1.92506        1.13113       -2.77446
| 17> *
| 18>
| 19> %MaxCore 64000
| 20>
| 21> %pal nprocs 8
| 22> end
| 23>
| 24> %scf
| 25>   MaxIter 150
| 26> end
| 27>
| 28>
| 29>                          ****END OF INPUT****

CARTESIAN COORDINATES (ANGSTROEM)
---------------------------------
  C      0.704660    1.443130   -4.503630
  C      1.728540    1.424320   -5.639440
  H      2.646720    1.953790   -5.381050
  H      1.299920    1.930610   -6.503610
  S      2.252630   -0.188110   -6.271840
  O      3.562610   -0.444460   -5.631550
  F      2.344940   -0.033740   -7.696500
  C      1.052550    0.695660   -3.214910
  H     -0.232480    1.032930   -4.884450
  H      0.511700    2.495790   -4.267970
  O      1.266060   -1.159180   -5.805360
  H      1.242000   -0.333230   -3.439420
  H      0.233910    0.766290   -2.529540
  H      1.925060    1.131130   -2.774460

 Total Charge           Charge          ....    0
 Multiplicity           Mult            ....    1
 Number of Electrons    NEL             ....   66
 Basis Dimension        Dim             ....  212

ORBITAL ENERGIES
----------------

  NO   OCC          E(Eh)            E(eV)
   0   2.0000     -89.237034     -2428.2631
   1   2.0000     -24.926706      -678.2901
   2   2.0000     -19.256461      -523.9949
   3   2.0000     -19.247827      -523.7600
   4   2.0000     -10.355030      -281.7747
   5   2.0000     -10.320913      -280.8463
   6   2.0000     -10.282000      -279.7874
   7   2.0000      -8.311372      -226.1639
   8   2.0000      -6.275091      -170.7539
   9   2.0000      -6.268553      -170.5760
  10   2.0000      -6.267297      -170.5418
  11   2.0000      -1.502018       -40.8720
  12   2.0000      -1.219756       -33.1913
  13   2.0000      -1.113987       -30.3131
  14   2.0000      -0.944513       -25.7015
  15   2.0000      -0.871207       -23.7068
  16   2.0000      -0.822022       -22.3684
  17   2.0000      -0.748120       -20.3574
  18   2.0000      -0.702247       -19.1091
  19   2.0000      -0.691883       -18.8271
  20   2.0000      -0.659866       -17.9559
  21   2.0000      -0.597265       -16.2524
  22   2.0000      -0.587732       -15.9930
  23   2.0000      -0.560776       -15.2595
  24   2.0000      -0.547630       -14.9018
  25   2.0000      -0.523676       -14.2500
  26   2.0000      -0.488910       -13.3039
  27   2.0000      -0.473640       -12.8884
  28   2.0000      -0.468096       -12.7376
  29   2.0000      -0.452037       -12.3005
  30   2.0000      -0.426263       -11.5992
  31   2.0000      -0.415262       -11.2998
  32   2.0000      -0.400346       -10.8940
  33   0.0000       0.064382         1.7519
  34   0.0000       0.085109         2.3159
  35   0.0000       0.094001         2.5579
  36   0.0000       0.100067         2.7229
  37   0.0000       0.112907         3.0724

MULLIKEN ATOMIC CHARGES
-----------------------
   0 C :   -0.322692
   1 C :   -0.035291
   2 H :    0.059532
   3 H :    0.078179
   4 S :    1.528941
   5 O :   -0.686975
   6 F :   -0.426644
   7 C :    0.703526
   8 H :    0.019533
   9 H :   -0.084895
  10 O :   -0.701092
  11 H :   -0.133468
  12 H :    0.006567
  13 H :   -0.005220
Sum of atomic charges:   -0.0000000

LOEWDIN ATOMIC CHARGES
----------------------
   0 C :   -0.071142
   1 C :   -0.047088
   2 H :    0.026345
   3 H :    0.013040
   4 S :    1.140223
   5 O :   -0.490210
   6 F :   -0.256518
   7 C :    0.140428
   8 H :    0.028828
   9 H :    0.032506
  10 O :   -0.475409
  11 H :   -0.023612
  12 H :   -0.009390
  13 H :   -0.008001

  Mayer bond orders larger than 0.100000
B(  0-C ,  1-C ) :   1.2983 B(  0-C ,  2-H ) :   0.1174 B(  0-C ,  3-H ) :   0.1458
B(  0-C ,  7-C ) :   1.2694 B(  0-C ,  8-H ) :   0.9078 B(  0-C ,  9-H ) :   0.9020
B(  0-C , 11-H ) :   0.1943 B(  0-C , 12-H ) :   0.1943 B(  0-C , 13-H ) :   0.1979
B(  1-C ,  2-H ) :   0.9444 B(  1-C ,  3-H ) :   0.8495 B(  1-C ,  4-S ) :   0.9464
B(  1-C ,  8-H ) :   0.1305 B(  1-C ,  9-H ) :   0.1307 B(  4-S ,  5-O ) :   1.4821
B(  4-S ,  6-F ) :   0.6801 B(  4-S , 10-O ) :   1.4765 B(  7-C , 11-H ) :   0.8530
B(  7-C , 12-H ) :   0.7606 B(  7-C , 13-H ) :   0.7880

Dispersion correction           -0.004500499
FINAL SINGLE POINT ENERGY      -766.448584329850

DIPOLE MOMENT
-------------
                                X             Y             Z
Electronic contribution:      5.24888      -5.97061     -11.79207
Nuclear contribution   :     -5.90419       7.56246      11.43606
                        -----------------------------------------
Total Dipole Moment    :     -0.65531       1.59185      -0.35600
                        -----------------------------------------
Magnitude (a.u.)       :      1.75789
Magnitude (Debye)      :      4.46819

Rotational constants in cm-1:     0.133686     0.052402     0.049175
Rotational constants in MHz :  4007.807944  1570.986792  1474.216272

                             ****ORCA TERMINATED NORMALLY****
TOTAL RUN TIME: 0 days 0 hours 0 minutes 22 seconds 408 msec
