                         Program Version 5.0.0 -  RELEASE  -
|  1> !wB97X-D3 RIJCOSX def2-SVPD def2/J TightSCF
|  2> *xyz 0 1
|  3> C          2.91632       -1.24259       -1.54313
|  4> C          3.46659       -1.59097       -2.88908
|  5> N          4.65227       -1.14316       -3.25969
|  6> C          2.75226       -2.29204       -3.72803
|  7> H          1.77836       -2.48960       -3.51274
|  8> H          2.94861       -2.20854       -4.71681
|  9> H          5.14672       -0.51251       -2.63385
| 10> H          4.78303       -1.00720       -4.25350
| 11> C          2.80408        0.29070       -1.35924
| 12> C          2.38838        1.09367       -2.59711
| 13> H          3.76342        0.67472       -0.99989
| 14> H          2.09479        0.46122       -0.54576
| 15> H          1.94047       -1.71653       -1.44116
| 16> H          3.55857       -1.66343       -0.76637
| 17> H          3.08894        0.91965       -3.38694
| 18> H          2.37301        2.13633       -2.35728
| 19> H          1.41303        0.78551       -2.91115
| 20> *
| 21>
| 22> %MaxCore 64000
| 23>
| 24> %pal nprocs 8
| 25> end
| 26>
| 27> %scf
| 28>   MaxIter 150
| 29> end
| 30>
| 31>
| 32>                          ****END OF INPUT****

CARTESIAN COORDINATES (ANGSTROEM)
---------------------------------
  C      2.916320   -1.242590   -1.543130
  C      3.466590   -1.590970   -2.889080
  N      4.652270   -1.143160   -3.259690
  C      2.752260   -2.292040   -3.728030
  H      1.778360   -2.489600   -3.512740
  H      2.948610   -2.208540   -4.716810
  H      5.146720   -0.512510   -2.633850
  H      4.783030   -1.007200   -4.253500
  C      2.804080    0.290700   -1.359240
  C      2.388380    1.093670   -2.597110
  H      3.763420    0.674720   -0.999890
  H      2.094790    0.461220   -0.545760
  H      1.940470   -1.716530   -1.441160
  H      3.558570   -1.663430   -0.766370
  H      3.088940    0.919650   -3.386940
  H      2.373010    2.136330   -2.357280
  H      1.413030    0.785510   -2.911150

 Total Charge           Charge          ....    0
 Multiplicity           Mult            ....    1
 Number of Electrons    NEL             ....   48
 Basis Dimension        Dim             ....  208

ORBITAL ENERGIES
----------------

  NO   OCC          E(Eh)            E(eV)
   0   2.0000     -14.438195      -392.8833
   1   2.0000     -10.310555      -280.5645
   2   2.0000     -10.292826      -280.0820
   3   2.0000     -10.289645      -279.9955
   4   2.0000     -10.272791      -279.5368
   5   2.0000     -10.221792      -278.1491
   6   2.0000      -1.043601       -28.3978
   7   2.0000      -0.904143       -24.6030
   8   2.0000      -0.847989       -23.0749
   9   2.0000      -0.795754       -21.6536
  10   2.0000      -0.708191       -19.2709
  11   2.0000      -0.666696       -18.1417
  12   2.0000      -0.628976       -17.1153
  13   2.0000      -0.570980       -15.5372
  14   2.0000      -0.561161       -15.2700
  15   2.0000      -0.553758       -15.0685
  16   2.0000      -0.493612       -13.4319
  17   2.0000      -0.489195       -13.3117
  18   2.0000      -0.472988       -12.8706
  19   2.0000      -0.461479       -12.5575
  20   2.0000      -0.429506       -11.6875
  21   2.0000      -0.425196       -11.5702
  22   2.0000      -0.412287       -11.2189
  23   2.0000      -0.286798        -7.8042
  24   0.0000       0.084645         2.3033
  25   0.0000       0.101739         2.7685
  26   0.0000       0.122222         3.3258
  27   0.0000       0.124434         3.3860
  28   0.0000       0.133578         3.6349

MULLIKEN ATOMIC CHARGES
-----------------------
   0 C :    0.303372
   1 C :   -0.389980
   2 N :    0.154009
   3 C :    0.310970
   4 H :   -0.043642
   5 H :   -0.377583
   6 H :   -0.018754
   7 H :   -0.034589
   8 C :   -0.408366
   9 C :    0.753087
  10 H :   -0.009285
  11 H :   -0.160157
  12 H :    0.169001
  13 H :   -0.038898
  14 H :   -0.112277
  15 H :   -0.035436
  16 H :   -0.061474
Sum of atomic charges:   -0.0000000

LOEWDIN ATOMIC CHARGES
----------------------
   0 C :    0.013047
   1 C :   -0.279351
   2 N :    0.170603
   3 C :    0.168334
   4 H :   -0.076118
   5 H :   -0.079330
   6 H :    0.005953
   7 H :    0.010557
   8 C :   -0.062648
   9 C :    0.123423
  10 H :    0.009753
  11 H :    0.015695
  12 H :    0.022063
  13 H :    0.024105
  14 H :   -0.035787
  15 H :   -0.017846
  16 H :   -0.012454

  Mayer bond orders larger than 0.100000
B(  0-C ,  1-C ) :   1.3173 B(  0-C ,  8-C ) :   1.1782 B(  0-C , 10-H ) :   0.1153
B(  0-C , 11-H ) :   0.1556 B(  0-C , 12-H ) :   0.7904 B(  0-C , 13-H ) :   0.7363
B(  1-C ,  2-N ) :   1.0109 B(  1-C ,  3-C ) :   2.1093 B(  1-C ,  4-H ) :   0.1136
B(  1-C ,  5-H ) :   0.3231 B(  1-C , 13-H ) :   0.2540 B(  2-N ,  3-C ) :   0.3185
B(  2-N ,  6-H ) :   0.9522 B(  2-N ,  7-H ) :   0.9681 B(  3-C ,  4-H ) :   0.8537
B(  3-C ,  5-H ) :   0.6972 B(  6-H ,  7-H ) :  -0.1064 B(  8-C ,  9-C ) :   1.2728
B(  8-C , 10-H ) :   0.8960 B(  8-C , 11-H ) :   0.9838 B(  8-C , 12-H ) :   0.1438
B(  8-C , 14-H ) :   0.2277 B(  8-C , 15-H ) :   0.2083 B(  8-C , 16-H ) :   0.1900
B(  9-C , 14-H ) :   0.8359 B(  9-C , 15-H ) :   0.7406 B(  9-C , 16-H ) :   0.7962
B( 14-H , 16-H ) :   0.1225

Dispersion correction           -0.004878269
FINAL SINGLE POINT ENERGY      -251.633844616042

DIPOLE MOMENT
-------------
                                X             Y             Z
Electronic contribution:      2.18558      -2.82339      -0.54338
Nuclear contribution   :     -1.90863       3.61442       0.70697
                        -----------------------------------------
Total Dipole Moment    :      0.27696       0.79103       0.16359
                        -----------------------------------------
Magnitude (a.u.)       :      0.85393
Magnitude (Debye)      :      2.17052

Rotational constants in cm-1:     0.173428     0.083686     0.080523
Rotational constants in MHz :  5199.232598  2508.829970  2414.016775

                             ****ORCA TERMINATED NORMALLY****
TOTAL RUN TIME: 0 days 0 hours 0 minutes 23 seconds 56 msec
