                         Program Version 5.0.0 -  RELEASE  -
|  1> !wB97X-D3 RIJCOSX def2-SVPD def2/J TightSCF
|  2> *xyz 0 1
|  3> C          0.70466        1.44313       -4.50363
|  4> C          1.72854        1.42432       -5.63944
|  5> H          2.64672        1.95379       -5.38105
|  6> H          1.29992        1.93061       -6.50361
|  7> S          2.25263       -0.18811       -6.27184
|  8> O          3.56261       -0.44446       -5.63155
|  9> O          2.34494       -0.03374       -7.69650
| 10> C          1.05255        0.69566       -3.21491
| 11> H         -0.23248        1.03293       -4.88445
| 12> H          0.51170        2.49579       -4.26797
| 13> F          1.26606       -1.15918       -5.80536
| 14> H          1.24200       -0.33323       -3.43942
| 15> H          0.23391        0.76629       -2.52954
| 16> H          1.92506        1.13113       -2.77446
| 17> *
| 18>
| 19> %MaxCore 64000
| 20>
| 21> %pal nprocs 8
| 22> end
| 23>
| 24> %scf
| 25>   MaxIter 150
| 26> end
| 27>
| 28>
| 29>                          ****END OF INPUT****

CARTESIAN COORDINATES (ANGSTROEM)
---------------------------------
  C      0.704660    1.443130   -4.503630
  C      1.728540    1.424320   -5.639440
  H      2.646720    1.953790   -5.381050
  H      1.299920    1.930610   -6.503610
  S      2.252630   -0.188110   -6.271840
  O      3.562610   -0.444460   -5.631550
  O      2.344940   -0.033740   -7.696500
  C      1.052550    0.695660   -3.214910
  H     -0.232480    1.032930   -4.884450
  H      0.511700    2.495790   -4.267970
  F      1.266060   -1.159180   -5.805360
  H      1.242000   -0.333230   -3.439420
  H      0.233910    0.766290   -2.529540
  H      1.925060    1.131130   -2.774460

 Total Charge           Charge          ....    0
 Multiplicity           Mult            ....    1
 Number of Electrons    NEL             ....   66
 Basis Dimension        Dim             ....  212

ORBITAL ENERGIES
----------------

  NO   OCC          E(Eh)            E(eV)
   0   2.0000     -89.234994     -2428.2076
   1   2.0000     -24.914233      -677.9507
   2   2.0000     -19.262944      -524.1713
   3   2.0000     -19.246441      -523.7223
   4   2.0000     -10.353675      -281.7378
   5   2.0000     -10.327876      -281.0358
   6   2.0000     -10.296847      -280.1914
   7   2.0000      -8.309262      -226.1065
   8   2.0000      -6.273040      -170.6981
   9   2.0000      -6.266492      -170.5199
  10   2.0000      -6.265218      -170.4852
  11   2.0000      -1.480301       -40.2810
  12   2.0000      -1.228736       -33.4356
  13   2.0000      -1.121476       -30.5169
  14   2.0000      -0.950042       -25.8520
  15   2.0000      -0.867411       -23.6034
  16   2.0000      -0.819866       -22.3097
  17   2.0000      -0.751404       -20.4467
  18   2.0000      -0.696582       -18.9550
  19   2.0000      -0.687011       -18.6945
  20   2.0000      -0.648925       -17.6581
  21   2.0000      -0.599772       -16.3206
  22   2.0000      -0.583163       -15.8687
  23   2.0000      -0.571419       -15.5491
  24   2.0000      -0.551187       -14.9986
  25   2.0000      -0.535805       -14.5800
  26   2.0000      -0.495852       -13.4928
  27   2.0000      -0.485682       -13.2161
  28   2.0000      -0.477982       -13.0066
  29   2.0000      -0.462664       -12.5897
  30   2.0000      -0.429698       -11.6927
  31   2.0000      -0.416200       -11.3254
  32   2.0000      -0.405677       -11.0390
  33   0.0000       0.062666         1.7052
  34   0.0000       0.089980         2.4485
  35   0.0000       0.096017         2.6127
  36   0.0000       0.097556         2.6546
  37   0.0000       0.113405         3.0859

MULLIKEN ATOMIC CHARGES
-----------------------
   0 C :   -0.306240
   1 C :   -0.017016
   2 H :    0.060259
   3 H :    0.077195
   4 S :    1.471535
   5 O :   -0.690171
   6 O :   -0.674039
   7 C :    0.715221
   8 H :   -0.005059
   9 H :   -0.075859
  10 F :   -0.415380
  11 H :   -0.150917
  12 H :    0.011987
  13 H :   -0.001518
Sum of atomic charges:   -0.0000000

LOEWDIN ATOMIC CHARGES
----------------------
   0 C :   -0.083186
   1 C :   -0.036099
   2 H :    0.034212
   3 H :    0.020009
   4 S :    1.131446
   5 O :   -0.491685
   6 O :   -0.463934
   7 C :    0.136435
   8 H :    0.025465
   9 H :    0.032287
  10 F :   -0.265886
  11 H :   -0.026018
  12 H :   -0.008472
  13 H :   -0.004574

  Mayer bond orders larger than 0.100000
B(  0-C ,  1-C ) :   1.2526 B(  0-C ,  2-H ) :   0.1207 B(  0-C ,  3-H ) :   0.1324
B(  0-C ,  7-C ) :   1.2653 B(  0-C ,  8-H ) :   0.9225 B(  0-C ,  9-H ) :   0.8990
B(  0-C , 11-H ) :   0.1912 B(  0-C , 12-H ) :   0.1946 B(  0-C , 13-H ) :   0.2008
B(  1-C ,  2-H ) :   0.9295 B(  1-C ,  3-H ) :   0.8976 B(  1-C ,  4-S ) :   0.9747
B(  1-C ,  8-H ) :   0.1225 B(  1-C ,  9-H ) :   0.1322 B(  4-S ,  5-O ) :   1.4930
B(  4-S ,  6-O ) :   1.5661 B(  4-S , 10-F ) :   0.6441 B(  7-C , 11-H ) :   0.8431
B(  7-C , 12-H ) :   0.7615 B(  7-C , 13-H ) :   0.7922

Dispersion correction           -0.004474632
FINAL SINGLE POINT ENERGY      -766.458269778038

DIPOLE MOMENT
-------------
                                X             Y             Z
Electronic contribution:      3.37316      -7.85066      -8.46432
Nuclear contribution   :     -4.74391       8.77281       9.40225
                        -----------------------------------------
Total Dipole Moment    :     -1.37076       0.92215       0.93794
                        -----------------------------------------
Magnitude (a.u.)       :      1.89975
Magnitude (Debye)      :      4.82879

Rotational constants in cm-1:     0.129476     0.053470     0.050698
Rotational constants in MHz :  3881.594668  1602.990831  1519.898630

                             ****ORCA TERMINATED NORMALLY****
TOTAL RUN TIME: 0 days 0 hours 0 minutes 22 seconds 381 msec
