                         Program Version 5.0.0 -  RELEASE  -
|  1> !BLYP D3BJ RIJCOSX def2-SVP def2/J TightSCF
|  2> *xyz -1 1
|  3> C          4.08422        1.74208       -2.11472
|  4> C          4.26524        2.50052       -0.79589
|  5> H          4.86853        3.39267       -0.98113
|  6> H          3.30764        2.82457       -0.38781
|  7> C          4.98224        1.65026        0.24742
|  8> O          4.36806        1.38927        1.31371
|  9> O          6.12892        1.23351       -0.04562
| 10> H          3.57911        2.36849       -2.81997
| 11> H          3.50424        0.85965       -1.94198
| 12> H          5.04288        1.46841       -2.50327
| 13> *
| 14> %MaxCore 64000
| 15> %pal nprocs 8
| 16> end
| 17> %scf
| 18>   MaxIter 150
| 19> end
| 20>
| 21>
| 22>                          ****END OF INPUT****

CARTESIAN COORDINATES (ANGSTROEM)
---------------------------------
  C      4.084220    1.742080   -2.114720
  C      4.265240    2.500520   -0.795890
  H      4.868530    3.392670   -0.981130
  H      3.307640    2.824570   -0.387810
  C      4.982240    1.650260    0.247420
  O      4.368060    1.389270    1.313710
  O      6.128920    1.233510   -0.045620
  H      3.579110    2.368490   -2.819970
  H      3.504240    0.859650   -1.941980
  H      5.042880    1.468410   -2.503270

 Total Charge           Charge          ....   -1
 Multiplicity           Mult            ....    1
 Number of Electrons    NEL             ....   40
 Basis Dimension        Dim             ....   95

ORBITAL ENERGIES
----------------

  NO   OCC          E(Eh)            E(eV)
   0   2.0000     -18.480212      -502.8721
   1   2.0000     -18.478540      -502.8266
   2   2.0000      -9.760892      -265.6074
   3   2.0000      -9.748176      -265.2614
   4   2.0000      -9.724959      -264.6296
   5   2.0000      -0.672473       -18.2989
   6   2.0000      -0.583444       -15.8763
   7   2.0000      -0.501887       -13.6570
   8   2.0000      -0.379201       -10.3186
   9   2.0000      -0.237454        -6.4615
  10   2.0000      -0.221055        -6.0152
  11   2.0000      -0.176286        -4.7970
  12   2.0000      -0.155699        -4.2368
  13   2.0000      -0.139398        -3.7932
  14   2.0000      -0.119522        -3.2524
  15   2.0000      -0.088400        -2.4055
  16   2.0000      -0.080993        -2.2039
  17   2.0000       0.037030         1.0076
  18   2.0000       0.046548         1.2666
  19   2.0000       0.066995         1.8230
  20   0.0000       0.196610         5.3500
  21   0.0000       0.244326         6.6485
  22   0.0000       0.256253         6.9730
  23   0.0000       0.260516         7.0890
  24   0.0000       0.264827         7.2063

MULLIKEN ATOMIC CHARGES
-----------------------
   0 C :    0.103417
   1 C :    0.130564
   2 H :   -0.089674
   3 H :   -0.109019
   4 C :   -0.103696
   5 O :   -0.370460
   6 O :   -0.376068
   7 H :   -0.086695
   8 H :   -0.049493
   9 H :   -0.048876
Sum of atomic charges:   -1.0000000

LOEWDIN ATOMIC CHARGES
----------------------
   0 C :   -0.049014
   1 C :   -0.078567
   2 H :   -0.008303
   3 H :   -0.017896
   4 C :   -0.094107
   5 O :   -0.367367
   6 O :   -0.369224
   7 H :   -0.016134
   8 H :    0.001923
   9 H :   -0.001311

  Mayer bond orders larger than 0.100000
B(  0-C ,  1-C ) :   1.1188 B(  0-C ,  7-H ) :   0.9458 B(  0-C ,  8-H ) :   0.9618
B(  0-C ,  9-H ) :   0.9468 B(  1-C ,  2-H ) :   0.9047 B(  1-C ,  3-H ) :   0.9013
B(  1-C ,  4-C ) :   0.9160 B(  4-C ,  5-O ) :   1.9032 B(  4-C ,  6-O ) :   1.8597
B(  5-O ,  6-O ) :   0.1379

Dispersion correction           -0.013577229
FINAL SINGLE POINT ENERGY      -267.536949118200

DIPOLE MOMENT
-------------
                                X             Y             Z
Electronic contribution:      2.60591      -1.66324       5.41739
Nuclear contribution   :     -3.31311       2.28398      -6.76358
                        -----------------------------------------
Total Dipole Moment    :     -0.70721       0.62075      -1.34619
                        -----------------------------------------
Magnitude (a.u.)       :      1.64246
Magnitude (Debye)      :      4.17481

Rotational constants in cm-1:     0.309287     0.135287     0.107346
Rotational constants in MHz :  9272.201029  4055.789113  3218.155789

                             ****ORCA TERMINATED NORMALLY****
TOTAL RUN TIME: 0 days 0 hours 0 minutes 7 seconds 102 msec
