                         Program Version 5.0.0 -  RELEASE  -
|  1> !BLYP D3BJ RIJCOSX def2-SVP def2/J TightSCF
|  2> *xyz 1 1
|  3> C          3.91385       -1.65829        3.01513
|  4> N          5.03927       -0.90115        2.49282
|  5> C          6.21038       -1.41726        2.17824
|  6> N          6.53591       -2.67712        2.55608
|  7> N          7.07675       -0.70082        1.47891
|  8> H          7.95464       -1.12155        1.20755
|  9> H          6.75616        0.10664        0.96028
| 10> H          4.84217        0.01761        2.11519
| 11> H          5.99388       -3.12692        3.28278
| 12> C          3.13916       -2.37657        1.91061
| 13> H          3.26723       -0.93940        3.52069
| 14> H          4.24720       -2.35509        3.79006
| 15> H          7.49844       -2.97548        2.46878
| 16> H          2.82969       -1.66654        1.17238
| 17> H          2.27790       -2.85264        2.33072
| 18> H          3.76754       -3.11338        1.45548
| 19> *
| 20> %MaxCore 64000
| 21> %pal nprocs 8
| 22> end
| 23> %scf
| 24>   MaxIter 150
| 25> end
| 26>
| 27>
| 28>                          ****END OF INPUT****

CARTESIAN COORDINATES (ANGSTROEM)
---------------------------------
  C      3.913850   -1.658290    3.015130
  N      5.039270   -0.901150    2.492820
  C      6.210380   -1.417260    2.178240
  N      6.535910   -2.677120    2.556080
  N      7.076750   -0.700820    1.478910
  H      7.954640   -1.121550    1.207550
  H      6.756160    0.106640    0.960280
  H      4.842170    0.017610    2.115190
  H      5.993880   -3.126920    3.282780
  C      3.139160   -2.376570    1.910610
  H      3.267230   -0.939400    3.520690
  H      4.247200   -2.355090    3.790060
  H      7.498440   -2.975480    2.468780
  H      2.829690   -1.666540    1.172380
  H      2.277900   -2.852640    2.330720
  H      3.767540   -3.113380    1.455480

 Total Charge           Charge          ....    1
 Multiplicity           Mult            ....    1
 Number of Electrons    NEL             ....   48
 Basis Dimension        Dim             ....  134

ORBITAL ENERGIES
----------------

  NO   OCC          E(Eh)            E(eV)
   0   2.0000     -14.242877      -387.5684
   1   2.0000     -14.241292      -387.5252
   2   2.0000     -14.239515      -387.4769
   3   2.0000     -10.243520      -278.7404
   4   2.0000     -10.127871      -275.5934
   5   2.0000     -10.058521      -273.7063
   6   2.0000      -1.111388       -30.2424
   7   2.0000      -1.010175       -27.4883
   8   2.0000      -0.994319       -27.0568
   9   2.0000      -0.846468       -23.0336
  10   2.0000      -0.767551       -20.8861
  11   2.0000      -0.731693       -19.9104
  12   2.0000      -0.722778       -19.6678
  13   2.0000      -0.680591       -18.5198
  14   2.0000      -0.636236       -17.3128
  15   2.0000      -0.630585       -17.1591
  16   2.0000      -0.598218       -16.2783
  17   2.0000      -0.572176       -15.5697
  18   2.0000      -0.547290       -14.8925
  19   2.0000      -0.509342       -13.8599
  20   2.0000      -0.481427       -13.1003
  21   2.0000      -0.464055       -12.6276
  22   2.0000      -0.426087       -11.5944
  23   2.0000      -0.403482       -10.9793
  24   0.0000      -0.186759        -5.0820
  25   0.0000      -0.163100        -4.4382
  26   0.0000      -0.132367        -3.6019
  27   0.0000      -0.121892        -3.3169
  28   0.0000      -0.104007        -2.8302

MULLIKEN ATOMIC CHARGES
-----------------------
   0 C :    0.053666
   1 N :   -0.004658
   2 C :   -0.114266
   3 N :    0.036424
   4 N :    0.081966
   5 H :    0.149212
   6 H :    0.150842
   7 H :    0.139389
   8 H :    0.142979
   9 C :    0.085282
  10 H :    0.041301
  11 H :    0.025902
  12 H :    0.147011
  13 H :    0.015466
  14 H :    0.041094
  15 H :    0.008389
Sum of atomic charges:    1.0000000

LOEWDIN ATOMIC CHARGES
----------------------
   0 C :    0.045276
   1 N :    0.060193
   2 C :    0.111544
   3 N :    0.053567
   4 N :    0.070797
   5 H :    0.106479
   6 H :    0.106759
   7 H :    0.102620
   8 H :    0.099659
   9 C :   -0.034552
  10 H :    0.045485
  11 H :    0.029339
  12 H :    0.104772
  13 H :    0.029440
  14 H :    0.044693
  15 H :    0.023931

  Mayer bond orders larger than 0.100000
B(  0-C ,  1-N ) :   0.9725 B(  0-C ,  9-C ) :   1.1207 B(  0-C , 10-H ) :   0.9353
B(  0-C , 11-H ) :   0.9373 B(  1-N ,  2-C ) :   1.3935 B(  1-N ,  7-H ) :   0.9076
B(  2-C ,  3-N ) :   1.3737 B(  2-C ,  4-N ) :   1.4019 B(  3-N ,  8-H ) :   0.9251
B(  3-N , 12-H ) :   0.9264 B(  4-N ,  5-H ) :   0.9263 B(  4-N ,  6-H ) :   0.9257
B(  9-C , 13-H ) :   0.9628 B(  9-C , 14-H ) :   0.9549 B(  9-C , 15-H ) :   0.9611

Dispersion correction           -0.025087524
FINAL SINGLE POINT ENERGY      -284.079986443808

DIPOLE MOMENT
-------------
                                X             Y             Z
Electronic contribution:      4.78897       1.92558       0.06020
Nuclear contribution   :     -3.67981      -1.62355      -0.28562
                        -----------------------------------------
Total Dipole Moment    :      1.10916       0.30203      -0.22542
                        -----------------------------------------
Magnitude (a.u.)       :      1.17144
Magnitude (Debye)      :      2.97757

Rotational constants in cm-1:     0.222027     0.074735     0.065694
Rotational constants in MHz :  6656.200457  2240.503315  1969.451902

                             ****ORCA TERMINATED NORMALLY****
TOTAL RUN TIME: 0 days 0 hours 0 minutes 8 seconds 97 msec
