                         Program Version 5.0.0 -  RELEASE  -
|  1> !BLYP D3BJ RIJCOSX def2-SVP def2/J TightSCF
|  2> *xyz 0 1
|  3> C          4.08422        1.74208       -2.11472
|  4> C          4.26524        2.50052       -0.79589
|  5> H          4.86853        3.39267       -0.98113
|  6> H          3.30764        2.82457       -0.38781
|  7> C          4.98224        1.65026        0.24742
|  8> F          4.36806        1.38927        1.31371
|  9> O          6.12892        1.23351       -0.04562
| 10> H          3.57911        2.36849       -2.81997
| 11> H          3.50424        0.85965       -1.94198
| 12> H          5.04288        1.46841       -2.50327
| 13> *
| 14> %MaxCore 64000
| 15> %pal nprocs 8
| 16> end
| 17> %scf
| 18>   MaxIter 150
| 19> end
| 20>
| 21>
| 22>                          ****END OF INPUT****

CARTESIAN COORDINATES (ANGSTROEM)
---------------------------------
  C      4.084220    1.742080   -2.114720
  C      4.265240    2.500520   -0.795890
  H      4.868530    3.392670   -0.981130
  H      3.307640    2.824570   -0.387810
  C      4.982240    1.650260    0.247420
  F      4.368060    1.389270    1.313710
  O      6.128920    1.233510   -0.045620
  H      3.579110    2.368490   -2.819970
  H      3.504240    0.859650   -1.941980
  H      5.042880    1.468410   -2.503270

 Total Charge           Charge          ....    0
 Multiplicity           Mult            ....    1
 Number of Electrons    NEL             ....   40
 Basis Dimension        Dim             ....   95

ORBITAL ENERGIES
----------------

  NO   OCC          E(Eh)            E(eV)
   0   2.0000     -24.351740      -662.6445
   1   2.0000     -18.777673      -510.9665
   2   2.0000     -10.078919      -274.2613
   3   2.0000      -9.946247      -270.6511
   4   2.0000      -9.926001      -270.1002
   5   2.0000      -1.177425       -32.0394
   6   2.0000      -0.915368       -24.9084
   7   2.0000      -0.708224       -19.2718
   8   2.0000      -0.602373       -16.3914
   9   2.0000      -0.556075       -15.1316
  10   2.0000      -0.472684       -12.8624
  11   2.0000      -0.457588       -12.4516
  12   2.0000      -0.431077       -11.7302
  13   2.0000      -0.403362       -10.9760
  14   2.0000      -0.370176       -10.0730
  15   2.0000      -0.343790        -9.3550
  16   2.0000      -0.323529        -8.8037
  17   2.0000      -0.317006        -8.6262
  18   2.0000      -0.290875        -7.9151
  19   2.0000      -0.227047        -6.1783
  20   0.0000      -0.050994        -1.3876
  21   0.0000       0.040182         1.0934
  22   0.0000       0.081523         2.2184
  23   0.0000       0.084733         2.3057
  24   0.0000       0.102730         2.7954

MULLIKEN ATOMIC CHARGES
-----------------------
   0 C :    0.079436
   1 C :    0.032422
   2 H :    0.022269
   3 H :   -0.016549
   4 C :    0.119021
   5 F :   -0.029991
   6 O :   -0.208869
   7 H :   -0.005269
   8 H :   -0.006204
   9 H :    0.013735
Sum of atomic charges:    0.0000000

LOEWDIN ATOMIC CHARGES
----------------------
   0 C :   -0.024096
   1 C :   -0.058709
   2 H :    0.043732
   3 H :    0.018955
   4 C :    0.062496
   5 F :    0.062614
   6 O :   -0.172611
   7 H :    0.022203
   8 H :    0.020102
   9 H :    0.025314

  Mayer bond orders larger than 0.100000
B(  0-C ,  1-C ) :   1.1180 B(  0-C ,  7-H ) :   0.9589 B(  0-C ,  8-H ) :   0.9707
B(  0-C ,  9-H ) :   0.9646 B(  1-C ,  2-H ) :   0.9183 B(  1-C ,  3-H ) :   0.9201
B(  1-C ,  4-C ) :   1.0057 B(  4-C ,  5-F ) :   1.2452 B(  4-C ,  6-O ) :   2.0941

Dispersion correction           -0.012878436
FINAL SINGLE POINT ENERGY      -292.101163967407

DIPOLE MOMENT
-------------
                                X             Y             Z
Electronic contribution:      2.03139      -2.12623       8.22771
Nuclear contribution   :     -2.87511       2.61564      -8.50037
                        -----------------------------------------
Total Dipole Moment    :     -0.84372       0.48941      -0.27266
                        -----------------------------------------
Magnitude (a.u.)       :      1.01278
Magnitude (Debye)      :      2.57429

Rotational constants in cm-1:     0.297822     0.128965     0.102219
Rotational constants in MHz :  8928.481997  3866.271686  3064.463504

                             ****ORCA TERMINATED NORMALLY****
TOTAL RUN TIME: 0 days 0 hours 0 minutes 6 seconds 718 msec
