                         Program Version 5.0.0 -  RELEASE  -
|  1> !BLYP D3BJ RIJCOSX def2-SVP def2/J TightSCF
|  2> *xyz 0 1
|  3> C          3.91385       -1.65829        3.01513
|  4> C          5.03927       -0.90115        2.49282
|  5> C          6.21038       -1.41726        2.17824
|  6> N          6.53591       -2.67712        2.55608
|  7> N          7.07675       -0.70082        1.47891
|  8> H          7.95464       -1.12155        1.20755
|  9> H          6.75616        0.10664        0.96028
| 10> H          4.84217        0.01761        2.11519
| 11> H          5.99388       -3.12692        3.28278
| 12> C          3.13916       -2.37657        1.91061
| 13> H          3.26723       -0.93940        3.52069
| 14> H          4.24720       -2.35509        3.79006
| 15> H          7.49844       -2.97548        2.46878
| 16> H          2.82969       -1.66654        1.17238
| 17> H          2.27790       -2.85264        2.33072
| 18> H          3.76754       -3.11338        1.45548
| 19> *
| 20> %MaxCore 64000
| 21> %pal nprocs 8
| 22> end
| 23> %scf
| 24>   MaxIter 150
| 25> end
| 26>
| 27>
| 28>                          ****END OF INPUT****

CARTESIAN COORDINATES (ANGSTROEM)
---------------------------------
  C      3.913850   -1.658290    3.015130
  C      5.039270   -0.901150    2.492820
  C      6.210380   -1.417260    2.178240
  N      6.535910   -2.677120    2.556080
  N      7.076750   -0.700820    1.478910
  H      7.954640   -1.121550    1.207550
  H      6.756160    0.106640    0.960280
  H      4.842170    0.017610    2.115190
  H      5.993880   -3.126920    3.282780
  C      3.139160   -2.376570    1.910610
  H      3.267230   -0.939400    3.520690
  H      4.247200   -2.355090    3.790060
  H      7.498440   -2.975480    2.468780
  H      2.829690   -1.666540    1.172380
  H      2.277900   -2.852640    2.330720
  H      3.767540   -3.113380    1.455480

 Total Charge           Charge          ....    0
 Multiplicity           Mult            ....    1
 Number of Electrons    NEL             ....   48
 Basis Dimension        Dim             ....  134

ORBITAL ENERGIES
----------------

  NO   OCC          E(Eh)            E(eV)
   0   2.0000     -14.012473      -381.2988
   1   2.0000     -14.011499      -381.2723
   2   2.0000      -9.948575      -270.7145
   3   2.0000      -9.889639      -269.1108
   4   2.0000      -9.881855      -268.8989
   5   2.0000      -9.831906      -267.5398
   6   2.0000      -0.849819       -23.1247
   7   2.0000      -0.767072       -20.8731
   8   2.0000      -0.676589       -18.4109
   9   2.0000      -0.603600       -16.4248
  10   2.0000      -0.536482       -14.5984
  11   2.0000      -0.503315       -13.6959
  12   2.0000      -0.472364       -12.8537
  13   2.0000      -0.441809       -12.0222
  14   2.0000      -0.411802       -11.2057
  15   2.0000      -0.376144       -10.2354
  16   2.0000      -0.356071        -9.6892
  17   2.0000      -0.325695        -8.8626
  18   2.0000      -0.320655        -8.7255
  19   2.0000      -0.296972        -8.0810
  20   2.0000      -0.272960        -7.4276
  21   2.0000      -0.265954        -7.2370
  22   2.0000      -0.204514        -5.5651
  23   2.0000      -0.110244        -2.9999
  24   0.0000       0.020199         0.5496
  25   0.0000       0.052178         1.4198
  26   0.0000       0.060556         1.6478
  27   0.0000       0.082251         2.2382
  28   0.0000       0.083836         2.2813

MULLIKEN ATOMIC CHARGES
-----------------------
   0 C :    0.131586
   1 C :   -0.116659
   2 C :   -0.160500
   3 N :    0.008029
   4 N :    0.044419
   5 H :    0.071590
   6 H :    0.095837
   7 H :   -0.149037
   8 H :    0.089910
   9 C :    0.136525
  10 H :   -0.052589
  11 H :   -0.063918
  12 H :    0.074465
  13 H :   -0.037004
  14 H :   -0.041057
  15 H :   -0.031595
Sum of atomic charges:   -0.0000000

LOEWDIN ATOMIC CHARGES
----------------------
   0 C :   -0.027042
   1 C :   -0.203800
   2 C :    0.005074
   3 N :   -0.016201
   4 N :   -0.000433
   5 H :    0.057499
   6 H :    0.076495
   7 H :   -0.016628
   8 H :    0.070308
   9 C :   -0.042007
  10 H :    0.015643
  11 H :    0.000372
  12 H :    0.057394
  13 H :    0.010705
  14 H :    0.003646
  15 H :    0.008974

  Mayer bond orders larger than 0.100000
B(  0-C ,  1-C ) :   1.0954 B(  0-C ,  9-C ) :   1.1129 B(  0-C , 10-H ) :   0.8908
B(  0-C , 11-H ) :   0.9068 B(  1-C ,  2-C ) :   1.6866 B(  1-C ,  7-H ) :   0.9129
B(  2-C ,  3-N ) :   1.2571 B(  2-C ,  4-N ) :   1.2522 B(  3-N ,  8-H ) :   0.9381
B(  3-N , 12-H ) :   0.9431 B(  4-N ,  5-H ) :   0.9449 B(  4-N ,  6-H ) :   0.9374
B(  9-C , 13-H ) :   0.9552 B(  9-C , 14-H ) :   0.9472 B(  9-C , 15-H ) :   0.9630

Dispersion correction           -0.026214337
FINAL SINGLE POINT ENERGY      -267.592313840613

DIPOLE MOMENT
-------------
                                X             Y             Z
Electronic contribution:      4.83002       1.20122      -0.06850
Nuclear contribution   :     -3.74303      -1.46908      -0.23637
                        -----------------------------------------
Total Dipole Moment    :      1.08699      -0.26786      -0.30487
                        -----------------------------------------
Magnitude (a.u.)       :      1.16027
Magnitude (Debye)      :      2.94918

Rotational constants in cm-1:     0.225937     0.074877     0.065953
Rotational constants in MHz :  6773.424301  2244.750632  1977.214101

                             ****ORCA TERMINATED NORMALLY****
TOTAL RUN TIME: 0 days 0 hours 0 minutes 8 seconds 444 msec
