                         Program Version 5.0.0 -  RELEASE  -
|  1> !BLYP D3BJ RIJCOSX def2-SVP def2/J TightSCF
|  2> *xyz 0 1
|  3> C          4.08422        1.74208       -2.11472
|  4> C          4.26524        2.50052       -0.79589
|  5> H          4.86853        3.39267       -0.98113
|  6> H          3.30764        2.82457       -0.38781
|  7> C          4.98224        1.65026        0.24742
|  8> O          4.36806        1.38927        1.31371
|  9> F          6.12892        1.23351       -0.04562
| 10> H          3.57911        2.36849       -2.81997
| 11> H          3.50424        0.85965       -1.94198
| 12> H          5.04288        1.46841       -2.50327
| 13> *
| 14> %MaxCore 64000
| 15> %pal nprocs 8
| 16> end
| 17> %scf
| 18>   MaxIter 150
| 19> end
| 20>
| 21>
| 22>                          ****END OF INPUT****

CARTESIAN COORDINATES (ANGSTROEM)
---------------------------------
  C      4.084220    1.742080   -2.114720
  C      4.265240    2.500520   -0.795890
  H      4.868530    3.392670   -0.981130
  H      3.307640    2.824570   -0.387810
  C      4.982240    1.650260    0.247420
  O      4.368060    1.389270    1.313710
  F      6.128920    1.233510   -0.045620
  H      3.579110    2.368490   -2.819970
  H      3.504240    0.859650   -1.941980
  H      5.042880    1.468410   -2.503270

 Total Charge           Charge          ....    0
 Multiplicity           Mult            ....    1
 Number of Electrons    NEL             ....   40
 Basis Dimension        Dim             ....   95

ORBITAL ENERGIES
----------------

  NO   OCC          E(Eh)            E(eV)
   0   2.0000     -24.353571      -662.6944
   1   2.0000     -18.776144      -510.9249
   2   2.0000     -10.078169      -274.2409
   3   2.0000      -9.945558      -270.6324
   4   2.0000      -9.930378      -270.2193
   5   2.0000      -1.180447       -32.1216
   6   2.0000      -0.911590       -24.8056
   7   2.0000      -0.712004       -19.3746
   8   2.0000      -0.600309       -16.3352
   9   2.0000      -0.560912       -15.2632
  10   2.0000      -0.475669       -12.9436
  11   2.0000      -0.462226       -12.5778
  12   2.0000      -0.427259       -11.6263
  13   2.0000      -0.401751       -10.9322
  14   2.0000      -0.373239       -10.1563
  15   2.0000      -0.345783        -9.4092
  16   2.0000      -0.326249        -8.8777
  17   2.0000      -0.320124        -8.7110
  18   2.0000      -0.293437        -7.9848
  19   2.0000      -0.221715        -6.0332
  20   0.0000      -0.047762        -1.2997
  21   0.0000       0.035924         0.9775
  22   0.0000       0.078926         2.1477
  23   0.0000       0.086319         2.3489
  24   0.0000       0.106373         2.8946

MULLIKEN ATOMIC CHARGES
-----------------------
   0 C :    0.058599
   1 C :    0.041460
   2 H :    0.005108
   3 H :    0.009972
   4 C :    0.115141
   5 O :   -0.202943
   6 F :   -0.032686
   7 H :    0.000351
   8 H :    0.005335
   9 H :   -0.000337
Sum of atomic charges:   -0.0000000

LOEWDIN ATOMIC CHARGES
----------------------
   0 C :   -0.032232
   1 C :   -0.055387
   2 H :    0.032852
   3 H :    0.035819
   4 C :    0.060810
   5 O :   -0.171756
   6 F :    0.063900
   7 H :    0.024593
   8 H :    0.022561
   9 H :    0.018840

  Mayer bond orders larger than 0.100000
B(  0-C ,  1-C ) :   1.1011 B(  0-C ,  7-H ) :   0.9589 B(  0-C ,  8-H ) :   0.9717
B(  0-C ,  9-H ) :   0.9672 B(  1-C ,  2-H ) :   0.9122 B(  1-C ,  3-H ) :   0.9354
B(  1-C ,  4-C ) :   1.0160 B(  4-C ,  5-O ) :   2.1145 B(  4-C ,  6-F ) :   1.2323

Dispersion correction           -0.012793854
FINAL SINGLE POINT ENERGY      -292.100104012145

DIPOLE MOMENT
-------------
                                X             Y             Z
Electronic contribution:      4.88570      -2.37695       6.00011
Nuclear contribution   :     -4.79499       2.78546      -7.01827
                        -----------------------------------------
Total Dipole Moment    :      0.09071       0.40851      -1.01816
                        -----------------------------------------
Magnitude (a.u.)       :      1.10080
Magnitude (Debye)      :      2.79802

Rotational constants in cm-1:     0.286098     0.133492     0.103343
Rotational constants in MHz :  8577.003657  4001.981591  3098.148068

                             ****ORCA TERMINATED NORMALLY****
TOTAL RUN TIME: 0 days 0 hours 0 minutes 7 seconds 519 msec
