                         Program Version 5.0.0 -  RELEASE  -
|  1> !BLYP D3BJ RIJCOSX def2-SVP def2/J TightSCF
|  2> *xyz 0 1
|  3> C          3.91385       -1.65829        3.01513
|  4> N          5.03927       -0.90115        2.49282
|  5> C          6.21038       -1.41726        2.17824
|  6> C          6.53591       -2.67712        2.55608
|  7> N          7.07675       -0.70082        1.47891
|  8> H          7.95464       -1.12155        1.20755
|  9> H          6.75616        0.10664        0.96028
| 10> H          4.84217        0.01761        2.11519
| 11> H          5.99388       -3.12692        3.28278
| 12> C          3.13916       -2.37657        1.91061
| 13> H          3.26723       -0.93940        3.52069
| 14> H          4.24720       -2.35509        3.79006
| 15> H          7.49844       -2.97548        2.46878
| 16> H          2.82969       -1.66654        1.17238
| 17> H          2.27790       -2.85264        2.33072
| 18> H          3.76754       -3.11338        1.45548
| 19> *
| 20> %MaxCore 64000
| 21> %pal nprocs 8
| 22> end
| 23> %scf
| 24>   MaxIter 150
| 25> end
| 26>
| 27>
| 28>                          ****END OF INPUT****

CARTESIAN COORDINATES (ANGSTROEM)
---------------------------------
  C      3.913850   -1.658290    3.015130
  N      5.039270   -0.901150    2.492820
  C      6.210380   -1.417260    2.178240
  C      6.535910   -2.677120    2.556080
  N      7.076750   -0.700820    1.478910
  H      7.954640   -1.121550    1.207550
  H      6.756160    0.106640    0.960280
  H      4.842170    0.017610    2.115190
  H      5.993880   -3.126920    3.282780
  C      3.139160   -2.376570    1.910610
  H      3.267230   -0.939400    3.520690
  H      4.247200   -2.355090    3.790060
  H      7.498440   -2.975480    2.468780
  H      2.829690   -1.666540    1.172380
  H      2.277900   -2.852640    2.330720
  H      3.767540   -3.113380    1.455480

 Total Charge           Charge          ....    0
 Multiplicity           Mult            ....    1
 Number of Electrons    NEL             ....   48
 Basis Dimension        Dim             ....  134

ORBITAL ENERGIES
----------------

  NO   OCC          E(Eh)            E(eV)
   0   2.0000     -14.015571      -381.3831
   1   2.0000     -14.014848      -381.3634
   2   2.0000      -9.953864      -270.8584
   3   2.0000      -9.948935      -270.7243
   4   2.0000      -9.901681      -269.4384
   5   2.0000      -9.825411      -267.3630
   6   2.0000      -0.863917       -23.5084
   7   2.0000      -0.786719       -21.4077
   8   2.0000      -0.664039       -18.0694
   9   2.0000      -0.613955       -16.7066
  10   2.0000      -0.562587       -15.3088
  11   2.0000      -0.492315       -13.3966
  12   2.0000      -0.483596       -13.1593
  13   2.0000      -0.454111       -12.3570
  14   2.0000      -0.406684       -11.0664
  15   2.0000      -0.380681       -10.3589
  16   2.0000      -0.357636        -9.7318
  17   2.0000      -0.338734        -9.2174
  18   2.0000      -0.323036        -8.7902
  19   2.0000      -0.308918        -8.4061
  20   2.0000      -0.303708        -8.2643
  21   2.0000      -0.293186        -7.9780
  22   2.0000      -0.194942        -5.3046
  23   2.0000      -0.113555        -3.0900
  24   0.0000       0.019655         0.5349
  25   0.0000       0.050803         1.3824
  26   0.0000       0.063988         1.7412
  27   0.0000       0.073866         2.0100
  28   0.0000       0.090036         2.4500

MULLIKEN ATOMIC CHARGES
-----------------------
   0 C :    0.120719
   1 N :   -0.040191
   2 C :   -0.149649
   3 C :   -0.021475
   4 N :    0.031160
   5 H :    0.097650
   6 H :    0.071921
   7 H :    0.068862
   8 H :   -0.090744
   9 C :    0.099865
  10 H :   -0.030816
  11 H :    0.001458
  12 H :   -0.105379
  13 H :   -0.032041
  14 H :   -0.021806
  15 H :    0.000467
Sum of atomic charges:    0.0000000

LOEWDIN ATOMIC CHARGES
----------------------
   0 C :    0.047400
   1 N :    0.000731
   2 C :    0.013651
   3 C :   -0.259157
   4 N :    0.002621
   5 H :    0.078665
   6 H :    0.055865
   7 H :    0.058638
   8 H :   -0.015953
   9 C :   -0.049380
  10 H :    0.013205
  11 H :    0.023441
  12 H :   -0.018018
  13 H :    0.009642
  14 H :    0.016256
  15 H :    0.022393

  Mayer bond orders larger than 0.100000
B(  0-C ,  1-N ) :   1.0408 B(  0-C ,  9-C ) :   1.1298 B(  0-C , 10-H ) :   0.9389
B(  0-C , 11-H ) :   0.9283 B(  1-N ,  2-C ) :   1.2209 B(  1-N ,  7-H ) :   0.9283
B(  2-C ,  3-C ) :   1.7154 B(  2-C ,  4-N ) :   1.2641 B(  3-C ,  8-H ) :   0.9165
B(  3-C , 12-H ) :   0.9148 B(  4-N ,  5-H ) :   0.9402 B(  4-N ,  6-H ) :   0.9441
B(  9-C , 13-H ) :   0.9580 B(  9-C , 14-H ) :   0.9509 B(  9-C , 15-H ) :   0.9576

Dispersion correction           -0.026098825
FINAL SINGLE POINT ENERGY      -267.585573473209

DIPOLE MOMENT
-------------
                                X             Y             Z
Electronic contribution:      3.14784       2.91279      -0.25812
Nuclear contribution   :     -3.42552      -1.84584      -0.22295
                        -----------------------------------------
Total Dipole Moment    :     -0.27768       1.06695      -0.48107
                        -----------------------------------------
Magnitude (a.u.)       :      1.20288
Magnitude (Debye)      :      3.05748

Rotational constants in cm-1:     0.233526     0.075277     0.067092
Rotational constants in MHz :  7000.931279  2256.752901  2011.361214

                             ****ORCA TERMINATED NORMALLY****
TOTAL RUN TIME: 0 days 0 hours 0 minutes 8 seconds 754 msec
