                         Program Version 5.0.0 -  RELEASE  -
|  1> !BLYP D3BJ RIJCOSX def2-SVP def2/J TightSCF
|  2> *xyz 0 1
|  3> C          3.91385       -1.65829        3.01513
|  4> N          5.03927       -0.90115        2.49282
|  5> C          6.21038       -1.41726        2.17824
|  6> N          6.53591       -2.67712        2.55608
|  7> C          7.07675       -0.70082        1.47891
|  8> H          7.95464       -1.12155        1.20755
|  9> H          6.75616        0.10664        0.96028
| 10> H          4.84217        0.01761        2.11519
| 11> H          5.99388       -3.12692        3.28278
| 12> C          3.13916       -2.37657        1.91061
| 13> H          3.26723       -0.93940        3.52069
| 14> H          4.24720       -2.35509        3.79006
| 15> H          7.49844       -2.97548        2.46878
| 16> H          2.82969       -1.66654        1.17238
| 17> H          2.27790       -2.85264        2.33072
| 18> H          3.76754       -3.11338        1.45548
| 19> *
| 20> %MaxCore 64000
| 21> %pal nprocs 8
| 22> end
| 23> %scf
| 24>   MaxIter 150
| 25> end
| 26>
| 27>
| 28>                          ****END OF INPUT****

CARTESIAN COORDINATES (ANGSTROEM)
---------------------------------
  C      3.913850   -1.658290    3.015130
  N      5.039270   -0.901150    2.492820
  C      6.210380   -1.417260    2.178240
  N      6.535910   -2.677120    2.556080
  C      7.076750   -0.700820    1.478910
  H      7.954640   -1.121550    1.207550
  H      6.756160    0.106640    0.960280
  H      4.842170    0.017610    2.115190
  H      5.993880   -3.126920    3.282780
  C      3.139160   -2.376570    1.910610
  H      3.267230   -0.939400    3.520690
  H      4.247200   -2.355090    3.790060
  H      7.498440   -2.975480    2.468780
  H      2.829690   -1.666540    1.172380
  H      2.277900   -2.852640    2.330720
  H      3.767540   -3.113380    1.455480

 Total Charge           Charge          ....    0
 Multiplicity           Mult            ....    1
 Number of Electrons    NEL             ....   48
 Basis Dimension        Dim             ....  134

ORBITAL ENERGIES
----------------

  NO   OCC          E(Eh)            E(eV)
   0   2.0000     -14.012645      -381.3034
   1   2.0000     -14.012356      -381.2956
   2   2.0000      -9.958337      -270.9801
   3   2.0000      -9.951355      -270.7901
   4   2.0000      -9.910086      -269.6671
   5   2.0000      -9.826238      -267.3855
   6   2.0000      -0.859823       -23.3970
   7   2.0000      -0.780130       -21.2284
   8   2.0000      -0.680547       -18.5186
   9   2.0000      -0.612389       -16.6640
  10   2.0000      -0.550761       -14.9870
  11   2.0000      -0.527689       -14.3591
  12   2.0000      -0.468440       -12.7469
  13   2.0000      -0.433789       -11.8040
  14   2.0000      -0.418067       -11.3762
  15   2.0000      -0.383086       -10.4243
  16   2.0000      -0.370531       -10.0827
  17   2.0000      -0.346322        -9.4239
  18   2.0000      -0.324112        -8.8195
  19   2.0000      -0.316316        -8.6074
  20   2.0000      -0.307461        -8.3664
  21   2.0000      -0.299261        -8.1433
  22   2.0000      -0.197136        -5.3644
  23   2.0000      -0.114558        -3.1173
  24   0.0000       0.021099         0.5741
  25   0.0000       0.045005         1.2246
  26   0.0000       0.060140         1.6365
  27   0.0000       0.076035         2.0690
  28   0.0000       0.083838         2.2813

MULLIKEN ATOMIC CHARGES
-----------------------
   0 C :    0.091170
   1 N :   -0.025099
   2 C :   -0.125922
   3 N :   -0.006884
   4 C :   -0.005212
   5 H :   -0.103197
   6 H :   -0.098178
   7 H :    0.090531
   8 H :    0.071967
   9 C :    0.108728
  10 H :   -0.022892
  11 H :   -0.021697
  12 H :    0.096471
  13 H :   -0.017852
  14 H :   -0.023305
  15 H :   -0.008629
Sum of atomic charges:   -0.0000000

LOEWDIN ATOMIC CHARGES
----------------------
   0 C :    0.033925
   1 N :    0.000761
   2 C :    0.018124
   3 N :   -0.013694
   4 C :   -0.240551
   5 H :   -0.016285
   6 H :   -0.016050
   7 H :    0.078715
   8 H :    0.053920
   9 C :   -0.051780
  10 H :    0.017088
  11 H :    0.010346
  12 H :    0.077112
  13 H :    0.015882
  14 H :    0.014853
  15 H :    0.017635

  Mayer bond orders larger than 0.100000
B(  0-C ,  1-N ) :   1.0569 B(  0-C ,  9-C ) :   1.1069 B(  0-C , 10-H ) :   0.9371
B(  0-C , 11-H ) :   0.9334 B(  1-N ,  2-C ) :   1.2326 B(  1-N ,  7-H ) :   0.9206
B(  2-C ,  3-N ) :   1.2300 B(  2-C ,  4-C ) :   1.7446 B(  3-N ,  8-H ) :   0.9459
B(  3-N , 12-H ) :   0.9406 B(  4-C ,  5-H ) :   0.9105 B(  4-C ,  6-H ) :   0.9151
B(  9-C , 13-H ) :   0.9599 B(  9-C , 14-H ) :   0.9476 B(  9-C , 15-H ) :   0.9586

Dispersion correction           -0.025919437
FINAL SINGLE POINT ENERGY      -267.586271999312

DIPOLE MOMENT
-------------
                                X             Y             Z
Electronic contribution:      2.60025       0.90666       1.00802
Nuclear contribution   :     -3.31079      -1.42658      -0.45147
                        -----------------------------------------
Total Dipole Moment    :     -0.71054      -0.51992       0.55655
                        -----------------------------------------
Magnitude (a.u.)       :      1.04160
Magnitude (Debye)      :      2.64754

Rotational constants in cm-1:     0.225507     0.077571     0.068070
Rotational constants in MHz :  6760.542142  2325.533779  2040.680522

                             ****ORCA TERMINATED NORMALLY****
TOTAL RUN TIME: 0 days 0 hours 0 minutes 9 seconds 152 msec
