                         Program Version 5.0.0 -  RELEASE  -
|  1> !BLYP D3BJ RIJCOSX def2-TZVP def2/J TightSCF xyzfile
|  2>
|  3> *xyzfile 0 1 D3.xyz
|  4>
|  5> %MaxCore 64000
|  6>
|  7> %pal nprocs 18
|  8> end
|  9>
| 10> %scf
| 11>   MaxIter 150
| 12> end
| 13>
| 14>
| 15>                          ****END OF INPUT****

CARTESIAN COORDINATES (ANGSTROEM)
---------------------------------
  C      3.913853   -1.658291    3.015134
  N      5.039266   -0.901154    2.492821
  C      4.084215    1.742081   -2.114724
  C      4.265245    2.500518   -0.795890
  H      4.868534    3.392674   -0.981134
  H      3.307640    2.824571   -0.387809
  C      4.982240    1.650257    0.247422
  C      6.210384   -1.417261    2.178244
  N      6.535913   -2.677122    2.556078
  C      7.076754   -0.700820    1.478906
  H      7.954643   -1.121554    1.207554
  H      6.756161    0.106637    0.960278
  H      4.842168    0.017609    2.115191
  H      5.993876   -3.126918    3.282784
  H      7.498441   -2.975482    2.468776
  F      4.368065    1.389270    1.313706
  O      6.128919    1.233512   -0.045620
  C      3.139159   -2.376572    1.910609
  H      3.267235   -0.939401    3.520693
  H      4.247195   -2.355095    3.790065
  C      1.997274    0.430918   -1.399218
  C      3.412746    0.376886   -1.965497
  H      4.047407   -0.246590   -1.326706
  H      3.390774   -0.118719   -2.942839
  H      5.068475    1.598504   -2.565728
  H      3.503356    2.363939   -2.804565
  C      2.399946   -1.389579    1.009490
  H      2.440750   -3.087118    2.362976
  H      3.844475   -2.970462    1.318677
  C      2.070177   -1.936705   -0.372401
  H      1.481611   -1.061542    1.509912
  H      3.008628   -0.490001    0.897451
  C      1.322238   -0.935775   -1.256413
  H      1.472747   -2.850902   -0.283997
  H      3.003539   -2.234041   -0.862535
  H      1.376444    1.058920   -2.047420
  H      2.015341    0.929780   -0.426535
  H      0.316648   -0.787213   -0.848278
  H      1.185611   -1.379252   -2.248613

 Total Charge           Charge          ....    0
 Multiplicity           Mult            ....    1
 Number of Electrons    NEL             ....  126
 Basis Dimension        Dim             ....  634

ORBITAL ENERGIES
----------------

  NO   OCC          E(Eh)            E(eV)
   0   2.0000     -24.370734      -663.1614
   1   2.0000     -18.779610      -511.0192
   2   2.0000     -13.986494      -380.5919
   3   2.0000     -13.983236      -380.5032
   4   2.0000     -10.079198      -274.2689
   5   2.0000      -9.934949      -270.3437
   6   2.0000      -9.930940      -270.2346
   7   2.0000      -9.921298      -269.9722
   8   2.0000      -9.917627      -269.8723
   9   2.0000      -9.905583      -269.5446
  10   2.0000      -9.903670      -269.4926
  11   2.0000      -9.900663      -269.4107
  12   2.0000      -9.897389      -269.3217
  13   2.0000      -9.897191      -269.3163
  14   2.0000      -9.894219      -269.2354
  15   2.0000      -9.780821      -266.1497
  16   2.0000      -1.229242       -33.4494
  17   2.0000      -0.949428       -25.8352
  18   2.0000      -0.860150       -23.4059
  19   2.0000      -0.782806       -21.3012
  20   2.0000      -0.748641       -20.3716
  21   2.0000      -0.725415       -19.7396
  22   2.0000      -0.698418       -19.0049
  23   2.0000      -0.663796       -18.0628
  24   2.0000      -0.639896       -17.4125
  25   2.0000      -0.617063       -16.7911
  26   2.0000      -0.594458       -16.1760
  27   2.0000      -0.574184       -15.6243
  28   2.0000      -0.541774       -14.7424
  29   2.0000      -0.534683       -14.5495
  30   2.0000      -0.517992       -14.0953
  31   2.0000      -0.503306       -13.6957
  32   2.0000      -0.497436       -13.5359
  33   2.0000      -0.479396       -13.0450
  34   2.0000      -0.468507       -12.7487
  35   2.0000      -0.451004       -12.2725
  36   2.0000      -0.433691       -11.8013
  37   2.0000      -0.426106       -11.5949
  38   2.0000      -0.418765       -11.3952
  39   2.0000      -0.406870       -11.0715
  40   2.0000      -0.405604       -11.0370
  41   2.0000      -0.389777       -10.6064
  42   2.0000      -0.378895       -10.3103
  43   2.0000      -0.376671       -10.2497
  44   2.0000      -0.364809        -9.9270
  45   2.0000      -0.351685        -9.5698
  46   2.0000      -0.345602        -9.4043
  47   2.0000      -0.340118        -9.2551
  48   2.0000      -0.325448        -8.8559
  49   2.0000      -0.320690        -8.7264
  50   2.0000      -0.316698        -8.6178
  51   2.0000      -0.316573        -8.6144
  52   2.0000      -0.307862        -8.3774
  53   2.0000      -0.301503        -8.2043
  54   2.0000      -0.296369        -8.0646
  55   2.0000      -0.292499        -7.9593
  56   2.0000      -0.286195        -7.7878
  57   2.0000      -0.276160        -7.5147
  58   2.0000      -0.273720        -7.4483
  59   2.0000      -0.270409        -7.3582
  60   2.0000      -0.219609        -5.9759
  61   2.0000      -0.193984        -5.2786
  62   2.0000      -0.106815        -2.9066
  63   0.0000      -0.072726        -1.9790
  64   0.0000       0.006671         0.1815
  65   0.0000       0.014357         0.3907
  66   0.0000       0.022121         0.6020
  67   0.0000       0.026526         0.7218

MULLIKEN ATOMIC CHARGES
-----------------------
   0 C :   -0.144644
   1 N :   -0.265917
   2 C :   -0.106619
   3 C :   -0.180444
   4 H :    0.116854
   5 H :    0.101065
   6 C :    0.341637
   7 C :    0.337976
   8 N :   -0.435528
   9 C :   -0.514383
  10 H :    0.038570
  11 H :    0.121371
  12 H :    0.212719
  13 H :    0.185791
  14 H :    0.209927
  15 F :   -0.123342
  16 O :   -0.279949
  17 C :   -0.023884
  18 H :    0.085886
  19 H :    0.083722
  20 C :   -0.180456
  21 C :   -0.229260
  22 H :    0.130853
  23 H :    0.074743
  24 H :    0.098871
  25 H :    0.080766
  26 C :   -0.242736
  27 H :    0.059554
  28 H :    0.083815
  29 C :   -0.146689
  30 H :    0.066469
  31 H :    0.070276
  32 C :   -0.107865
  33 H :    0.074634
  34 H :    0.094994
  35 H :    0.073236
  36 H :    0.089570
  37 H :    0.073106
  38 H :    0.075314
Sum of atomic charges:    0.0000000

LOEWDIN ATOMIC CHARGES
----------------------
   0 C :   -0.291736
   1 N :    0.130431
   2 C :   -0.247139
   3 C :   -0.229081
   4 H :    0.155334
   5 H :    0.136038
   6 C :   -0.517360
   7 C :   -0.468983
   8 N :   -0.019333
   9 C :   -0.334879
  10 H :    0.089162
  11 H :    0.084541
  12 H :    0.170057
  13 H :    0.149021
  14 H :    0.168496
  15 F :    0.342500
  16 O :    0.130919
  17 C :   -0.261598
  18 H :    0.129977
  19 H :    0.121798
  20 C :   -0.265364
  21 C :   -0.260250
  22 H :    0.140775
  23 H :    0.137110
  24 H :    0.143082
  25 H :    0.136423
  26 C :   -0.267552
  27 H :    0.127792
  28 H :    0.138741
  29 C :   -0.263688
  30 H :    0.131321
  31 H :    0.128179
  32 C :   -0.259752
  33 H :    0.133058
  34 H :    0.134447
  35 H :    0.133069
  36 H :    0.128838
  37 H :    0.132708
  38 H :    0.132897

  Mayer bond orders larger than 0.100000
B(  0-C ,  1-N ) :   1.0052 B(  0-C , 17-C ) :   0.8929 B(  0-C , 18-H ) :   0.9771
B(  0-C , 19-H ) :   0.9788 B(  1-N ,  7-C ) :   1.2187 B(  1-N , 12-H ) :   0.9054
B(  2-C ,  3-C ) :   0.9521 B(  2-C , 21-C ) :   0.9697 B(  2-C , 24-H ) :   0.9544
B(  2-C , 25-H ) :   0.9551 B(  3-C ,  4-H ) :   0.9439 B(  3-C ,  5-H ) :   0.9610
B(  3-C ,  6-C ) :   0.9738 B(  6-C , 15-F ) :   1.0688 B(  6-C , 16-O ) :   1.9846
B(  7-C ,  8-N ) :   1.1064 B(  7-C ,  9-C ) :   1.5943 B(  8-N , 13-H ) :   0.9237
B(  8-N , 14-H ) :   0.9294 B(  9-C , 10-H ) :   1.0016 B(  9-C , 11-H ) :   1.0061
B( 17-C , 26-C ) :   0.9698 B( 17-C , 27-H ) :   0.9457 B( 17-C , 28-H ) :   0.9609
B( 20-C , 21-C ) :   0.9410 B( 20-C , 32-C ) :   0.9654 B( 20-C , 35-H ) :   0.9573
B( 20-C , 36-H ) :   0.9718 B( 21-C , 22-H ) :   0.9702 B( 21-C , 23-H ) :   0.9609
B( 26-C , 29-C ) :   0.9664 B( 26-C , 30-H ) :   0.9504 B( 26-C , 31-H ) :   0.9861
B( 29-C , 32-C ) :   0.9675 B( 29-C , 33-H ) :   0.9653 B( 29-C , 34-H ) :   0.9673
B( 32-C , 37-H ) :   0.9652 B( 32-C , 38-H ) :   0.9625

Dispersion correction           -0.088113626
FINAL SINGLE POINT ENERGY      -755.669831003620

DIPOLE MOMENT
-------------
                                X             Y             Z
Electronic contribution:      9.59780       8.55787       6.80347
Nuclear contribution   :    -11.12616      -8.32792      -6.96231
                        -----------------------------------------
Total Dipole Moment    :     -1.52836       0.22995      -0.15884
                        -----------------------------------------
Magnitude (a.u.)       :      1.55370
Magnitude (Debye)      :      3.94920

Rotational constants in cm-1:     0.020226     0.013574     0.009520
Rotational constants in MHz :   606.360011   406.923773   285.390769

                             ****ORCA TERMINATED NORMALLY****
TOTAL RUN TIME: 0 days 0 hours 0 minutes 36 seconds 584 msec
