                         Program Version 5.0.0 -  RELEASE  -
|  1> !BLYP D3BJ RIJCOSX def2-TZVP def2/J TightSCF xyzfile
|  2>
|  3> *xyzfile 0 1 D4.xyz
|  4>
|  5> %MaxCore 64000
|  6>
|  7> %pal nprocs 18
|  8> end
|  9>
| 10> %scf
| 11>   MaxIter 150
| 12> end
| 13>
| 14>
| 15>                          ****END OF INPUT****

CARTESIAN COORDINATES (ANGSTROEM)
---------------------------------
  C      3.913853   -1.658291    3.015134
  C      5.039266   -0.901154    2.492821
  C      4.084215    1.742081   -2.114724
  C      4.265245    2.500518   -0.795890
  H      4.868534    3.392674   -0.981134
  H      3.307640    2.824571   -0.387809
  C      4.982240    1.650257    0.247422
  C      6.210384   -1.417261    2.178244
  N      6.535913   -2.677122    2.556078
  N      7.076754   -0.700820    1.478906
  H      7.954643   -1.121554    1.207554
  H      6.756161    0.106637    0.960278
  H      4.842168    0.017609    2.115191
  H      5.993876   -3.126918    3.282784
  H      7.498441   -2.975482    2.468776
  O      4.368065    1.389270    1.313706
  F      6.128919    1.233512   -0.045620
  C      3.139159   -2.376572    1.910609
  H      3.267235   -0.939401    3.520693
  H      4.247195   -2.355095    3.790065
  C      1.997274    0.430918   -1.399218
  C      3.412746    0.376886   -1.965497
  H      4.047407   -0.246590   -1.326706
  H      3.390774   -0.118719   -2.942839
  H      5.068475    1.598504   -2.565728
  H      3.503356    2.363939   -2.804565
  C      2.399946   -1.389579    1.009490
  H      2.440750   -3.087118    2.362976
  H      3.844475   -2.970462    1.318677
  C      2.070177   -1.936705   -0.372401
  H      1.481611   -1.061542    1.509912
  H      3.008628   -0.490001    0.897451
  C      1.322238   -0.935775   -1.256413
  H      1.472747   -2.850902   -0.283997
  H      3.003539   -2.234041   -0.862535
  H      1.376444    1.058920   -2.047420
  H      2.015341    0.929780   -0.426535
  H      0.316648   -0.787213   -0.848278
  H      1.185611   -1.379252   -2.248613

 Total Charge           Charge          ....    0
 Multiplicity           Mult            ....    1
 Number of Electrons    NEL             ....  126
 Basis Dimension        Dim             ....  634

ORBITAL ENERGIES
----------------

  NO   OCC          E(Eh)            E(eV)
   0   2.0000     -24.375725      -663.2972
   1   2.0000     -18.784448      -511.1508
   2   2.0000     -13.987595      -380.6218
   3   2.0000     -13.978422      -380.3722
   4   2.0000     -10.083683      -274.3910
   5   2.0000      -9.936569      -270.3878
   6   2.0000      -9.921826      -269.9866
   7   2.0000      -9.919217      -269.9156
   8   2.0000      -9.905844      -269.5517
   9   2.0000      -9.895789      -269.2781
  10   2.0000      -9.890099      -269.1233
  11   2.0000      -9.881570      -268.8912
  12   2.0000      -9.870408      -268.5875
  13   2.0000      -9.866043      -268.4687
  14   2.0000      -9.860089      -268.3067
  15   2.0000      -9.791241      -266.4332
  16   2.0000      -1.235191       -33.6113
  17   2.0000      -0.951949       -25.9038
  18   2.0000      -0.850794       -23.1513
  19   2.0000      -0.769808       -20.9476
  20   2.0000      -0.748617       -20.3709
  21   2.0000      -0.716458       -19.4958
  22   2.0000      -0.689298       -18.7567
  23   2.0000      -0.663168       -18.0457
  24   2.0000      -0.633721       -17.2444
  25   2.0000      -0.612428       -16.6650
  26   2.0000      -0.594805       -16.1855
  27   2.0000      -0.562620       -15.3097
  28   2.0000      -0.536855       -14.6086
  29   2.0000      -0.522964       -14.2306
  30   2.0000      -0.506433       -13.7808
  31   2.0000      -0.502991       -13.6871
  32   2.0000      -0.488365       -13.2891
  33   2.0000      -0.476988       -12.9795
  34   2.0000      -0.470273       -12.7968
  35   2.0000      -0.453205       -12.3323
  36   2.0000      -0.428584       -11.6624
  37   2.0000      -0.423839       -11.5332
  38   2.0000      -0.422140       -11.4870
  39   2.0000      -0.402547       -10.9539
  40   2.0000      -0.395187       -10.7536
  41   2.0000      -0.383453       -10.4343
  42   2.0000      -0.373405       -10.1609
  43   2.0000      -0.357926        -9.7397
  44   2.0000      -0.356600        -9.7036
  45   2.0000      -0.350218        -9.5299
  46   2.0000      -0.341621        -9.2960
  47   2.0000      -0.334008        -9.0888
  48   2.0000      -0.327485        -8.9113
  49   2.0000      -0.321646        -8.7524
  50   2.0000      -0.312913        -8.5148
  51   2.0000      -0.310885        -8.4596
  52   2.0000      -0.294513        -8.0141
  53   2.0000      -0.288547        -7.8518
  54   2.0000      -0.286293        -7.7904
  55   2.0000      -0.279018        -7.5925
  56   2.0000      -0.264925        -7.2090
  57   2.0000      -0.257993        -7.0203
  58   2.0000      -0.253227        -6.8907
  59   2.0000      -0.249950        -6.8015
  60   2.0000      -0.215574        -5.8661
  61   2.0000      -0.201488        -5.4828
  62   2.0000      -0.105037        -2.8582
  63   0.0000      -0.073978        -2.0130
  64   0.0000       0.002937         0.0799
  65   0.0000       0.013157         0.3580
  66   0.0000       0.028776         0.7830
  67   0.0000       0.031387         0.8541

MULLIKEN ATOMIC CHARGES
-----------------------
   0 C :   -0.183968
   1 C :   -0.381908
   2 C :   -0.145032
   3 C :   -0.167693
   4 H :    0.107345
   5 H :    0.123610
   6 C :    0.353879
   7 C :    0.311711
   8 N :   -0.429324
   9 N :   -0.432980
  10 H :    0.178299
  11 H :    0.221672
  12 H :    0.173033
  13 H :    0.211070
  14 H :    0.180465
  15 O :   -0.302274
  16 F :   -0.119778
  17 C :   -0.025221
  18 H :    0.053162
  19 H :    0.039394
  20 C :   -0.185101
  21 C :   -0.196331
  22 H :    0.110218
  23 H :    0.073329
  24 H :    0.090306
  25 H :    0.086226
  26 C :   -0.240129
  27 H :    0.043397
  28 H :    0.058526
  29 C :   -0.141148
  30 H :    0.054248
  31 H :    0.126944
  32 C :   -0.108395
  33 H :    0.067624
  34 H :    0.076983
  35 H :    0.067669
  36 H :    0.111428
  37 H :    0.070806
  38 H :    0.067938
Sum of atomic charges:   -0.0000000

LOEWDIN ATOMIC CHARGES
----------------------
   0 C :   -0.279899
   1 C :   -0.270530
   2 C :   -0.256942
   3 C :   -0.224417
   4 H :    0.148322
   5 H :    0.150965
   6 C :   -0.513420
   7 C :   -0.466952
   8 N :   -0.022112
   9 N :   -0.013258
  10 H :    0.151071
  11 H :    0.149000
  12 H :    0.112811
  13 H :    0.165452
  14 H :    0.150317
  15 O :    0.118194
  16 F :    0.353653
  17 C :   -0.253351
  18 H :    0.138707
  19 H :    0.119368
  20 C :   -0.263559
  21 C :   -0.260173
  22 H :    0.137584
  23 H :    0.136024
  24 H :    0.135587
  25 H :    0.137940
  26 C :   -0.262429
  27 H :    0.119851
  28 H :    0.131931
  29 C :   -0.266979
  30 H :    0.129317
  31 H :    0.138627
  32 C :   -0.260947
  33 H :    0.130903
  34 H :    0.129112
  35 H :    0.131411
  36 H :    0.136107
  37 H :    0.132887
  38 H :    0.129824

  Mayer bond orders larger than 0.100000
B(  0-C ,  1-C ) :   1.0403 B(  0-C , 17-C ) :   0.9209 B(  0-C , 18-H ) :   0.9703
B(  0-C , 19-H ) :   0.9691 B(  1-C ,  7-C ) :   1.6269 B(  1-C , 12-H ) :   0.9868
B(  2-C ,  3-C ) :   0.9345 B(  2-C , 21-C ) :   0.9540 B(  2-C , 24-H ) :   0.9666
B(  2-C , 25-H ) :   0.9539 B(  3-C ,  4-H ) :   0.9375 B(  3-C ,  5-H ) :   0.9751
B(  3-C ,  6-C ) :   0.9809 B(  6-C , 15-O ) :   1.9720 B(  6-C , 16-F ) :   1.0609
B(  7-C ,  8-N ) :   1.1098 B(  7-C ,  9-N ) :   1.1531 B(  8-N , 13-H ) :   0.9210
B(  8-N , 14-H ) :   0.9332 B(  9-N , 10-H ) :   0.9373 B(  9-N , 11-H ) :   0.8989
B( 17-C , 26-C ) :   0.9970 B( 17-C , 27-H ) :   0.9449 B( 17-C , 28-H ) :   0.9575
B( 20-C , 21-C ) :   0.9483 B( 20-C , 32-C ) :   0.9682 B( 20-C , 35-H ) :   0.9551
B( 20-C , 36-H ) :   0.9689 B( 21-C , 22-H ) :   0.9713 B( 21-C , 23-H ) :   0.9601
B( 26-C , 29-C ) :   0.9583 B( 26-C , 30-H ) :   0.9542 B( 26-C , 31-H ) :   0.9815
B( 29-C , 32-C ) :   0.9695 B( 29-C , 33-H ) :   0.9640 B( 29-C , 34-H ) :   0.9676
B( 32-C , 37-H ) :   0.9626 B( 32-C , 38-H ) :   0.9633

Dispersion correction           -0.088798962
FINAL SINGLE POINT ENERGY      -755.678548322044

DIPOLE MOMENT
-------------
                                X             Y             Z
Electronic contribution:     14.42723       8.68922       3.76231
Nuclear contribution   :    -13.61164      -8.17416      -5.14068
                        -----------------------------------------
Total Dipole Moment    :      0.81559       0.51506      -1.37837
                        -----------------------------------------
Magnitude (a.u.)       :      1.68237
Magnitude (Debye)      :      4.27625

Rotational constants in cm-1:     0.019858     0.013613     0.009401
Rotational constants in MHz :   595.331791   408.100423   281.843625

                             ****ORCA TERMINATED NORMALLY****
TOTAL RUN TIME: 0 days 0 hours 0 minutes 28 seconds 240 msec
