                         Program Version 5.0.0 -  RELEASE  -
|  1> !BLYP D3BJ RIJCOSX def2-TZVP def2/J TightSCF xyzfile
|  2>
|  3> *xyzfile 0 1 D5.xyz
|  4>
|  5> %MaxCore 64000
|  6>
|  7> %pal nprocs 18
|  8> end
|  9>
| 10> %scf
| 11>   MaxIter 150
| 12> end
| 13>
| 14>
| 15>                          ****END OF INPUT****

CARTESIAN COORDINATES (ANGSTROEM)
---------------------------------
  C      3.913853   -1.658291    3.015134
  N      5.039266   -0.901154    2.492821
  C      4.084215    1.742081   -2.114724
  C      4.265245    2.500518   -0.795890
  H      4.868534    3.392674   -0.981134
  H      3.307640    2.824571   -0.387809
  C      4.982240    1.650257    0.247422
  C      6.210384   -1.417261    2.178244
  C      6.535913   -2.677122    2.556078
  N      7.076754   -0.700820    1.478906
  H      7.954643   -1.121554    1.207554
  H      6.756161    0.106637    0.960278
  H      4.842168    0.017609    2.115191
  H      5.993876   -3.126918    3.282784
  H      7.498441   -2.975482    2.468776
  O      4.368065    1.389270    1.313706
  F      6.128919    1.233512   -0.045620
  C      3.139159   -2.376572    1.910609
  H      3.267235   -0.939401    3.520693
  H      4.247195   -2.355095    3.790065
  C      1.997274    0.430918   -1.399218
  C      3.412746    0.376886   -1.965497
  H      4.047407   -0.246590   -1.326706
  H      3.390774   -0.118719   -2.942839
  H      5.068475    1.598504   -2.565728
  H      3.503356    2.363939   -2.804565
  C      2.399946   -1.389579    1.009490
  H      2.440750   -3.087118    2.362976
  H      3.844475   -2.970462    1.318677
  C      2.070177   -1.936705   -0.372401
  H      1.481611   -1.061542    1.509912
  H      3.008628   -0.490001    0.897451
  C      1.322238   -0.935775   -1.256413
  H      1.472747   -2.850902   -0.283997
  H      3.003539   -2.234041   -0.862535
  H      1.376444    1.058920   -2.047420
  H      2.015341    0.929780   -0.426535
  H      0.316648   -0.787213   -0.848278
  H      1.185611   -1.379252   -2.248613

 Total Charge           Charge          ....    0
 Multiplicity           Mult            ....    1
 Number of Electrons    NEL             ....  126
 Basis Dimension        Dim             ....  634

ORBITAL ENERGIES
----------------

  NO   OCC          E(Eh)            E(eV)
   0   2.0000     -24.389157      -663.6627
   1   2.0000     -18.806735      -511.7573
   2   2.0000     -13.982041      -380.4707
   3   2.0000     -13.973848      -380.2477
   4   2.0000     -10.099518      -274.8218
   5   2.0000      -9.947895      -270.6960
   6   2.0000      -9.931111      -270.2393
   7   2.0000      -9.926089      -270.1026
   8   2.0000      -9.915399      -269.8117
   9   2.0000      -9.914944      -269.7994
  10   2.0000      -9.905014      -269.5291
  11   2.0000      -9.899103      -269.3683
  12   2.0000      -9.892163      -269.1795
  13   2.0000      -9.885479      -268.9976
  14   2.0000      -9.881751      -268.8961
  15   2.0000      -9.801231      -266.7050
  16   2.0000      -1.248357       -33.9695
  17   2.0000      -0.973059       -26.4783
  18   2.0000      -0.859549       -23.3895
  19   2.0000      -0.784320       -21.3424
  20   2.0000      -0.759030       -20.6542
  21   2.0000      -0.725895       -19.7526
  22   2.0000      -0.692816       -18.8525
  23   2.0000      -0.665418       -18.1069
  24   2.0000      -0.633496       -17.2383
  25   2.0000      -0.621069       -16.9002
  26   2.0000      -0.607890       -16.5415
  27   2.0000      -0.580490       -15.7959
  28   2.0000      -0.551025       -14.9942
  29   2.0000      -0.528533       -14.3821
  30   2.0000      -0.520469       -14.1627
  31   2.0000      -0.518489       -14.1088
  32   2.0000      -0.493378       -13.4255
  33   2.0000      -0.488609       -13.2957
  34   2.0000      -0.476181       -12.9575
  35   2.0000      -0.448230       -12.1970
  36   2.0000      -0.445374       -12.1192
  37   2.0000      -0.433542       -11.7973
  38   2.0000      -0.430046       -11.7021
  39   2.0000      -0.412384       -11.2216
  40   2.0000      -0.395060       -10.7501
  41   2.0000      -0.392171       -10.6715
  42   2.0000      -0.377908       -10.2834
  43   2.0000      -0.370045       -10.0694
  44   2.0000      -0.364293        -9.9129
  45   2.0000      -0.361698        -9.8423
  46   2.0000      -0.350510        -9.5379
  47   2.0000      -0.342517        -9.3204
  48   2.0000      -0.337511        -9.1842
  49   2.0000      -0.328351        -8.9349
  50   2.0000      -0.320109        -8.7106
  51   2.0000      -0.314608        -8.5609
  52   2.0000      -0.309228        -8.4145
  53   2.0000      -0.303783        -8.2664
  54   2.0000      -0.296716        -8.0740
  55   2.0000      -0.292108        -7.9487
  56   2.0000      -0.281767        -7.6673
  57   2.0000      -0.272208        -7.4072
  58   2.0000      -0.269859        -7.3432
  59   2.0000      -0.265407        -7.2221
  60   2.0000      -0.255947        -6.9647
  61   2.0000      -0.185010        -5.0344
  62   2.0000      -0.112925        -3.0729
  63   0.0000      -0.090168        -2.4536
  64   0.0000      -0.004241        -0.1154
  65   0.0000       0.020963         0.5704
  66   0.0000       0.022091         0.6011
  67   0.0000       0.027931         0.7600

MULLIKEN ATOMIC CHARGES
-----------------------
   0 C :   -0.085117
   1 N :   -0.271628
   2 C :   -0.147712
   3 C :   -0.169340
   4 H :    0.113637
   5 H :    0.126259
   6 C :    0.361097
   7 C :    0.303406
   8 C :   -0.487168
   9 N :   -0.429423
  10 H :    0.208914
  11 H :    0.202670
  12 H :    0.208804
  13 H :    0.058855
  14 H :    0.049768
  15 O :   -0.341156
  16 F :   -0.108768
  17 C :   -0.042418
  18 H :    0.079958
  19 H :    0.095191
  20 C :   -0.184362
  21 C :   -0.200162
  22 H :    0.107215
  23 H :    0.079202
  24 H :    0.096221
  25 H :    0.090191
  26 C :   -0.274288
  27 H :    0.061777
  28 H :    0.091093
  29 C :   -0.141642
  30 H :    0.057518
  31 H :    0.113138
  32 C :   -0.110969
  33 H :    0.074977
  34 H :    0.085723
  35 H :    0.072275
  36 H :    0.108970
  37 H :    0.074082
  38 H :    0.073214
Sum of atomic charges:   -0.0000000

LOEWDIN ATOMIC CHARGES
----------------------
   0 C :   -0.271279
   1 N :    0.137334
   2 C :   -0.254840
   3 C :   -0.222738
   4 H :    0.150389
   5 H :    0.151596
   6 C :   -0.515308
   7 C :   -0.469862
   8 C :   -0.357429
   9 N :   -0.006655
  10 H :    0.169358
  11 H :    0.137759
  12 H :    0.151881
  13 H :    0.091894
  14 H :    0.087835
  15 O :    0.095788
  16 F :    0.358530
  17 C :   -0.258886
  18 H :    0.129820
  19 H :    0.130517
  20 C :   -0.263541
  21 C :   -0.259603
  22 H :    0.136587
  23 H :    0.137826
  24 H :    0.137218
  25 H :    0.139511
  26 C :   -0.269033
  27 H :    0.128865
  28 H :    0.140790
  29 C :   -0.265012
  30 H :    0.130193
  31 H :    0.132698
  32 C :   -0.259865
  33 H :    0.133068
  34 H :    0.131630
  35 H :    0.132745
  36 H :    0.134972
  37 H :    0.133638
  38 H :    0.131610

  Mayer bond orders larger than 0.100000
B(  0-C ,  1-N ) :   0.9954 B(  0-C , 17-C ) :   0.9310 B(  0-C , 18-H ) :   0.9730
B(  0-C , 19-H ) :   0.9639 B(  1-N ,  7-C ) :   1.2403 B(  1-N , 12-H ) :   0.8674
B(  2-C ,  3-C ) :   0.9328 B(  2-C , 21-C ) :   0.9514 B(  2-C , 24-H ) :   0.9673
B(  2-C , 25-H ) :   0.9537 B(  3-C ,  4-H ) :   0.9388 B(  3-C ,  5-H ) :   0.9737
B(  3-C ,  6-C ) :   0.9815 B(  6-C , 15-O ) :   1.9055 B(  6-C , 16-F ) :   1.0814
B(  7-C ,  8-C ) :   1.5757 B(  7-C ,  9-N ) :   1.1640 B(  8-C , 13-H ) :   1.0030
B(  8-C , 14-H ) :   0.9892 B(  9-N , 10-H ) :   0.9317 B(  9-N , 11-H ) :   0.9001
B( 12-H , 15-O ) :   0.1145 B( 17-C , 26-C ) :   0.9658 B( 17-C , 27-H ) :   0.9529
B( 17-C , 28-H ) :   0.9559 B( 20-C , 21-C ) :   0.9443 B( 20-C , 32-C ) :   0.9659
B( 20-C , 35-H ) :   0.9555 B( 20-C , 36-H ) :   0.9700 B( 21-C , 22-H ) :   0.9716
B( 21-C , 23-H ) :   0.9607 B( 26-C , 29-C ) :   0.9573 B( 26-C , 30-H ) :   0.9500
B( 26-C , 31-H ) :   0.9865 B( 29-C , 32-C ) :   0.9666 B( 29-C , 33-H ) :   0.9657
B( 29-C , 34-H ) :   0.9685 B( 32-C , 37-H ) :   0.9637 B( 32-C , 38-H ) :   0.9640

Dispersion correction           -0.088271157
FINAL SINGLE POINT ENERGY      -755.689858345482

DIPOLE MOMENT
-------------
                                X             Y             Z
Electronic contribution:     12.90359      10.18895       3.40334
Nuclear contribution   :    -13.35170      -8.48261      -5.12969
                        -----------------------------------------
Total Dipole Moment    :     -0.44811       1.70633      -1.72635
                        -----------------------------------------
Magnitude (a.u.)       :      2.46833
Magnitude (Debye)      :      6.27399

Rotational constants in cm-1:     0.019886     0.013843     0.009504
Rotational constants in MHz :   596.157485   415.004628   284.931121

                             ****ORCA TERMINATED NORMALLY****
TOTAL RUN TIME: 0 days 0 hours 0 minutes 37 seconds 39 msec
