                         Program Version 5.0.0 -  RELEASE  -
|  1> !PBE D3BJ RIJCOSX def2-SVPD def2/J TightSCF
|  2>
|  3> *xyz -1 1
|  4> C          2.95263        1.86308       -3.57485
|  5> C          4.12921        0.89839       -3.41895
|  6> H          3.73369       -0.10060       -3.23763
|  7> H          4.71910        0.86256       -4.33901
|  8> C          5.01734        1.31521       -2.22130
|  9> O          4.73706        0.85411       -1.12283
| 10> O          5.92815        2.16811       -2.49136
| 11> H          2.35067        1.56005       -4.40594
| 12> H          3.32277        2.85258       -3.74453
| 13> H          2.36134        1.85149       -2.68315
| 14> *
| 15> %MaxCore 64000
| 16>
| 17> %pal nprocs 4
| 18> end
| 19>
| 20> %scf
| 21>   MaxIter 150
| 22> end
| 23>
| 24>
| 25>                          ****END OF INPUT****

CARTESIAN COORDINATES (ANGSTROEM)
---------------------------------
  C      2.952630    1.863080   -3.574850
  C      4.129210    0.898390   -3.418950
  H      3.733690   -0.100600   -3.237630
  H      4.719100    0.862560   -4.339010
  C      5.017340    1.315210   -2.221300
  O      4.737060    0.854110   -1.122830
  O      5.928150    2.168110   -2.491360
  H      2.350670    1.560050   -4.405940
  H      3.322770    2.852580   -3.744530
  H      2.361340    1.851490   -2.683150

 Total Charge           Charge          ....   -1
 Multiplicity           Mult            ....    1
 Number of Electrons    NEL             ....   40
 Basis Dimension        Dim             ....  146

ORBITAL ENERGIES
----------------

  NO   OCC          E(Eh)            E(eV)
   0   2.0000     -18.511260      -503.7170
   1   2.0000     -18.501763      -503.4586
   2   2.0000      -9.772211      -265.9154
   3   2.0000      -9.734374      -264.8858
   4   2.0000      -9.719111      -264.4705
   5   2.0000      -0.730923       -19.8894
   6   2.0000      -0.638524       -17.3751
   7   2.0000      -0.527821       -14.3627
   8   2.0000      -0.400757       -10.9052
   9   2.0000      -0.265984        -7.2378
  10   2.0000      -0.241506        -6.5717
  11   2.0000      -0.207554        -5.6478
  12   2.0000      -0.184683        -5.0255
  13   2.0000      -0.163697        -4.4544
  14   2.0000      -0.162342        -4.4175
  15   2.0000      -0.131926        -3.5899
  16   2.0000      -0.126694        -3.4475
  17   2.0000      -0.015425        -0.4197
  18   2.0000       0.001499         0.0408
  19   2.0000       0.015812         0.4303
  20   0.0000       0.140003         3.8097
  21   0.0000       0.172924         4.7055
  22   0.0000       0.186277         5.0688
  23   0.0000       0.204661         5.5691
  24   0.0000       0.213433         5.8078

MULLIKEN ATOMIC CHARGES
-----------------------
   0 C :    0.508471
   1 C :   -0.347057
   2 H :   -0.005320
   3 H :   -0.027258
   4 C :    0.397828
   5 O :   -0.605437
   6 O :   -0.707869
   7 H :   -0.087799
   8 H :   -0.064304
   9 H :   -0.061254
Sum of atomic charges:   -1.0000000

LOEWDIN ATOMIC CHARGES
----------------------
   0 C :    0.097009
   1 C :   -0.047760
   2 H :   -0.005405
   3 H :   -0.000808
   4 C :   -0.329321
   5 O :   -0.288826
   6 O :   -0.331463
   7 H :   -0.044846
   8 H :   -0.024578
   9 H :   -0.024003

  Mayer bond orders larger than 0.100000
B(  0-C ,  1-C ) :   1.3658 B(  0-C ,  2-H ) :   0.1137 B(  0-C ,  3-H ) :   0.1062
B(  0-C ,  7-H ) :   0.8550 B(  0-C ,  8-H ) :   0.8422 B(  0-C ,  9-H ) :   0.8324
B(  1-C ,  2-H ) :   0.9336 B(  1-C ,  3-H ) :   0.9521 B(  1-C ,  4-C ) :   1.0621
B(  1-C ,  7-H ) :   0.1564 B(  1-C ,  8-H ) :   0.1942 B(  1-C ,  9-H ) :   0.1995
B(  2-H ,  4-C ) :   0.1049 B(  4-C ,  5-O ) :   1.5219 B(  4-C ,  6-O ) :   1.4381

Dispersion correction           -0.006556637
FINAL SINGLE POINT ENERGY      -267.355681482362

DIPOLE MOMENT
-------------
                                X             Y             Z
Electronic contribution:      4.45950      -0.19147       3.94381
Nuclear contribution   :     -5.85873      -0.10793      -5.24103
                        -----------------------------------------
Total Dipole Moment    :     -1.39923      -0.29940      -1.29722
                        -----------------------------------------
Magnitude (a.u.)       :      1.93139
Magnitude (Debye)      :      4.90921

Rotational constants in cm-1:     0.292505     0.135951     0.110253
Rotational constants in MHz :  8769.065873  4075.717001  3305.311891

                             ****ORCA TERMINATED NORMALLY****
TOTAL RUN TIME: 0 days 0 hours 0 minutes 8 seconds 775 msec
