                         Program Version 5.0.0 -  RELEASE  -
|  1> !PBE D3BJ RIJCOSX def2-SVPD def2/J TightSCF
|  2>
|  3> *xyz 1 1
|  4> C          3.34350        3.35457       -3.59200
|  5> C          2.95263        1.86308       -3.57485
|  6> C          4.25587        3.70385       -4.72605
|  7> N          3.73403        4.29378       -5.80077
|  8> N          5.51504        3.40725       -4.63718
|  9> H          6.14919        3.60120       -5.39905
| 10> H          5.81358        2.89950       -3.80879
| 11> H          2.74138        4.51311       -5.82470
| 12> H          4.28755        4.52126       -6.61434
| 13> H          3.86125        3.59725       -2.66298
| 14> H          2.44649        3.97346       -3.65656
| 15> H          2.44395        1.61721       -4.48352
| 16> H          2.30781        1.67290       -2.74242
| 17> H          3.83491        1.26414       -3.48670
| 18> *
| 19> %MaxCore 64000
| 20>
| 21> %pal nprocs 4
| 22> end
| 23>
| 24> %scf
| 25>   MaxIter 150
| 26> end
| 27>
| 28>
| 29>                          ****END OF INPUT****

CARTESIAN COORDINATES (ANGSTROEM)
---------------------------------
  C      3.343500    3.354570   -3.592000
  C      2.952630    1.863080   -3.574850
  C      4.255870    3.703850   -4.726050
  N      3.734030    4.293780   -5.800770
  N      5.515040    3.407250   -4.637180
  H      6.149190    3.601200   -5.399050
  H      5.813580    2.899500   -3.808790
  H      2.741380    4.513110   -5.824700
  H      4.287550    4.521260   -6.614340
  H      3.861250    3.597250   -2.662980
  H      2.446490    3.973460   -3.656560
  H      2.443950    1.617210   -4.483520
  H      2.307810    1.672900   -2.742420
  H      3.834910    1.264140   -3.486700

 Total Charge           Charge          ....    1
 Multiplicity           Mult            ....    1
 Number of Electrons    NEL             ....   40
 Basis Dimension        Dim             ....  172

ORBITAL ENERGIES
----------------

  NO   OCC          E(Eh)            E(eV)
   0   2.0000     -14.248625      -387.7248
   1   2.0000     -14.244784      -387.6203
   2   2.0000     -10.209114      -277.8041
   3   2.0000     -10.095431      -274.7106
   4   2.0000     -10.053345      -273.5654
   5   2.0000      -1.115304       -30.3490
   6   2.0000      -1.026507       -27.9327
   7   2.0000      -0.892689       -24.2913
   8   2.0000      -0.795938       -21.6586
   9   2.0000      -0.756919       -20.5968
  10   2.0000      -0.727607       -19.7992
  11   2.0000      -0.696228       -18.9453
  12   2.0000      -0.656389       -17.8612
  13   2.0000      -0.602458       -16.3937
  14   2.0000      -0.577487       -15.7142
  15   2.0000      -0.568427       -15.4677
  16   2.0000      -0.504714       -13.7340
  17   2.0000      -0.494265       -13.4496
  18   2.0000      -0.486023       -13.2254
  19   2.0000      -0.456462       -12.4210
  20   0.0000      -0.245200        -6.6722
  21   0.0000      -0.183742        -4.9999
  22   0.0000      -0.140076        -3.8117
  23   0.0000      -0.138030        -3.7560
  24   0.0000      -0.111110        -3.0235

MULLIKEN ATOMIC CHARGES
-----------------------
   0 C :   -0.327761
   1 C :    0.668361
   2 C :    0.753511
   3 N :    0.004797
   4 N :    0.180417
   5 H :   -0.173184
   6 H :    0.058163
   7 H :    0.032276
   8 H :   -0.146906
   9 H :    0.026054
  10 H :   -0.012478
  11 H :   -0.047967
  12 H :    0.014325
  13 H :   -0.029610
Sum of atomic charges:    1.0000000

LOEWDIN ATOMIC CHARGES
----------------------
   0 C :    0.008121
   1 C :    0.175172
   2 C :   -0.065146
   3 N :    0.295573
   4 N :    0.298198
   5 H :    0.051985
   6 H :    0.058983
   7 H :    0.050711
   8 H :    0.042002
   9 H :    0.046000
  10 H :    0.039696
  11 H :   -0.001324
  12 H :    0.008948
  13 H :   -0.008919

  Mayer bond orders larger than 0.100000
B(  0-C ,  1-C ) :   1.3145 B(  0-C ,  2-C ) :   1.1305 B(  0-C ,  3-N ) :   0.1171
B(  0-C ,  4-N ) :   0.1038 B(  0-C ,  9-H ) :   0.8812 B(  0-C , 10-H ) :   0.8864
B(  0-C , 11-H ) :   0.1673 B(  0-C , 12-H ) :   0.1584 B(  0-C , 13-H ) :   0.1994
B(  1-C , 11-H ) :   0.8425 B(  1-C , 12-H ) :   0.8285 B(  1-C , 13-H ) :   0.7878
B(  2-C ,  3-N ) :   0.9814 B(  2-C ,  4-N ) :   1.2126 B(  2-C ,  5-H ) :  -0.1629
B(  2-C ,  8-H ) :  -0.2179 B(  2-C , 10-H ) :   0.1244 B(  3-N ,  4-N ) :   0.1917
B(  3-N ,  7-H ) :   1.0842 B(  3-N ,  8-H ) :   1.3300 B(  4-N ,  5-H ) :   1.2950
B(  4-N ,  6-H ) :   1.0545 B(  5-H ,  6-H ) :  -0.1655 B(  7-H ,  8-H ) :  -0.1821

Dispersion correction           -0.010122729
FINAL SINGLE POINT ENERGY      -228.593469717572

DIPOLE MOMENT
-------------
                                X             Y             Z
Electronic contribution:      2.37909       2.57664      -2.29412
Nuclear contribution   :     -1.74195      -2.09431       1.58516
                        -----------------------------------------
Total Dipole Moment    :      0.63715       0.48234      -0.70895
                        -----------------------------------------
Magnitude (a.u.)       :      1.06828
Magnitude (Debye)      :      2.71535

Rotational constants in cm-1:     0.258965     0.126500     0.098780
Rotational constants in MHz :  7763.584551  3792.383135  2961.336502

                             ****ORCA TERMINATED NORMALLY****
TOTAL RUN TIME: 0 days 0 hours 0 minutes 10 seconds 851 msec
