                         Program Version 5.0.0 -  RELEASE  -
|  1> !PBE D3BJ RIJCOSX def2-SVPD def2/J TightSCF xyzfile
|  2>
|  3> *xyzfile 0 1 B.xyz
|  4>
|  5> %MaxCore 64000
|  6>
|  7> %pal nprocs 4
|  8> end
|  9>
| 10> %scf
| 11>   MaxIter 150
| 12> end
| 13>
| 14>
| 15>                          ****END OF INPUT****

CARTESIAN COORDINATES (ANGSTROEM)
---------------------------------
  C      3.343500    3.354571   -3.591998
  C      2.952633    1.863077   -3.574849
  C      4.129209    0.898394   -3.418950
  H      3.733687   -0.100605   -3.237633
  H      4.719095    0.862556   -4.339005
  C      5.017344    1.315212   -2.221305
  C      4.255868    3.703851   -4.726054
  N      3.734032    4.293783   -5.800770
  N      5.515039    3.407255   -4.637185
  H      6.149187    3.601203   -5.399053
  H      5.813584    2.899504   -3.808785
  H      2.741380    4.513109   -5.824701
  H      4.287548    4.521260   -6.614341
  H      2.278938    1.735250   -2.725496
  H      2.377466    1.625787   -4.475869
  O      4.737055    0.854112   -1.122825
  O      5.928146    2.168108   -2.491365
  H      3.861246    3.597252   -2.662979
  H      2.446493    3.973461   -3.656556

 Total Charge           Charge          ....    0
 Multiplicity           Mult            ....    1
 Number of Electrons    NEL             ....   70
 Basis Dimension        Dim             ....  266

ORBITAL ENERGIES
----------------

  NO   OCC          E(Eh)            E(eV)
   0   2.0000     -18.681948      -508.3617
   1   2.0000     -18.667426      -507.9665
   2   2.0000     -14.098453      -383.6384
   3   2.0000     -14.058055      -382.5391
   4   2.0000     -10.048136      -273.4237
   5   2.0000      -9.939860      -270.4773
   6   2.0000      -9.938675      -270.4451
   7   2.0000      -9.916773      -269.8491
   8   2.0000      -9.875556      -268.7275
   9   2.0000      -0.954804       -25.9815
  10   2.0000      -0.899328       -24.4720
  11   2.0000      -0.864895       -23.5350
  12   2.0000      -0.814298       -22.1582
  13   2.0000      -0.745843       -20.2954
  14   2.0000      -0.666419       -18.1342
  15   2.0000      -0.615057       -16.7366
  16   2.0000      -0.572989       -15.5918
  17   2.0000      -0.568673       -15.4744
  18   2.0000      -0.528867       -14.3912
  19   2.0000      -0.493822       -13.4376
  20   2.0000      -0.453301       -12.3350
  21   2.0000      -0.434400       -11.8206
  22   2.0000      -0.416292       -11.3279
  23   2.0000      -0.396510       -10.7896
  24   2.0000      -0.379001       -10.3131
  25   2.0000      -0.350803        -9.5458
  26   2.0000      -0.337604        -9.1867
  27   2.0000      -0.326183        -8.8759
  28   2.0000      -0.321579        -8.7506
  29   2.0000      -0.299199        -8.1416
  30   2.0000      -0.290743        -7.9115
  31   2.0000      -0.288267        -7.8441
  32   2.0000      -0.186350        -5.0708
  33   2.0000      -0.173199        -4.7130
  34   2.0000      -0.149999        -4.0817
  35   0.0000      -0.088040        -2.3957
  36   0.0000      -0.052888        -1.4392
  37   0.0000      -0.015651        -0.4259
  38   0.0000       0.005327         0.1450
  39   0.0000       0.016567         0.4508

MULLIKEN ATOMIC CHARGES
-----------------------
   0 C :    0.078740
   1 C :   -0.003522
   2 C :    0.221300
   3 H :   -0.184260
   4 H :    0.093170
   5 C :    0.432177
   6 C :    0.783083
   7 N :    0.001748
   8 N :    0.416699
   9 H :   -0.205084
  10 H :   -0.222278
  11 H :   -0.040976
  12 H :   -0.184933
  13 H :    0.053243
  14 H :   -0.165622
  15 O :   -0.537812
  16 O :   -0.603847
  17 H :    0.230868
  18 H :   -0.162694
Sum of atomic charges:    0.0000000

LOEWDIN ATOMIC CHARGES
----------------------
   0 C :    0.047474
   1 C :   -0.003937
   2 C :    0.026927
   3 H :    0.021401
   4 H :    0.006447
   5 C :   -0.247659
   6 C :   -0.059039
   7 N :    0.256136
   8 N :    0.316386
   9 H :    0.035625
  10 H :   -0.138703
  11 H :    0.026832
  12 H :    0.020052
  13 H :    0.037050
  14 H :    0.018158
  15 O :   -0.196475
  16 O :   -0.233150
  17 H :    0.042936
  18 H :    0.023538

  Mayer bond orders larger than 0.100000
B(  0-C ,  1-C ) :   1.2424 B(  0-C ,  6-C ) :   1.0623 B(  0-C ,  7-N ) :   0.1038
B(  0-C ,  8-N ) :   0.1047 B(  0-C , 13-H ) :   0.1271 B(  0-C , 14-H ) :   0.1477
B(  0-C , 17-H ) :   0.6932 B(  0-C , 18-H ) :   0.9012 B(  1-C ,  2-C ) :   1.3016
B(  1-C ,  3-H ) :   0.1891 B(  1-C ,  4-H ) :   0.1706 B(  1-C , 13-H ) :   0.8225
B(  1-C , 14-H ) :   0.9229 B(  1-C , 17-H ) :   0.1372 B(  1-C , 18-H ) :   0.1691
B(  2-C ,  3-H ) :   0.8103 B(  2-C ,  4-H ) :   0.8081 B(  2-C ,  5-C ) :   1.0078
B(  2-C , 13-H ) :   0.1490 B(  3-H ,  5-C ) :   0.1658 B(  5-C , 15-O ) :   1.5610
B(  5-C , 16-O ) :   1.2457 B(  6-C ,  7-N ) :   0.9280 B(  6-C ,  8-N ) :   1.1505
B(  6-C ,  9-H ) :  -0.2394 B(  6-C , 11-H ) :  -0.1397 B(  6-C , 12-H ) :  -0.1785
B(  6-C , 17-H ) :   0.1098 B(  6-C , 18-H ) :   0.1002 B(  7-N ,  8-N ) :   0.1917
B(  7-N , 11-H ) :   1.1808 B(  7-N , 12-H ) :   1.3273 B(  8-N ,  9-H ) :   1.3271
B(  8-N , 10-H ) :   1.0497 B(  9-H , 10-H ) :  -0.2565 B( 10-H , 16-O ) :   0.2643
B( 11-H , 12-H ) :  -0.1862 B( 15-O , 16-O ) :   0.1526

Dispersion correction           -0.018873300
FINAL SINGLE POINT ENERGY      -455.700293367579

DIPOLE MOMENT
-------------
                                X             Y             Z
Electronic contribution:      3.95506      -0.01846       2.69762
Nuclear contribution   :     -5.42217       2.65262      -7.07590
                        -----------------------------------------
Total Dipole Moment    :     -1.46711       2.63416      -4.37829
                        -----------------------------------------
Magnitude (a.u.)       :      5.31607
Magnitude (Debye)      :     13.51238

Rotational constants in cm-1:     0.107541     0.035862     0.030371
Rotational constants in MHz :  3223.996852  1075.120464   910.508313

                             ****ORCA TERMINATED NORMALLY****
TOTAL RUN TIME: 0 days 0 hours 0 minutes 18 seconds 884 msec
