                         Program Version 5.0.0 -  RELEASE  -
|  1> !PBE D3BJ RIJCOSX def2-SVPD def2/J TightSCF
|  2>
|  3> *xyz 0 1
|  4> C          2.95263        1.86308       -3.57485
|  5> C          4.12921        0.89839       -3.41895
|  6> H          3.73369       -0.10060       -3.23763
|  7> H          4.71910        0.86256       -4.33901
|  8> C          5.01734        1.31521       -2.22130
|  9> F          4.73706        0.85411       -1.12283
| 10> O          5.92815        2.16811       -2.49136
| 11> H          2.35067        1.56005       -4.40594
| 12> H          3.32277        2.85258       -3.74453
| 13> H          2.36134        1.85149       -2.68315
| 14> *
| 15> %MaxCore 64000
| 16>
| 17> %pal nprocs 4
| 18> end
| 19>
| 20> %scf
| 21>   MaxIter 150
| 22> end
| 23>
| 24>
| 25>                          ****END OF INPUT****

CARTESIAN COORDINATES (ANGSTROEM)
---------------------------------
  C      2.952630    1.863080   -3.574850
  C      4.129210    0.898390   -3.418950
  H      3.733690   -0.100600   -3.237630
  H      4.719100    0.862560   -4.339010
  C      5.017340    1.315210   -2.221300
  F      4.737060    0.854110   -1.122830
  O      5.928150    2.168110   -2.491360
  H      2.350670    1.560050   -4.405940
  H      3.322770    2.852580   -3.744530
  H      2.361340    1.851490   -2.683150

 Total Charge           Charge          ....    0
 Multiplicity           Mult            ....    1
 Number of Electrons    NEL             ....   40
 Basis Dimension        Dim             ....  146

ORBITAL ENERGIES
----------------

  NO   OCC          E(Eh)            E(eV)
   0   2.0000     -24.358773      -662.8359
   1   2.0000     -18.769684      -510.7491
   2   2.0000     -10.069705      -274.0106
   3   2.0000      -9.926971      -270.1266
   4   2.0000      -9.905482      -269.5419
   5   2.0000      -1.230127       -33.4735
   6   2.0000      -0.927013       -25.2253
   7   2.0000      -0.724123       -19.7044
   8   2.0000      -0.624562       -16.9952
   9   2.0000      -0.584167       -15.8960
  10   2.0000      -0.506951       -13.7948
  11   2.0000      -0.489379       -13.3167
  12   2.0000      -0.450459       -12.2576
  13   2.0000      -0.416695       -11.3389
  14   2.0000      -0.387428       -10.5425
  15   2.0000      -0.358350        -9.7512
  16   2.0000      -0.333509        -9.0752
  17   2.0000      -0.328999        -8.9525
  18   2.0000      -0.307967        -8.3802
  19   2.0000      -0.239365        -6.5135
  20   0.0000      -0.071725        -1.9517
  21   0.0000      -0.004650        -0.1265
  22   0.0000       0.029313         0.7976
  23   0.0000       0.039581         1.0771
  24   0.0000       0.054565         1.4848

MULLIKEN ATOMIC CHARGES
-----------------------
   0 C :    0.546127
   1 C :   -0.344992
   2 H :    0.015357
   3 H :   -0.001474
   4 C :    0.734361
   5 F :   -0.299764
   6 O :   -0.500631
   7 H :   -0.050785
   8 H :   -0.046487
   9 H :   -0.051713
Sum of atomic charges:   -0.0000000

LOEWDIN ATOMIC CHARGES
----------------------
   0 C :    0.137069
   1 C :   -0.000411
   2 H :    0.019905
   3 H :    0.035237
   4 C :   -0.041940
   5 F :    0.010602
   6 O :   -0.132503
   7 H :   -0.011445
   8 H :   -0.006067
   9 H :   -0.010447

  Mayer bond orders larger than 0.100000
B(  0-C ,  1-C ) :   1.3731 B(  0-C ,  2-H ) :   0.1074 B(  0-C ,  3-H ) :   0.1000
B(  0-C ,  7-H ) :   0.8537 B(  0-C ,  8-H ) :   0.8419 B(  0-C ,  9-H ) :   0.8273
B(  1-C ,  2-H ) :   0.9131 B(  1-C ,  3-H ) :   0.9380 B(  1-C ,  4-C ) :   1.0650
B(  1-C ,  7-H ) :   0.1451 B(  1-C ,  8-H ) :   0.1725 B(  1-C ,  9-H ) :   0.1748
B(  4-C ,  5-F ) :   0.7936 B(  4-C ,  6-O ) :   1.7566 B(  5-F ,  6-O ) :   0.1266

Dispersion correction           -0.006212636
FINAL SINGLE POINT ENERGY      -291.862900925702

DIPOLE MOMENT
-------------
                                X             Y             Z
Electronic contribution:      5.07676      -1.16071       6.53807
Nuclear contribution   :     -6.06116       0.51860      -6.80802
                        -----------------------------------------
Total Dipole Moment    :     -0.98439      -0.64211      -0.26995
                        -----------------------------------------
Magnitude (a.u.)       :      1.20590
Magnitude (Debye)      :      3.06516

Rotational constants in cm-1:     0.276196     0.132056     0.105465
Rotational constants in MHz :  8280.156449  3958.940601  3161.775929

                             ****ORCA TERMINATED NORMALLY****
TOTAL RUN TIME: 0 days 0 hours 0 minutes 9 seconds 543 msec
