                         Program Version 5.0.0 -  RELEASE  -
|  1> !PBE D3BJ RIJCOSX def2-SVPD def2/J TightSCF
|  2>
|  3> *xyz 0 1
|  4> C          3.34350        3.35457       -3.59200
|  5> C          2.95263        1.86308       -3.57485
|  6> C          4.25587        3.70385       -4.72605
|  7> C          3.73403        4.29378       -5.80077
|  8> N          5.51504        3.40725       -4.63718
|  9> H          6.14919        3.60120       -5.39905
| 10> H          5.81358        2.89950       -3.80879
| 11> H          2.74138        4.51311       -5.82470
| 12> H          4.28755        4.52126       -6.61434
| 13> H          3.86125        3.59725       -2.66298
| 14> H          2.44649        3.97346       -3.65656
| 15> H          2.44395        1.61721       -4.48352
| 16> H          2.30781        1.67290       -2.74242
| 17> H          3.83491        1.26414       -3.48670
| 18> *
| 19> %MaxCore 64000
| 20>
| 21> %pal nprocs 4
| 22> end
| 23>
| 24> %scf
| 25>   MaxIter 150
| 26> end
| 27>
| 28>
| 29>                          ****END OF INPUT****

CARTESIAN COORDINATES (ANGSTROEM)
---------------------------------
  C      3.343500    3.354570   -3.592000
  C      2.952630    1.863080   -3.574850
  C      4.255870    3.703850   -4.726050
  C      3.734030    4.293780   -5.800770
  N      5.515040    3.407250   -4.637180
  H      6.149190    3.601200   -5.399050
  H      5.813580    2.899500   -3.808790
  H      2.741380    4.513110   -5.824700
  H      4.287550    4.521260   -6.614340
  H      3.861250    3.597250   -2.662980
  H      2.446490    3.973460   -3.656560
  H      2.443950    1.617210   -4.483520
  H      2.307810    1.672900   -2.742420
  H      3.834910    1.264140   -3.486700

 Total Charge           Charge          ....    0
 Multiplicity           Mult            ....    1
 Number of Electrons    NEL             ....   40
 Basis Dimension        Dim             ....  172

ORBITAL ENERGIES
----------------

  NO   OCC          E(Eh)            E(eV)
   0   2.0000     -14.005700      -381.1145
   1   2.0000      -9.911188      -269.6971
   2   2.0000      -9.895700      -269.2757
   3   2.0000      -9.882999      -268.9301
   4   2.0000      -9.828195      -267.4388
   5   2.0000      -0.850652       -23.1474
   6   2.0000      -0.700411       -19.0591
   7   2.0000      -0.638966       -17.3871
   8   2.0000      -0.569210       -15.4890
   9   2.0000      -0.513619       -13.9763
  10   2.0000      -0.481333       -13.0977
  11   2.0000      -0.428212       -11.6522
  12   2.0000      -0.390780       -10.6337
  13   2.0000      -0.374320       -10.1858
  14   2.0000      -0.348024        -9.4702
  15   2.0000      -0.337266        -9.1775
  16   2.0000      -0.311113        -8.4658
  17   2.0000      -0.292648        -7.9634
  18   2.0000      -0.289804        -7.8860
  19   2.0000      -0.157810        -4.2942
  20   0.0000      -0.005718        -0.1556
  21   0.0000       0.014932         0.4063
  22   0.0000       0.033241         0.9045
  23   0.0000       0.040563         1.1038
  24   0.0000       0.047815         1.3011

MULLIKEN ATOMIC CHARGES
-----------------------
   0 C :   -0.168534
   1 C :    0.664510
   2 C :   -0.124565
   3 C :    0.468454
   4 N :    0.300745
   5 H :   -0.222673
   6 H :   -0.113534
   7 H :   -0.118535
   8 H :   -0.512105
   9 H :   -0.066878
  10 H :    0.047516
  11 H :   -0.076579
  12 H :   -0.020569
  13 H :   -0.057251
Sum of atomic charges:    0.0000000

LOEWDIN ATOMIC CHARGES
----------------------
   0 C :   -0.034111
   1 C :    0.135230
   2 C :   -0.281473
   3 C :    0.179479
   4 N :    0.183829
   5 H :    0.011611
   6 H :    0.005162
   7 H :   -0.084727
   8 H :   -0.092287
   9 H :    0.016891
  10 H :    0.022522
  11 H :   -0.015020
  12 H :   -0.020686
  13 H :   -0.026420

  Mayer bond orders larger than 0.100000
B(  0-C ,  1-C ) :   1.2907 B(  0-C ,  2-C ) :   1.1789 B(  0-C ,  3-C ) :   0.1854
B(  0-C ,  4-N ) :   0.1158 B(  0-C ,  9-H ) :   0.8366 B(  0-C , 10-H ) :   0.8431
B(  0-C , 11-H ) :   0.1808 B(  0-C , 12-H ) :   0.1797 B(  0-C , 13-H ) :   0.2229
B(  1-C , 11-H ) :   0.8571 B(  1-C , 12-H ) :   0.8103 B(  1-C , 13-H ) :   0.7936
B(  2-C ,  3-C ) :   1.5795 B(  2-C ,  4-N ) :   1.3096 B(  2-C ,  8-H ) :   0.1843
B(  2-C ,  9-H ) :   0.1698 B(  2-C , 10-H ) :   0.1541 B(  3-C ,  4-N ) :   0.2788
B(  3-C ,  7-H ) :   0.9270 B(  3-C ,  8-H ) :   0.7079 B(  4-N ,  5-H ) :   1.2480
B(  4-N ,  6-H ) :   1.0943 B(  5-H ,  6-H ) :  -0.1326

Dispersion correction           -0.010495245
FINAL SINGLE POINT ENERGY      -212.139116461252

DIPOLE MOMENT
-------------
                                X             Y             Z
Electronic contribution:      2.35397       1.48884      -0.87391
Nuclear contribution   :     -1.79713      -1.86925       1.28073
                        -----------------------------------------
Total Dipole Moment    :      0.55684      -0.38041       0.40683
                        -----------------------------------------
Magnitude (a.u.)       :      0.78759
Magnitude (Debye)      :      2.00189

Rotational constants in cm-1:     0.269040     0.129645     0.102087
Rotational constants in MHz :  8065.609820  3886.645139  3060.489045

                             ****ORCA TERMINATED NORMALLY****
TOTAL RUN TIME: 0 days 0 hours 0 minutes 10 seconds 121 msec
