                         Program Version 5.0.0 -  RELEASE  -
|  1> !PBE D3BJ RIJCOSX def2-SVPD def2/J TightSCF
|  2>
|  3> *xyz 0 1
|  4> C          2.95263        1.86308       -3.57485
|  5> C          4.12921        0.89839       -3.41895
|  6> H          3.73369       -0.10060       -3.23763
|  7> H          4.71910        0.86256       -4.33901
|  8> C          5.01734        1.31521       -2.22130
|  9> O          4.73706        0.85411       -1.12283
| 10> F          5.92815        2.16811       -2.49136
| 11> H          2.35067        1.56005       -4.40594
| 12> H          3.32277        2.85258       -3.74453
| 13> H          2.36134        1.85149       -2.68315
| 14> *
| 15> %MaxCore 64000
| 16>
| 17> %pal nprocs 4
| 18> end
| 19>
| 20> %scf
| 21>   MaxIter 150
| 22> end
| 23>
| 24>
| 25>                          ****END OF INPUT****

CARTESIAN COORDINATES (ANGSTROEM)
---------------------------------
  C      2.952630    1.863080   -3.574850
  C      4.129210    0.898390   -3.418950
  H      3.733690   -0.100600   -3.237630
  H      4.719100    0.862560   -4.339010
  C      5.017340    1.315210   -2.221300
  O      4.737060    0.854110   -1.122830
  F      5.928150    2.168110   -2.491360
  H      2.350670    1.560050   -4.405940
  H      3.322770    2.852580   -3.744530
  H      2.361340    1.851490   -2.683150

 Total Charge           Charge          ....    0
 Multiplicity           Mult            ....    1
 Number of Electrons    NEL             ....   40
 Basis Dimension        Dim             ....  146

ORBITAL ENERGIES
----------------

  NO   OCC          E(Eh)            E(eV)
   0   2.0000     -24.338438      -662.2826
   1   2.0000     -18.778540      -510.9900
   2   2.0000     -10.065620      -273.8994
   3   2.0000      -9.926559      -270.1154
   4   2.0000      -9.905766      -269.5496
   5   2.0000      -1.190251       -32.3884
   6   2.0000      -0.959030       -26.0965
   7   2.0000      -0.723906       -19.6985
   8   2.0000      -0.613390       -16.6912
   9   2.0000      -0.572973       -15.5914
  10   2.0000      -0.487856       -13.2752
  11   2.0000      -0.472129       -12.8473
  12   2.0000      -0.448460       -12.2032
  13   2.0000      -0.415389       -11.3033
  14   2.0000      -0.389357       -10.5949
  15   2.0000      -0.360788        -9.8175
  16   2.0000      -0.340348        -9.2613
  17   2.0000      -0.330000        -8.9798
  18   2.0000      -0.321900        -8.7594
  19   2.0000      -0.251369        -6.8401
  20   0.0000      -0.066790        -1.8175
  21   0.0000      -0.004035        -0.1098
  22   0.0000       0.029619         0.8060
  23   0.0000       0.040189         1.0936
  24   0.0000       0.054906         1.4941

MULLIKEN ATOMIC CHARGES
-----------------------
   0 C :    0.545093
   1 C :   -0.341221
   2 H :    0.018620
   3 H :   -0.007063
   4 C :    0.726209
   5 O :   -0.429561
   6 F :   -0.363141
   7 H :   -0.051283
   8 H :   -0.057663
   9 H :   -0.039991
Sum of atomic charges:   -0.0000000

LOEWDIN ATOMIC CHARGES
----------------------
   0 C :    0.136923
   1 C :    0.001405
   2 H :    0.030866
   3 H :    0.025163
   4 C :   -0.039916
   5 O :   -0.097226
   6 F :   -0.029295
   7 H :   -0.011462
   8 H :   -0.010923
   9 H :   -0.005536

  Mayer bond orders larger than 0.100000
B(  0-C ,  1-C ) :   1.3730 B(  0-C ,  2-H ) :   0.1041 B(  0-C ,  3-H ) :   0.1022
B(  0-C ,  7-H ) :   0.8551 B(  0-C ,  8-H ) :   0.8354 B(  0-C ,  9-H ) :   0.8333
B(  1-C ,  2-H ) :   0.9238 B(  1-C ,  3-H ) :   0.9311 B(  1-C ,  4-C ) :   1.0519
B(  1-C ,  7-H ) :   0.1449 B(  1-C ,  8-H ) :   0.1682 B(  1-C ,  9-H ) :   0.1781
B(  4-C ,  5-O ) :   1.8230 B(  4-C ,  6-F ) :   0.7223 B(  5-O ,  6-F ) :   0.1283

Dispersion correction           -0.006212327
FINAL SINGLE POINT ENERGY      -291.878307933590

DIPOLE MOMENT
-------------
                                X             Y             Z
Electronic contribution:      7.04531       1.01245       4.26639
Nuclear contribution   :     -7.35982      -0.91407      -5.31589
                        -----------------------------------------
Total Dipole Moment    :     -0.31450       0.09838      -1.04950
                        -----------------------------------------
Magnitude (a.u.)       :      1.10002
Magnitude (Debye)      :      2.79603

Rotational constants in cm-1:     0.275433     0.132201     0.105422
Rotational constants in MHz :  8257.268192  3963.279062  3160.465566

                             ****ORCA TERMINATED NORMALLY****
TOTAL RUN TIME: 0 days 0 hours 0 minutes 7 seconds 796 msec
