                         Program Version 5.0.0 -  RELEASE  -
|  1> !PBE D3BJ RIJCOSX def2-SVPD def2/J TightSCF
|  2>
|  3> *xyz 0 1
|  4> C          3.34350        3.35457       -3.59200
|  5> C          2.95263        1.86308       -3.57485
|  6> C          4.25587        3.70385       -4.72605
|  7> N          3.73403        4.29378       -5.80077
|  8> C          5.51504        3.40725       -4.63718
|  9> H          6.14919        3.60120       -5.39905
| 10> H          5.81358        2.89950       -3.80879
| 11> H          2.74138        4.51311       -5.82470
| 12> H          4.28755        4.52126       -6.61434
| 13> H          3.86125        3.59725       -2.66298
| 14> H          2.44649        3.97346       -3.65656
| 15> H          2.44395        1.61721       -4.48352
| 16> H          2.30781        1.67290       -2.74242
| 17> H          3.83491        1.26414       -3.48670
| 18> *
| 19> %MaxCore 64000
| 20>
| 21> %pal nprocs 4
| 22> end
| 23>
| 24> %scf
| 25>   MaxIter 150
| 26> end
| 27>
| 28>
| 29>                          ****END OF INPUT****

CARTESIAN COORDINATES (ANGSTROEM)
---------------------------------
  C      3.343500    3.354570   -3.592000
  C      2.952630    1.863080   -3.574850
  C      4.255870    3.703850   -4.726050
  N      3.734030    4.293780   -5.800770
  C      5.515040    3.407250   -4.637180
  H      6.149190    3.601200   -5.399050
  H      5.813580    2.899500   -3.808790
  H      2.741380    4.513110   -5.824700
  H      4.287550    4.521260   -6.614340
  H      3.861250    3.597250   -2.662980
  H      2.446490    3.973460   -3.656560
  H      2.443950    1.617210   -4.483520
  H      2.307810    1.672900   -2.742420
  H      3.834910    1.264140   -3.486700

 Total Charge           Charge          ....    0
 Multiplicity           Mult            ....    1
 Number of Electrons    NEL             ....   40
 Basis Dimension        Dim             ....  172

ORBITAL ENERGIES
----------------

  NO   OCC          E(Eh)            E(eV)
   0   2.0000     -14.002298      -381.0219
   1   2.0000      -9.909148      -269.6416
   2   2.0000      -9.895418      -269.2680
   3   2.0000      -9.880946      -268.8742
   4   2.0000      -9.826668      -267.3972
   5   2.0000      -0.836749       -22.7691
   6   2.0000      -0.702780       -19.1236
   7   2.0000      -0.642368       -17.4797
   8   2.0000      -0.569971       -15.5097
   9   2.0000      -0.508085       -13.8257
  10   2.0000      -0.470372       -12.7995
  11   2.0000      -0.431440       -11.7401
  12   2.0000      -0.392301       -10.6751
  13   2.0000      -0.367215        -9.9924
  14   2.0000      -0.348135        -9.4732
  15   2.0000      -0.339100        -9.2274
  16   2.0000      -0.306818        -8.3489
  17   2.0000      -0.295974        -8.0539
  18   2.0000      -0.286517        -7.7965
  19   2.0000      -0.161319        -4.3897
  20   0.0000      -0.003164        -0.0861
  21   0.0000       0.015632         0.4254
  22   0.0000       0.032657         0.8886
  23   0.0000       0.040386         1.0990
  24   0.0000       0.050574         1.3762

MULLIKEN ATOMIC CHARGES
-----------------------
   0 C :   -0.156877
   1 C :    0.625163
   2 C :    0.064919
   3 N :    0.112240
   4 C :    0.427876
   5 H :   -0.464459
   6 H :   -0.095310
   7 H :   -0.110057
   8 H :   -0.201742
   9 H :    0.070299
  10 H :   -0.118116
  11 H :   -0.079396
  12 H :   -0.012250
  13 H :   -0.062290
Sum of atomic charges:   -0.0000000

LOEWDIN ATOMIC CHARGES
----------------------
   0 C :   -0.034611
   1 C :    0.136506
   2 C :   -0.271832
   3 N :    0.183849
   4 C :    0.168373
   5 H :   -0.081304
   6 H :   -0.071696
   7 H :   -0.006009
   8 H :   -0.000010
   9 H :    0.024923
  10 H :    0.011810
  11 H :   -0.018023
  12 H :   -0.021516
  13 H :   -0.020459

  Mayer bond orders larger than 0.100000
B(  0-C ,  1-C ) :   1.3131 B(  0-C ,  2-C ) :   1.1034 B(  0-C ,  3-N ) :   0.1409
B(  0-C ,  4-C ) :   0.1984 B(  0-C ,  9-H ) :   0.8266 B(  0-C , 10-H ) :   0.8472
B(  0-C , 11-H ) :   0.1969 B(  0-C , 12-H ) :   0.1608 B(  0-C , 13-H ) :   0.1992
B(  1-C , 10-H ) :   0.1104 B(  1-C , 11-H ) :   0.8394 B(  1-C , 12-H ) :   0.8092
B(  1-C , 13-H ) :   0.8369 B(  2-C ,  3-N ) :   1.0979 B(  2-C ,  4-C ) :   1.7072
B(  2-C ,  5-H ) :   0.2425 B(  2-C ,  6-H ) :   0.1570 B(  2-C ,  8-H ) :  -0.1415
B(  2-C ,  9-H ) :   0.1172 B(  2-C , 10-H ) :   0.1439 B(  3-N ,  4-C ) :   0.2974
B(  3-N ,  7-H ) :   1.1080 B(  3-N ,  8-H ) :   1.3046 B(  4-C ,  5-H ) :   0.7054
B(  4-C ,  6-H ) :   0.7643 B(  7-H ,  8-H ) :  -0.1666

Dispersion correction           -0.010504787
FINAL SINGLE POINT ENERGY      -212.138862572888

DIPOLE MOMENT
-------------
                                X             Y             Z
Electronic contribution:      0.78905       2.28416      -1.88693
Nuclear contribution   :     -1.38463      -2.07457       1.55023
                        -----------------------------------------
Total Dipole Moment    :     -0.59557       0.20959      -0.33670
                        -----------------------------------------
Magnitude (a.u.)       :      0.71554
Magnitude (Debye)      :      1.81876

Rotational constants in cm-1:     0.272312     0.128195     0.101724
Rotational constants in MHz :  8163.717141  3843.180148  3049.598073

                             ****ORCA TERMINATED NORMALLY****
TOTAL RUN TIME: 0 days 0 hours 0 minutes 10 seconds 403 msec
