                         Program Version 5.0.0 -  RELEASE  -
|  1> !PBE D3BJ RIJCOSX def2-SVPD def2/J TightSCF xyzfile
|  2>
|  3> *xyzfile 0 1 D4.xyz
|  4>
|  5> %MaxCore 64000
|  6>
|  7> %pal nprocs 4
|  8> end
|  9>
| 10> %scf
| 11>   MaxIter 150
| 12> end
| 13>
| 14>
| 15>                          ****END OF INPUT****

CARTESIAN COORDINATES (ANGSTROEM)
---------------------------------
  C      3.343500    3.354571   -3.591998
  C      2.952633    1.863077   -3.574849
  C      4.129209    0.898394   -3.418950
  H      3.733687   -0.100605   -3.237633
  H      4.719095    0.862556   -4.339005
  C      5.017344    1.315212   -2.221305
  C      4.255868    3.703851   -4.726054
  N      3.734032    4.293783   -5.800770
  C      5.515039    3.407255   -4.637185
  H      6.149187    3.601203   -5.399053
  H      5.813584    2.899504   -3.808785
  H      2.741380    4.513109   -5.824701
  H      4.287548    4.521260   -6.614341
  H      2.278938    1.735250   -2.725496
  H      2.377466    1.625787   -4.475869
  O      4.737055    0.854112   -1.122825
  F      5.928146    2.168108   -2.491365
  H      3.861246    3.597252   -2.662979
  H      2.446493    3.973461   -3.656556

 Total Charge           Charge          ....    0
 Multiplicity           Mult            ....    1
 Number of Electrons    NEL             ....   70
 Basis Dimension        Dim             ....  266

ORBITAL ENERGIES
----------------

  NO   OCC          E(Eh)            E(eV)
   0   2.0000     -24.341255      -662.3592
   1   2.0000     -18.779982      -511.0293
   2   2.0000     -14.006331      -381.1316
   3   2.0000     -10.066823      -273.9322
   4   2.0000      -9.920304      -269.9452
   5   2.0000      -9.916707      -269.8473
   6   2.0000      -9.913435      -269.7583
   7   2.0000      -9.906927      -269.5812
   8   2.0000      -9.819419      -267.2000
   9   2.0000      -1.199691       -32.6452
  10   2.0000      -0.960232       -26.1293
  11   2.0000      -0.841592       -22.9009
  12   2.0000      -0.741658       -20.1815
  13   2.0000      -0.679376       -18.4868
  14   2.0000      -0.637839       -17.3565
  15   2.0000      -0.609090       -16.5742
  16   2.0000      -0.557635       -15.1740
  17   2.0000      -0.526850       -14.3363
  18   2.0000      -0.489253       -13.3133
  19   2.0000      -0.478778       -13.0282
  20   2.0000      -0.473287       -12.8788
  21   2.0000      -0.450500       -12.2587
  22   2.0000      -0.431086       -11.7304
  23   2.0000      -0.413603       -11.2547
  24   2.0000      -0.399792       -10.8789
  25   2.0000      -0.373017       -10.1503
  26   2.0000      -0.355487        -9.6733
  27   2.0000      -0.342268        -9.3136
  28   2.0000      -0.333999        -9.0886
  29   2.0000      -0.322721        -8.7817
  30   2.0000      -0.311697        -8.4817
  31   2.0000      -0.292425        -7.9573
  32   2.0000      -0.288621        -7.8538
  33   2.0000      -0.251005        -6.8302
  34   2.0000      -0.165130        -4.4934
  35   0.0000      -0.068866        -1.8740
  36   0.0000      -0.009461        -0.2574
  37   0.0000       0.006718         0.1828
  38   0.0000       0.016033         0.4363
  39   0.0000       0.026226         0.7136

MULLIKEN ATOMIC CHARGES
-----------------------
   0 C :    0.232792
   1 C :    0.035328
   2 C :    0.107450
   3 H :   -0.222687
   4 H :    0.239845
   5 C :    0.715914
   6 C :    0.231886
   7 N :    0.063220
   8 C :    0.781076
   9 H :   -0.724513
  10 H :   -0.069701
  11 H :   -0.134644
  12 H :   -0.207329
  13 H :    0.035780
  14 H :   -0.154485
  15 O :   -0.419980
  16 F :   -0.454285
  17 H :    0.209169
  18 H :   -0.264836
Sum of atomic charges:    0.0000000

LOEWDIN ATOMIC CHARGES
----------------------
   0 C :    0.018855
   1 C :   -0.003210
   2 C :    0.055596
   3 H :    0.030499
   4 H :    0.023669
   5 C :   -0.014062
   6 C :   -0.239684
   7 N :    0.184130
   8 C :    0.196870
   9 H :   -0.071038
  10 H :   -0.153261
  11 H :   -0.006874
  12 H :    0.001179
  13 H :    0.029419
  14 H :    0.029427
  15 O :   -0.083823
  16 F :   -0.042870
  17 H :    0.027081
  18 H :    0.018097

  Mayer bond orders larger than 0.100000
B(  0-C ,  1-C ) :   1.2078 B(  0-C ,  6-C ) :   1.0453 B(  0-C ,  7-N ) :   0.1523
B(  0-C ,  8-C ) :   0.2265 B(  0-C , 13-H ) :   0.1194 B(  0-C , 14-H ) :   0.1503
B(  0-C , 17-H ) :   0.7109 B(  0-C , 18-H ) :   0.8849 B(  1-C ,  2-C ) :   1.2997
B(  1-C ,  3-H ) :   0.1910 B(  1-C ,  4-H ) :   0.1469 B(  1-C , 13-H ) :   0.7941
B(  1-C , 14-H ) :   0.9150 B(  1-C , 17-H ) :   0.1546 B(  1-C , 18-H ) :   0.1800
B(  2-C ,  3-H ) :   0.8678 B(  2-C ,  4-H ) :   0.7678 B(  2-C ,  5-C ) :   1.0565
B(  2-C , 10-H ) :   0.1062 B(  2-C , 13-H ) :   0.1446 B(  2-C , 16-F ) :   0.1717
B(  3-H ,  5-C ) :   0.1417 B(  3-H , 10-H ) :  -0.1086 B(  5-C , 15-O ) :   1.8028
B(  5-C , 16-F ) :   0.6292 B(  6-C ,  7-N ) :   0.9916 B(  6-C ,  8-C ) :   1.7496
B(  6-C ,  9-H ) :   0.2802 B(  6-C , 10-H ) :   0.3086 B(  6-C , 12-H ) :  -0.1376
B(  6-C , 17-H ) :   0.1094 B(  6-C , 18-H ) :   0.1131 B(  7-N ,  8-C ) :   0.3249
B(  7-N , 11-H ) :   1.1730 B(  7-N , 12-H ) :   1.3403 B(  8-C ,  9-H ) :   0.7755
B(  8-C , 10-H ) :   0.4775 B(  9-H , 10-H ) :  -0.3178 B( 11-H , 12-H ) :  -0.1636
B( 15-O , 16-F ) :   0.1584

Dispersion correction           -0.018792496
FINAL SINGLE POINT ENERGY      -463.576994340336

DIPOLE MOMENT
-------------
                                X             Y             Z
Electronic contribution:      6.19610      -2.79071       7.10529
Nuclear contribution   :     -6.99695       3.07955      -8.37829
                        -----------------------------------------
Total Dipole Moment    :     -0.80085       0.28884      -1.27300
                        -----------------------------------------
Magnitude (a.u.)       :      1.53144
Magnitude (Debye)      :      3.89261

Rotational constants in cm-1:     0.106302     0.035771     0.030198
Rotational constants in MHz :  3186.860872  1072.397550   905.318354

                             ****ORCA TERMINATED NORMALLY****
TOTAL RUN TIME: 0 days 0 hours 0 minutes 15 seconds 237 msec
