                         Program Version 5.0.0 -  RELEASE  -
|  1> !TPSS D3BJ RIJCOSX def2-SVPD def2/J TightSCF
|  2> *xyz -1 1
|  3> C         -0.29041        0.95134       -5.15342
|  4> C         -0.05517        1.61942       -3.78858
|  5> H          0.04501        0.86230       -3.00301
|  6> H         -0.92294        2.23033       -3.51703
|  7> C          1.22302        2.46987       -3.75691
|  8> H          1.11470        3.25807       -4.53300
|  9> H          1.23773        3.01124       -2.79216
| 10> O          2.35381        1.71203       -3.93448
| 11> H         -0.38575        1.70447       -5.90748
| 12> H         -1.18723        0.36894       -5.11561
| 13> H          0.53806        0.31571       -5.38692
| 14> *
| 15>
| 16> %MaxCore 64000
| 17>
| 18> %pal nprocs 4
| 19> end
| 20>
| 21> %scf
| 22>   MaxIter 150
| 23> end
| 24>
| 25>
| 26>                          ****END OF INPUT****

CARTESIAN COORDINATES (ANGSTROEM)
---------------------------------
  C     -0.290410    0.951340   -5.153420
  C     -0.055170    1.619420   -3.788580
  H      0.045010    0.862300   -3.003010
  H     -0.922940    2.230330   -3.517030
  C      1.223020    2.469870   -3.756910
  H      1.114700    3.258070   -4.533000
  H      1.237730    3.011240   -2.792160
  O      2.353810    1.712030   -3.934480
  H     -0.385750    1.704470   -5.907480
  H     -1.187230    0.368940   -5.115610
  H      0.538060    0.315710   -5.386920

 Total Charge           Charge          ....   -1
 Multiplicity           Mult            ....    1
 Number of Electrons    NEL             ....   34
 Basis Dimension        Dim             ....  139

ORBITAL ENERGIES
----------------

  NO   OCC          E(Eh)            E(eV)
   0   2.0000     -18.576407      -505.4897
   1   2.0000      -9.821299      -267.2511
   2   2.0000      -9.817594      -267.1503
   3   2.0000      -9.809469      -266.9292
   4   2.0000      -0.611099       -16.6288
   5   2.0000      -0.519188       -14.1278
   6   2.0000      -0.411646       -11.2014
   7   2.0000      -0.315862        -8.5950
   8   2.0000      -0.231604        -6.3023
   9   2.0000      -0.225197        -6.1279
  10   2.0000      -0.181543        -4.9400
  11   2.0000      -0.150518        -4.0958
  12   2.0000      -0.123441        -3.3590
  13   2.0000      -0.118190        -3.2161
  14   2.0000      -0.072498        -1.9728
  15   2.0000       0.063640         1.7317
  16   2.0000       0.066937         1.8214
  17   0.0000       0.156673         4.2633
  18   0.0000       0.182081         4.9547
  19   0.0000       0.196908         5.3581
  20   0.0000       0.224747         6.1157
  21   0.0000       0.239902         6.5281

MULLIKEN ATOMIC CHARGES
-----------------------
   0 C :    0.524603
   1 C :   -0.587996
   2 H :   -0.028426
   3 H :   -0.038035
   4 C :    0.442141
   5 H :   -0.106165
   6 H :   -0.170041
   7 O :   -0.907532
   8 H :   -0.051525
   9 H :   -0.068958
  10 H :   -0.008066
Sum of atomic charges:   -1.0000000

LOEWDIN ATOMIC CHARGES
----------------------
   0 C :    0.098138
   1 C :   -0.106000
   2 H :   -0.002979
   3 H :   -0.023221
   4 C :   -0.210587
   5 H :   -0.035943
   6 H :   -0.042185
   7 O :   -0.544227
   8 H :   -0.041219
   9 H :   -0.054860
  10 H :   -0.036916

  Mayer bond orders larger than 0.100000
B(  0-C ,  1-C ) :   1.2336 B(  0-C ,  8-H ) :   0.8531 B(  0-C ,  9-H ) :   0.8242
B(  0-C , 10-H ) :   0.8579 B(  1-C ,  2-H ) :   1.0078 B(  1-C ,  3-H ) :   1.0365
B(  1-C ,  4-C ) :   1.0316 B(  1-C ,  5-H ) :   0.1314 B(  1-C ,  6-H ) :   0.1472
B(  1-C ,  7-O ) :   0.2195 B(  1-C ,  8-H ) :   0.1884 B(  1-C ,  9-H ) :   0.1849
B(  1-C , 10-H ) :   0.1975 B(  2-H ,  4-C ) :   0.1409 B(  4-C ,  5-H ) :   0.9624
B(  4-C ,  6-H ) :   0.9710 B(  4-C ,  7-O ) :   1.0833

Dispersion correction           -0.008092459
FINAL SINGLE POINT ENERGY      -193.648165322095

DIPOLE MOMENT
-------------
                                X             Y             Z
Electronic contribution:      3.01942      -0.07598       0.69756
Nuclear contribution   :     -4.97104      -0.06484      -1.04325
                        -----------------------------------------
Total Dipole Moment    :     -1.95162      -0.14081      -0.34570
                        -----------------------------------------
Magnitude (a.u.)       :      1.98699
Magnitude (Debye)      :      5.05053

Rotational constants in cm-1:     0.508668     0.174500     0.148765
Rotational constants in MHz : 15249.486055  5231.367342  4459.875680

                             ****ORCA TERMINATED NORMALLY****
TOTAL RUN TIME: 0 days 0 hours 0 minutes 6 seconds 779 msec
