                         Program Version 5.0.0 -  RELEASE  -
|  1> !TPSS D3BJ RIJCOSX def2-SVPD def2/J TightSCF
|  2> *xyz 1 1
|  3> C          1.63556       -1.67040       -5.29211
|  4> C          0.33848       -1.50091       -4.50540
|  5> N          2.48451       -0.50741       -5.14039
|  6> C         -0.68487       -0.52803       -5.09989
|  7> H          1.39834       -1.82924       -6.35259
|  8> H          2.15586       -2.56540       -4.93209
|  9> C          3.45115       -0.14953       -5.95259
| 10> N          3.92267        1.08956       -5.85071
| 11> N          3.96616       -1.00618       -6.86788
| 12> H          3.52139       -1.90647       -6.99527
| 13> H          4.44482       -0.62347       -7.67035
| 14> H          2.25200        0.24080       -4.49879
| 15> H          3.46428        1.64078       -5.13639
| 16> H          4.83447        1.31375       -6.22465
| 17> H          0.59489       -1.21158       -3.48231
| 18> H         -0.12653       -2.48766       -4.43418
| 19> H         -0.92267       -0.82721       -6.09931
| 20> H         -0.27317        0.45953       -5.11162
| 21> H         -1.57350       -0.53693       -4.50394
| 22> *
| 23>
| 24> %MaxCore 64000
| 25>
| 26> %pal nprocs 4
| 27> end
| 28>
| 29> %scf
| 30>   MaxIter 150
| 31> end
| 32>
| 33>
| 34>                          ****END OF INPUT****

CARTESIAN COORDINATES (ANGSTROEM)
---------------------------------
  C      1.635560   -1.670400   -5.292110
  C      0.338480   -1.500910   -4.505400
  N      2.484510   -0.507410   -5.140390
  C     -0.684870   -0.528030   -5.099890
  H      1.398340   -1.829240   -6.352590
  H      2.155860   -2.565400   -4.932090
  C      3.451150   -0.149530   -5.952590
  N      3.922670    1.089560   -5.850710
  N      3.966160   -1.006180   -6.867880
  H      3.521390   -1.906470   -6.995270
  H      4.444820   -0.623470   -7.670350
  H      2.252000    0.240800   -4.498790
  H      3.464280    1.640780   -5.136390
  H      4.834470    1.313750   -6.224650
  H      0.594890   -1.211580   -3.482310
  H     -0.126530   -2.487660   -4.434180
  H     -0.922670   -0.827210   -6.099310
  H     -0.273170    0.459530   -5.111620
  H     -1.573500   -0.536930   -4.503940

 Total Charge           Charge          ....    1
 Multiplicity           Mult            ....    1
 Number of Electrons    NEL             ....   56
 Basis Dimension        Dim             ....  236

ORBITAL ENERGIES
----------------

  NO   OCC          E(Eh)            E(eV)
   0   2.0000     -14.340690      -390.2300
   1   2.0000     -14.339164      -390.1885
   2   2.0000     -14.337333      -390.1387
   3   2.0000     -10.319487      -280.8075
   4   2.0000     -10.206524      -277.7336
   5   2.0000     -10.146903      -276.1113
   6   2.0000     -10.118165      -275.3293
   7   2.0000      -1.140821       -31.0433
   8   2.0000      -1.034391       -28.1472
   9   2.0000      -1.022512       -27.8240
  10   2.0000      -0.880851       -23.9692
  11   2.0000      -0.802394       -21.8342
  12   2.0000      -0.771996       -21.0071
  13   2.0000      -0.731512       -19.9055
  14   2.0000      -0.716569       -19.4988
  15   2.0000      -0.682640       -18.5756
  16   2.0000      -0.645436       -17.5632
  17   2.0000      -0.639700       -17.4071
  18   2.0000      -0.609172       -16.5764
  19   2.0000      -0.601602       -16.3704
  20   2.0000      -0.553368       -15.0579
  21   2.0000      -0.535301       -14.5663
  22   2.0000      -0.516140       -14.0449
  23   2.0000      -0.464162       -12.6305
  24   2.0000      -0.450760       -12.2658
  25   2.0000      -0.449163       -12.2224
  26   2.0000      -0.437061       -11.8930
  27   2.0000      -0.415069       -11.2946
  28   0.0000      -0.196273        -5.3409
  29   0.0000      -0.168684        -4.5901
  30   0.0000      -0.137836        -3.7507
  31   0.0000      -0.118805        -3.2328
  32   0.0000      -0.102251        -2.7824

MULLIKEN ATOMIC CHARGES
-----------------------
   0 C :    0.466479
   1 C :   -0.312472
   2 N :   -0.475953
   3 C :    0.677999
   4 H :    0.019153
   5 H :   -0.116050
   6 C :    1.289994
   7 N :   -0.046486
   8 N :   -0.073450
   9 H :    0.001534
  10 H :   -0.076741
  11 H :   -0.131742
  12 H :    0.043835
  13 H :   -0.098317
  14 H :   -0.035743
  15 H :   -0.049155
  16 H :    0.005758
  17 H :   -0.053453
  18 H :   -0.035189
Sum of atomic charges:    1.0000000

LOEWDIN ATOMIC CHARGES
----------------------
   0 C :    0.067798
   1 C :   -0.043824
   2 N :    0.044952
   3 C :    0.154595
   4 H :    0.035386
   5 H :    0.038892
   6 C :   -0.038774
   7 N :    0.266426
   8 N :    0.284869
   9 H :    0.014925
  10 H :    0.034196
  11 H :    0.050178
  12 H :    0.031833
  13 H :    0.042801
  14 H :    0.026109
  15 H :    0.033116
  16 H :   -0.011804
  17 H :   -0.026976
  18 H :   -0.004696

  Mayer bond orders larger than 0.100000
B(  0-C ,  1-C ) :   1.2042 B(  0-C ,  2-N ) :   0.9532 B(  0-C ,  4-H ) :   0.8262
B(  0-C ,  5-H ) :   0.9087 B(  0-C , 11-H ) :  -0.1274 B(  0-C , 14-H ) :   0.1342
B(  0-C , 15-H ) :   0.1976 B(  1-C ,  2-N ) :   0.1177 B(  1-C ,  3-C ) :   1.2899
B(  1-C , 14-H ) :   0.8833 B(  1-C , 15-H ) :   0.8618 B(  1-C , 16-H ) :   0.1786
B(  1-C , 17-H ) :   0.2127 B(  1-C , 18-H ) :   0.2199 B(  2-N ,  4-H ) :   0.1609
B(  2-N ,  5-H ) :   0.1447 B(  2-N ,  6-C ) :   1.0314 B(  2-N ,  7-N ) :   0.3261
B(  2-N ,  8-N ) :   0.2141 B(  2-N , 11-H ) :   1.1877 B(  3-C , 16-H ) :   0.8194
B(  3-C , 17-H ) :   0.8237 B(  3-C , 18-H ) :   0.7858 B(  6-C ,  7-N ) :   0.9059
B(  6-C ,  8-N ) :   0.8943 B(  6-C ,  9-H ) :  -0.1088 B(  6-C , 10-H ) :  -0.1270
B(  6-C , 11-H ) :  -0.2480 B(  6-C , 13-H ) :  -0.1156 B(  7-N ,  8-N ) :   0.1716
B(  7-N , 12-H ) :   1.0468 B(  7-N , 13-H ) :   1.2377 B(  8-N ,  9-H ) :   1.0291
B(  8-N , 10-H ) :   1.2254 B(  9-H , 10-H ) :  -0.1467 B( 12-H , 13-H ) :  -0.1402

Dispersion correction           -0.018806876
FINAL SINGLE POINT ENERGY      -323.562889776046

DIPOLE MOMENT
-------------
                                X             Y             Z
Electronic contribution:      7.34002       1.73730      -1.59577
Nuclear contribution   :     -5.91327      -1.13589       1.03073
                        -----------------------------------------
Total Dipole Moment    :      1.42674       0.60141      -0.56504
                        -----------------------------------------
Magnitude (a.u.)       :      1.64820
Magnitude (Debye)      :      4.18940

Rotational constants in cm-1:     0.176161     0.043658     0.038822
Rotational constants in MHz :  5281.161077  1308.843263  1163.840625

                             ****ORCA TERMINATED NORMALLY****
TOTAL RUN TIME: 0 days 0 hours 0 minutes 15 seconds 819 msec
