                         Program Version 5.0.0 -  RELEASE  -
|  1> !TPSS D3BJ RIJCOSX def2-SVPD def2/J TightSCF xyzfile
|  2>
|  3> *xyzfile 0 1 B.xyz
|  4>
|  5> %MaxCore 64000
|  6>
|  7> %pal nprocs 4
|  8> end
|  9>
| 10> %scf
| 11>   MaxIter 150
| 12> end
| 13>
| 14>
| 15>                          ****END OF INPUT****

CARTESIAN COORDINATES (ANGSTROEM)
---------------------------------
  C      1.635557   -1.670396   -5.292109
  C      0.338484   -1.500907   -4.505398
  N      2.484511   -0.507410   -5.140392
  C     -0.684873   -0.528026   -5.099889
  C     -0.290406    0.951335   -5.153423
  H      0.607991    1.070692   -5.764412
  C     -0.055168    1.619420   -3.788577
  H     -1.080912    1.483775   -5.689436
  H      0.045006    0.862302   -3.003015
  H     -0.922936    2.230329   -3.517028
  C      1.223022    2.469865   -3.756911
  H      1.114701    3.258074   -4.532999
  H      1.237732    3.011242   -2.792157
  O      2.353815    1.712032   -3.934477
  H      1.398337   -1.829239   -6.352591
  H      2.155864   -2.565398   -4.932091
  C      3.451149   -0.149530   -5.952589
  N      3.922667    1.089559   -5.850711
  N      3.966162   -1.006183   -6.867880
  H      3.521391   -1.906467   -6.995270
  H      4.444824   -0.623472   -7.670348
  H      2.251995    0.240804   -4.498792
  H      3.464277    1.640782   -5.136392
  H      4.834470    1.313745   -6.224653
  H     -0.937999   -0.869056   -6.110838
  H     -1.604638   -0.622496   -4.513132
  H      0.594887   -1.211578   -3.482312
  H     -0.126530   -2.487656   -4.434176

 Total Charge           Charge          ....    0
 Multiplicity           Mult            ....    1
 Number of Electrons    NEL             ....   88
 Basis Dimension        Dim             ....  359

ORBITAL ENERGIES
----------------

  NO   OCC          E(Eh)            E(eV)
   0   2.0000     -18.772890      -510.8363
   1   2.0000     -14.175232      -385.7277
   2   2.0000     -14.131741      -384.5442
   3   2.0000     -14.131607      -384.5406
   4   2.0000     -10.133545      -275.7478
   5   2.0000     -10.052933      -273.5542
   6   2.0000     -10.004916      -272.2476
   7   2.0000      -9.991936      -271.8944
   8   2.0000      -9.981082      -271.5991
   9   2.0000      -9.974054      -271.4078
  10   2.0000      -9.956029      -270.9173
  11   2.0000      -0.954663       -25.9777
  12   2.0000      -0.856704       -23.3121
  13   2.0000      -0.837245       -22.7826
  14   2.0000      -0.808010       -21.9871
  15   2.0000      -0.735696       -20.0193
  16   2.0000      -0.684560       -18.6278
  17   2.0000      -0.631655       -17.1882
  18   2.0000      -0.598374       -16.2826
  19   2.0000      -0.573057       -15.5937
  20   2.0000      -0.549484       -14.9522
  21   2.0000      -0.528871       -14.3913
  22   2.0000      -0.513727       -13.9792
  23   2.0000      -0.477798       -13.0015
  24   2.0000      -0.465401       -12.6642
  25   2.0000      -0.452033       -12.3004
  26   2.0000      -0.444752       -12.1023
  27   2.0000      -0.434620       -11.8266
  28   2.0000      -0.397763       -10.8237
  29   2.0000      -0.384990       -10.4761
  30   2.0000      -0.375224       -10.2104
  31   2.0000      -0.372398       -10.1335
  32   2.0000      -0.345816        -9.4101
  33   2.0000      -0.328437        -8.9372
  34   2.0000      -0.321732        -8.7548
  35   2.0000      -0.301260        -8.1977
  36   2.0000      -0.284082        -7.7303
  37   2.0000      -0.272868        -7.4251
  38   2.0000      -0.267233        -7.2718
  39   2.0000      -0.261643        -7.1197
  40   2.0000      -0.254834        -6.9344
  41   2.0000      -0.228615        -6.2209
  42   2.0000      -0.140402        -3.8205
  43   2.0000      -0.133052        -3.6205
  44   0.0000      -0.022319        -0.6073
  45   0.0000      -0.015713        -0.4276
  46   0.0000       0.008638         0.2351
  47   0.0000       0.024173         0.6578
  48   0.0000       0.036393         0.9903

MULLIKEN ATOMIC CHARGES
-----------------------
   0 C :    0.654411
   1 C :    0.063073
   2 N :    0.017641
   3 C :    0.154515
   4 C :    0.111852
   5 H :    0.018475
   6 C :   -0.042793
   7 H :   -0.237015
   8 H :   -0.007649
   9 H :   -0.175482
  10 C :    0.801148
  11 H :   -0.112575
  12 H :   -0.149251
  13 O :   -1.101717
  14 H :    0.019663
  15 H :   -0.192407
  16 C :    1.182460
  17 N :    0.222787
  18 N :   -0.039192
  19 H :   -0.047825
  20 H :   -0.112431
  21 H :   -0.594430
  22 H :   -0.094438
  23 H :   -0.233028
  24 H :    0.099570
  25 H :   -0.090346
  26 H :    0.050648
  27 H :   -0.165663
Sum of atomic charges:    0.0000000

LOEWDIN ATOMIC CHARGES
----------------------
   0 C :    0.064921
   1 C :   -0.008697
   2 N :    0.067101
   3 C :   -0.022790
   4 C :   -0.019961
   5 H :    0.000367
   6 C :   -0.014854
   7 H :    0.010943
   8 H :    0.003508
   9 H :    0.008405
  10 C :   -0.059634
  11 H :    0.006838
  12 H :    0.001679
  13 O :   -0.418091
  14 H :    0.017967
  15 H :    0.019800
  16 C :   -0.047327
  17 N :    0.270269
  18 N :    0.244259
  19 H :   -0.010030
  20 H :    0.006977
  21 H :   -0.101949
  22 H :   -0.099639
  23 H :    0.012973
  24 H :    0.012980
  25 H :    0.018577
  26 H :    0.017755
  27 H :    0.017652

  Mayer bond orders larger than 0.100000
B(  0-C ,  1-C ) :   1.2166 B(  0-C ,  2-N ) :   0.9108 B(  0-C , 14-H ) :   0.7562
B(  0-C , 15-H ) :   0.8581 B(  0-C , 21-H ) :  -0.2053 B(  0-C , 26-H ) :   0.1261
B(  0-C , 27-H ) :   0.2011 B(  1-C ,  2-N ) :   0.1217 B(  1-C ,  3-C ) :   1.2315
B(  1-C , 24-H ) :   0.1542 B(  1-C , 25-H ) :   0.1867 B(  1-C , 26-H ) :   0.7772
B(  1-C , 27-H ) :   0.8071 B(  2-N , 14-H ) :   0.2836 B(  2-N , 15-H ) :   0.1936
B(  2-N , 16-C ) :   1.2259 B(  2-N , 17-N ) :   0.1680 B(  2-N , 18-N ) :   0.1426
B(  2-N , 21-H ) :   0.9898 B(  3-C ,  4-C ) :   1.2726 B(  3-C ,  5-H ) :   0.1554
B(  3-C ,  7-H ) :   0.1362 B(  3-C , 24-H ) :   0.6784 B(  3-C , 25-H ) :   0.8512
B(  3-C , 26-H ) :   0.1499 B(  3-C , 27-H ) :   0.1449 B(  4-C ,  5-H ) :   0.8156
B(  4-C ,  6-C ) :   1.2013 B(  4-C ,  7-H ) :   0.8136 B(  4-C ,  8-H ) :   0.1200
B(  4-C ,  9-H ) :   0.1673 B(  4-C , 24-H ) :   0.2070 B(  4-C , 25-H ) :   0.1255
B(  5-H ,  6-C ) :   0.1311 B(  6-C ,  8-H ) :   0.8646 B(  6-C ,  9-H ) :   0.9592
B(  6-C , 10-C ) :   1.0547 B(  6-C , 12-H ) :   0.1808 B(  6-C , 13-O ) :   0.1505
B( 10-C , 11-H ) :   0.8710 B( 10-C , 12-H ) :   0.8129 B( 10-C , 13-O ) :   0.9904
B( 11-H , 13-O ) :   0.2209 B( 13-O , 21-H ) :   0.2722 B( 13-O , 22-H ) :   0.2845
B( 16-C , 17-N ) :   0.8701 B( 16-C , 18-N ) :   0.8452 B( 16-C , 20-H ) :  -0.1151
B( 16-C , 21-H ) :  -0.4621 B( 16-C , 22-H ) :  -0.1298 B( 16-C , 23-H ) :  -0.1624
B( 17-N , 18-N ) :   0.1511 B( 17-N , 22-H ) :   1.0000 B( 17-N , 23-H ) :   1.3450
B( 18-N , 19-H ) :   1.0534 B( 18-N , 20-H ) :   1.2520 B( 19-H , 20-H ) :  -0.1487
B( 22-H , 23-H ) :  -0.2034

Dispersion correction           -0.036076016
FINAL SINGLE POINT ENERGY      -516.222366008469

DIPOLE MOMENT
-------------
                                X             Y             Z
Electronic contribution:      8.35095      -0.87559      -2.18707
Nuclear contribution   :     -7.46499      -1.05836       0.01518
                        -----------------------------------------
Total Dipole Moment    :      0.88596      -1.93396      -2.17189
                        -----------------------------------------
Magnitude (a.u.)       :      3.04010
Magnitude (Debye)      :      7.72733

Rotational constants in cm-1:     0.044680     0.028958     0.019773
Rotational constants in MHz :  1339.486245   868.136755   592.791310

                             ****ORCA TERMINATED NORMALLY****
TOTAL RUN TIME: 0 days 0 hours 0 minutes 45 seconds 989 msec
