                         Program Version 5.0.0 -  RELEASE  -
|  1> !TPSS D3BJ RIJCOSX def2-SVPD def2/J TightSCF
|  2> *xyz 0 1
|  3> C         -0.29041        0.95134       -5.15342
|  4> C         -0.05517        1.61942       -3.78858
|  5> H          0.04501        0.86230       -3.00301
|  6> H         -0.92294        2.23033       -3.51703
|  7> C          1.22302        2.46987       -3.75691
|  8> H          1.11470        3.25807       -4.53300
|  9> H          1.23773        3.01124       -2.79216
| 10> F          2.35381        1.71203       -3.93448
| 11> H         -0.38575        1.70447       -5.90748
| 12> H         -1.18723        0.36894       -5.11561
| 13> H          0.53806        0.31571       -5.38692
| 14> *
| 15>
| 16> %MaxCore 64000
| 17>
| 18> %pal nprocs 4
| 19> end
| 20>
| 21> %scf
| 22>   MaxIter 150
| 23> end
| 24>
| 25>
| 26>                          ****END OF INPUT****

CARTESIAN COORDINATES (ANGSTROEM)
---------------------------------
  C     -0.290410    0.951340   -5.153420
  C     -0.055170    1.619420   -3.788580
  H      0.045010    0.862300   -3.003010
  H     -0.922940    2.230330   -3.517030
  C      1.223020    2.469870   -3.756910
  H      1.114700    3.258070   -4.533000
  H      1.237730    3.011240   -2.792160
  F      2.353810    1.712030   -3.934480
  H     -0.385750    1.704470   -5.907480
  H     -1.187230    0.368940   -5.115610
  H      0.538060    0.315710   -5.386920

 Total Charge           Charge          ....    0
 Multiplicity           Mult            ....    1
 Number of Electrons    NEL             ....   34
 Basis Dimension        Dim             ....  139

ORBITAL ENERGIES
----------------

  NO   OCC          E(Eh)            E(eV)
   0   2.0000     -24.416026      -664.3939
   1   2.0000     -10.077553      -274.2241
   2   2.0000     -10.007739      -272.3244
   3   2.0000      -9.990831      -271.8643
   4   2.0000      -1.105926       -30.0938
   5   2.0000      -0.725024       -19.7289
   6   2.0000      -0.631477       -17.1834
   7   2.0000      -0.545772       -14.8512
   8   2.0000      -0.462478       -12.5847
   9   2.0000      -0.444839       -12.1047
  10   2.0000      -0.421771       -11.4770
  11   2.0000      -0.393052       -10.6955
  12   2.0000      -0.356485        -9.7005
  13   2.0000      -0.335038        -9.1169
  14   2.0000      -0.318612        -8.6699
  15   2.0000      -0.288617        -7.8537
  16   2.0000      -0.285204        -7.7608
  17   0.0000       0.011641         0.3168
  18   0.0000       0.037915         1.0317
  19   0.0000       0.045769         1.2454
  20   0.0000       0.053426         1.4538
  21   0.0000       0.077098         2.0980

MULLIKEN ATOMIC CHARGES
-----------------------
   0 C :    0.555707
   1 C :   -0.537093
   2 H :   -0.044590
   3 H :   -0.040616
   4 C :    0.709131
   5 H :   -0.015499
   6 H :   -0.065775
   7 F :   -0.456720
   8 H :   -0.039038
   9 H :   -0.047298
  10 H :   -0.018208
Sum of atomic charges:    0.0000000

LOEWDIN ATOMIC CHARGES
----------------------
   0 C :    0.135420
   1 C :   -0.056177
   2 H :    0.018897
   3 H :    0.020250
   4 C :    0.100332
   5 H :    0.029158
   6 H :    0.024245
   7 F :   -0.205041
   8 H :   -0.022378
   9 H :   -0.024180
  10 H :   -0.020525

  Mayer bond orders larger than 0.100000
B(  0-C ,  1-C ) :   1.2858 B(  0-C ,  8-H ) :   0.8407 B(  0-C ,  9-H ) :   0.8369
B(  0-C , 10-H ) :   0.8501 B(  1-C ,  2-H ) :   0.9826 B(  1-C ,  3-H ) :   0.9773
B(  1-C ,  4-C ) :   1.1760 B(  1-C ,  6-H ) :   0.1108 B(  1-C ,  8-H ) :   0.1668
B(  1-C ,  9-H ) :   0.1733 B(  1-C , 10-H ) :   0.1763 B(  4-C ,  5-H ) :   0.9206
B(  4-C ,  6-H ) :   0.9188 B(  4-C ,  7-F ) :   0.6957

Dispersion correction           -0.007635551
FINAL SINGLE POINT ENERGY      -218.259377759834

DIPOLE MOMENT
-------------
                                X             Y             Z
Electronic contribution:      6.19686       0.37456       1.39831
Nuclear contribution   :     -6.82889      -0.09322      -1.32039
                        -----------------------------------------
Total Dipole Moment    :     -0.63203       0.28134       0.07793
                        -----------------------------------------
Magnitude (a.u.)       :      0.69620
Magnitude (Debye)      :      1.76959

Rotational constants in cm-1:     0.494282     0.164406     0.140369
Rotational constants in MHz : 14818.207649  4928.760399  4208.156468

                             ****ORCA TERMINATED NORMALLY****
TOTAL RUN TIME: 0 days 0 hours 0 minutes 5 seconds 375 msec
