                         Program Version 5.0.0 -  RELEASE  -
|  1> !TPSS D3BJ RIJCOSX def2-SVPD def2/J TightSCF
|  2> *xyz 0 1
|  3> C          1.63556       -1.67040       -5.29211
|  4> C          0.33848       -1.50091       -4.50540
|  5> C          2.48451       -0.50741       -5.14039
|  6> C         -0.68487       -0.52803       -5.09989
|  7> H          1.39834       -1.82924       -6.35259
|  8> H          2.15586       -2.56540       -4.93209
|  9> C          3.45115       -0.14953       -5.95259
| 10> N          3.92267        1.08956       -5.85071
| 11> N          3.96616       -1.00618       -6.86788
| 12> H          3.52139       -1.90647       -6.99527
| 13> H          4.44482       -0.62347       -7.67035
| 14> H          2.25200        0.24080       -4.49879
| 15> H          3.46428        1.64078       -5.13639
| 16> H          4.83447        1.31375       -6.22465
| 17> H          0.59489       -1.21158       -3.48231
| 18> H         -0.12653       -2.48766       -4.43418
| 19> H         -0.92267       -0.82721       -6.09931
| 20> H         -0.27317        0.45953       -5.11162
| 21> H         -1.57350       -0.53693       -4.50394
| 22> *
| 23>
| 24> %MaxCore 64000
| 25>
| 26> %pal nprocs 4
| 27> end
| 28>
| 29> %scf
| 30>   MaxIter 150
| 31> end
| 32>
| 33>
| 34>                          ****END OF INPUT****

CARTESIAN COORDINATES (ANGSTROEM)
---------------------------------
  C      1.635560   -1.670400   -5.292110
  C      0.338480   -1.500910   -4.505400
  C      2.484510   -0.507410   -5.140390
  C     -0.684870   -0.528030   -5.099890
  H      1.398340   -1.829240   -6.352590
  H      2.155860   -2.565400   -4.932090
  C      3.451150   -0.149530   -5.952590
  N      3.922670    1.089560   -5.850710
  N      3.966160   -1.006180   -6.867880
  H      3.521390   -1.906470   -6.995270
  H      4.444820   -0.623470   -7.670350
  H      2.252000    0.240800   -4.498790
  H      3.464280    1.640780   -5.136390
  H      4.834470    1.313750   -6.224650
  H      0.594890   -1.211580   -3.482310
  H     -0.126530   -2.487660   -4.434180
  H     -0.922670   -0.827210   -6.099310
  H     -0.273170    0.459530   -5.111620
  H     -1.573500   -0.536930   -4.503940

 Total Charge           Charge          ....    0
 Multiplicity           Mult            ....    1
 Number of Electrons    NEL             ....   56
 Basis Dimension        Dim             ....  236

ORBITAL ENERGIES
----------------

  NO   OCC          E(Eh)            E(eV)
   0   2.0000     -14.120071      -384.2267
   1   2.0000     -14.115407      -384.0998
   2   2.0000     -10.032100      -272.9873
   3   2.0000      -9.981066      -271.5986
   4   2.0000      -9.978006      -271.5154
   5   2.0000      -9.973740      -271.3992
   6   2.0000      -9.922750      -270.0118
   7   2.0000      -0.884062       -24.0566
   8   2.0000      -0.802338       -21.8327
   9   2.0000      -0.722475       -19.6596
  10   2.0000      -0.662166       -18.0185
  11   2.0000      -0.602388       -16.3918
  12   2.0000      -0.541225       -14.7275
  13   2.0000      -0.520945       -14.1756
  14   2.0000      -0.487541       -13.2667
  15   2.0000      -0.467846       -12.7307
  16   2.0000      -0.425595       -11.5810
  17   2.0000      -0.401666       -10.9299
  18   2.0000      -0.394188       -10.7264
  19   2.0000      -0.370891       -10.0925
  20   2.0000      -0.347331        -9.4514
  21   2.0000      -0.333631        -9.0786
  22   2.0000      -0.325424        -8.8552
  23   2.0000      -0.291225        -7.9246
  24   2.0000      -0.283200        -7.7063
  25   2.0000      -0.276544        -7.5252
  26   2.0000      -0.224209        -6.1010
  27   2.0000      -0.134090        -3.6488
  28   0.0000       0.004109         0.1118
  29   0.0000       0.027589         0.7507
  30   0.0000       0.031338         0.8528
  31   0.0000       0.045518         1.2386
  32   0.0000       0.056176         1.5286

MULLIKEN ATOMIC CHARGES
-----------------------
   0 C :    0.207950
   1 C :   -0.180789
   2 C :   -0.209041
   3 C :    0.673000
   4 H :   -0.018554
   5 H :   -0.121843
   6 C :    0.636334
   7 N :   -0.016016
   8 N :   -0.115405
   9 H :   -0.001554
  10 H :   -0.159001
  11 H :   -0.351473
  12 H :    0.079151
  13 H :   -0.211580
  14 H :   -0.006067
  15 H :   -0.087434
  16 H :   -0.021046
  17 H :   -0.053982
  18 H :   -0.042649
Sum of atomic charges:   -0.0000000

LOEWDIN ATOMIC CHARGES
----------------------
   0 C :   -0.069111
   1 C :   -0.076737
   2 C :   -0.030407
   3 C :    0.135104
   4 H :    0.013451
   5 H :    0.013655
   6 C :   -0.222819
   7 N :    0.177635
   8 N :    0.206363
   9 H :   -0.015703
  10 H :   -0.015575
  11 H :   -0.052377
  12 H :    0.000629
  13 H :   -0.010153
  14 H :    0.016395
  15 H :    0.007905
  16 H :   -0.023657
  17 H :   -0.028547
  18 H :   -0.026051

  Mayer bond orders larger than 0.100000
B(  0-C ,  1-C ) :   1.2260 B(  0-C ,  2-C ) :   0.8826 B(  0-C ,  4-H ) :   0.8158
B(  0-C ,  5-H ) :   0.7680 B(  0-C , 11-H ) :   0.2514 B(  0-C , 14-H ) :   0.1770
B(  0-C , 15-H ) :   0.2378 B(  1-C ,  2-C ) :   0.1648 B(  1-C ,  3-C ) :   1.2697
B(  1-C , 14-H ) :   0.8631 B(  1-C , 15-H ) :   0.8068 B(  1-C , 16-H ) :   0.1891
B(  1-C , 17-H ) :   0.2234 B(  1-C , 18-H ) :   0.2178 B(  2-C ,  4-H ) :   0.1712
B(  2-C ,  5-H ) :   0.2696 B(  2-C ,  6-C ) :   1.5654 B(  2-C ,  7-N ) :   0.3667
B(  2-C ,  8-N ) :   0.2315 B(  2-C ,  9-H ) :  -0.1280 B(  2-C , 11-H ) :   0.8749
B(  2-C , 12-H ) :  -0.1006 B(  3-C , 16-H ) :   0.8257 B(  3-C , 17-H ) :   0.8336
B(  3-C , 18-H ) :   0.7738 B(  6-C ,  7-N ) :   0.8906 B(  6-C ,  8-N ) :   0.9298
B(  7-N ,  8-N ) :   0.1328 B(  7-N , 12-H ) :   1.0267 B(  7-N , 13-H ) :   1.2559
B(  8-N ,  9-H ) :   1.0337 B(  8-N , 10-H ) :   1.2363 B(  9-H , 10-H ) :  -0.1228
B( 12-H , 13-H ) :  -0.1382

Dispersion correction           -0.019502569
FINAL SINGLE POINT ENERGY      -307.087596357004

DIPOLE MOMENT
-------------
                                X             Y             Z
Electronic contribution:      6.38998       1.44018      -1.64838
Nuclear contribution   :     -5.84539      -1.11717       1.11949
                        -----------------------------------------
Total Dipole Moment    :      0.54459       0.32302      -0.52889
                        -----------------------------------------
Magnitude (a.u.)       :      0.82501
Magnitude (Debye)      :      2.09700

Rotational constants in cm-1:     0.177055     0.043715     0.038831
Rotational constants in MHz :  5307.971484  1310.555422  1164.112547

                             ****ORCA TERMINATED NORMALLY****
TOTAL RUN TIME: 0 days 0 hours 0 minutes 16 seconds 682 msec
