                         Program Version 5.0.0 -  RELEASE  -
|  1> !TPSS D3BJ RIJCOSX def2-SVPD def2/J TightSCF
|  2> *xyz 0 1
|  3> C          1.63556       -1.67040       -5.29211
|  4> C          0.33848       -1.50091       -4.50540
|  5> N          2.48451       -0.50741       -5.14039
|  6> C         -0.68487       -0.52803       -5.09989
|  7> H          1.39834       -1.82924       -6.35259
|  8> H          2.15586       -2.56540       -4.93209
|  9> C          3.45115       -0.14953       -5.95259
| 10> C          3.92267        1.08956       -5.85071
| 11> N          3.96616       -1.00618       -6.86788
| 12> H          3.52139       -1.90647       -6.99527
| 13> H          4.44482       -0.62347       -7.67035
| 14> H          2.25200        0.24080       -4.49879
| 15> H          3.46428        1.64078       -5.13639
| 16> H          4.83447        1.31375       -6.22465
| 17> H          0.59489       -1.21158       -3.48231
| 18> H         -0.12653       -2.48766       -4.43418
| 19> H         -0.92267       -0.82721       -6.09931
| 20> H         -0.27317        0.45953       -5.11162
| 21> H         -1.57350       -0.53693       -4.50394
| 22> *
| 23>
| 24> %MaxCore 64000
| 25>
| 26> %pal nprocs 4
| 27> end
| 28>
| 29> %scf
| 30>   MaxIter 150
| 31> end
| 32>
| 33>
| 34>                          ****END OF INPUT****

CARTESIAN COORDINATES (ANGSTROEM)
---------------------------------
  C      1.635560   -1.670400   -5.292110
  C      0.338480   -1.500910   -4.505400
  N      2.484510   -0.507410   -5.140390
  C     -0.684870   -0.528030   -5.099890
  H      1.398340   -1.829240   -6.352590
  H      2.155860   -2.565400   -4.932090
  C      3.451150   -0.149530   -5.952590
  C      3.922670    1.089560   -5.850710
  N      3.966160   -1.006180   -6.867880
  H      3.521390   -1.906470   -6.995270
  H      4.444820   -0.623470   -7.670350
  H      2.252000    0.240800   -4.498790
  H      3.464280    1.640780   -5.136390
  H      4.834470    1.313750   -6.224650
  H      0.594890   -1.211580   -3.482310
  H     -0.126530   -2.487660   -4.434180
  H     -0.922670   -0.827210   -6.099310
  H     -0.273170    0.459530   -5.111620
  H     -1.573500   -0.536930   -4.503940

 Total Charge           Charge          ....    0
 Multiplicity           Mult            ....    1
 Number of Electrons    NEL             ....   56
 Basis Dimension        Dim             ....  236

ORBITAL ENERGIES
----------------

  NO   OCC          E(Eh)            E(eV)
   0   2.0000     -14.117223      -384.1492
   1   2.0000     -14.116587      -384.1319
   2   2.0000     -10.041052      -273.2309
   3   2.0000     -10.034335      -273.0481
   4   2.0000     -10.011157      -272.4174
   5   2.0000      -9.995506      -271.9916
   6   2.0000      -9.910402      -269.6758
   7   2.0000      -0.894828       -24.3495
   8   2.0000      -0.813850       -22.1460
   9   2.0000      -0.731311       -19.9000
  10   2.0000      -0.666473       -18.1356
  11   2.0000      -0.613118       -16.6838
  12   2.0000      -0.555262       -15.1094
  13   2.0000      -0.540333       -14.7032
  14   2.0000      -0.488758       -13.2998
  15   2.0000      -0.455699       -12.4002
  16   2.0000      -0.430083       -11.7031
  17   2.0000      -0.424435       -11.5495
  18   2.0000      -0.405024       -11.0213
  19   2.0000      -0.378409       -10.2970
  20   2.0000      -0.353362        -9.6155
  21   2.0000      -0.341768        -9.3000
  22   2.0000      -0.334450        -9.1008
  23   2.0000      -0.318740        -8.6733
  24   2.0000      -0.316797        -8.6205
  25   2.0000      -0.304017        -8.2727
  26   2.0000      -0.218490        -5.9454
  27   2.0000      -0.130229        -3.5437
  28   0.0000       0.002412         0.0656
  29   0.0000       0.019556         0.5321
  30   0.0000       0.026522         0.7217
  31   0.0000       0.040235         1.0949
  32   0.0000       0.045624         1.2415

MULLIKEN ATOMIC CHARGES
-----------------------
   0 C :    0.469148
   1 C :   -0.300310
   2 N :   -0.386825
   3 C :    0.660574
   4 H :   -0.037249
   5 H :   -0.184221
   6 C :    0.599542
   7 C :    0.349913
   8 N :   -0.010609
   9 H :   -0.122701
  10 H :   -0.073470
  11 H :   -0.140269
  12 H :   -0.169662
  13 H :   -0.427288
  14 H :   -0.049737
  15 H :   -0.073329
  16 H :   -0.002683
  17 H :   -0.044772
  18 H :   -0.056052
Sum of atomic charges:    0.0000000

LOEWDIN ATOMIC CHARGES
----------------------
   0 C :    0.037025
   1 C :   -0.062180
   2 N :   -0.016975
   3 C :    0.139170
   4 H :    0.017537
   5 H :    0.015660
   6 C :   -0.232145
   7 C :    0.142586
   8 N :    0.202627
   9 H :   -0.029368
  10 H :    0.002042
  11 H :    0.026834
  12 H :   -0.106820
  13 H :   -0.101087
  14 H :    0.016936
  15 H :    0.014889
  16 H :   -0.020414
  17 H :   -0.024933
  18 H :   -0.021385

  Mayer bond orders larger than 0.100000
B(  0-C ,  1-C ) :   1.1885 B(  0-C ,  2-N ) :   0.9310 B(  0-C ,  4-H ) :   0.8435
B(  0-C ,  5-H ) :   0.9194 B(  0-C , 11-H ) :  -0.1397 B(  0-C , 14-H ) :   0.1532
B(  0-C , 15-H ) :   0.2090 B(  1-C ,  2-N ) :   0.1040 B(  1-C ,  3-C ) :   1.2656
B(  1-C , 14-H ) :   0.8828 B(  1-C , 15-H ) :   0.8679 B(  1-C , 16-H ) :   0.1868
B(  1-C , 17-H ) :   0.2189 B(  1-C , 18-H ) :   0.2253 B(  2-N ,  4-H ) :   0.1661
B(  2-N ,  5-H ) :   0.1790 B(  2-N ,  6-C ) :   1.0937 B(  2-N ,  7-C ) :   0.2984
B(  2-N ,  8-N ) :   0.1316 B(  2-N , 11-H ) :   1.1334 B(  3-C , 16-H ) :   0.8227
B(  3-C , 17-H ) :   0.8270 B(  3-C , 18-H ) :   0.7850 B(  6-C ,  7-C ) :   1.5730
B(  6-C ,  8-N ) :   0.8743 B(  6-C , 11-H ) :  -0.1954 B(  6-C , 12-H ) :   0.2308
B(  6-C , 13-H ) :   0.2591 B(  7-C ,  8-N ) :   0.2518 B(  7-C , 12-H ) :   0.8306
B(  7-C , 13-H ) :   0.7122 B(  8-N ,  9-H ) :   1.0441 B(  8-N , 10-H ) :   1.1808
B(  9-H , 10-H ) :  -0.1334

Dispersion correction           -0.019289237
FINAL SINGLE POINT ENERGY      -307.078877700184

DIPOLE MOMENT
-------------
                                X             Y             Z
Electronic contribution:      4.78865      -0.13457      -1.04308
Nuclear contribution   :     -5.53036      -0.76734       0.96389
                        -----------------------------------------
Total Dipole Moment    :     -0.74170      -0.90191      -0.07919
                        -----------------------------------------
Magnitude (a.u.)       :      1.17040
Magnitude (Debye)      :      2.97492

Rotational constants in cm-1:     0.181901     0.044719     0.039941
Rotational constants in MHz :  5453.254735  1340.639344  1197.391002

                             ****ORCA TERMINATED NORMALLY****
TOTAL RUN TIME: 0 days 0 hours 0 minutes 17 seconds 10 msec
