                         Program Version 5.0.0 -  RELEASE  -
|  1> !TPSS D3BJ RIJCOSX def2-SVPD def2/J TightSCF
|  2> *xyz 0 1
|  3> C          1.63556       -1.67040       -5.29211
|  4> C          0.33848       -1.50091       -4.50540
|  5> N          2.48451       -0.50741       -5.14039
|  6> C         -0.68487       -0.52803       -5.09989
|  7> H          1.39834       -1.82924       -6.35259
|  8> H          2.15586       -2.56540       -4.93209
|  9> C          3.45115       -0.14953       -5.95259
| 10> N          3.92267        1.08956       -5.85071
| 11> C          3.96616       -1.00618       -6.86788
| 12> H          3.52139       -1.90647       -6.99527
| 13> H          4.44482       -0.62347       -7.67035
| 14> H          2.25200        0.24080       -4.49879
| 15> H          3.46428        1.64078       -5.13639
| 16> H          4.83447        1.31375       -6.22465
| 17> H          0.59489       -1.21158       -3.48231
| 18> H         -0.12653       -2.48766       -4.43418
| 19> H         -0.92267       -0.82721       -6.09931
| 20> H         -0.27317        0.45953       -5.11162
| 21> H         -1.57350       -0.53693       -4.50394
| 22> *
| 23>
| 24> %MaxCore 64000
| 25>
| 26> %pal nprocs 4
| 27> end
| 28>
| 29> %scf
| 30>   MaxIter 150
| 31> end
| 32>
| 33>
| 34>                          ****END OF INPUT****

CARTESIAN COORDINATES (ANGSTROEM)
---------------------------------
  C      1.635560   -1.670400   -5.292110
  C      0.338480   -1.500910   -4.505400
  N      2.484510   -0.507410   -5.140390
  C     -0.684870   -0.528030   -5.099890
  H      1.398340   -1.829240   -6.352590
  H      2.155860   -2.565400   -4.932090
  C      3.451150   -0.149530   -5.952590
  N      3.922670    1.089560   -5.850710
  C      3.966160   -1.006180   -6.867880
  H      3.521390   -1.906470   -6.995270
  H      4.444820   -0.623470   -7.670350
  H      2.252000    0.240800   -4.498790
  H      3.464280    1.640780   -5.136390
  H      4.834470    1.313750   -6.224650
  H      0.594890   -1.211580   -3.482310
  H     -0.126530   -2.487660   -4.434180
  H     -0.922670   -0.827210   -6.099310
  H     -0.273170    0.459530   -5.111620
  H     -1.573500   -0.536930   -4.503940

 Total Charge           Charge          ....    0
 Multiplicity           Mult            ....    1
 Number of Electrons    NEL             ....   56
 Basis Dimension        Dim             ....  236

ORBITAL ENERGIES
----------------

  NO   OCC          E(Eh)            E(eV)
   0   2.0000     -14.122761      -384.2999
   1   2.0000     -14.119568      -384.2130
   2   2.0000     -10.035897      -273.0906
   3   2.0000     -10.034938      -273.0645
   4   2.0000     -10.007836      -272.3271
   5   2.0000      -9.994285      -271.9583
   6   2.0000      -9.912528      -269.7336
   7   2.0000      -0.903195       -24.5772
   8   2.0000      -0.818749       -22.2793
   9   2.0000      -0.724139       -19.7048
  10   2.0000      -0.647247       -17.6125
  11   2.0000      -0.636742       -17.3266
  12   2.0000      -0.557739       -15.1768
  13   2.0000      -0.518993       -14.1225
  14   2.0000      -0.488915       -13.3040
  15   2.0000      -0.478951       -13.0329
  16   2.0000      -0.433588       -11.7985
  17   2.0000      -0.423643       -11.5279
  18   2.0000      -0.395086       -10.7508
  19   2.0000      -0.379867       -10.3367
  20   2.0000      -0.346306        -9.4235
  21   2.0000      -0.342795        -9.3279
  22   2.0000      -0.328691        -8.9441
  23   2.0000      -0.318473        -8.6661
  24   2.0000      -0.311463        -8.4754
  25   2.0000      -0.305176        -8.3043
  26   2.0000      -0.213736        -5.8160
  27   2.0000      -0.134837        -3.6691
  28   0.0000      -0.003545        -0.0965
  29   0.0000       0.016992         0.4624
  30   0.0000       0.033064         0.8997
  31   0.0000       0.040533         1.1030
  32   0.0000       0.048527         1.3205

MULLIKEN ATOMIC CHARGES
-----------------------
   0 C :    0.478501
   1 C :   -0.296636
   2 N :   -0.404876
   3 C :    0.669765
   4 H :    0.026147
   5 H :   -0.157875
   6 C :    0.509379
   7 N :    0.039563
   8 C :    0.350859
   9 H :   -0.033437
  10 H :   -0.453999
  11 H :   -0.262599
  12 H :   -0.101917
  13 H :   -0.116878
  14 H :   -0.057658
  15 H :   -0.082529
  16 H :    0.000086
  17 H :   -0.053912
  18 H :   -0.051984
Sum of atomic charges:    0.0000000

LOEWDIN ATOMIC CHARGES
----------------------
   0 C :    0.050210
   1 C :   -0.063050
   2 N :   -0.017520
   3 C :    0.136863
   4 H :    0.025516
   5 H :    0.024050
   6 C :   -0.242338
   7 N :    0.188087
   8 C :    0.164205
   9 H :   -0.124078
  10 H :   -0.109815
  11 H :    0.014554
  12 H :   -0.016177
  13 H :    0.010508
  14 H :    0.013770
  15 H :    0.015856
  16 H :   -0.019400
  17 H :   -0.029023
  18 H :   -0.022216

  Mayer bond orders larger than 0.100000
B(  0-C ,  1-C ) :   1.1806 B(  0-C ,  2-N ) :   0.9837 B(  0-C ,  4-H ) :   0.8245
B(  0-C ,  5-H ) :   0.9196 B(  0-C , 11-H ) :  -0.1274 B(  0-C , 14-H ) :   0.1520
B(  0-C , 15-H ) :   0.1974 B(  1-C ,  3-C ) :   1.2685 B(  1-C , 14-H ) :   0.8762
B(  1-C , 15-H ) :   0.8779 B(  1-C , 16-H ) :   0.1875 B(  1-C , 17-H ) :   0.2210
B(  1-C , 18-H ) :   0.2276 B(  2-N ,  4-H ) :   0.1722 B(  2-N ,  5-H ) :   0.1501
B(  2-N ,  6-C ) :   1.0885 B(  2-N ,  7-N ) :   0.2318 B(  2-N ,  8-C ) :   0.3013
B(  2-N , 11-H ) :   1.2159 B(  3-C , 16-H ) :   0.8241 B(  3-C , 17-H ) :   0.8302
B(  3-C , 18-H ) :   0.7787 B(  6-C ,  7-N ) :   0.9025 B(  6-C ,  8-C ) :   1.7051
B(  6-C ,  9-H ) :   0.2946 B(  6-C , 10-H ) :   0.2122 B(  6-C , 11-H ) :  -0.2580
B(  7-N ,  8-C ) :   0.2669 B(  7-N , 12-H ) :   1.0773 B(  7-N , 13-H ) :   1.2269
B(  8-C ,  9-H ) :   0.6476 B(  8-C , 10-H ) :   0.8014 B(  9-H , 10-H ) :   0.1644
B( 12-H , 13-H ) :  -0.1265

Dispersion correction           -0.019342943
FINAL SINGLE POINT ENERGY      -307.079463242377

DIPOLE MOMENT
-------------
                                X             Y             Z
Electronic contribution:      4.85458       1.89017       0.01435
Nuclear contribution   :     -5.52083      -1.22643       0.74108
                        -----------------------------------------
Total Dipole Moment    :     -0.66625       0.66375       0.75543
                        -----------------------------------------
Magnitude (a.u.)       :      1.20628
Magnitude (Debye)      :      3.06613

Rotational constants in cm-1:     0.181479     0.044588     0.039739
Rotational constants in MHz :  5440.604457  1336.706831  1191.355312

                             ****ORCA TERMINATED NORMALLY****
TOTAL RUN TIME: 0 days 0 hours 0 minutes 16 seconds 205 msec
