                         Program Version 5.0.0 -  RELEASE  -
|  1> !TPSS D3BJ RIJCOSX def2-SVPD def2/J TightSCF xyzfile
|  2>
|  3> *xyzfile 0 1 D1.xyz
|  4>
|  5> %MaxCore 64000
|  6>
|  7> %pal nprocs 4
|  8> end
|  9>
| 10> %scf
| 11>   MaxIter 150
| 12> end
| 13>
| 14>
| 15>                          ****END OF INPUT****

CARTESIAN COORDINATES (ANGSTROEM)
---------------------------------
  C      1.635557   -1.670396   -5.292109
  C      0.338484   -1.500907   -4.505398
  C      2.484511   -0.507410   -5.140392
  C     -0.684873   -0.528026   -5.099889
  C     -0.290406    0.951335   -5.153423
  H      0.607991    1.070692   -5.764412
  C     -0.055168    1.619420   -3.788577
  H     -1.080912    1.483775   -5.689436
  H      0.045006    0.862302   -3.003015
  H     -0.922936    2.230329   -3.517028
  C      1.223022    2.469865   -3.756911
  H      1.114701    3.258074   -4.532999
  H      1.237732    3.011242   -2.792157
  F      2.353815    1.712032   -3.934477
  H      1.398337   -1.829239   -6.352591
  H      2.155864   -2.565398   -4.932091
  C      3.451149   -0.149530   -5.952589
  N      3.922667    1.089559   -5.850711
  N      3.966162   -1.006183   -6.867880
  H      3.521391   -1.906467   -6.995270
  H      4.444824   -0.623472   -7.670348
  H      2.251995    0.240804   -4.498792
  H      3.464277    1.640782   -5.136392
  H      4.834470    1.313745   -6.224653
  H     -0.937999   -0.869056   -6.110838
  H     -1.604638   -0.622496   -4.513132
  H      0.594887   -1.211578   -3.482312
  H     -0.126530   -2.487656   -4.434176

 Total Charge           Charge          ....    0
 Multiplicity           Mult            ....    1
 Number of Electrons    NEL             ....   88
 Basis Dimension        Dim             ....  359

ORBITAL ENERGIES
----------------

  NO   OCC          E(Eh)            E(eV)
   0   2.0000     -24.443417      -665.1392
   1   2.0000     -14.105908      -383.8413
   2   2.0000     -14.090439      -383.4203
   3   2.0000     -10.089112      -274.5387
   4   2.0000     -10.014349      -272.5043
   5   2.0000     -10.007684      -272.3229
   6   2.0000      -9.990641      -271.8592
   7   2.0000      -9.987489      -271.7734
   8   2.0000      -9.978026      -271.5159
   9   2.0000      -9.968140      -271.2469
  10   2.0000      -9.895849      -269.2797
  11   2.0000      -1.141399       -31.0590
  12   2.0000      -0.866595       -23.5813
  13   2.0000      -0.785743       -21.3812
  14   2.0000      -0.743528       -20.2324
  15   2.0000      -0.711430       -19.3590
  16   2.0000      -0.664412       -18.0796
  17   2.0000      -0.631498       -17.1839
  18   2.0000      -0.583782       -15.8855
  19   2.0000      -0.553422       -15.0594
  20   2.0000      -0.528133       -14.3712
  21   2.0000      -0.504787       -13.7359
  22   2.0000      -0.486079       -13.2269
  23   2.0000      -0.475994       -12.9525
  24   2.0000      -0.458007       -12.4630
  25   2.0000      -0.455357       -12.3909
  26   2.0000      -0.436864       -11.8877
  27   2.0000      -0.415166       -11.2972
  28   2.0000      -0.397687       -10.8216
  29   2.0000      -0.396503       -10.7894
  30   2.0000      -0.375404       -10.2153
  31   2.0000      -0.360168        -9.8007
  32   2.0000      -0.348494        -9.4830
  33   2.0000      -0.336636        -9.1603
  34   2.0000      -0.322693        -8.7809
  35   2.0000      -0.318089        -8.6557
  36   2.0000      -0.312123        -8.4933
  37   2.0000      -0.298782        -8.1303
  38   2.0000      -0.283021        -7.7014
  39   2.0000      -0.274489        -7.4692
  40   2.0000      -0.267381        -7.2758
  41   2.0000      -0.254646        -6.9293
  42   2.0000      -0.207857        -5.6561
  43   2.0000      -0.116893        -3.1808
  44   0.0000       0.008385         0.2282
  45   0.0000       0.017047         0.4639
  46   0.0000       0.025518         0.6944
  47   0.0000       0.035106         0.9553
  48   0.0000       0.041897         1.1401

MULLIKEN ATOMIC CHARGES
-----------------------
   0 C :    0.340831
   1 C :    0.275908
   2 C :   -0.117209
   3 C :    0.152547
   4 C :    0.044591
   5 H :    0.035448
   6 C :   -0.051670
   7 H :   -0.229288
   8 H :    0.016681
   9 H :   -0.193209
  10 C :    0.996010
  11 H :   -0.047209
  12 H :   -0.065650
  13 F :   -0.779059
  14 H :    0.039408
  15 H :   -0.161446
  16 C :    0.620216
  17 N :    0.123805
  18 N :   -0.136835
  19 H :   -0.029768
  20 H :   -0.149489
  21 H :   -0.284954
  22 H :    0.025524
  23 H :   -0.294794
  24 H :    0.117543
  25 H :   -0.093723
  26 H :    0.037596
  27 H :   -0.191804
Sum of atomic charges:    0.0000000

LOEWDIN ATOMIC CHARGES
----------------------
   0 C :   -0.051668
   1 C :   -0.030255
   2 C :   -0.017495
   3 C :   -0.015892
   4 C :   -0.013847
   5 H :    0.006607
   6 C :    0.008080
   7 H :    0.011902
   8 H :    0.013176
   9 H :    0.023979
  10 C :    0.160973
  11 H :    0.040343
  12 H :    0.030287
  13 F :   -0.210177
  14 H :    0.011393
  15 H :    0.011052
  16 C :   -0.201338
  17 N :    0.197893
  18 N :    0.203123
  19 H :   -0.019258
  20 H :   -0.019539
  21 H :   -0.113187
  22 H :   -0.066451
  23 H :   -0.012539
  24 H :    0.018699
  25 H :    0.014159
  26 H :    0.009463
  27 H :    0.010517

  Mayer bond orders larger than 0.100000
B(  0-C ,  1-C ) :   1.1901 B(  0-C ,  2-C ) :   0.7464 B(  0-C , 14-H ) :   0.7708
B(  0-C , 15-H ) :   0.6492 B(  0-C , 21-H ) :   0.4592 B(  0-C , 26-H ) :   0.1514
B(  0-C , 27-H ) :   0.2102 B(  1-C ,  2-C ) :   0.2186 B(  1-C ,  3-C ) :   1.2263
B(  1-C , 21-H ) :  -0.1309 B(  1-C , 24-H ) :   0.1571 B(  1-C , 25-H ) :   0.1846
B(  1-C , 26-H ) :   0.7190 B(  1-C , 27-H ) :   0.7686 B(  2-C , 14-H ) :   0.2316
B(  2-C , 15-H ) :   0.3586 B(  2-C , 16-C ) :   1.7485 B(  2-C , 17-N ) :   0.4592
B(  2-C , 18-N ) :   0.3338 B(  2-C , 19-H ) :  -0.1774 B(  2-C , 21-H ) :   0.3799
B(  3-C ,  4-C ) :   1.2852 B(  3-C ,  5-H ) :   0.1564 B(  3-C ,  7-H ) :   0.1509
B(  3-C , 24-H ) :   0.6799 B(  3-C , 25-H ) :   0.8476 B(  3-C , 26-H ) :   0.1526
B(  3-C , 27-H ) :   0.1480 B(  4-C ,  5-H ) :   0.8143 B(  4-C ,  6-C ) :   1.2090
B(  4-C ,  7-H ) :   0.8482 B(  4-C ,  8-H ) :   0.1227 B(  4-C ,  9-H ) :   0.1582
B(  4-C , 24-H ) :   0.1945 B(  4-C , 25-H ) :   0.1166 B(  5-H , 21-H ) :   0.1557
B(  6-C ,  8-H ) :   0.8706 B(  6-C ,  9-H ) :   0.9480 B(  6-C , 10-C ) :   1.1568
B(  6-C , 11-H ) :   0.1097 B(  6-C , 12-H ) :   0.1652 B(  6-C , 13-F ) :   0.1663
B(  7-H , 21-H ) :  -0.1193 B( 10-C , 11-H ) :   0.8245 B( 10-C , 12-H ) :   0.7804
B( 10-C , 13-F ) :   0.6403 B( 11-H , 13-F ) :   0.2613 B( 13-F , 22-H ) :   0.1242
B( 14-H , 21-H ) :   0.1069 B( 16-C , 17-N ) :   0.6691 B( 16-C , 18-N ) :   0.8523
B( 16-C , 21-H ) :   0.2167 B( 16-C , 23-H ) :  -0.1954 B( 17-N , 18-N ) :   0.1236
B( 17-N , 22-H ) :   1.0350 B( 17-N , 23-H ) :   1.3527 B( 18-N , 19-H ) :   1.0805
B( 18-N , 20-H ) :   1.2455 B( 18-N , 21-H ) :  -0.1653 B( 19-H , 20-H ) :  -0.1298
B( 21-H , 22-H ) :  -0.1020 B( 21-H , 27-H ) :  -0.1055 B( 22-H , 23-H ) :  -0.1845

Dispersion correction           -0.036033147
FINAL SINGLE POINT ENERGY      -524.124961055176

DIPOLE MOMENT
-------------
                                X             Y             Z
Electronic contribution:      7.86357       3.83134       1.15110
Nuclear contribution   :     -8.11591      -2.99033      -1.35383
                        -----------------------------------------
Total Dipole Moment    :     -0.25234       0.84101      -0.20274
                        -----------------------------------------
Magnitude (a.u.)       :      0.90115
Magnitude (Debye)      :      2.29055

Rotational constants in cm-1:     0.043530     0.028984     0.019589
Rotational constants in MHz :  1305.007140   868.923804   587.262638

                             ****ORCA TERMINATED NORMALLY****
TOTAL RUN TIME: 0 days 0 hours 0 minutes 47 seconds 140 msec
