                         Program Version 5.0.0 -  RELEASE  -
|  1> !TPSS D3BJ RIJCOSX def2-SVPD def2/J TightSCF xyzfile
|  2>
|  3> *xyzfile 0 1 D3.xyz
|  4>
|  5> %MaxCore 64000
|  6>
|  7> %pal nprocs 4
|  8> end
|  9>
| 10> %scf
| 11>   MaxIter 150
| 12> end
| 13>
| 14>
| 15>                          ****END OF INPUT****

CARTESIAN COORDINATES (ANGSTROEM)
---------------------------------
  C      1.635557   -1.670396   -5.292109
  C      0.338484   -1.500907   -4.505398
  N      2.484511   -0.507410   -5.140392
  C     -0.684873   -0.528026   -5.099889
  C     -0.290406    0.951335   -5.153423
  H      0.607991    1.070692   -5.764412
  C     -0.055168    1.619420   -3.788577
  H     -1.080912    1.483775   -5.689436
  H      0.045006    0.862302   -3.003015
  H     -0.922936    2.230329   -3.517028
  C      1.223022    2.469865   -3.756911
  H      1.114701    3.258074   -4.532999
  H      1.237732    3.011242   -2.792157
  F      2.353815    1.712032   -3.934477
  H      1.398337   -1.829239   -6.352591
  H      2.155864   -2.565398   -4.932091
  C      3.451149   -0.149530   -5.952589
  N      3.922667    1.089559   -5.850711
  C      3.966162   -1.006183   -6.867880
  H      3.521391   -1.906467   -6.995270
  H      4.444824   -0.623472   -7.670348
  H      2.251995    0.240804   -4.498792
  H      3.464277    1.640782   -5.136392
  H      4.834470    1.313745   -6.224653
  H     -0.937999   -0.869056   -6.110838
  H     -1.604638   -0.622496   -4.513132
  H      0.594887   -1.211578   -3.482312
  H     -0.126530   -2.487656   -4.434176

 Total Charge           Charge          ....    0
 Multiplicity           Mult            ....    1
 Number of Electrons    NEL             ....   88
 Basis Dimension        Dim             ....  359

ORBITAL ENERGIES
----------------

  NO   OCC          E(Eh)            E(eV)
   0   2.0000     -24.472487      -665.9302
   1   2.0000     -14.093275      -383.4975
   2   2.0000     -14.091759      -383.4563
   3   2.0000     -10.107788      -275.0469
   4   2.0000     -10.025991      -272.8211
   5   2.0000     -10.022750      -272.7329
   6   2.0000     -10.017290      -272.5843
   7   2.0000     -10.009110      -272.3617
   8   2.0000     -10.005888      -272.2740
   9   2.0000     -10.002937      -272.1938
  10   2.0000      -9.895471      -269.2695
  11   2.0000      -1.168999       -31.8101
  12   2.0000      -0.882392       -24.0111
  13   2.0000      -0.799616       -21.7587
  14   2.0000      -0.758861       -20.6497
  15   2.0000      -0.717494       -19.5240
  16   2.0000      -0.669493       -18.2178
  17   2.0000      -0.632919       -17.2226
  18   2.0000      -0.603601       -16.4248
  19   2.0000      -0.580603       -15.7990
  20   2.0000      -0.529163       -14.3993
  21   2.0000      -0.521266       -14.1844
  22   2.0000      -0.508100       -13.8261
  23   2.0000      -0.482381       -13.1263
  24   2.0000      -0.479735       -13.0543
  25   2.0000      -0.451553       -12.2874
  26   2.0000      -0.445601       -12.1254
  27   2.0000      -0.431497       -11.7416
  28   2.0000      -0.420861       -11.4522
  29   2.0000      -0.395847       -10.7716
  30   2.0000      -0.386675       -10.5220
  31   2.0000      -0.375990       -10.2312
  32   2.0000      -0.361614        -9.8400
  33   2.0000      -0.340075        -9.2539
  34   2.0000      -0.337399        -9.1811
  35   2.0000      -0.325970        -8.8701
  36   2.0000      -0.320880        -8.7316
  37   2.0000      -0.314993        -8.5714
  38   2.0000      -0.305597        -8.3157
  39   2.0000      -0.298653        -8.1267
  40   2.0000      -0.290246        -7.8980
  41   2.0000      -0.285129        -7.7587
  42   2.0000      -0.192589        -5.2406
  43   2.0000      -0.117702        -3.2028
  44   0.0000      -0.002282        -0.0621
  45   0.0000       0.014214         0.3868
  46   0.0000       0.019881         0.5410
  47   0.0000       0.023233         0.6322
  48   0.0000       0.033198         0.9034

MULLIKEN ATOMIC CHARGES
-----------------------
   0 C :    0.611918
   1 C :    0.115099
   2 N :    0.176428
   3 C :    0.162730
   4 C :    0.132860
   5 H :   -0.022502
   6 C :   -0.081514
   7 H :   -0.250045
   8 H :   -0.011518
   9 H :   -0.125974
  10 C :    0.958559
  11 H :   -0.047903
  12 H :   -0.066595
  13 F :   -0.841220
  14 H :    0.038910
  15 H :   -0.207610
  16 C :    0.436522
  17 N :    0.337523
  18 C :    0.334507
  19 H :   -0.017995
  20 H :   -0.385039
  21 H :   -0.663892
  22 H :   -0.210995
  23 H :   -0.219486
  24 H :    0.126765
  25 H :   -0.093670
  26 H :   -0.013286
  27 H :   -0.172578
Sum of atomic charges:   -0.0000000

LOEWDIN ATOMIC CHARGES
----------------------
   0 C :    0.063398
   1 C :   -0.016538
   2 N :    0.003915
   3 C :   -0.016941
   4 C :   -0.013587
   5 H :    0.006759
   6 C :    0.007776
   7 H :    0.015586
   8 H :    0.012443
   9 H :    0.027805
  10 C :    0.163581
  11 H :    0.044729
  12 H :    0.034690
  13 F :   -0.199473
  14 H :    0.022435
  15 H :    0.021054
  16 C :   -0.227841
  17 N :    0.207392
  18 C :    0.158861
  19 H :   -0.128937
  20 H :   -0.114303
  21 H :   -0.066300
  22 H :   -0.079378
  23 H :    0.008074
  24 H :    0.022168
  25 H :    0.017270
  26 H :    0.007147
  27 H :    0.018217

  Mayer bond orders larger than 0.100000
B(  0-C ,  1-C ) :   1.1971 B(  0-C ,  2-N ) :   1.0304 B(  0-C , 14-H ) :   0.7690
B(  0-C , 15-H ) :   0.8734 B(  0-C , 18-C ) :   0.1056 B(  0-C , 21-H ) :  -0.1990
B(  0-C , 26-H ) :   0.1325 B(  0-C , 27-H ) :   0.1916 B(  1-C ,  2-N ) :   0.1217
B(  1-C ,  3-C ) :   1.2236 B(  1-C , 24-H ) :   0.1597 B(  1-C , 25-H ) :   0.1983
B(  1-C , 26-H ) :   0.7675 B(  1-C , 27-H ) :   0.8217 B(  2-N , 13-F ) :  -0.1122
B(  2-N , 14-H ) :   0.2617 B(  2-N , 15-H ) :   0.1786 B(  2-N , 16-C ) :   1.2744
B(  2-N , 17-N ) :   0.1088 B(  2-N , 18-C ) :   0.2112 B(  2-N , 21-H ) :   0.7747
B(  3-C ,  4-C ) :   1.2914 B(  3-C ,  5-H ) :   0.1608 B(  3-C ,  7-H ) :   0.1480
B(  3-C , 24-H ) :   0.6798 B(  3-C , 25-H ) :   0.8535 B(  3-C , 26-H ) :   0.1456
B(  3-C , 27-H ) :   0.1308 B(  4-C ,  5-H ) :   0.8357 B(  4-C ,  6-C ) :   1.1921
B(  4-C ,  7-H ) :   0.8131 B(  4-C ,  8-H ) :   0.1236 B(  4-C ,  9-H ) :   0.1633
B(  4-C , 24-H ) :   0.1982 B(  4-C , 25-H ) :   0.1193 B(  6-C ,  8-H ) :   0.8937
B(  6-C ,  9-H ) :   0.9243 B(  6-C , 10-C ) :   1.1580 B(  6-C , 11-H ) :   0.1064
B(  6-C , 12-H ) :   0.1621 B(  6-C , 13-F ) :   0.1497 B( 10-C , 11-H ) :   0.8464
B( 10-C , 12-H ) :   0.8019 B( 10-C , 13-F ) :   0.6438 B( 11-H , 13-F ) :   0.2173
B( 13-F , 21-H ) :   0.1180 B( 13-F , 22-H ) :   0.2174 B( 16-C , 17-N ) :   0.8184
B( 16-C , 18-C ) :   1.7258 B( 16-C , 19-H ) :   0.3256 B( 16-C , 20-H ) :   0.2241
B( 16-C , 21-H ) :  -0.4066 B( 16-C , 23-H ) :  -0.1786 B( 17-N , 18-C ) :   0.2300
B( 17-N , 22-H ) :   0.9793 B( 17-N , 23-H ) :   1.3320 B( 18-C , 19-H ) :   0.6111
B( 18-C , 20-H ) :   0.8051 B( 19-H , 20-H ) :   0.2062 B( 22-H , 23-H ) :  -0.1715

Dispersion correction           -0.035699327
FINAL SINGLE POINT ENERGY      -524.129462633116

DIPOLE MOMENT
-------------
                                X             Y             Z
Electronic contribution:      6.29550       4.43170       2.79416
Nuclear contribution   :     -7.84660      -3.08098      -1.66782
                        -----------------------------------------
Total Dipole Moment    :     -1.55111       1.35071       1.12634
                        -----------------------------------------
Magnitude (a.u.)       :      2.34499
Magnitude (Debye)      :      5.96050

Rotational constants in cm-1:     0.043547     0.029898     0.020008
Rotational constants in MHz :  1305.520367   896.323854   599.829375

                             ****ORCA TERMINATED NORMALLY****
TOTAL RUN TIME: 0 days 0 hours 0 minutes 49 seconds 72 msec
