                         Program Version 5.0.0 -  RELEASE  -
|  1> !DLPNO-CCSD(T) aug-cc-pVTZ aug-cc-pVTZ/C TightSCF TightPNO RIJCOSX def2/J
|  2> *xyz -1 1
|  3> C         -0.96015       -0.52236       -0.48987
|  4> O          0.26170       -0.58031        0.13861
|  5> H         -0.85050       -0.82220       -1.51113
|  6> H         -1.33436        0.47929       -0.45044
|  7> H         -1.64624       -1.17908        0.00297
|  8> *
|  9>
| 10> %MaxCore 64000
| 11>
| 12> %pal nprocs 8
| 13> end
| 14>
| 15> %scf
| 16>   MaxIter 150
| 17> end
| 18>
| 19>
| 20>                          ****END OF INPUT****

CARTESIAN COORDINATES (ANGSTROEM)
---------------------------------
  C     -0.960150   -0.522360   -0.489870
  O      0.261700   -0.580310    0.138610
  H     -0.850500   -0.822200   -1.511130
  H     -1.334360    0.479290   -0.450440
  H     -1.646240   -1.179080    0.002970

 Total Charge           Charge          ....   -1
 Multiplicity           Mult            ....    1
 Number of Electrons    NEL             ....   18
 Basis Dimension        Dim             ....  161

ORBITAL ENERGIES
----------------

  NO   OCC          E(Eh)            E(eV)
   0   2.0000     -20.186210      -549.2947
   1   2.0000     -11.005059      -299.4629
   2   2.0000      -0.971524       -26.4365
   3   2.0000      -0.633792       -17.2464
   4   2.0000      -0.356802        -9.7091
   5   2.0000      -0.356772        -9.7083
   6   2.0000      -0.247492        -6.7346
   7   2.0000      -0.096564        -2.6276
   8   2.0000      -0.096539        -2.6270
   9   0.0000       0.144704         3.9376
  10   0.0000       0.154601         4.2069
  11   0.0000       0.154601         4.2069
  12   0.0000       0.215854         5.8737
  13   0.0000       0.262362         7.1392

MULLIKEN ATOMIC CHARGES
-----------------------
   0 C :   -0.683134
   1 O :   -1.048729
   2 H :    0.238213
   3 H :    0.242014
   4 H :    0.251636
Sum of atomic charges:   -1.0000000

LOEWDIN ATOMIC CHARGES
----------------------
   0 C :   -0.133005
   1 O :    0.033958
   2 H :   -0.300347
   3 H :   -0.300335
   4 H :   -0.300271

  Mayer bond orders larger than 0.100000
B(  0-C ,  1-O ) :   1.0916 B(  0-C ,  2-H ) :   0.9429 B(  0-C ,  3-H ) :   0.9411
B(  0-C ,  4-H ) :   0.9315

E(0)                                       ...   -114.448405596
E(0)                                       ...   -114.448405596
E(CORR)(strong-pairs)                      ...     -0.463435696
E(CORR)(weak-pairs)                        ...     -0.000191064
E(CORR)(corrected)                         ...     -0.463626761
E(TOT)                                     ...   -114.912032357
E(CCSD(T))                                 ...   -114.930195964
FINAL SINGLE POINT ENERGY      -114.930195964464

DIPOLE MOMENT
-------------
                                X             Y             Z
Electronic contribution:      1.60584      -0.07607       0.82597
Nuclear contribution   :     -2.56864       0.12183      -1.32123
                        -----------------------------------------
Total Dipole Moment    :     -0.96280       0.04576      -0.49526
                        -----------------------------------------
Magnitude (a.u.)       :      1.08368
Magnitude (Debye)      :      2.75448

Rotational constants in cm-1:     5.477744     0.932677     0.932677
Rotational constants in MHz : 164218.635293 27960.967920 27960.945417

                             ****ORCA TERMINATED NORMALLY****
TOTAL RUN TIME: 0 days 0 hours 1 minutes 9 seconds 207 msec
