                         Program Version 5.0.0 -  RELEASE  -
|  1> !DLPNO-CCSD(T) aug-cc-pVTZ aug-cc-pVTZ/C TightSCF TightPNO RIJCOSX def2/J
|  2> *xyz 1 1
|  3> C          4.36645       -0.13321       -1.41606
|  4> C          3.05650       -0.32080       -0.70738
|  5> N          2.38983        0.71129       -0.24391
|  6> N          2.51600       -1.50772       -0.55023
|  7> H          2.96768       -2.32291       -0.95631
|  8> H          1.54987       -1.49063       -0.24988
|  9> H          2.74307        1.64947       -0.41280
| 10> H          1.44036        0.50278        0.03703
| 11> H          4.74975       -1.08632       -1.71533
| 12> H          5.06373        0.34075       -0.75722
| 13> H          4.21960        0.47966       -2.28077
| 14> *
| 15>
| 16> %MaxCore 64000
| 17>
| 18> %pal nprocs 8
| 19> end
| 20>
| 21> %scf
| 22>   MaxIter 150
| 23> end
| 24>
| 25>
| 26>                          ****END OF INPUT****

CARTESIAN COORDINATES (ANGSTROEM)
---------------------------------
  C      4.366450   -0.133210   -1.416060
  C      3.056500   -0.320800   -0.707380
  N      2.389830    0.711290   -0.243910
  N      2.516000   -1.507720   -0.550230
  H      2.967680   -2.322910   -0.956310
  H      1.549870   -1.490630   -0.249880
  H      2.743070    1.649470   -0.412800
  H      1.440360    0.502780    0.037030
  H      4.749750   -1.086320   -1.715330
  H      5.063730    0.340750   -0.757220
  H      4.219600    0.479660   -2.280770

 Total Charge           Charge          ....    1
 Multiplicity           Mult            ....    1
 Number of Electrons    NEL             ....   32
 Basis Dimension        Dim             ....  345

ORBITAL ENERGIES
----------------

  NO   OCC          E(Eh)            E(eV)
   0   2.0000     -15.814104      -430.3236
   1   2.0000     -15.811052      -430.2406
   2   2.0000     -11.577804      -315.0481
   3   2.0000     -11.428503      -310.9854
   4   2.0000      -1.538163       -41.8555
   5   2.0000      -1.407844       -38.3094
   6   2.0000      -1.219181       -33.1756
   7   2.0000      -1.048925       -28.5427
   8   2.0000      -0.972862       -26.4729
   9   2.0000      -0.952338       -25.9144
  10   2.0000      -0.878446       -23.9037
  11   2.0000      -0.827419       -22.5152
  12   2.0000      -0.778645       -21.1880
  13   2.0000      -0.765030       -20.8175
  14   2.0000      -0.734398       -19.9840
  15   2.0000      -0.635216       -17.2851
  16   0.0000      -0.103190        -2.8079
  17   0.0000      -0.076441        -2.0801
  18   0.0000      -0.075432        -2.0526
  19   0.0000      -0.071827        -1.9545
  20   0.0000      -0.050806        -1.3825

MULLIKEN ATOMIC CHARGES
-----------------------
   0 C :   -0.610002
   1 C :    0.557845
   2 N :   -0.290665
   3 N :   -0.299255
   4 H :    0.145413
   5 H :    0.163053
   6 H :    0.135001
   7 H :    0.181859
   8 H :    0.336382
   9 H :    0.344789
  10 H :    0.335581
Sum of atomic charges:    1.0000000

LOEWDIN ATOMIC CHARGES
----------------------
   0 C :    0.711855
   1 C :   -0.218567
   2 N :    0.945688
   3 N :    0.951461
   4 H :   -0.221072
   5 H :   -0.244398
   6 H :   -0.215564
   7 H :   -0.245653
   8 H :   -0.163749
   9 H :   -0.150569
  10 H :   -0.149430

  Mayer bond orders larger than 0.100000
B(  0-C ,  1-C ) :   0.5327 B(  0-C ,  8-H ) :   0.9341 B(  0-C ,  9-H ) :   0.9174
B(  0-C , 10-H ) :   0.8960 B(  1-C ,  2-N ) :   1.0995 B(  1-C ,  3-N ) :   1.0201
B(  2-N ,  3-N ) :  -0.1219 B(  2-N ,  6-H ) :   1.0852 B(  2-N ,  7-H ) :   1.0425
B(  3-N ,  4-H ) :   1.0647 B(  3-N ,  5-H ) :   1.0782

E(0)                                       ...   -188.589238684
E(0)                                       ...   -188.589238684
E(CORR)(strong-pairs)                      ...     -0.782376378
E(CORR)(weak-pairs)                        ...     -0.000662413
E(CORR)(corrected)                         ...     -0.783038792
E(TOT)                                     ...   -189.372277476
E(CCSD(T))                                 ...   -189.403061713
FINAL SINGLE POINT ENERGY      -189.403061713465

DIPOLE MOMENT
-------------
                                X             Y             Z
Electronic contribution:     -1.66894      -0.25713       1.04974
Nuclear contribution   :      1.22976       0.25273      -1.15956
                        -----------------------------------------
Total Dipole Moment    :     -0.43918      -0.00440      -0.10982
                        -----------------------------------------
Magnitude (a.u.)       :      0.45272
Magnitude (Debye)      :      1.15072

Rotational constants in cm-1:     0.347067     0.291236     0.163306
Rotational constants in MHz : 10404.811357  8731.035118  4895.793931

                             ****ORCA TERMINATED NORMALLY****
TOTAL RUN TIME: 0 days 0 hours 5 minutes 8 seconds 138 msec
