                         Program Version 5.0.0 -  RELEASE  -
|  1> !DLPNO-CCSD(T) aug-cc-pVTZ aug-cc-pVTZ/C TightSCF TightPNO RIJCOSX def2/J
|  2> *xyz 0 1
|  3> C         -0.96015       -0.52236       -0.48987
|  4> F          0.26170       -0.58031        0.13861
|  5> H         -0.85050       -0.82220       -1.51113
|  6> H         -1.33436        0.47929       -0.45044
|  7> H         -1.64624       -1.17908        0.00297
|  8> *
|  9>
| 10> %MaxCore 64000
| 11>
| 12> %pal nprocs 8
| 13> end
| 14>
| 15> %scf
| 16>   MaxIter 150
| 17> end
| 18>
| 19>
| 20>                          ****END OF INPUT****

CARTESIAN COORDINATES (ANGSTROEM)
---------------------------------
  C     -0.960150   -0.522360   -0.489870
  F      0.261700   -0.580310    0.138610
  H     -0.850500   -0.822200   -1.511130
  H     -1.334360    0.479290   -0.450440
  H     -1.646240   -1.179080    0.002970

 Total Charge           Charge          ....    0
 Multiplicity           Mult            ....    1
 Number of Electrons    NEL             ....   18
 Basis Dimension        Dim             ....  161

ORBITAL ENERGIES
----------------

  NO   OCC          E(Eh)            E(eV)
   0   2.0000     -26.279220      -715.0939
   1   2.0000     -11.298254      -307.4411
   2   2.0000      -1.590283       -43.2738
   3   2.0000      -0.961906       -26.1748
   4   2.0000      -0.699172       -19.0254
   5   2.0000      -0.699152       -19.0249
   6   2.0000      -0.679506       -18.4903
   7   2.0000      -0.533500       -14.5173
   8   2.0000      -0.533467       -14.5164
   9   0.0000       0.029345         0.7985
  10   0.0000       0.047134         1.2826
  11   0.0000       0.047135         1.2826
  12   0.0000       0.074903         2.0382
  13   0.0000       0.124042         3.3754

MULLIKEN ATOMIC CHARGES
-----------------------
   0 C :   -0.493643
   1 F :   -0.426003
   2 H :    0.300206
   3 H :    0.304724
   4 H :    0.314716
Sum of atomic charges:    0.0000000

LOEWDIN ATOMIC CHARGES
----------------------
   0 C :    0.225100
   1 F :    0.424168
   2 H :   -0.216462
   3 H :   -0.216421
   4 H :   -0.216386

  Mayer bond orders larger than 0.100000
B(  0-C ,  1-F ) :   0.6688 B(  0-C ,  2-H ) :   0.9173 B(  0-C ,  3-H ) :   0.9134
B(  0-C ,  4-H ) :   0.9027

E(0)                                       ...   -139.097574154
E(0)                                       ...   -139.097574154
E(CORR)(strong-pairs)                      ...     -0.458592004
E(CORR)(weak-pairs)                        ...     -0.000196565
E(CORR)(corrected)                         ...     -0.458788569
E(TOT)                                     ...   -139.556362723
E(CCSD(T))                                 ...   -139.570038417
FINAL SINGLE POINT ENERGY      -139.570038417237

DIPOLE MOMENT
-------------
                                X             Y             Z
Electronic contribution:      2.54790      -0.12069       1.31043
Nuclear contribution   :     -3.25854       0.15455      -1.67609
                        -----------------------------------------
Total Dipole Moment    :     -0.71064       0.03386      -0.36566
                        -----------------------------------------
Magnitude (a.u.)       :      0.79991
Magnitude (Debye)      :      2.03322

Rotational constants in cm-1:     5.477744     0.868130     0.868129
Rotational constants in MHz : 164218.635293 26025.869915 26025.850419

                             ****ORCA TERMINATED NORMALLY****
TOTAL RUN TIME: 0 days 0 hours 0 minutes 41 seconds 23 msec
