                         Program Version 5.0.0 -  RELEASE  -
|  1> !DLPNO-CCSD(T) aug-cc-pVTZ aug-cc-pVTZ/C TightSCF TightPNO RIJCOSX def2/J
|  2> *xyz 0 1
|  3> C          4.36645       -0.13321       -1.41606
|  4> C          3.05650       -0.32080       -0.70738
|  5> C          2.38983        0.71129       -0.24391
|  6> N          2.51600       -1.50772       -0.55023
|  7> H          2.96768       -2.32291       -0.95631
|  8> H          1.54987       -1.49063       -0.24988
|  9> H          2.74307        1.64947       -0.41280
| 10> H          1.44036        0.50278        0.03703
| 11> H          4.74975       -1.08632       -1.71533
| 12> H          5.06373        0.34075       -0.75722
| 13> H          4.21960        0.47966       -2.28077
| 14> *
| 15>
| 16> %MaxCore 64000
| 17>
| 18> %pal nprocs 8
| 19> end
| 20>
| 21> %scf
| 22>   MaxIter 150
| 23> end
| 24>
| 25>
| 26>                          ****END OF INPUT****

CARTESIAN COORDINATES (ANGSTROEM)
---------------------------------
  C      4.366450   -0.133210   -1.416060
  C      3.056500   -0.320800   -0.707380
  C      2.389830    0.711290   -0.243910
  N      2.516000   -1.507720   -0.550230
  H      2.967680   -2.322910   -0.956310
  H      1.549870   -1.490630   -0.249880
  H      2.743070    1.649470   -0.412800
  H      1.440360    0.502780    0.037030
  H      4.749750   -1.086320   -1.715330
  H      5.063730    0.340750   -0.757220
  H      4.219600    0.479660   -2.280770

 Total Charge           Charge          ....    0
 Multiplicity           Mult            ....    1
 Number of Electrons    NEL             ....   32
 Basis Dimension        Dim             ....  345

ORBITAL ENERGIES
----------------

  NO   OCC          E(Eh)            E(eV)
   0   2.0000     -15.560533      -423.4236
   1   2.0000     -11.254091      -306.2394
   2   2.0000     -11.218059      -305.2589
   3   2.0000     -11.145793      -303.2924
   4   2.0000      -1.243772       -33.8447
   5   2.0000      -1.025288       -27.8995
   6   2.0000      -0.945250       -25.7216
   7   2.0000      -0.764185       -20.7945
   8   2.0000      -0.713124       -19.4051
   9   2.0000      -0.643275       -17.5044
  10   2.0000      -0.594082       -16.1658
  11   2.0000      -0.559767       -15.2320
  12   2.0000      -0.550830       -14.9889
  13   2.0000      -0.510025       -13.8785
  14   2.0000      -0.487271       -13.2593
  15   2.0000      -0.288423        -7.8484
  16   0.0000       0.026855         0.7307
  17   0.0000       0.037790         1.0283
  18   0.0000       0.041820         1.1380
  19   0.0000       0.050305         1.3689
  20   0.0000       0.057852         1.5742

MULLIKEN ATOMIC CHARGES
-----------------------
   0 C :   -0.719752
   1 C :    0.553206
   2 C :   -1.236958
   3 N :   -0.449385
   4 H :    0.089701
   5 H :    0.050871
   6 H :    0.323766
   7 H :    0.525963
   8 H :    0.297413
   9 H :    0.272514
  10 H :    0.292660
Sum of atomic charges:   -0.0000000

LOEWDIN ATOMIC CHARGES
----------------------
   0 C :    0.622322
   1 C :   -0.322068
   2 C :    0.550425
   3 N :    0.837367
   4 H :   -0.271829
   5 H :   -0.286712
   6 H :   -0.284497
   7 H :   -0.304715
   8 H :   -0.192500
   9 H :   -0.174288
  10 H :   -0.173505

  Mayer bond orders larger than 0.100000
B(  0-C ,  1-C ) :   0.7485 B(  0-C ,  8-H ) :   0.9593 B(  0-C ,  9-H ) :   1.0065
B(  0-C , 10-H ) :   0.9271 B(  1-C ,  2-C ) :   1.3552 B(  1-C ,  3-N ) :   0.7722
B(  2-C ,  3-N ) :  -0.2174 B(  2-C ,  6-H ) :   1.0775 B(  2-C ,  7-H ) :   0.6790
B(  3-N ,  4-H ) :   1.0969 B(  3-N ,  5-H ) :   1.1869

E(0)                                       ...   -172.150698117
E(0)                                       ...   -172.150698117
E(CORR)(strong-pairs)                      ...     -0.763187309
E(CORR)(weak-pairs)                        ...     -0.000646560
E(CORR)(corrected)                         ...     -0.763833869
E(TOT)                                     ...   -172.914531986
E(CCSD(T))                                 ...   -172.945503635
FINAL SINGLE POINT ENERGY      -172.945503635307

DIPOLE MOMENT
-------------
                                X             Y             Z
Electronic contribution:     -0.95504      -1.16202       0.61779
Nuclear contribution   :      1.07959       0.48266      -1.05101
                        -----------------------------------------
Total Dipole Moment    :      0.12455      -0.67936      -0.43322
                        -----------------------------------------
Magnitude (a.u.)       :      0.81531
Magnitude (Debye)      :      2.07234

Rotational constants in cm-1:     0.369235     0.294626     0.169175
Rotational constants in MHz : 11069.394850  8832.653024  5071.734673

                             ****ORCA TERMINATED NORMALLY****
TOTAL RUN TIME: 0 days 0 hours 5 minutes 56 seconds 217 msec
