                         Program Version 5.0.0 -  RELEASE  -
|  1> !DLPNO-CCSD(T) aug-cc-pVTZ aug-cc-pVTZ/C TightSCF TightPNO RIJCOSX def2/J
|  2> *xyz 0 1
|  3> C          4.36645       -0.13321       -1.41606
|  4> C          3.05650       -0.32080       -0.70738
|  5> N          2.38983        0.71129       -0.24391
|  6> C          2.51600       -1.50772       -0.55023
|  7> H          2.96768       -2.32291       -0.95631
|  8> H          1.54987       -1.49063       -0.24988
|  9> H          2.74307        1.64947       -0.41280
| 10> H          1.44036        0.50278        0.03703
| 11> H          4.74975       -1.08632       -1.71533
| 12> H          5.06373        0.34075       -0.75722
| 13> H          4.21960        0.47966       -2.28077
| 14> *
| 15>
| 16> %MaxCore 64000
| 17>
| 18> %pal nprocs 2
| 19> end
| 20>
| 21> %scf
| 22>   MaxIter 150
| 23> end
| 24>
| 25>
| 26>                          ****END OF INPUT****

CARTESIAN COORDINATES (ANGSTROEM)
---------------------------------
  C      4.366450   -0.133210   -1.416060
  C      3.056500   -0.320800   -0.707380
  N      2.389830    0.711290   -0.243910
  C      2.516000   -1.507720   -0.550230
  H      2.967680   -2.322910   -0.956310
  H      1.549870   -1.490630   -0.249880
  H      2.743070    1.649470   -0.412800
  H      1.440360    0.502780    0.037030
  H      4.749750   -1.086320   -1.715330
  H      5.063730    0.340750   -0.757220
  H      4.219600    0.479660   -2.280770

 Total Charge           Charge          ....    0
 Multiplicity           Mult            ....    1
 Number of Electrons    NEL             ....   32
 Basis Dimension        Dim             ....  345

ORBITAL ENERGIES
----------------

  NO   OCC          E(Eh)            E(eV)
   0   2.0000     -15.558800      -423.3765
   1   2.0000     -11.254343      -306.2462
   2   2.0000     -11.217851      -305.2532
   3   2.0000     -11.150812      -303.4290
   4   2.0000      -1.243723       -33.8434
   5   2.0000      -1.024364       -27.8744
   6   2.0000      -0.946793       -25.7636
   7   2.0000      -0.764539       -20.8042
   8   2.0000      -0.713074       -19.4037
   9   2.0000      -0.643863       -17.5204
  10   2.0000      -0.595928       -16.2160
  11   2.0000      -0.558777       -15.2051
  12   2.0000      -0.552482       -15.0338
  13   2.0000      -0.509965       -13.8769
  14   2.0000      -0.485287       -13.2053
  15   2.0000      -0.292216        -7.9516
  16   0.0000       0.026795         0.7291
  17   0.0000       0.037853         1.0300
  18   0.0000       0.041964         1.1419
  19   0.0000       0.047446         1.2911
  20   0.0000       0.057872         1.5748

MULLIKEN ATOMIC CHARGES
-----------------------
   0 C :   -0.705311
   1 C :    0.660093
   2 N :   -0.472034
   3 C :   -1.281443
   4 H :    0.252811
   5 H :    0.526877
   6 H :    0.082019
   7 H :    0.059153
   8 H :    0.296091
   9 H :    0.297160
  10 H :    0.284584
Sum of atomic charges:    0.0000000

LOEWDIN ATOMIC CHARGES
----------------------
   0 C :    0.619173
   1 C :   -0.322166
   2 N :    0.833343
   3 C :    0.557585
   4 H :   -0.289726
   5 H :   -0.301806
   6 H :   -0.265374
   7 H :   -0.287910
   8 H :   -0.186114
   9 H :   -0.179515
  10 H :   -0.177490

  Mayer bond orders larger than 0.100000
B(  0-C ,  1-C ) :   0.5852 B(  0-C ,  8-H ) :   0.9726 B(  0-C ,  9-H ) :   0.9910
B(  0-C , 10-H ) :   0.9632 B(  1-C ,  2-N ) :   0.8758 B(  1-C ,  3-C ) :   1.2185
B(  2-N ,  3-C ) :  -0.2309 B(  2-N ,  6-H ) :   1.1110 B(  2-N ,  7-H ) :   1.1549
B(  3-C ,  4-H ) :   1.2193 B(  3-C ,  5-H ) :   0.6399

E(0)                                       ...   -172.154531120
E(0)                                       ...   -172.154531120
E(CORR)(strong-pairs)                      ...     -0.762777240
E(CORR)(weak-pairs)                        ...     -0.000650387
E(CORR)(corrected)                         ...     -0.763427627
E(TOT)                                     ...   -172.917958747
E(CCSD(T))                                 ...   -172.948885011
FINAL SINGLE POINT ENERGY      -172.948885010945

DIPOLE MOMENT
-------------
                                X             Y             Z
Electronic contribution:     -1.09494       0.78293       0.90527
Nuclear contribution   :      1.10788      -0.01499      -1.11971
                        -----------------------------------------
Total Dipole Moment    :      0.01294       0.76794      -0.21444
                        -----------------------------------------
Magnitude (a.u.)       :      0.79743
Magnitude (Debye)      :      2.02689

Rotational constants in cm-1:     0.367851     0.295709     0.169239
Rotational constants in MHz : 11027.892768  8865.123922  5073.656136

                             ****ORCA TERMINATED NORMALLY****
TOTAL RUN TIME: 0 days 0 hours 23 minutes 51 seconds 607 msec
