                         Program Version 5.0.0 -  RELEASE  -
|  1> !BLYP D3BJ RIJCOSX def2-SVPD def2/J TightSCF
|  2> *xyz -1 1
|  3> C          4.90646       -3.10282       -5.95484
|  4> C          3.51177       -2.80621       -6.49228
|  5> H          2.73604       -3.37345       -5.97374
|  6> H          3.44490       -3.04083       -7.55528
|  7> S          3.00462       -1.09621       -6.38926
|  8> O          4.12886       -0.32965       -6.95372
|  9> O          1.78128       -1.00078       -7.13640
| 10> C          5.02498       -3.02568       -4.43762
| 11> H          5.20153       -4.10021       -6.29691
| 12> H          5.60592       -2.39782       -6.41337
| 13> O          2.85155       -0.78368       -4.95679
| 14> H          4.73604       -2.05011       -4.10644
| 15> H          6.03776       -3.21492       -4.14890
| 16> H          4.38436       -3.75784       -3.99214
| 17> *
| 18>
| 19> %MaxCore 64000
| 20>
| 21> %pal nprocs 8
| 22> end
| 23>
| 24> %scf
| 25>   MaxIter 150
| 26> end
| 27>
| 28>
| 29>                          ****END OF INPUT****

CARTESIAN COORDINATES (ANGSTROEM)
---------------------------------
  C      4.906460   -3.102820   -5.954840
  C      3.511770   -2.806210   -6.492280
  H      2.736040   -3.373450   -5.973740
  H      3.444900   -3.040830   -7.555280
  S      3.004620   -1.096210   -6.389260
  O      4.128860   -0.329650   -6.953720
  O      1.781280   -1.000780   -7.136400
  C      5.024980   -3.025680   -4.437620
  H      5.201530   -4.100210   -6.296910
  H      5.605920   -2.397820   -6.413370
  O      2.851550   -0.783680   -4.956790
  H      4.736040   -2.050110   -4.106440
  H      6.037760   -3.214920   -4.148900
  H      4.384360   -3.757840   -3.992140

 Total Charge           Charge          ....   -1
 Multiplicity           Mult            ....    1
 Number of Electrons    NEL             ....   66
 Basis Dimension        Dim             ....  212

ORBITAL ENERGIES
----------------

  NO   OCC          E(Eh)            E(eV)
   0   2.0000     -88.129954     -2398.1380
   1   2.0000     -18.575404      -505.4624
   2   2.0000     -18.564938      -505.1777
   3   2.0000     -18.564398      -505.1630
   4   2.0000      -9.790887      -266.4236
   5   2.0000      -9.785366      -266.2733
   6   2.0000      -9.776032      -266.0194
   7   2.0000      -7.666613      -208.6192
   8   2.0000      -5.701740      -155.1522
   9   2.0000      -5.701675      -155.1505
  10   2.0000      -5.700798      -155.1266
  11   2.0000      -0.834841       -22.7172
  12   2.0000      -0.698821       -19.0159
  13   2.0000      -0.679297       -18.4846
  14   2.0000      -0.574150       -15.6234
  15   2.0000      -0.491640       -13.3782
  16   2.0000      -0.402895       -10.9633
  17   2.0000      -0.321235        -8.7413
  18   2.0000      -0.275180        -7.4880
  19   2.0000      -0.269639        -7.3373
  20   2.0000      -0.240051        -6.5321
  21   2.0000      -0.229259        -6.2385
  22   2.0000      -0.207714        -5.6522
  23   2.0000      -0.200449        -5.4545
  24   2.0000      -0.177860        -4.8398
  25   2.0000      -0.170604        -4.6424
  26   2.0000      -0.161107        -4.3840
  27   2.0000      -0.100949        -2.7470
  28   2.0000      -0.099939        -2.7195
  29   2.0000      -0.069770        -1.8985
  30   2.0000      -0.062780        -1.7083
  31   2.0000      -0.054642        -1.4869
  32   2.0000      -0.018134        -0.4934
  33   0.0000       0.119259         3.2452
  34   0.0000       0.145658         3.9636
  35   0.0000       0.151715         4.1284
  36   0.0000       0.164267         4.4699
  37   0.0000       0.181107         4.9282

MULLIKEN ATOMIC CHARGES
-----------------------
   0 C :    0.068777
   1 C :    0.285852
   2 H :   -0.164204
   3 H :   -0.199847
   4 S :    1.169921
   5 O :   -0.771007
   6 O :   -0.735248
   7 C :    1.228067
   8 H :   -0.296628
   9 H :   -0.149558
  10 O :   -0.783221
  11 H :   -0.306399
  12 H :   -0.214189
  13 H :   -0.132315
Sum of atomic charges:   -1.0000000

LOEWDIN ATOMIC CHARGES
----------------------
   0 C :   -0.083285
   1 C :   -0.095115
   2 H :    0.002129
   3 H :   -0.002781
   4 S :    0.820187
   5 O :   -0.564076
   6 O :   -0.550095
   7 C :    0.132170
   8 H :    0.000427
   9 H :    0.009248
  10 O :   -0.562207
  11 H :   -0.040709
  12 H :   -0.037891
  13 H :   -0.028002

  Mayer bond orders larger than 0.100000
B(  0-C ,  1-C ) :   1.2106 B(  0-C ,  2-H ) :   0.1332 B(  0-C ,  3-H ) :   0.1599
B(  0-C ,  7-C ) :   1.2308 B(  0-C ,  8-H ) :   0.7627 B(  0-C ,  9-H ) :   0.8187
B(  0-C , 11-H ) :   0.3126 B(  0-C , 12-H ) :   0.2875 B(  0-C , 13-H ) :   0.2758
B(  1-C ,  2-H ) :   0.8597 B(  1-C ,  3-H ) :   0.8714 B(  1-C ,  4-S ) :   0.8921
B(  1-C ,  6-O ) :   0.1031 B(  1-C ,  8-H ) :   0.1825 B(  1-C ,  9-H ) :   0.1782
B(  4-S ,  5-O ) :   1.2873 B(  4-S ,  6-O ) :   1.3836 B(  4-S , 10-O ) :   1.2838
B(  7-C ,  9-H ) :   0.1165 B(  7-C , 11-H ) :   0.6644 B(  7-C , 12-H ) :   0.6034
B(  7-C , 13-H ) :   0.6384 B( 11-H , 12-H ) :   0.1037 B( 11-H , 13-H ) :   0.1237

Dispersion correction           -0.027907942
FINAL SINGLE POINT ENERGY      -741.978606078419

DIPOLE MOMENT
-------------
                                X             Y             Z
Electronic contribution:     -6.20684       7.95826      -3.68637
Nuclear contribution   :      7.19636      -9.97366       3.94889
                        -----------------------------------------
Total Dipole Moment    :      0.98952      -2.01540       0.26252
                        -----------------------------------------
Magnitude (a.u.)       :      2.26051
Magnitude (Debye)      :      5.74576

Rotational constants in cm-1:     0.137066     0.054570     0.051980
Rotational constants in MHz :  4109.139955  1635.961703  1558.315282

                             ****ORCA TERMINATED NORMALLY****
TOTAL RUN TIME: 0 days 0 hours 0 minutes 5 seconds 952 msec
