                         Program Version 5.0.0 -  RELEASE  -
|  1> !BLYP D3BJ RIJCOSX def2-SVPD def2/J TightSCF
|  2> *xyz 1 1
|  3> C          4.49059        1.15590       -2.46929
|  4> N          4.30539        1.22276       -3.90832
|  5> C          4.63192        2.24637       -4.67096
|  6> N          4.54169        2.14399       -5.98714
|  7> N          5.08409        3.39358       -4.11855
|  8> H          4.92067        3.57050       -3.13587
|  9> H          5.25465        4.19739       -4.70696
| 10> H          3.82453        0.44911       -4.35093
| 11> H          4.34337        1.24932       -6.41665
| 12> H          4.67671        2.95662       -6.57411
| 13> C          5.94213        0.93950       -2.03689
| 14> H          3.86431        0.32853       -2.13661
| 15> H          4.07623        2.04999       -1.98901
| 16> C          6.55996       -0.35629       -2.55909
| 17> H          5.96798        0.95257       -0.94244
| 18> H          6.54718        1.78833       -2.36885
| 19> H          6.53022       -0.35990       -3.62867
| 20> H          6.00654       -1.19175       -2.18407
| 21> H          7.57588       -0.42487       -2.23029
| 22> *
| 23>
| 24> %MaxCore 64000
| 25>
| 26> %pal nprocs 8
| 27> end
| 28>
| 29> %scf
| 30>   MaxIter 150
| 31> end
| 32>
| 33>
| 34>                          ****END OF INPUT****

CARTESIAN COORDINATES (ANGSTROEM)
---------------------------------
  C      4.490590    1.155900   -2.469290
  N      4.305390    1.222760   -3.908320
  C      4.631920    2.246370   -4.670960
  N      4.541690    2.143990   -5.987140
  N      5.084090    3.393580   -4.118550
  H      4.920670    3.570500   -3.135870
  H      5.254650    4.197390   -4.706960
  H      3.824530    0.449110   -4.350930
  H      4.343370    1.249320   -6.416650
  H      4.676710    2.956620   -6.574110
  C      5.942130    0.939500   -2.036890
  H      3.864310    0.328530   -2.136610
  H      4.076230    2.049990   -1.989010
  C      6.559960   -0.356290   -2.559090
  H      5.967980    0.952570   -0.942440
  H      6.547180    1.788330   -2.368850
  H      6.530220   -0.359900   -3.628670
  H      6.006540   -1.191750   -2.184070
  H      7.575880   -0.424870   -2.230290

 Total Charge           Charge          ....    1
 Multiplicity           Mult            ....    1
 Number of Electrons    NEL             ....   56
 Basis Dimension        Dim             ....  236

ORBITAL ENERGIES
----------------

  NO   OCC          E(Eh)            E(eV)
   0   2.0000     -14.245335      -387.6353
   1   2.0000     -14.243698      -387.5907
   2   2.0000     -14.242407      -387.5556
   3   2.0000     -10.245393      -278.7913
   4   2.0000     -10.123415      -275.4721
   5   2.0000     -10.063036      -273.8291
   6   2.0000     -10.034717      -273.0585
   7   2.0000      -1.113154       -30.2905
   8   2.0000      -1.011281       -27.5184
   9   2.0000      -0.996996       -27.1296
  10   2.0000      -0.855370       -23.2758
  11   2.0000      -0.788894       -21.4669
  12   2.0000      -0.753839       -20.5130
  13   2.0000      -0.727272       -19.7901
  14   2.0000      -0.702308       -19.1108
  15   2.0000      -0.661023       -17.9873
  16   2.0000      -0.637478       -17.3467
  17   2.0000      -0.635321       -17.2880
  18   2.0000      -0.605024       -16.4635
  19   2.0000      -0.573014       -15.5925
  20   2.0000      -0.545961       -14.8563
  21   2.0000      -0.526233       -14.3195
  22   2.0000      -0.499433       -13.5903
  23   2.0000      -0.457036       -12.4366
  24   2.0000      -0.442086       -12.0298
  25   2.0000      -0.439000       -11.9458
  26   2.0000      -0.425684       -11.5834
  27   2.0000      -0.404473       -11.0063
  28   0.0000      -0.197401        -5.3716
  29   0.0000      -0.176972        -4.8156
  30   0.0000      -0.145429        -3.9573
  31   0.0000      -0.136724        -3.7204
  32   0.0000      -0.117763        -3.2045

MULLIKEN ATOMIC CHARGES
-----------------------
   0 C :    1.000957
   1 N :   -0.363562
   2 C :    1.133374
   3 N :    0.225762
   4 N :    0.273047
   5 H :   -0.086564
   6 H :   -0.258819
   7 H :   -0.214742
   8 H :   -0.135294
   9 H :   -0.127701
  10 C :   -0.068246
  11 H :   -0.473719
  12 H :   -0.160281
  13 C :    1.126926
  14 H :   -0.274515
  15 H :   -0.102451
  16 H :   -0.225632
  17 H :   -0.058727
  18 H :   -0.209814
Sum of atomic charges:    1.0000000

LOEWDIN ATOMIC CHARGES
----------------------
   0 C :    0.072471
   1 N :    0.064306
   2 C :   -0.058772
   3 N :    0.281781
   4 N :    0.302624
   5 H :    0.011480
   6 H :    0.030385
   7 H :    0.058921
   8 H :    0.036444
   9 H :    0.035439
  10 C :   -0.044252
  11 H :    0.038732
  12 H :    0.023909
  13 C :    0.152361
  14 H :    0.033667
  15 H :    0.009520
  16 H :   -0.029579
  17 H :   -0.011983
  18 H :   -0.007455

  Mayer bond orders larger than 0.100000
B(  0-C ,  1-N ) :   0.9652 B(  0-C ,  2-C ) :  -0.1364 B(  0-C ,  7-H ) :  -0.1651
B(  0-C , 10-C ) :   1.1251 B(  0-C , 11-H ) :   0.5744 B(  0-C , 12-H ) :   0.8263
B(  0-C , 13-C ) :   0.1016 B(  0-C , 14-H ) :   0.1084 B(  0-C , 15-H ) :   0.1431
B(  1-N ,  2-C ) :   1.0200 B(  1-N ,  3-N ) :   0.3336 B(  1-N ,  4-N ) :   0.2853
B(  1-N ,  7-H ) :   1.2552 B(  1-N ,  9-H ) :  -0.1111 B(  1-N , 11-H ) :   0.2896
B(  2-C ,  3-N ) :   0.8936 B(  2-C ,  4-N ) :   1.0055 B(  2-C ,  5-H ) :  -0.1384
B(  2-C ,  6-H ) :  -0.1676 B(  2-C ,  7-H ) :  -0.2652 B(  2-C ,  8-H ) :  -0.2105
B(  2-C ,  9-H ) :  -0.1391 B(  3-N ,  4-N ) :   0.1628 B(  3-N ,  8-H ) :   1.2156
B(  3-N ,  9-H ) :   1.2392 B(  4-N ,  5-H ) :   1.0919 B(  4-N ,  6-H ) :   1.2672
B(  5-H ,  6-H ) :  -0.2266 B(  8-H ,  9-H ) :  -0.1962 B( 10-C , 11-H ) :   0.1449
B( 10-C , 13-C ) :   1.3233 B( 10-C , 14-H ) :   0.9262 B( 10-C , 15-H ) :   0.8178
B( 10-C , 16-H ) :   0.2583 B( 10-C , 17-H ) :   0.2510 B( 10-C , 18-H ) :   0.2909
B( 11-H , 12-H ) :  -0.1651 B( 13-C , 16-H ) :   0.7190 B( 13-C , 17-H ) :   0.7009
B( 13-C , 18-H ) :   0.6740

Dispersion correction           -0.031862106
FINAL SINGLE POINT ENERGY      -323.375749131307

DIPOLE MOMENT
-------------
                                X             Y             Z
Electronic contribution:     -3.24235       3.77660      -4.81290
Nuclear contribution   :      2.46011      -2.82418       3.51638
                        -----------------------------------------
Total Dipole Moment    :     -0.78224       0.95242      -1.29652
                        -----------------------------------------
Magnitude (a.u.)       :      1.78885
Magnitude (Debye)      :      4.54689

Rotational constants in cm-1:     0.152406     0.050160     0.046480
Rotational constants in MHz :  4569.006375  1503.763011  1393.441650

                             ****ORCA TERMINATED NORMALLY****
TOTAL RUN TIME: 0 days 0 hours 0 minutes 6 seconds 888 msec
