                         Program Version 5.0.0 -  RELEASE  -
|  1> !BLYP D3BJ RIJCOSX def2-SVPD def2/J TightSCF xyzfile
|  2>
|  3> *xyzfile 0 1 B.xyz
|  4>
|  5> %MaxCore 64000
|  6>
|  7> %pal nprocs 4
|  8> end
|  9>
| 10> %scf
| 11>   MaxIter 150
| 12> end
| 13>
| 14>
| 15>                          ****END OF INPUT****

CARTESIAN COORDINATES (ANGSTROEM)
---------------------------------
  C      4.490588    1.155899   -2.469290
  N      4.305394    1.222762   -3.908317
  C      4.906458   -3.102816   -5.954844
  C      3.511771   -2.806215   -6.492283
  H      2.736044   -3.373445   -5.973736
  H      3.444904   -3.040831   -7.555281
  S      3.004618   -1.096206   -6.389259
  C      4.631918    2.246365   -4.670958
  N      4.541686    2.143990   -5.987139
  N      5.084086    3.393584   -4.118545
  H      4.920675    3.570501   -3.135870
  H      5.254652    4.197390   -4.706956
  H      3.824530    0.449113   -4.350926
  H      4.343373    1.249318   -6.416646
  H      4.676712    2.956624   -6.574113
  O      4.128856   -0.329647   -6.953717
  O      1.781285   -1.000779   -7.136399
  C      5.942129    0.939500   -2.036893
  H      3.864305    0.328532   -2.136611
  H      4.076233    2.049994   -1.989010
  C      6.462677   -3.117775   -3.944671
  C      5.024977   -3.025679   -4.437625
  H      4.423321   -3.818693   -3.977648
  H      4.579350   -2.087131   -4.108727
  H      5.201533   -4.100207   -6.296905
  H      5.605922   -2.397822   -6.413368
  C      6.559957   -0.356290   -2.559086
  H      5.967976    0.952567   -0.942444
  H      6.547184    1.788331   -2.368849
  C      6.006283   -1.615917   -1.899301
  H      7.642360   -0.318000   -2.402059
  H      6.414855   -0.403433   -3.642587
  C      6.608718   -2.917014   -2.435655
  H      6.190324   -1.561115   -0.820948
  H      4.919250   -1.651245   -2.016586
  H      7.066975   -2.374258   -4.475514
  H      6.887808   -4.089747   -4.215332
  H      6.135197   -3.755573   -1.915159
  H      7.671142   -2.955503   -2.172291
  O      2.851546   -0.783683   -4.956789

 Total Charge           Charge          ....    0
 Multiplicity           Mult            ....    1
 Number of Electrons    NEL             ....  144
 Basis Dimension        Dim             ....  540

ORBITAL ENERGIES
----------------

  NO   OCC          E(Eh)            E(eV)
   0   2.0000     -88.284683     -2402.3484
   1   2.0000     -18.729884      -509.6660
   2   2.0000     -18.729682      -509.6606
   3   2.0000     -18.717007      -509.3157
   4   2.0000     -14.098240      -383.6326
   5   2.0000     -14.065056      -382.7296
   6   2.0000     -14.064163      -382.7053
   7   2.0000     -10.082457      -274.3576
   8   2.0000      -9.985944      -271.7313
   9   2.0000      -9.941545      -270.5232
  10   2.0000      -9.925669      -270.0912
  11   2.0000      -9.918822      -269.9049
  12   2.0000      -9.913606      -269.7629
  13   2.0000      -9.912977      -269.7458
  14   2.0000      -9.906925      -269.5811
  15   2.0000      -9.905393      -269.5394
  16   2.0000      -9.897888      -269.3352
  17   2.0000      -7.820665      -212.8111
  18   2.0000      -5.856638      -159.3672
  19   2.0000      -5.855724      -159.3424
  20   2.0000      -5.854059      -159.2971
  21   2.0000      -0.992164       -26.9981
  22   2.0000      -0.951239       -25.8845
  23   2.0000      -0.854483       -23.2517
  24   2.0000      -0.851812       -23.1790
  25   2.0000      -0.845414       -23.0049
  26   2.0000      -0.835285       -22.7293
  27   2.0000      -0.737351       -20.0643
  28   2.0000      -0.713253       -19.4086
  29   2.0000      -0.689145       -18.7526
  30   2.0000      -0.656555       -17.8658
  31   2.0000      -0.624216       -16.9858
  32   2.0000      -0.605407       -16.4740
  33   2.0000      -0.578221       -15.7342
  34   2.0000      -0.565297       -15.3825
  35   2.0000      -0.550866       -14.9898
  36   2.0000      -0.528536       -14.3822
  37   2.0000      -0.513767       -13.9803
  38   2.0000      -0.487670       -13.2702
  39   2.0000      -0.486357       -13.2344
  40   2.0000      -0.482675       -13.1343
  41   2.0000      -0.458313       -12.4713
  42   2.0000      -0.447660       -12.1814
  43   2.0000      -0.433060       -11.7842
  44   2.0000      -0.425084       -11.5671
  45   2.0000      -0.410995       -11.1837
  46   2.0000      -0.405175       -11.0254
  47   2.0000      -0.397742       -10.8231
  48   2.0000      -0.384348       -10.4586
  49   2.0000      -0.379909       -10.3378
  50   2.0000      -0.371945       -10.1211
  51   2.0000      -0.367255        -9.9935
  52   2.0000      -0.355095        -9.6626
  53   2.0000      -0.349836        -9.5195
  54   2.0000      -0.340966        -9.2782
  55   2.0000      -0.333727        -9.0812
  56   2.0000      -0.321047        -8.7361
  57   2.0000      -0.312982        -8.5167
  58   2.0000      -0.304004        -8.2724
  59   2.0000      -0.292090        -7.9482
  60   2.0000      -0.282324        -7.6824
  61   2.0000      -0.277538        -7.5522
  62   2.0000      -0.272298        -7.4096
  63   2.0000      -0.268094        -7.2952
  64   2.0000      -0.267826        -7.2879
  65   2.0000      -0.260943        -7.1006
  66   2.0000      -0.253407        -6.8956
  67   2.0000      -0.245514        -6.6808
  68   2.0000      -0.223103        -6.0709
  69   2.0000      -0.215700        -5.8695
  70   2.0000      -0.209829        -5.7097
  71   2.0000      -0.180195        -4.9034
  72   0.0000      -0.043728        -1.1899
  73   0.0000      -0.039869        -1.0849
  74   0.0000      -0.013976        -0.3803
  75   0.0000       0.006319         0.1719
  76   0.0000       0.011174         0.3041

MULLIKEN ATOMIC CHARGES
-----------------------
   0 C :    1.346218
   1 N :    0.397045
   2 C :    0.554516
   3 C :    0.624744
   4 H :   -0.157295
   5 H :   -0.193134
   6 S :    1.137773
   7 C :    0.854410
   8 N :    0.752913
   9 N :    0.433628
  10 H :   -0.122577
  11 H :   -0.301489
  12 H :   -1.041696
  13 H :   -0.460272
  14 H :   -0.251491
  15 O :   -0.756654
  16 O :   -0.710349
  17 C :    0.634655
  18 H :   -0.457487
  19 H :   -0.348973
  20 C :    0.333871
  21 C :    0.572242
  22 H :   -0.073322
  23 H :   -0.734681
  24 H :   -0.258447
  25 H :   -0.078327
  26 C :    0.448859
  27 H :   -0.270836
  28 H :   -0.201786
  29 C :    0.110585
  30 H :   -0.313644
  31 H :   -0.275471
  32 C :    0.963409
  33 H :   -0.537564
  34 H :    0.051541
  35 H :   -0.011545
  36 H :   -0.536959
  37 H :   -0.190705
  38 H :   -0.145558
  39 O :   -0.786148
Sum of atomic charges:    0.0000000

LOEWDIN ATOMIC CHARGES
----------------------
   0 C :    0.083682
   1 N :    0.097777
   2 C :   -0.029565
   3 C :   -0.059305
   4 H :    0.019299
   5 H :    0.014288
   6 S :    0.921954
   7 C :   -0.052683
   8 N :    0.305619
   9 N :    0.270965
  10 H :   -0.008456
  11 H :    0.008858
  12 H :   -0.088206
  13 H :   -0.110150
  14 H :    0.021014
  15 O :   -0.505689
  16 O :   -0.489201
  17 C :   -0.008657
  18 H :    0.027602
  19 H :    0.012046
  20 C :   -0.029226
  21 C :   -0.022073
  22 H :    0.035287
  23 H :   -0.024666
  24 H :    0.022655
  25 H :    0.016657
  26 C :   -0.019492
  27 H :    0.022275
  28 H :    0.003729
  29 C :   -0.027278
  30 H :    0.024761
  31 H :    0.007565
  32 C :   -0.020592
  33 H :    0.018402
  34 H :    0.005117
  35 H :    0.011414
  36 H :    0.018561
  37 H :    0.018171
  38 H :    0.015692
  39 O :   -0.508152

  Mayer bond orders larger than 0.100000
B(  0-C ,  1-N ) :   1.0150 B(  0-C , 12-H ) :  -0.4878 B(  0-C , 17-C ) :   1.0665
B(  0-C , 18-H ) :   0.4612 B(  0-C , 19-H ) :   0.7105 B(  0-C , 26-C ) :   0.2041
B(  0-C , 27-H ) :   0.1457 B(  0-C , 28-H ) :   0.1160 B(  1-N ,  7-C ) :   1.3229
B(  1-N ,  9-N ) :   0.2607 B(  1-N , 12-H ) :   0.8583 B(  1-N , 13-H ) :   0.1829
B(  1-N , 14-H ) :  -0.1412 B(  1-N , 17-C ) :   0.1095 B(  1-N , 18-H ) :   0.3471
B(  2-C ,  3-C ) :   1.1762 B(  2-C ,  5-H ) :   0.3355 B(  2-C , 20-C ) :   0.1767
B(  2-C , 21-C ) :   1.1166 B(  2-C , 22-H ) :   0.1347 B(  2-C , 23-H ) :   0.1297
B(  2-C , 24-H ) :   0.6296 B(  2-C , 25-H ) :   0.7531 B(  3-C ,  4-H ) :   0.8146
B(  3-C ,  5-H ) :   0.5773 B(  3-C ,  6-S ) :   0.9380 B(  3-C , 16-O ) :   0.1201
B(  3-C , 21-C ) :   0.1915 B(  3-C , 24-H ) :   0.1185 B(  3-C , 25-H ) :   0.1238
B(  5-H ,  6-S ) :   0.1215 B(  6-S , 15-O ) :   1.1646 B(  6-S , 16-O ) :   1.3958
B(  6-S , 39-O ) :   1.2023 B(  7-C ,  8-N ) :   1.0094 B(  7-C ,  9-N ) :   0.9941
B(  7-C , 10-H ) :  -0.1355 B(  7-C , 12-H ) :  -0.7492 B(  7-C , 13-H ) :  -0.3331
B(  7-C , 14-H ) :  -0.1156 B(  8-N ,  9-N ) :   0.1300 B(  8-N , 13-H ) :   1.0767
B(  8-N , 14-H ) :   1.2288 B(  9-N , 10-H ) :   1.1051 B(  9-N , 11-H ) :   1.1994
B( 10-H , 11-H ) :  -0.2204 B( 12-H , 39-O ) :   0.2455 B( 13-H , 14-H ) :  -0.2854
B( 13-H , 15-O ) :   0.2408 B( 16-O , 39-O ) :   0.1050 B( 17-C , 18-H ) :   0.1158
B( 17-C , 19-H ) :   0.1589 B( 17-C , 26-C ) :   1.1799 B( 17-C , 27-H ) :   0.8029
B( 17-C , 28-H ) :   0.5621 B( 17-C , 30-H ) :   0.1062 B( 17-C , 31-H ) :   0.1314
B( 18-H , 19-H ) :  -0.2568 B( 20-C , 21-C ) :   1.1736 B( 20-C , 22-H ) :   0.1397
B( 20-C , 23-H ) :   0.1631 B( 20-C , 29-C ) :   0.2303 B( 20-C , 32-C ) :   1.0859
B( 20-C , 35-H ) :   0.7904 B( 20-C , 36-H ) :   0.7368 B( 20-C , 37-H ) :   0.1326
B( 20-C , 38-H ) :   0.3040 B( 21-C , 22-H ) :   0.5972 B( 21-C , 23-H ) :   0.5144
B( 21-C , 24-H ) :   0.2273 B( 21-C , 25-H ) :   0.1382 B( 21-C , 35-H ) :   0.1457
B( 21-C , 36-H ) :   0.2229 B( 22-H , 23-H ) :   0.1674 B( 23-H , 34-H ) :   0.1424
B( 24-H , 25-H ) :  -0.1124 B( 26-C , 27-H ) :   0.1192 B( 26-C , 28-H ) :   0.2865
B( 26-C , 29-C ) :   1.2276 B( 26-C , 30-H ) :   0.7245 B( 26-C , 31-H ) :   0.7626
B( 26-C , 33-H ) :   0.1664 B( 26-C , 34-H ) :   0.1464 B( 27-H , 28-H ) :  -0.1633
B( 29-C , 30-H ) :   0.1857 B( 29-C , 31-H ) :   0.1711 B( 29-C , 32-C ) :   1.0792
B( 29-C , 33-H ) :   0.8419 B( 29-C , 34-H ) :   0.7826 B( 29-C , 37-H ) :   0.3954
B( 29-C , 38-H ) :   0.1612 B( 31-H , 35-H ) :   0.1098 B( 32-C , 35-H ) :   0.1009
B( 32-C , 37-H ) :   0.4806 B( 32-C , 38-H ) :   0.5459 B( 37-H , 38-H ) :  -0.1682

Dispersion correction           -0.097106760
FINAL SINGLE POINT ENERGY     -1182.145456953236

DIPOLE MOMENT
-------------
                                X             Y             Z
Electronic contribution:    -14.54325       8.26423     -15.34614
Nuclear contribution   :     16.79156      -5.47215      17.54258
                        -----------------------------------------
Total Dipole Moment    :      2.24832       2.79208       2.19644
                        -----------------------------------------
Magnitude (a.u.)       :      4.20417
Magnitude (Debye)      :     10.68614

Rotational constants in cm-1:     0.014207     0.012373     0.007472
Rotational constants in MHz :   425.900436   370.942493   224.006604

                             ****ORCA TERMINATED NORMALLY****
TOTAL RUN TIME: 0 days 0 hours 1 minutes 9 seconds 560 msec
