                         Program Version 5.0.0 -  RELEASE  -
|  1> !BLYP D3BJ RIJCOSX def2-SVPD def2/J TightSCF
|  2> *xyz 0 1
|  3> C          4.90646       -3.10282       -5.95484
|  4> C          3.51177       -2.80621       -6.49228
|  5> H          2.73604       -3.37345       -5.97374
|  6> H          3.44490       -3.04083       -7.55528
|  7> S          3.00462       -1.09621       -6.38926
|  8> F          4.12886       -0.32965       -6.95372
|  9> O          1.78128       -1.00078       -7.13640
| 10> C          5.02498       -3.02568       -4.43762
| 11> H          5.20153       -4.10021       -6.29691
| 12> H          5.60592       -2.39782       -6.41337
| 13> O          2.85155       -0.78368       -4.95679
| 14> H          4.73604       -2.05011       -4.10644
| 15> H          6.03776       -3.21492       -4.14890
| 16> H          4.38436       -3.75784       -3.99214
| 17> *
| 18>
| 19> %MaxCore 64000
| 20>
| 21> %pal nprocs 8
| 22> end
| 23>
| 24> %scf
| 25>   MaxIter 150
| 26> end
| 27>
| 28>
| 29>                          ****END OF INPUT****

CARTESIAN COORDINATES (ANGSTROEM)
---------------------------------
  C      4.906460   -3.102820   -5.954840
  C      3.511770   -2.806210   -6.492280
  H      2.736040   -3.373450   -5.973740
  H      3.444900   -3.040830   -7.555280
  S      3.004620   -1.096210   -6.389260
  F      4.128860   -0.329650   -6.953720
  O      1.781280   -1.000780   -7.136400
  C      5.024980   -3.025680   -4.437620
  H      5.201530   -4.100210   -6.296910
  H      5.605920   -2.397820   -6.413370
  O      2.851550   -0.783680   -4.956790
  H      4.736040   -2.050110   -4.106440
  H      6.037760   -3.214920   -4.148900
  H      4.384360   -3.757840   -3.992140

 Total Charge           Charge          ....    0
 Multiplicity           Mult            ....    1
 Number of Electrons    NEL             ....   66
 Basis Dimension        Dim             ....  212

ORBITAL ENERGIES
----------------

  NO   OCC          E(Eh)            E(eV)
   0   2.0000     -88.380497     -2404.9556
   1   2.0000     -24.403984      -664.0662
   2   2.0000     -18.804116      -511.6860
   3   2.0000     -18.792820      -511.3786
   4   2.0000      -9.982567      -271.6395
   5   2.0000      -9.954592      -270.8782
   6   2.0000      -9.920151      -269.9410
   7   2.0000      -7.918155      -215.4640
   8   2.0000      -5.957475      -162.1111
   9   2.0000      -5.951176      -161.9397
  10   2.0000      -5.949377      -161.8908
  11   2.0000      -1.239879       -33.7388
  12   2.0000      -1.015861       -27.6430
  13   2.0000      -0.918201       -24.9855
  14   2.0000      -0.754085       -20.5197
  15   2.0000      -0.676305       -18.4032
  16   2.0000      -0.629931       -17.1413
  17   2.0000      -0.567325       -15.4377
  18   2.0000      -0.520307       -14.1583
  19   2.0000      -0.501816       -13.6551
  20   2.0000      -0.481993       -13.1157
  21   2.0000      -0.438665       -11.9367
  22   2.0000      -0.432265       -11.7625
  23   2.0000      -0.407652       -11.0928
  24   2.0000      -0.391828       -10.6622
  25   2.0000      -0.387927       -10.5560
  26   2.0000      -0.340136        -9.2556
  27   2.0000      -0.337561        -9.1855
  28   2.0000      -0.332675        -9.0526
  29   2.0000      -0.322005        -8.7622
  30   2.0000      -0.288748        -7.8572
  31   2.0000      -0.276906        -7.5350
  32   2.0000      -0.261304        -7.1104
  33   0.0000      -0.030333        -0.8254
  34   0.0000       0.000845         0.0230
  35   0.0000       0.014579         0.3967
  36   0.0000       0.016836         0.4581
  37   0.0000       0.022089         0.6011

MULLIKEN ATOMIC CHARGES
-----------------------
   0 C :    0.109565
   1 C :    0.276886
   2 H :   -0.120407
   3 H :   -0.159077
   4 S :    1.329248
   5 F :   -0.377892
   6 O :   -0.593452
   7 C :    1.259360
   8 H :   -0.280019
   9 H :   -0.165702
  10 O :   -0.647707
  11 H :   -0.324055
  12 H :   -0.191484
  13 H :   -0.115264
Sum of atomic charges:    0.0000000

LOEWDIN ATOMIC CHARGES
----------------------
   0 C :   -0.068104
   1 C :   -0.050243
   2 H :    0.034601
   3 H :    0.017399
   4 S :    1.079749
   5 F :   -0.254414
   6 O :   -0.436956
   7 C :    0.152521
   8 H :    0.025888
   9 H :    0.017718
  10 O :   -0.451505
  11 H :   -0.038447
  12 H :   -0.016499
  13 H :   -0.011708

  Mayer bond orders larger than 0.100000
B(  0-C ,  1-C ) :   1.2099 B(  0-C ,  2-H ) :   0.1234 B(  0-C ,  3-H ) :   0.1489
B(  0-C ,  7-C ) :   1.2639 B(  0-C ,  8-H ) :   0.7652 B(  0-C ,  9-H ) :   0.8039
B(  0-C , 11-H ) :   0.3075 B(  0-C , 12-H ) :   0.2752 B(  0-C , 13-H ) :   0.2760
B(  1-C ,  2-H ) :   0.8649 B(  1-C ,  3-H ) :   0.8804 B(  1-C ,  4-S ) :   0.9595
B(  1-C ,  8-H ) :   0.1656 B(  1-C ,  9-H ) :   0.1601 B(  4-S ,  5-F ) :   0.6697
B(  4-S ,  6-O ) :   1.5956 B(  4-S , 10-O ) :   1.5020 B(  6-O , 10-O ) :   0.1039
B(  7-C ,  9-H ) :   0.1121 B(  7-C , 11-H ) :   0.6638 B(  7-C , 12-H ) :   0.6095
B(  7-C , 13-H ) :   0.6357 B( 11-H , 12-H ) :   0.1026 B( 11-H , 13-H ) :   0.1212

Dispersion correction           -0.026815693
FINAL SINGLE POINT ENERGY      -766.482130178672

DIPOLE MOMENT
-------------
                                X             Y             Z
Electronic contribution:     -5.32512      10.20915      -5.29048
Nuclear contribution   :      6.51452     -11.35172       4.86721
                        -----------------------------------------
Total Dipole Moment    :      1.18940      -1.14257      -0.42327
                        -----------------------------------------
Magnitude (a.u.)       :      1.70273
Magnitude (Debye)      :      4.32800

Rotational constants in cm-1:     0.130386     0.053203     0.051661
Rotational constants in MHz :  3908.886819  1594.983443  1548.763987

                             ****ORCA TERMINATED NORMALLY****
TOTAL RUN TIME: 0 days 0 hours 0 minutes 5 seconds 700 msec
