                         Program Version 5.0.0 -  RELEASE  -
|  1> !BLYP D3BJ RIJCOSX def2-SVPD def2/J TightSCF
|  2> *xyz 0 1
|  3> C          4.49059        1.15590       -2.46929
|  4> C          4.30539        1.22276       -3.90832
|  5> C          4.63192        2.24637       -4.67096
|  6> N          4.54169        2.14399       -5.98714
|  7> N          5.08409        3.39358       -4.11855
|  8> H          4.92067        3.57050       -3.13587
|  9> H          5.25465        4.19739       -4.70696
| 10> H          3.82453        0.44911       -4.35093
| 11> H          4.34337        1.24932       -6.41665
| 12> H          4.67671        2.95662       -6.57411
| 13> C          5.94213        0.93950       -2.03689
| 14> H          3.86431        0.32853       -2.13661
| 15> H          4.07623        2.04999       -1.98901
| 16> C          6.55996       -0.35629       -2.55909
| 17> H          5.96798        0.95257       -0.94244
| 18> H          6.54718        1.78833       -2.36885
| 19> H          6.53022       -0.35990       -3.62867
| 20> H          6.00654       -1.19175       -2.18407
| 21> H          7.57588       -0.42487       -2.23029
| 22> *
| 23>
| 24> %MaxCore 64000
| 25>
| 26> %pal nprocs 8
| 27> end
| 28>
| 29> %scf
| 30>   MaxIter 150
| 31> end
| 32>
| 33>
| 34>                          ****END OF INPUT****

CARTESIAN COORDINATES (ANGSTROEM)
---------------------------------
  C      4.490590    1.155900   -2.469290
  C      4.305390    1.222760   -3.908320
  C      4.631920    2.246370   -4.670960
  N      4.541690    2.143990   -5.987140
  N      5.084090    3.393580   -4.118550
  H      4.920670    3.570500   -3.135870
  H      5.254650    4.197390   -4.706960
  H      3.824530    0.449110   -4.350930
  H      4.343370    1.249320   -6.416650
  H      4.676710    2.956620   -6.574110
  C      5.942130    0.939500   -2.036890
  H      3.864310    0.328530   -2.136610
  H      4.076230    2.049990   -1.989010
  C      6.559960   -0.356290   -2.559090
  H      5.967980    0.952570   -0.942440
  H      6.547180    1.788330   -2.368850
  H      6.530220   -0.359900   -3.628670
  H      6.006540   -1.191750   -2.184070
  H      7.575880   -0.424870   -2.230290

 Total Charge           Charge          ....    0
 Multiplicity           Mult            ....    1
 Number of Electrons    NEL             ....   56
 Basis Dimension        Dim             ....  236

ORBITAL ENERGIES
----------------

  NO   OCC          E(Eh)            E(eV)
   0   2.0000     -14.026471      -381.6797
   1   2.0000     -14.024724      -381.6321
   2   2.0000      -9.960362      -271.0352
   3   2.0000      -9.895967      -269.2830
   4   2.0000      -9.894410      -269.2406
   5   2.0000      -9.887252      -269.0458
   6   2.0000      -9.844669      -267.8871
   7   2.0000      -0.862996       -23.4833
   8   2.0000      -0.779891       -21.2219
   9   2.0000      -0.696378       -18.9494
  10   2.0000      -0.638651       -17.3786
  11   2.0000      -0.582535       -15.8516
  12   2.0000      -0.530325       -14.4309
  13   2.0000      -0.504406       -13.7256
  14   2.0000      -0.486119       -13.2280
  15   2.0000      -0.446193       -12.1415
  16   2.0000      -0.425274       -11.5723
  17   2.0000      -0.388073       -10.5600
  18   2.0000      -0.380519       -10.3545
  19   2.0000      -0.363091        -9.8802
  20   2.0000      -0.334790        -9.1101
  21   2.0000      -0.320019        -8.7081
  22   2.0000      -0.311410        -8.4739
  23   2.0000      -0.284085        -7.7303
  24   2.0000      -0.267383        -7.2759
  25   2.0000      -0.265677        -7.2294
  26   2.0000      -0.219104        -5.9621
  27   2.0000      -0.127413        -3.4671
  28   0.0000      -0.008773        -0.2387
  29   0.0000       0.017460         0.4751
  30   0.0000       0.024174         0.6578
  31   0.0000       0.037725         1.0266
  32   0.0000       0.044668         1.2155

MULLIKEN ATOMIC CHARGES
-----------------------
   0 C :    0.540343
   1 C :   -0.176132
   2 C :    0.822108
   3 N :    0.259771
   4 N :    0.240720
   5 H :   -0.103141
   6 H :   -0.358648
   7 H :   -0.564098
   8 H :   -0.117609
   9 H :   -0.261083
  10 C :   -0.107288
  11 H :   -0.166592
  12 H :   -0.231997
  13 C :    1.155795
  14 H :   -0.247396
  15 H :   -0.183806
  16 H :   -0.215369
  17 H :   -0.083360
  18 H :   -0.202219
Sum of atomic charges:   -0.0000000

LOEWDIN ATOMIC CHARGES
----------------------
   0 C :   -0.059596
   1 C :   -0.029581
   2 C :   -0.226919
   3 N :    0.198823
   4 N :    0.227438
   5 H :   -0.018996
   6 H :   -0.020061
   7 H :   -0.052189
   8 H :    0.002797
   9 H :   -0.017007
  10 C :   -0.071033
  11 H :    0.012211
  12 H :   -0.001846
  13 C :    0.131922
  14 H :    0.007155
  15 H :    0.002261
  16 H :   -0.031404
  17 H :   -0.025036
  18 H :   -0.028940

  Mayer bond orders larger than 0.100000
B(  0-C ,  1-C ) :   1.1268 B(  0-C ,  7-H ) :   0.3852 B(  0-C , 10-C ) :   1.1407
B(  0-C , 11-H ) :   0.5591 B(  0-C , 12-H ) :   0.8015 B(  0-C , 14-H ) :   0.1671
B(  0-C , 15-H ) :   0.1782 B(  1-C ,  2-C ) :   1.4632 B(  1-C ,  3-N ) :   0.4315
B(  1-C ,  4-N ) :   0.2986 B(  1-C ,  7-H ) :   0.7213 B(  1-C , 10-C ) :   0.1115
B(  1-C , 11-H ) :   0.4242 B(  1-C , 12-H ) :   0.2063 B(  2-C ,  3-N ) :   0.8921
B(  2-C ,  4-N ) :   1.0007 B(  2-C ,  6-H ) :  -0.1739 B(  2-C ,  8-H ) :  -0.1129
B(  2-C , 12-H ) :  -0.1065 B(  3-N ,  4-N ) :   0.1215 B(  3-N ,  7-H ) :   0.1051
B(  3-N ,  8-H ) :   1.1912 B(  3-N ,  9-H ) :   1.2281 B(  4-N ,  5-H ) :   1.0749
B(  4-N ,  6-H ) :   1.3087 B(  5-H ,  6-H ) :  -0.2071 B(  7-H , 11-H ) :  -0.1125
B(  8-H ,  9-H ) :  -0.1849 B( 10-C , 11-H ) :   0.1522 B( 10-C , 12-H ) :   0.1015
B( 10-C , 13-C ) :   1.3142 B( 10-C , 14-H ) :   0.8504 B( 10-C , 15-H ) :   0.8288
B( 10-C , 16-H ) :   0.3029 B( 10-C , 17-H ) :   0.2919 B( 10-C , 18-H ) :   0.3180
B( 13-C , 14-H ) :   0.1070 B( 13-C , 16-H ) :   0.7013 B( 13-C , 17-H ) :   0.6832
B( 13-C , 18-H ) :   0.6129

Dispersion correction           -0.033137571
FINAL SINGLE POINT ENERGY      -306.893484198100

DIPOLE MOMENT
-------------
                                X             Y             Z
Electronic contribution:     -2.32934       3.66041      -4.18974
Nuclear contribution   :      2.29046      -2.89565       3.47129
                        -----------------------------------------
Total Dipole Moment    :     -0.03888       0.76475      -0.71846
                        -----------------------------------------
Magnitude (a.u.)       :      1.05002
Magnitude (Debye)      :      2.66893

Rotational constants in cm-1:     0.154384     0.050352     0.046525
Rotational constants in MHz :  4628.320816  1509.522910  1394.780903

                             ****ORCA TERMINATED NORMALLY****
TOTAL RUN TIME: 0 days 0 hours 0 minutes 7 seconds 104 msec
