                         Program Version 5.0.0 -  RELEASE  -
|  1> !BLYP D3BJ RIJCOSX def2-SVPD def2/J TightSCF
|  2> *xyz 0 1
|  3> C          4.90646       -3.10282       -5.95484
|  4> C          3.51177       -2.80621       -6.49228
|  5> H          2.73604       -3.37345       -5.97374
|  6> H          3.44490       -3.04083       -7.55528
|  7> S          3.00462       -1.09621       -6.38926
|  8> O          4.12886       -0.32965       -6.95372
|  9> F          1.78128       -1.00078       -7.13640
| 10> C          5.02498       -3.02568       -4.43762
| 11> H          5.20153       -4.10021       -6.29691
| 12> H          5.60592       -2.39782       -6.41337
| 13> O          2.85155       -0.78368       -4.95679
| 14> H          4.73604       -2.05011       -4.10644
| 15> H          6.03776       -3.21492       -4.14890
| 16> H          4.38436       -3.75784       -3.99214
| 17> *
| 18>
| 19> %MaxCore 64000
| 20>
| 21> %pal nprocs 8
| 22> end
| 23>
| 24> %scf
| 25>   MaxIter 150
| 26> end
| 27>
| 28>
| 29>                          ****END OF INPUT****

CARTESIAN COORDINATES (ANGSTROEM)
---------------------------------
  C      4.906460   -3.102820   -5.954840
  C      3.511770   -2.806210   -6.492280
  H      2.736040   -3.373450   -5.973740
  H      3.444900   -3.040830   -7.555280
  S      3.004620   -1.096210   -6.389260
  O      4.128860   -0.329650   -6.953720
  F      1.781280   -1.000780   -7.136400
  C      5.024980   -3.025680   -4.437620
  H      5.201530   -4.100210   -6.296910
  H      5.605920   -2.397820   -6.413370
  O      2.851550   -0.783680   -4.956790
  H      4.736040   -2.050110   -4.106440
  H      6.037760   -3.214920   -4.148900
  H      4.384360   -3.757840   -3.992140

 Total Charge           Charge          ....    0
 Multiplicity           Mult            ....    1
 Number of Electrons    NEL             ....   66
 Basis Dimension        Dim             ....  212

ORBITAL ENERGIES
----------------

  NO   OCC          E(Eh)            E(eV)
   0   2.0000     -88.382397     -2405.0073
   1   2.0000     -24.421104      -664.5320
   2   2.0000     -18.793197      -511.3889
   3   2.0000     -18.793126      -511.3869
   4   2.0000      -9.983414      -271.6625
   5   2.0000      -9.950229      -270.7595
   6   2.0000      -9.915478      -269.8139
   7   2.0000      -7.920072      -215.5161
   8   2.0000      -5.959471      -162.1654
   9   2.0000      -5.952928      -161.9874
  10   2.0000      -5.951198      -161.9403
  11   2.0000      -1.269525       -34.5455
  12   2.0000      -1.003615       -27.3098
  13   2.0000      -0.904967       -24.6254
  14   2.0000      -0.750548       -20.4234
  15   2.0000      -0.682861       -18.5816
  16   2.0000      -0.637114       -17.3368
  17   2.0000      -0.568301       -15.4643
  18   2.0000      -0.522751       -14.2248
  19   2.0000      -0.516622       -14.0580
  20   2.0000      -0.494914       -13.4673
  21   2.0000      -0.438531       -11.9330
  22   2.0000      -0.432960       -11.7814
  23   2.0000      -0.403201       -10.9717
  24   2.0000      -0.389871       -10.6089
  25   2.0000      -0.379175       -10.3179
  26   2.0000      -0.335820        -9.1381
  27   2.0000      -0.329462        -8.9651
  28   2.0000      -0.325267        -8.8510
  29   2.0000      -0.316665        -8.6169
  30   2.0000      -0.280247        -7.6259
  31   2.0000      -0.273013        -7.4291
  32   2.0000      -0.252206        -6.8629
  33   0.0000      -0.024977        -0.6797
  34   0.0000      -0.008358        -0.2274
  35   0.0000       0.015832         0.4308
  36   0.0000       0.020170         0.5488
  37   0.0000       0.026002         0.7076

MULLIKEN ATOMIC CHARGES
-----------------------
   0 C :    0.072493
   1 C :    0.248109
   2 H :   -0.107218
   3 H :   -0.138717
   4 S :    1.371018
   5 O :   -0.624682
   6 F :   -0.384880
   7 C :    1.250868
   8 H :   -0.271192
   9 H :   -0.137141
  10 O :   -0.646322
  11 H :   -0.321349
  12 H :   -0.191417
  13 H :   -0.119571
Sum of atomic charges:    0.0000000

LOEWDIN ATOMIC CHARGES
----------------------
   0 C :   -0.053102
   1 C :   -0.062108
   2 H :    0.020724
   3 H :    0.014984
   4 S :    1.084851
   5 O :   -0.454140
   6 F :   -0.240460
   7 C :    0.155428
   8 H :    0.028800
   9 H :    0.023801
  10 O :   -0.454990
  11 H :   -0.033998
  12 H :   -0.015602
  13 H :   -0.014186

  Mayer bond orders larger than 0.100000
B(  0-C ,  1-C ) :   1.2596 B(  0-C ,  2-H ) :   0.1273 B(  0-C ,  3-H ) :   0.1673
B(  0-C ,  7-C ) :   1.2551 B(  0-C ,  8-H ) :   0.7636 B(  0-C ,  9-H ) :   0.8192
B(  0-C , 11-H ) :   0.2989 B(  0-C , 12-H ) :   0.2775 B(  0-C , 13-H ) :   0.2698
B(  1-C ,  2-H ) :   0.8622 B(  1-C ,  3-H ) :   0.8382 B(  1-C ,  4-S ) :   0.9302
B(  1-C ,  8-H ) :   0.1744 B(  1-C ,  9-H ) :   0.1695 B(  4-S ,  5-O ) :   1.4908
B(  4-S ,  6-F ) :   0.7340 B(  4-S , 10-O ) :   1.4717 B(  5-O , 10-O ) :   0.1044
B(  7-C ,  9-H ) :   0.1116 B(  7-C , 11-H ) :   0.6704 B(  7-C , 12-H ) :   0.6066
B(  7-C , 13-H ) :   0.6336 B( 11-H , 12-H ) :   0.1004 B( 11-H , 13-H ) :   0.1227

Dispersion correction           -0.026980210
FINAL SINGLE POINT ENERGY      -766.467782977579

DIPOLE MOMENT
-------------
                                X             Y             Z
Electronic contribution:     -9.30063       9.09677      -5.61195
Nuclear contribution   :      9.03920     -10.62996       5.06367
                        -----------------------------------------
Total Dipole Moment    :     -0.26143      -1.53319      -0.54828
                        -----------------------------------------
Magnitude (a.u.)       :      1.64913
Magnitude (Debye)      :      4.19176

Rotational constants in cm-1:     0.135071     0.052485     0.050188
Rotational constants in MHz :  4049.321380  1573.451279  1504.609887

                             ****ORCA TERMINATED NORMALLY****
TOTAL RUN TIME: 0 days 0 hours 0 minutes 5 seconds 311 msec
