                         Program Version 5.0.0 -  RELEASE  -
|  1> !BLYP D3BJ RIJCOSX def2-SVPD def2/J TightSCF
|  2> *xyz 0 1
|  3> C          4.49059        1.15590       -2.46929
|  4> N          4.30539        1.22276       -3.90832
|  5> C          4.63192        2.24637       -4.67096
|  6> C          4.54169        2.14399       -5.98714
|  7> N          5.08409        3.39358       -4.11855
|  8> H          4.92067        3.57050       -3.13587
|  9> H          5.25465        4.19739       -4.70696
| 10> H          3.82453        0.44911       -4.35093
| 11> H          4.34337        1.24932       -6.41665
| 12> H          4.67671        2.95662       -6.57411
| 13> C          5.94213        0.93950       -2.03689
| 14> H          3.86431        0.32853       -2.13661
| 15> H          4.07623        2.04999       -1.98901
| 16> C          6.55996       -0.35629       -2.55909
| 17> H          5.96798        0.95257       -0.94244
| 18> H          6.54718        1.78833       -2.36885
| 19> H          6.53022       -0.35990       -3.62867
| 20> H          6.00654       -1.19175       -2.18407
| 21> H          7.57588       -0.42487       -2.23029
| 22> *
| 23>
| 24> %MaxCore 64000
| 25>
| 26> %pal nprocs 8
| 27> end
| 28>
| 29> %scf
| 30>   MaxIter 150
| 31> end
| 32>
| 33>
| 34>                          ****END OF INPUT****

CARTESIAN COORDINATES (ANGSTROEM)
---------------------------------
  C      4.490590    1.155900   -2.469290
  N      4.305390    1.222760   -3.908320
  C      4.631920    2.246370   -4.670960
  C      4.541690    2.143990   -5.987140
  N      5.084090    3.393580   -4.118550
  H      4.920670    3.570500   -3.135870
  H      5.254650    4.197390   -4.706960
  H      3.824530    0.449110   -4.350930
  H      4.343370    1.249320   -6.416650
  H      4.676710    2.956620   -6.574110
  C      5.942130    0.939500   -2.036890
  H      3.864310    0.328530   -2.136610
  H      4.076230    2.049990   -1.989010
  C      6.559960   -0.356290   -2.559090
  H      5.967980    0.952570   -0.942440
  H      6.547180    1.788330   -2.368850
  H      6.530220   -0.359900   -3.628670
  H      6.006540   -1.191750   -2.184070
  H      7.575880   -0.424870   -2.230290

 Total Charge           Charge          ....    0
 Multiplicity           Mult            ....    1
 Number of Electrons    NEL             ....   56
 Basis Dimension        Dim             ....  236

ORBITAL ENERGIES
----------------

  NO   OCC          E(Eh)            E(eV)
   0   2.0000     -14.023258      -381.5922
   1   2.0000     -14.022998      -381.5852
   2   2.0000      -9.960510      -271.0392
   3   2.0000      -9.959036      -270.9992
   4   2.0000      -9.919698      -269.9287
   5   2.0000      -9.906867      -269.5795
   6   2.0000      -9.834656      -267.6146
   7   2.0000      -0.869906       -23.6713
   8   2.0000      -0.789710       -21.4891
   9   2.0000      -0.702195       -19.1077
  10   2.0000      -0.643450       -17.5092
  11   2.0000      -0.592070       -16.1110
  12   2.0000      -0.546638       -14.8748
  13   2.0000      -0.519915       -14.1476
  14   2.0000      -0.474918       -12.9232
  15   2.0000      -0.443149       -12.0587
  16   2.0000      -0.428862       -11.6699
  17   2.0000      -0.406506       -11.0616
  18   2.0000      -0.388048       -10.5593
  19   2.0000      -0.356425        -9.6988
  20   2.0000      -0.343432        -9.3453
  21   2.0000      -0.341654        -9.2969
  22   2.0000      -0.321182        -8.7398
  23   2.0000      -0.303975        -8.2716
  24   2.0000      -0.301525        -8.2049
  25   2.0000      -0.294653        -8.0179
  26   2.0000      -0.209626        -5.7042
  27   2.0000      -0.127254        -3.4628
  28   0.0000      -0.007933        -0.2159
  29   0.0000       0.011974         0.3258
  30   0.0000       0.021144         0.5754
  31   0.0000       0.028732         0.7818
  32   0.0000       0.050107         1.3635

MULLIKEN ATOMIC CHARGES
-----------------------
   0 C :    1.005374
   1 N :   -0.250266
   2 C :    0.624198
   3 C :    0.575100
   4 N :    0.422747
   5 H :   -0.193900
   6 H :   -0.285462
   7 H :   -0.256235
   8 H :   -0.418859
   9 H :   -0.561328
  10 C :   -0.089880
  11 H :   -0.539874
  12 H :   -0.204481
  13 C :    1.128519
  14 H :   -0.326177
  15 H :   -0.107257
  16 H :   -0.222956
  17 H :   -0.067852
  18 H :   -0.231411
Sum of atomic charges:   -0.0000000

LOEWDIN ATOMIC CHARGES
----------------------
   0 C :    0.042671
   1 N :    0.006280
   2 C :   -0.246750
   3 C :    0.154650
   4 N :    0.223235
   5 H :   -0.033471
   6 H :   -0.002078
   7 H :    0.033599
   8 H :   -0.106182
   9 H :   -0.108915
  10 C :   -0.060405
  11 H :    0.017255
  12 H :    0.002992
  13 C :    0.136335
  14 H :    0.012377
  15 H :    0.004440
  16 H :   -0.026543
  17 H :   -0.024960
  18 H :   -0.024531

  Mayer bond orders larger than 0.100000
B(  0-C ,  1-N ) :   0.9518 B(  0-C ,  2-C ) :  -0.1182 B(  0-C ,  7-H ) :  -0.1805
B(  0-C , 10-C ) :   1.1191 B(  0-C , 11-H ) :   0.5484 B(  0-C , 12-H ) :   0.8259
B(  0-C , 13-C ) :   0.1069 B(  0-C , 14-H ) :   0.1194 B(  0-C , 15-H ) :   0.1486
B(  1-N ,  2-C ) :   1.0614 B(  1-N ,  3-C ) :   0.2776 B(  1-N ,  4-N ) :   0.2167
B(  1-N ,  7-H ) :   1.2328 B(  1-N , 11-H ) :   0.3139 B(  1-N , 12-H ) :   0.1040
B(  2-C ,  3-C ) :   1.0762 B(  2-C ,  4-N ) :   1.0233 B(  2-C ,  7-H ) :  -0.1990
B(  2-C ,  9-H ) :   0.1675 B(  3-C ,  4-N ) :   0.2326 B(  3-C ,  8-H ) :   0.7620
B(  3-C ,  9-H ) :   0.6086 B(  4-N ,  5-H ) :   1.0435 B(  4-N ,  6-H ) :   1.2022
B(  4-N , 12-H ) :   0.1108 B(  5-H ,  6-H ) :  -0.2100 B( 10-C , 11-H ) :   0.1583
B( 10-C , 12-H ) :   0.1065 B( 10-C , 13-C ) :   1.2893 B( 10-C , 14-H ) :   0.9364
B( 10-C , 15-H ) :   0.8316 B( 10-C , 16-H ) :   0.2733 B( 10-C , 17-H ) :   0.2560
B( 10-C , 18-H ) :   0.2972 B( 11-H , 12-H ) :  -0.1738 B( 13-C , 16-H ) :   0.7200
B( 13-C , 17-H ) :   0.7055 B( 13-C , 18-H ) :   0.6600

Dispersion correction           -0.032722193
FINAL SINGLE POINT ENERGY      -306.886207882693

DIPOLE MOMENT
-------------
                                X             Y             Z
Electronic contribution:     -2.44752       2.74042      -2.01546
Nuclear contribution   :      2.34222      -2.69386       3.01591
                        -----------------------------------------
Total Dipole Moment    :     -0.10529       0.04656       1.00045
                        -----------------------------------------
Magnitude (a.u.)       :      1.00705
Magnitude (Debye)      :      2.55971

Rotational constants in cm-1:     0.155143     0.051710     0.048050
Rotational constants in MHz :  4651.080391  1550.217078  1440.507386

                             ****ORCA TERMINATED NORMALLY****
TOTAL RUN TIME: 0 days 0 hours 0 minutes 7 seconds 238 msec
