                         Program Version 5.0.0 -  RELEASE  -
|  1> !BLYP D3BJ RIJCOSX def2-SVPD def2/J TightSCF
|  2> *xyz 0 1
|  3> C          4.90646       -3.10282       -5.95484
|  4> C          3.51177       -2.80621       -6.49228
|  5> H          2.73604       -3.37345       -5.97374
|  6> H          3.44490       -3.04083       -7.55528
|  7> S          3.00462       -1.09621       -6.38926
|  8> O          4.12886       -0.32965       -6.95372
|  9> O          1.78128       -1.00078       -7.13640
| 10> C          5.02498       -3.02568       -4.43762
| 11> H          5.20153       -4.10021       -6.29691
| 12> H          5.60592       -2.39782       -6.41337
| 13> F          2.85155       -0.78368       -4.95679
| 14> H          4.73604       -2.05011       -4.10644
| 15> H          6.03776       -3.21492       -4.14890
| 16> H          4.38436       -3.75784       -3.99214
| 17> *
| 18>
| 19> %MaxCore 64000
| 20>
| 21> %pal nprocs 8
| 22> end
| 23>
| 24> %scf
| 25>   MaxIter 150
| 26> end
| 27>
| 28>
| 29>                          ****END OF INPUT****

CARTESIAN COORDINATES (ANGSTROEM)
---------------------------------
  C      4.906460   -3.102820   -5.954840
  C      3.511770   -2.806210   -6.492280
  H      2.736040   -3.373450   -5.973740
  H      3.444900   -3.040830   -7.555280
  S      3.004620   -1.096210   -6.389260
  O      4.128860   -0.329650   -6.953720
  O      1.781280   -1.000780   -7.136400
  C      5.024980   -3.025680   -4.437620
  H      5.201530   -4.100210   -6.296910
  H      5.605920   -2.397820   -6.413370
  F      2.851550   -0.783680   -4.956790
  H      4.736040   -2.050110   -4.106440
  H      6.037760   -3.214920   -4.148900
  H      4.384360   -3.757840   -3.992140

 Total Charge           Charge          ....    0
 Multiplicity           Mult            ....    1
 Number of Electrons    NEL             ....   66
 Basis Dimension        Dim             ....  212

ORBITAL ENERGIES
----------------

  NO   OCC          E(Eh)            E(eV)
   0   2.0000     -88.380024     -2404.9427
   1   2.0000     -24.402885      -664.0362
   2   2.0000     -18.804110      -511.6858
   3   2.0000     -18.793072      -511.3855
   4   2.0000      -9.982400      -271.6349
   5   2.0000      -9.951497      -270.7940
   6   2.0000      -9.929742      -270.2020
   7   2.0000      -7.917702      -215.4516
   8   2.0000      -5.956997      -162.0981
   9   2.0000      -5.950687      -161.9264
  10   2.0000      -5.948971      -161.8797
  11   2.0000      -1.238646       -33.7053
  12   2.0000      -1.015535       -27.6341
  13   2.0000      -0.919122       -25.0106
  14   2.0000      -0.753301       -20.4984
  15   2.0000      -0.678085       -18.4516
  16   2.0000      -0.631351       -17.1799
  17   2.0000      -0.571382       -15.5481
  18   2.0000      -0.513083       -13.9617
  19   2.0000      -0.500243       -13.6123
  20   2.0000      -0.487116       -13.2551
  21   2.0000      -0.438620       -11.9354
  22   2.0000      -0.431436       -11.7400
  23   2.0000      -0.410999       -11.1838
  24   2.0000      -0.399516       -10.8714
  25   2.0000      -0.385037       -10.4774
  26   2.0000      -0.347306        -9.4507
  27   2.0000      -0.339622        -9.2416
  28   2.0000      -0.325042        -8.8449
  29   2.0000      -0.322060        -8.7637
  30   2.0000      -0.288577        -7.8526
  31   2.0000      -0.280508        -7.6330
  32   2.0000      -0.263609        -7.1732
  33   0.0000      -0.026894        -0.7318
  34   0.0000      -0.001067        -0.0290
  35   0.0000       0.011854         0.3226
  36   0.0000       0.016557         0.4505
  37   0.0000       0.025383         0.6907

MULLIKEN ATOMIC CHARGES
-----------------------
   0 C :    0.125175
   1 C :    0.255534
   2 H :   -0.111787
   3 H :   -0.147607
   4 S :    1.320354
   5 O :   -0.636016
   6 O :   -0.590357
   7 C :    1.236809
   8 H :   -0.265306
   9 H :   -0.142025
  10 F :   -0.388893
  11 H :   -0.346227
  12 H :   -0.195170
  13 H :   -0.114485
Sum of atomic charges:    0.0000000

LOEWDIN ATOMIC CHARGES
----------------------
   0 C :   -0.065130
   1 C :   -0.051424
   2 H :    0.020906
   3 H :    0.029826
   4 S :    1.075828
   5 O :   -0.451785
   6 O :   -0.437281
   7 C :    0.150452
   8 H :    0.027462
   9 H :    0.021820
  10 F :   -0.257620
  11 H :   -0.034940
  12 H :   -0.013670
  13 H :   -0.014443

  Mayer bond orders larger than 0.100000
B(  0-C ,  1-C ) :   1.2329 B(  0-C ,  2-H ) :   0.1306 B(  0-C ,  3-H ) :   0.1476
B(  0-C ,  7-C ) :   1.2533 B(  0-C ,  8-H ) :   0.7500 B(  0-C ,  9-H ) :   0.8229
B(  0-C , 11-H ) :   0.2934 B(  0-C , 12-H ) :   0.2750 B(  0-C , 13-H ) :   0.2679
B(  1-C ,  2-H ) :   0.8677 B(  1-C ,  3-H ) :   0.8595 B(  1-C ,  4-S ) :   0.9635
B(  1-C ,  8-H ) :   0.1793 B(  1-C ,  9-H ) :   0.1747 B(  4-S ,  5-O ) :   1.5120
B(  4-S ,  6-O ) :   1.5891 B(  4-S , 10-F ) :   0.6635 B(  5-O ,  6-O ) :   0.1089
B(  7-C ,  9-H ) :   0.1115 B(  7-C , 11-H ) :   0.6610 B(  7-C , 12-H ) :   0.6180
B(  7-C , 13-H ) :   0.6477 B( 11-H , 12-H ) :   0.1005 B( 11-H , 13-H ) :   0.1132

Dispersion correction           -0.026758097
FINAL SINGLE POINT ENERGY      -766.482950586484

DIPOLE MOMENT
-------------
                                X             Y             Z
Electronic contribution:     -7.45400       9.41508      -1.91334
Nuclear contribution   :      7.88819     -10.86344       2.71963
                        -----------------------------------------
Total Dipole Moment    :      0.43419      -1.44835       0.80629
                        -----------------------------------------
Magnitude (a.u.)       :      1.71358
Magnitude (Debye)      :      4.35557

Rotational constants in cm-1:     0.130261     0.054435     0.050898
Rotational constants in MHz :  3905.114465  1631.935083  1525.880669

                             ****ORCA TERMINATED NORMALLY****
TOTAL RUN TIME: 0 days 0 hours 0 minutes 5 seconds 342 msec
