                         Program Version 5.0.0 -  RELEASE  -
|  1> !BLYP D3BJ RIJCOSX def2-SVPD def2/J TightSCF
|  2> *xyz 0 1
|  3> C          4.49059        1.15590       -2.46929
|  4> N          4.30539        1.22276       -3.90832
|  5> C          4.63192        2.24637       -4.67096
|  6> N          4.54169        2.14399       -5.98714
|  7> C          5.08409        3.39358       -4.11855
|  8> H          4.92067        3.57050       -3.13587
|  9> H          5.25465        4.19739       -4.70696
| 10> H          3.82453        0.44911       -4.35093
| 11> H          4.34337        1.24932       -6.41665
| 12> H          4.67671        2.95662       -6.57411
| 13> C          5.94213        0.93950       -2.03689
| 14> H          3.86431        0.32853       -2.13661
| 15> H          4.07623        2.04999       -1.98901
| 16> C          6.55996       -0.35629       -2.55909
| 17> H          5.96798        0.95257       -0.94244
| 18> H          6.54718        1.78833       -2.36885
| 19> H          6.53022       -0.35990       -3.62867
| 20> H          6.00654       -1.19175       -2.18407
| 21> H          7.57588       -0.42487       -2.23029
| 22> *
| 23>
| 24> %MaxCore 64000
| 25>
| 26> %pal nprocs 8
| 27> end
| 28>
| 29> %scf
| 30>   MaxIter 150
| 31> end
| 32>
| 33>
| 34>                          ****END OF INPUT****

CARTESIAN COORDINATES (ANGSTROEM)
---------------------------------
  C      4.490590    1.155900   -2.469290
  N      4.305390    1.222760   -3.908320
  C      4.631920    2.246370   -4.670960
  N      4.541690    2.143990   -5.987140
  C      5.084090    3.393580   -4.118550
  H      4.920670    3.570500   -3.135870
  H      5.254650    4.197390   -4.706960
  H      3.824530    0.449110   -4.350930
  H      4.343370    1.249320   -6.416650
  H      4.676710    2.956620   -6.574110
  C      5.942130    0.939500   -2.036890
  H      3.864310    0.328530   -2.136610
  H      4.076230    2.049990   -1.989010
  C      6.559960   -0.356290   -2.559090
  H      5.967980    0.952570   -0.942440
  H      6.547180    1.788330   -2.368850
  H      6.530220   -0.359900   -3.628670
  H      6.006540   -1.191750   -2.184070
  H      7.575880   -0.424870   -2.230290

 Total Charge           Charge          ....    0
 Multiplicity           Mult            ....    1
 Number of Electrons    NEL             ....   56
 Basis Dimension        Dim             ....  236

ORBITAL ENERGIES
----------------

  NO   OCC          E(Eh)            E(eV)
   0   2.0000     -14.027429      -381.7057
   1   2.0000     -14.026006      -381.6670
   2   2.0000      -9.963437      -271.1189
   3   2.0000      -9.951473      -270.7934
   4   2.0000      -9.910469      -269.6776
   5   2.0000      -9.902225      -269.4532
   6   2.0000      -9.836177      -267.6560
   7   2.0000      -0.873789       -23.7770
   8   2.0000      -0.796574       -21.6759
   9   2.0000      -0.690425       -18.7874
  10   2.0000      -0.630580       -17.1590
  11   2.0000      -0.610902       -16.6235
  12   2.0000      -0.538148       -14.6438
  13   2.0000      -0.496539       -13.5115
  14   2.0000      -0.489656       -13.3242
  15   2.0000      -0.464714       -12.6455
  16   2.0000      -0.420850       -11.4519
  17   2.0000      -0.397691       -10.8217
  18   2.0000      -0.379284       -10.3209
  19   2.0000      -0.353259        -9.6127
  20   2.0000      -0.340020        -9.2524
  21   2.0000      -0.337563        -9.1856
  22   2.0000      -0.319066        -8.6822
  23   2.0000      -0.300870        -8.1871
  24   2.0000      -0.295513        -8.0413
  25   2.0000      -0.286666        -7.8006
  26   2.0000      -0.206594        -5.6217
  27   2.0000      -0.129400        -3.5212
  28   0.0000      -0.009735        -0.2649
  29   0.0000       0.014810         0.4030
  30   0.0000       0.022641         0.6161
  31   0.0000       0.032207         0.8764
  32   0.0000       0.044682         1.2159

MULLIKEN ATOMIC CHARGES
-----------------------
   0 C :    0.993653
   1 N :   -0.347059
   2 C :    0.556742
   3 N :    0.366011
   4 C :    0.670317
   5 H :   -0.137031
   6 H :   -0.786894
   7 H :   -0.348281
   8 H :   -0.252744
   9 H :   -0.159802
  10 C :   -0.078204
  11 H :   -0.550047
  12 H :   -0.081297
  13 C :    1.112383
  14 H :   -0.298429
  15 H :   -0.119640
  16 H :   -0.224330
  17 H :   -0.082440
  18 H :   -0.232907
Sum of atomic charges:   -0.0000000

LOEWDIN ATOMIC CHARGES
----------------------
   0 C :    0.050203
   1 N :    0.001102
   2 C :   -0.246497
   3 N :    0.203629
   4 C :    0.175827
   5 H :   -0.120802
   6 H :   -0.112563
   7 H :    0.018197
   8 H :   -0.015269
   9 H :    0.003042
  10 C :   -0.052660
  11 H :    0.016142
  12 H :    0.011409
  13 C :    0.132527
  14 H :    0.015033
  15 H :    0.005449
  16 H :   -0.031999
  17 H :   -0.027437
  18 H :   -0.025333

  Mayer bond orders larger than 0.100000
B(  0-C ,  1-N ) :   0.9693 B(  0-C ,  2-C ) :  -0.1322 B(  0-C ,  5-H ) :   0.1060
B(  0-C ,  7-H ) :  -0.1785 B(  0-C , 10-C ) :   1.0942 B(  0-C , 11-H ) :   0.6228
B(  0-C , 12-H ) :   0.8207 B(  0-C , 13-C ) :   0.1050 B(  0-C , 15-H ) :   0.1657
B(  1-N ,  2-C ) :   0.9493 B(  1-N ,  3-N ) :   0.2183 B(  1-N ,  4-C ) :   0.4194
B(  1-N ,  7-H ) :   1.3769 B(  1-N ,  8-H ) :   0.1135 B(  1-N ,  9-H ) :  -0.1030
B(  1-N , 11-H ) :   0.2329 B(  2-C ,  3-N ) :   0.9823 B(  2-C ,  4-C ) :   1.4819
B(  2-C ,  5-H ) :   0.3348 B(  2-C ,  6-H ) :   0.2174 B(  2-C ,  7-H ) :  -0.3374
B(  2-C , 11-H ) :   0.1295 B(  3-N ,  4-C ) :   0.2672 B(  3-N ,  6-H ) :   0.1039
B(  3-N ,  8-H ) :   1.1709 B(  3-N ,  9-H ) :   1.2115 B(  4-C ,  5-H ) :   0.5484
B(  4-C ,  6-H ) :   0.6299 B(  5-H , 11-H ) :  -0.1357 B(  5-H , 12-H ) :   0.1185
B(  8-H ,  9-H ) :  -0.1846 B( 10-C , 11-H ) :   0.1707 B( 10-C , 13-C ) :   1.2817
B( 10-C , 14-H ) :   0.9273 B( 10-C , 15-H ) :   0.8430 B( 10-C , 16-H ) :   0.2628
B( 10-C , 17-H ) :   0.2543 B( 10-C , 18-H ) :   0.2956 B( 11-H , 12-H ) :  -0.2191
B( 13-C , 16-H ) :   0.7354 B( 13-C , 17-H ) :   0.7055 B( 13-C , 18-H ) :   0.6647

Dispersion correction           -0.032928003
FINAL SINGLE POINT ENERGY      -306.885916677958

DIPOLE MOMENT
-------------
                                X             Y             Z
Electronic contribution:     -2.92146       1.58159      -3.86900
Nuclear contribution   :      2.46104      -2.42013       3.42523
                        -----------------------------------------
Total Dipole Moment    :     -0.46042      -0.83854      -0.44377
                        -----------------------------------------
Magnitude (a.u.)       :      1.05455
Magnitude (Debye)      :      2.68045

Rotational constants in cm-1:     0.157414     0.050835     0.047338
Rotational constants in MHz :  4719.163414  1524.007825  1419.164399

                             ****ORCA TERMINATED NORMALLY****
TOTAL RUN TIME: 0 days 0 hours 0 minutes 7 seconds 468 msec
