                         Program Version 5.0.0 -  RELEASE  -
|  1> !BLYP D3BJ RIJCOSX def2-SVPD def2/J TightSCF xyzfile
|  2>
|  3> *xyzfile 0 1 D4.xyz
|  4>
|  5> %MaxCore 64000
|  6>
|  7> %pal nprocs 4
|  8> end
|  9>
| 10> %scf
| 11>   MaxIter 150
| 12> end
| 13>
| 14>
| 15>                          ****END OF INPUT****

CARTESIAN COORDINATES (ANGSTROEM)
---------------------------------
  C      4.490588    1.155899   -2.469290
  C      4.305394    1.222762   -3.908317
  C      4.906458   -3.102816   -5.954844
  C      3.511771   -2.806215   -6.492283
  H      2.736044   -3.373445   -5.973736
  H      3.444904   -3.040831   -7.555281
  S      3.004618   -1.096206   -6.389259
  C      4.631918    2.246365   -4.670958
  N      4.541686    2.143990   -5.987139
  N      5.084086    3.393584   -4.118545
  H      4.920675    3.570501   -3.135870
  H      5.254652    4.197390   -4.706956
  H      3.824530    0.449113   -4.350926
  H      4.343373    1.249318   -6.416646
  H      4.676712    2.956624   -6.574113
  O      4.128856   -0.329647   -6.953717
  F      1.781285   -1.000779   -7.136399
  C      5.942129    0.939500   -2.036893
  H      3.864305    0.328532   -2.136611
  H      4.076233    2.049994   -1.989010
  C      6.462677   -3.117775   -3.944671
  C      5.024977   -3.025679   -4.437625
  H      4.423321   -3.818693   -3.977648
  H      4.579350   -2.087131   -4.108727
  H      5.201533   -4.100207   -6.296905
  H      5.605922   -2.397822   -6.413368
  C      6.559957   -0.356290   -2.559086
  H      5.967976    0.952567   -0.942444
  H      6.547184    1.788331   -2.368849
  C      6.006283   -1.615917   -1.899301
  H      7.642360   -0.318000   -2.402059
  H      6.414855   -0.403433   -3.642587
  C      6.608718   -2.917014   -2.435655
  H      6.190324   -1.561115   -0.820948
  H      4.919250   -1.651245   -2.016586
  H      7.066975   -2.374258   -4.475514
  H      6.887808   -4.089747   -4.215332
  H      6.135197   -3.755573   -1.915159
  H      7.671142   -2.955503   -2.172291
  O      2.851546   -0.783683   -4.956789

 Total Charge           Charge          ....    0
 Multiplicity           Mult            ....    1
 Number of Electrons    NEL             ....  144
 Basis Dimension        Dim             ....  540

ORBITAL ENERGIES
----------------

  NO   OCC          E(Eh)            E(eV)
   0   2.0000     -88.398500     -2405.4455
   1   2.0000     -24.432507      -664.8423
   2   2.0000     -18.812849      -511.9236
   3   2.0000     -18.804641      -511.7003
   4   2.0000     -14.002852      -381.0370
   5   2.0000     -13.983413      -380.5080
   6   2.0000      -9.989623      -271.8315
   7   2.0000      -9.949622      -270.7430
   8   2.0000      -9.930650      -270.2267
   9   2.0000      -9.918375      -269.8927
  10   2.0000      -9.912667      -269.7374
  11   2.0000      -9.906176      -269.5607
  12   2.0000      -9.896465      -269.2965
  13   2.0000      -9.887652      -269.0567
  14   2.0000      -9.881826      -268.8982
  15   2.0000      -9.875064      -268.7142
  16   2.0000      -9.806613      -266.8515
  17   2.0000      -7.934896      -215.9195
  18   2.0000      -5.974347      -162.5702
  19   2.0000      -5.967997      -162.3975
  20   2.0000      -5.965990      -162.3428
  21   2.0000      -1.280290       -34.8385
  22   2.0000      -1.022164       -27.8145
  23   2.0000      -0.924204       -25.1489
  24   2.0000      -0.833722       -22.6867
  25   2.0000      -0.759527       -20.6678
  26   2.0000      -0.750102       -20.4113
  27   2.0000      -0.717864       -19.5341
  28   2.0000      -0.691322       -18.8118
  29   2.0000      -0.673788       -18.3347
  30   2.0000      -0.647264       -17.6129
  31   2.0000      -0.620998       -16.8982
  32   2.0000      -0.590698       -16.0737
  33   2.0000      -0.564602       -15.3636
  34   2.0000      -0.543360       -14.7856
  35   2.0000      -0.535939       -14.5836
  36   2.0000      -0.523487       -14.2448
  37   2.0000      -0.521058       -14.1787
  38   2.0000      -0.503498       -13.7009
  39   2.0000      -0.488561       -13.2944
  40   2.0000      -0.472157       -12.8480
  41   2.0000      -0.461961       -12.5706
  42   2.0000      -0.447308       -12.1719
  43   2.0000      -0.441799       -12.0220
  44   2.0000      -0.424761       -11.5583
  45   2.0000      -0.414736       -11.2855
  46   2.0000      -0.413096       -11.2409
  47   2.0000      -0.400475       -10.8975
  48   2.0000      -0.393952       -10.7200
  49   2.0000      -0.381701       -10.3866
  50   2.0000      -0.374370       -10.1871
  51   2.0000      -0.362236        -9.8569
  52   2.0000      -0.361017        -9.8238
  53   2.0000      -0.353396        -9.6164
  54   2.0000      -0.335146        -9.1198
  55   2.0000      -0.329807        -8.9745
  56   2.0000      -0.326498        -8.8845
  57   2.0000      -0.319967        -8.7067
  58   2.0000      -0.304892        -8.2965
  59   2.0000      -0.301783        -8.2119
  60   2.0000      -0.298730        -8.1289
  61   2.0000      -0.290647        -7.9089
  62   2.0000      -0.283675        -7.7192
  63   2.0000      -0.276783        -7.5316
  64   2.0000      -0.273045        -7.4299
  65   2.0000      -0.272116        -7.4046
  66   2.0000      -0.260113        -7.0780
  67   2.0000      -0.253368        -6.8945
  68   2.0000      -0.244668        -6.6578
  69   2.0000      -0.229186        -6.2365
  70   2.0000      -0.191429        -5.2090
  71   2.0000      -0.099752        -2.7144
  72   0.0000      -0.032775        -0.8919
  73   0.0000      -0.012686        -0.3452
  74   0.0000       0.006866         0.1868
  75   0.0000       0.011587         0.3153
  76   0.0000       0.013438         0.3657

MULLIKEN ATOMIC CHARGES
-----------------------
   0 C :    0.434272
   1 C :    0.468089
   2 C :    0.532888
   3 C :    0.565294
   4 H :   -0.105961
   5 H :   -0.170457
   6 S :    1.441620
   7 C :    0.657502
   8 N :    0.612848
   9 N :    0.292547
  10 H :   -0.122888
  11 H :   -0.372278
  12 H :   -0.900950
  13 H :   -0.410372
  14 H :   -0.317716
  15 O :   -0.611212
  16 F :   -0.455966
  17 C :    0.696963
  18 H :   -0.040199
  19 H :   -0.356557
  20 C :    0.321976
  21 C :    0.633484
  22 H :   -0.067983
  23 H :   -0.796595
  24 H :   -0.245292
  25 H :   -0.073295
  26 C :    0.417269
  27 H :   -0.225525
  28 H :   -0.282280
  29 C :    0.195306
  30 H :   -0.270856
  31 H :   -0.230365
  32 C :    0.955773
  33 H :   -0.528221
  34 H :   -0.006920
  35 H :    0.013377
  36 H :   -0.541593
  37 H :   -0.197260
  38 H :   -0.143002
  39 O :   -0.765467
Sum of atomic charges:    0.0000000

LOEWDIN ATOMIC CHARGES
----------------------
   0 C :   -0.037428
   1 C :   -0.006834
   2 C :   -0.011115
   3 C :   -0.045696
   4 H :    0.025675
   5 H :    0.016822
   6 S :    1.157420
   7 C :   -0.203752
   8 N :    0.225249
   9 N :    0.221502
  10 H :   -0.024506
  11 H :   -0.025809
  12 H :   -0.145043
  13 H :   -0.124145
  14 H :   -0.018719
  15 O :   -0.420622
  16 F :   -0.226599
  17 C :   -0.021990
  18 H :    0.005022
  19 H :   -0.002803
  20 C :   -0.025927
  21 C :   -0.015203
  22 H :    0.036381
  23 H :   -0.014213
  24 H :    0.035246
  25 H :    0.027903
  26 C :   -0.022952
  27 H :    0.008185
  28 H :    0.004479
  29 C :   -0.027177
  30 H :    0.018247
  31 H :    0.003286
  32 C :   -0.022114
  33 H :    0.018030
  34 H :    0.003310
  35 H :    0.015111
  36 H :    0.016849
  37 H :    0.014585
  38 H :    0.016670
  39 O :   -0.427324

  Mayer bond orders larger than 0.100000
B(  0-C ,  1-C ) :   1.1195 B(  0-C , 12-H ) :   1.0672 B(  0-C , 17-C ) :   1.0541
B(  0-C , 18-H ) :   0.5964 B(  0-C , 19-H ) :   0.7440 B(  0-C , 26-C ) :   0.2008
B(  0-C , 27-H ) :   0.2521 B(  0-C , 28-H ) :   0.1456 B(  0-C , 30-H ) :  -0.1547
B(  1-C ,  7-C ) :   1.5937 B(  1-C ,  8-N ) :   0.3295 B(  1-C ,  9-N ) :   0.3713
B(  1-C , 10-H ) :  -0.1043 B(  1-C , 12-H ) :  -1.0008 B(  1-C , 17-C ) :   0.1963
B(  1-C , 18-H ) :   0.5147 B(  1-C , 19-H ) :   0.2108 B(  2-C ,  3-C ) :   1.2034
B(  2-C ,  5-H ) :   0.3543 B(  2-C , 20-C ) :   0.1785 B(  2-C , 21-C ) :   1.0961
B(  2-C , 22-H ) :   0.1321 B(  2-C , 23-H ) :   0.1150 B(  2-C , 24-H ) :   0.6318
B(  2-C , 25-H ) :   0.7634 B(  3-C ,  4-H ) :   0.8248 B(  3-C ,  5-H ) :   0.5369
B(  3-C ,  6-S ) :   0.9631 B(  3-C , 21-C ) :   0.2032 B(  3-C , 24-H ) :   0.1247
B(  3-C , 25-H ) :   0.1179 B(  6-S , 15-O ) :   1.3999 B(  6-S , 16-F ) :   0.5732
B(  6-S , 39-O ) :   1.5059 B(  7-C ,  8-N ) :   0.9416 B(  7-C ,  9-N ) :   0.8994
B(  7-C , 11-H ) :  -0.1652 B(  7-C , 12-H ) :  -0.1662 B(  7-C , 13-H ) :  -0.3020
B(  7-C , 14-H ) :  -0.1413 B(  8-N ,  9-N ) :   0.1132 B(  8-N , 13-H ) :   1.1614
B(  8-N , 14-H ) :   1.2860 B(  9-N , 10-H ) :   1.0848 B(  9-N , 11-H ) :   1.2991
B( 10-H , 11-H ) :  -0.2108 B( 11-H , 12-H ) :  -0.1122 B( 11-H , 18-H ) :   0.1103
B( 12-H , 18-H ) :  -0.2474 B( 12-H , 39-O ) :   0.2627 B( 13-H , 14-H ) :  -0.2731
B( 13-H , 15-O ) :   0.1632 B( 16-F , 39-O ) :   0.1111 B( 17-C , 18-H ) :   0.1375
B( 17-C , 19-H ) :   0.1080 B( 17-C , 26-C ) :   1.2345 B( 17-C , 27-H ) :   0.6511
B( 17-C , 28-H ) :   0.5379 B( 17-C , 30-H ) :   0.1434 B( 17-C , 31-H ) :   0.2160
B( 18-H , 19-H ) :  -0.1662 B( 20-C , 21-C ) :   1.1757 B( 20-C , 22-H ) :   0.1379
B( 20-C , 23-H ) :   0.1864 B( 20-C , 29-C ) :   0.2250 B( 20-C , 32-C ) :   1.0907
B( 20-C , 35-H ) :   0.7802 B( 20-C , 36-H ) :   0.7454 B( 20-C , 37-H ) :   0.1281
B( 20-C , 38-H ) :   0.3072 B( 21-C , 22-H ) :   0.5920 B( 21-C , 23-H ) :   0.4365
B( 21-C , 24-H ) :   0.2208 B( 21-C , 25-H ) :   0.1378 B( 21-C , 35-H ) :   0.1542
B( 21-C , 36-H ) :   0.2229 B( 22-H , 23-H ) :   0.1878 B( 23-H , 34-H ) :   0.1459
B( 24-H , 25-H ) :  -0.1074 B( 26-C , 27-H ) :   0.1502 B( 26-C , 28-H ) :   0.3039
B( 26-C , 29-C ) :   1.2250 B( 26-C , 30-H ) :   0.6694 B( 26-C , 31-H ) :   0.7519
B( 26-C , 33-H ) :   0.1617 B( 26-C , 34-H ) :   0.1374 B( 27-H , 28-H ) :  -0.1905
B( 29-C , 30-H ) :   0.1700 B( 29-C , 31-H ) :   0.1495 B( 29-C , 32-C ) :   1.0668
B( 29-C , 33-H ) :   0.8277 B( 29-C , 34-H ) :   0.7857 B( 29-C , 37-H ) :   0.3947
B( 29-C , 38-H ) :   0.1624 B( 31-H , 35-H ) :   0.1022 B( 32-C , 35-H ) :   0.1045
B( 32-C , 37-H ) :   0.4878 B( 32-C , 38-H ) :   0.5437 B( 37-H , 38-H ) :  -0.1643

Dispersion correction           -0.097893601
FINAL SINGLE POINT ENERGY     -1189.968636672173

DIPOLE MOMENT
-------------
                                X             Y             Z
Electronic contribution:    -20.55103       3.52499     -21.95808
Nuclear contribution   :     19.99734      -4.67125      20.55522
                        -----------------------------------------
Total Dipole Moment    :     -0.55369      -1.14626      -1.40285
                        -----------------------------------------
Magnitude (a.u.)       :      1.89433
Magnitude (Debye)      :      4.81500

Rotational constants in cm-1:     0.014213     0.012058     0.007367
Rotational constants in MHz :   426.102180   361.491761   220.844824

                             ****ORCA TERMINATED NORMALLY****
TOTAL RUN TIME: 0 days 0 hours 1 minutes 20 seconds 58 msec
