                         Program Version 5.0.0 -  RELEASE  -
|  1> !BLYP D3BJ RIJCOSX def2-SVPD def2/J TightSCF xyzfile
|  2>
|  3> *xyzfile 0 1 D7.xyz
|  4>
|  5> %MaxCore 64000
|  6>
|  7> %pal nprocs 4
|  8> end
|  9>
| 10> %scf
| 11>   MaxIter 150
| 12> end
| 13>
| 14>
| 15>                          ****END OF INPUT****

CARTESIAN COORDINATES (ANGSTROEM)
---------------------------------
  C      4.490588    1.155899   -2.469290
  C      4.305394    1.222762   -3.908317
  C      4.906458   -3.102816   -5.954844
  C      3.511771   -2.806215   -6.492283
  H      2.736044   -3.373445   -5.973736
  H      3.444904   -3.040831   -7.555281
  S      3.004618   -1.096206   -6.389259
  C      4.631918    2.246365   -4.670958
  N      4.541686    2.143990   -5.987139
  N      5.084086    3.393584   -4.118545
  H      4.920675    3.570501   -3.135870
  H      5.254652    4.197390   -4.706956
  H      3.824530    0.449113   -4.350926
  H      4.343373    1.249318   -6.416646
  H      4.676712    2.956624   -6.574113
  O      4.128856   -0.329647   -6.953717
  O      1.781285   -1.000779   -7.136399
  C      5.942129    0.939500   -2.036893
  H      3.864305    0.328532   -2.136611
  H      4.076233    2.049994   -1.989010
  C      6.462677   -3.117775   -3.944671
  C      5.024977   -3.025679   -4.437625
  H      4.423321   -3.818693   -3.977648
  H      4.579350   -2.087131   -4.108727
  H      5.201533   -4.100207   -6.296905
  H      5.605922   -2.397822   -6.413368
  C      6.559957   -0.356290   -2.559086
  H      5.967976    0.952567   -0.942444
  H      6.547184    1.788331   -2.368849
  C      6.006283   -1.615917   -1.899301
  H      7.642360   -0.318000   -2.402059
  H      6.414855   -0.403433   -3.642587
  C      6.608718   -2.917014   -2.435655
  H      6.190324   -1.561115   -0.820948
  H      4.919250   -1.651245   -2.016586
  H      7.066975   -2.374258   -4.475514
  H      6.887808   -4.089747   -4.215332
  H      6.135197   -3.755573   -1.915159
  H      7.671142   -2.955503   -2.172291
  F      2.851546   -0.783683   -4.956789

 Total Charge           Charge          ....    0
 Multiplicity           Mult            ....    1
 Number of Electrons    NEL             ....  144
 Basis Dimension        Dim             ....  540

ORBITAL ENERGIES
----------------

  NO   OCC          E(Eh)            E(eV)
   0   2.0000     -88.393476     -2405.3088
   1   2.0000     -24.409719      -664.2222
   2   2.0000     -18.813655      -511.9456
   3   2.0000     -18.809239      -511.8254
   4   2.0000     -14.014971      -381.3668
   5   2.0000     -13.992838      -380.7645
   6   2.0000      -9.986501      -271.7465
   7   2.0000      -9.948644      -270.7164
   8   2.0000      -9.946384      -270.6549
   9   2.0000      -9.930099      -270.2117
  10   2.0000      -9.920430      -269.9486
  11   2.0000      -9.914032      -269.7745
  12   2.0000      -9.906304      -269.5642
  13   2.0000      -9.897628      -269.3282
  14   2.0000      -9.892662      -269.1930
  15   2.0000      -9.889602      -269.1098
  16   2.0000      -9.828020      -267.4340
  17   2.0000      -7.929804      -215.7809
  18   2.0000      -5.969132      -162.4283
  19   2.0000      -5.963111      -162.2645
  20   2.0000      -5.960996      -162.2070
  21   2.0000      -1.248433       -33.9716
  22   2.0000      -1.027976       -27.9726
  23   2.0000      -0.935308       -25.4510
  24   2.0000      -0.845783       -23.0149
  25   2.0000      -0.762804       -20.7570
  26   2.0000      -0.758612       -20.6429
  27   2.0000      -0.723806       -19.6958
  28   2.0000      -0.696807       -18.9611
  29   2.0000      -0.675819       -18.3900
  30   2.0000      -0.645132       -17.5549
  31   2.0000      -0.630692       -17.1620
  32   2.0000      -0.596365       -16.2279
  33   2.0000      -0.572337       -15.5741
  34   2.0000      -0.552777       -15.0418
  35   2.0000      -0.526320       -14.3219
  36   2.0000      -0.522017       -14.2048
  37   2.0000      -0.513346       -13.9689
  38   2.0000      -0.509413       -13.8618
  39   2.0000      -0.491281       -13.3684
  40   2.0000      -0.481809       -13.1107
  41   2.0000      -0.469749       -12.7825
  42   2.0000      -0.444129       -12.0854
  43   2.0000      -0.433884       -11.8066
  44   2.0000      -0.432123       -11.7587
  45   2.0000      -0.423584       -11.5263
  46   2.0000      -0.421272       -11.4634
  47   2.0000      -0.406384       -11.0583
  48   2.0000      -0.399225       -10.8635
  49   2.0000      -0.390600       -10.6288
  50   2.0000      -0.379632       -10.3303
  51   2.0000      -0.373360       -10.1596
  52   2.0000      -0.370384       -10.0787
  53   2.0000      -0.354013        -9.6332
  54   2.0000      -0.345770        -9.4089
  55   2.0000      -0.335399        -9.1267
  56   2.0000      -0.330091        -8.9822
  57   2.0000      -0.325535        -8.8583
  58   2.0000      -0.315915        -8.5965
  59   2.0000      -0.311346        -8.4721
  60   2.0000      -0.300907        -8.1881
  61   2.0000      -0.298712        -8.1284
  62   2.0000      -0.291959        -7.9446
  63   2.0000      -0.286286        -7.7902
  64   2.0000      -0.285171        -7.7599
  65   2.0000      -0.278321        -7.5735
  66   2.0000      -0.277208        -7.5432
  67   2.0000      -0.263874        -7.1804
  68   2.0000      -0.257214        -6.9991
  69   2.0000      -0.252570        -6.8728
  70   2.0000      -0.201980        -5.4962
  71   2.0000      -0.115251        -3.1362
  72   0.0000      -0.029739        -0.8092
  73   0.0000      -0.004061        -0.1105
  74   0.0000       0.003004         0.0817
  75   0.0000       0.005284         0.1438
  76   0.0000       0.012096         0.3292

MULLIKEN ATOMIC CHARGES
-----------------------
   0 C :    0.448543
   1 C :    0.602578
   2 C :    0.591282
   3 C :    0.581622
   4 H :   -0.134112
   5 H :   -0.166765
   6 S :    1.339316
   7 C :    0.658381
   8 N :    0.607009
   9 N :    0.306651
  10 H :   -0.118671
  11 H :   -0.370754
  12 H :   -1.034380
  13 H :   -0.410036
  14 H :   -0.306511
  15 O :   -0.613567
  16 O :   -0.603337
  17 C :    0.693051
  18 H :   -0.044705
  19 H :   -0.357411
  20 C :    0.307599
  21 C :    0.639094
  22 H :   -0.066728
  23 H :   -0.839199
  24 H :   -0.237944
  25 H :   -0.062328
  26 C :    0.420683
  27 H :   -0.222850
  28 H :   -0.276771
  29 C :    0.196086
  30 H :   -0.265850
  31 H :   -0.227796
  32 C :    0.950430
  33 H :   -0.521048
  34 H :   -0.017380
  35 H :    0.013093
  36 H :   -0.540310
  37 H :   -0.195800
  38 H :   -0.140028
  39 F :   -0.581139
Sum of atomic charges:    0.0000000

LOEWDIN ATOMIC CHARGES
----------------------
   0 C :   -0.040828
   1 C :   -0.013775
   2 C :   -0.024093
   3 C :   -0.035944
   4 H :    0.025848
   5 H :    0.031584
   6 S :    1.124488
   7 C :   -0.201099
   8 N :    0.228993
   9 N :    0.226577
  10 H :   -0.021783
  11 H :   -0.020662
  12 H :   -0.122643
  13 H :   -0.122906
  14 H :   -0.012742
  15 O :   -0.418549
  16 O :   -0.417380
  17 C :   -0.020765
  18 H :    0.002618
  19 H :   -0.000681
  20 C :   -0.023890
  21 C :   -0.021452
  22 H :    0.036162
  23 H :   -0.015624
  24 H :    0.033543
  25 H :    0.025874
  26 C :   -0.022741
  27 H :    0.010050
  28 H :    0.005935
  29 C :   -0.028418
  30 H :    0.020074
  31 H :    0.002816
  32 C :   -0.021293
  33 H :    0.019152
  34 H :    0.000144
  35 H :    0.016156
  36 H :    0.019683
  37 H :    0.015442
  38 H :    0.017953
  39 F :   -0.255822

  Mayer bond orders larger than 0.100000
B(  0-C ,  1-C ) :   1.0273 B(  0-C , 12-H ) :   1.0799 B(  0-C , 17-C ) :   1.0522
B(  0-C , 18-H ) :   0.6004 B(  0-C , 19-H ) :   0.7436 B(  0-C , 26-C ) :   0.1986
B(  0-C , 27-H ) :   0.2544 B(  0-C , 28-H ) :   0.1629 B(  0-C , 30-H ) :  -0.1607
B(  1-C ,  7-C ) :   1.5881 B(  1-C ,  8-N ) :   0.3237 B(  1-C ,  9-N ) :   0.3625
B(  1-C , 10-H ) :  -0.1099 B(  1-C , 12-H ) :  -1.2912 B(  1-C , 17-C ) :   0.1946
B(  1-C , 18-H ) :   0.5274 B(  1-C , 19-H ) :   0.2055 B(  2-C ,  3-C ) :   1.1683
B(  2-C ,  5-H ) :   0.3238 B(  2-C , 20-C ) :   0.1749 B(  2-C , 21-C ) :   1.1058
B(  2-C , 22-H ) :   0.1308 B(  2-C , 23-H ) :   0.1087 B(  2-C , 24-H ) :   0.6272
B(  2-C , 25-H ) :   0.7762 B(  3-C ,  4-H ) :   0.8334 B(  3-C ,  5-H ) :   0.5790
B(  3-C ,  6-S ) :   0.9396 B(  3-C , 16-O ) :   0.1034 B(  3-C , 21-C ) :   0.2039
B(  3-C , 24-H ) :   0.1134 B(  3-C , 25-H ) :   0.1249 B(  6-S , 15-O ) :   1.4251
B(  6-S , 16-O ) :   1.5271 B(  6-S , 39-F ) :   0.6897 B(  7-C ,  8-N ) :   0.9303
B(  7-C ,  9-N ) :   0.9292 B(  7-C , 11-H ) :  -0.1627 B(  7-C , 12-H ) :  -0.1363
B(  7-C , 13-H ) :  -0.2975 B(  7-C , 14-H ) :  -0.1342 B(  8-N ,  9-N ) :   0.1145
B(  8-N , 13-H ) :   1.1628 B(  8-N , 14-H ) :   1.2748 B(  9-N , 10-H ) :   1.0831
B(  9-N , 11-H ) :   1.2880 B( 10-H , 11-H ) :  -0.2108 B( 11-H , 12-H ) :  -0.1057
B( 11-H , 18-H ) :   0.1005 B( 12-H , 18-H ) :  -0.2474 B( 12-H , 39-F ) :   0.3243
B( 13-H , 14-H ) :  -0.2724 B( 13-H , 15-O ) :   0.1540 B( 15-O , 16-O ) :   0.1080
B( 17-C , 18-H ) :   0.1464 B( 17-C , 19-H ) :   0.1004 B( 17-C , 26-C ) :   1.2361
B( 17-C , 27-H ) :   0.6529 B( 17-C , 28-H ) :   0.5389 B( 17-C , 30-H ) :   0.1434
B( 17-C , 31-H ) :   0.2191 B( 18-H , 19-H ) :  -0.1616 B( 20-C , 21-C ) :   1.1898
B( 20-C , 22-H ) :   0.1368 B( 20-C , 23-H ) :   0.1999 B( 20-C , 29-C ) :   0.2316
B( 20-C , 32-C ) :   1.0883 B( 20-C , 35-H ) :   0.7827 B( 20-C , 36-H ) :   0.7498
B( 20-C , 37-H ) :   0.1254 B( 20-C , 38-H ) :   0.3091 B( 21-C , 22-H ) :   0.5940
B( 21-C , 23-H ) :   0.3623 B( 21-C , 24-H ) :   0.2222 B( 21-C , 25-H ) :   0.1378
B( 21-C , 35-H ) :   0.1511 B( 21-C , 36-H ) :   0.2188 B( 22-H , 23-H ) :   0.2012
B( 23-H , 34-H ) :   0.1504 B( 24-H , 25-H ) :  -0.1031 B( 26-C , 27-H ) :   0.1543
B( 26-C , 28-H ) :   0.2996 B( 26-C , 29-C ) :   1.2233 B( 26-C , 30-H ) :   0.6739
B( 26-C , 31-H ) :   0.7488 B( 26-C , 33-H ) :   0.1626 B( 26-C , 34-H ) :   0.1351
B( 27-H , 28-H ) :  -0.1889 B( 29-C , 30-H ) :   0.1716 B( 29-C , 31-H ) :   0.1484
B( 29-C , 32-C ) :   1.0691 B( 29-C , 33-H ) :   0.8261 B( 29-C , 34-H ) :   0.7826
B( 29-C , 37-H ) :   0.3951 B( 29-C , 38-H ) :   0.1619 B( 31-H , 35-H ) :   0.1027
B( 32-C , 35-H ) :   0.1074 B( 32-C , 37-H ) :   0.4889 B( 32-C , 38-H ) :   0.5462
B( 37-H , 38-H ) :  -0.1641

Dispersion correction           -0.097074842
FINAL SINGLE POINT ENERGY     -1189.985907083825

DIPOLE MOMENT
-------------
                                X             Y             Z
Electronic contribution:    -18.42170       4.04170     -18.05406
Nuclear contribution   :     18.74089      -4.92611      17.99644
                        -----------------------------------------
Total Dipole Moment    :      0.31920      -0.88441      -0.05761
                        -----------------------------------------
Magnitude (a.u.)       :      0.94201
Magnitude (Debye)      :      2.39440

Rotational constants in cm-1:     0.014210     0.012324     0.007480
Rotational constants in MHz :   425.991442   369.455467   224.259162

                             ****ORCA TERMINATED NORMALLY****
TOTAL RUN TIME: 0 days 0 hours 1 minutes 1 seconds 364 msec
