                         Program Version 5.0.0 -  RELEASE  -
|  1> !PBE D3BJ RIJCOSX def2-SVPD def2/J TightSCF
|  2> *xyz -1 1
|  3> C          1.44442        5.26658       -0.97546
|  4> O          1.56525        4.23349       -1.86489
|  5> C         -1.07389        4.84473       -0.97990
|  6> C          0.14812        5.21087       -0.13809
|  7> H          1.47425        6.26464       -1.47692
|  8> H          2.28962        5.30327       -0.26445
|  9> H          0.26183        4.45094        0.64071
| 10> H         -0.00252        6.17103        0.37148
| 11> H         -1.20745        5.57445       -1.75098
| 12> H         -1.94291        4.82190       -0.35605
| 13> H         -0.92683        3.88150       -1.42201
| 14> *
| 15> %MaxCore 64000
| 16>
| 17> %pal nprocs 4
| 18> end
| 19>
| 20> %scf
| 21>   MaxIter 150
| 22> end
| 23>
| 24>
| 25>                          ****END OF INPUT****

CARTESIAN COORDINATES (ANGSTROEM)
---------------------------------
  C      1.444420    5.266580   -0.975460
  O      1.565250    4.233490   -1.864890
  C     -1.073890    4.844730   -0.979900
  C      0.148120    5.210870   -0.138090
  H      1.474250    6.264640   -1.476920
  H      2.289620    5.303270   -0.264450
  H      0.261830    4.450940    0.640710
  H     -0.002520    6.171030    0.371480
  H     -1.207450    5.574450   -1.750980
  H     -1.942910    4.821900   -0.356050
  H     -0.926830    3.881500   -1.422010

 Total Charge           Charge          ....   -1
 Multiplicity           Mult            ....    1
 Number of Electrons    NEL             ....   34
 Basis Dimension        Dim             ....  139

ORBITAL ENERGIES
----------------

  NO   OCC          E(Eh)            E(eV)
   0   2.0000     -18.447896      -501.9928
   1   2.0000      -9.712958      -264.3030
   2   2.0000      -9.709794      -264.2169
   3   2.0000      -9.706070      -264.1156
   4   2.0000      -0.600637       -16.3442
   5   2.0000      -0.504077       -13.7166
   6   2.0000      -0.398073       -10.8321
   7   2.0000      -0.301418        -8.2020
   8   2.0000      -0.226933        -6.1752
   9   2.0000      -0.216774        -5.8987
  10   2.0000      -0.168629        -4.5886
  11   2.0000      -0.146038        -3.9739
  12   2.0000      -0.120761        -3.2861
  13   2.0000      -0.108145        -2.9428
  14   2.0000      -0.074860        -2.0370
  15   2.0000       0.060338         1.6419
  16   2.0000       0.065836         1.7915
  17   0.0000       0.150263         4.0889
  18   0.0000       0.174426         4.7464
  19   0.0000       0.190760         5.1908
  20   0.0000       0.211105         5.7445
  21   0.0000       0.231536         6.3004

MULLIKEN ATOMIC CHARGES
-----------------------
   0 C :    0.422625
   1 O :   -0.841257
   2 C :    0.616846
   3 C :   -0.608742
   4 H :   -0.107034
   5 H :   -0.183486
   6 H :   -0.037013
   7 H :   -0.062838
   8 H :   -0.071122
   9 H :   -0.115201
  10 H :   -0.012777
Sum of atomic charges:   -1.0000000

LOEWDIN ATOMIC CHARGES
----------------------
   0 C :   -0.224498
   1 O :   -0.515165
   2 C :    0.077754
   3 C :   -0.118346
   4 H :   -0.034192
   5 H :   -0.040948
   6 H :   -0.005897
   7 H :   -0.016411
   8 H :   -0.032378
   9 H :   -0.052527
  10 H :   -0.037391

  Mayer bond orders larger than 0.100000
B(  0-C ,  1-O ) :   1.1246 B(  0-C ,  3-C ) :   1.0696 B(  0-C ,  4-H ) :   0.9356
B(  0-C ,  5-H ) :   0.9532 B(  0-C ,  6-H ) :   0.1096 B(  0-C ,  7-H ) :   0.1106
B(  1-O ,  3-C ) :   0.1934 B(  2-C ,  3-C ) :   1.3091 B(  2-C ,  6-H ) :   0.1019
B(  2-C ,  8-H ) :   0.8221 B(  2-C ,  9-H ) :   0.7951 B(  2-C , 10-H ) :   0.8119
B(  3-C ,  4-H ) :   0.1756 B(  3-C ,  5-H ) :   0.1697 B(  3-C ,  6-H ) :   0.9543
B(  3-C ,  7-H ) :   1.0149 B(  3-C ,  8-H ) :   0.2218 B(  3-C ,  9-H ) :   0.2185
B(  3-C , 10-H ) :   0.2172 B(  4-H ,  5-H ) :   0.1132

Dispersion correction           -0.006636389
FINAL SINGLE POINT ENERGY      -193.369133296086

DIPOLE MOMENT
-------------
                                X             Y             Z
Electronic contribution:      2.13758      -1.44390      -1.58285
Nuclear contribution   :     -3.50495       2.13585       2.58010
                        -----------------------------------------
Total Dipole Moment    :     -1.36737       0.69195       0.99725
                        -----------------------------------------
Magnitude (a.u.)       :      1.82839
Magnitude (Debye)      :      4.64739

Rotational constants in cm-1:     0.478988     0.188199     0.150738
Rotational constants in MHz : 14359.706344  5642.078771  4519.011003

                             ****ORCA TERMINATED NORMALLY****
TOTAL RUN TIME: 0 days 0 hours 0 minutes 4 seconds 925 msec
