                         Program Version 5.0.0 -  RELEASE  -
|  1> !PBE D3BJ RIJCOSX def2-SVPD def2/J TightSCF
|  2> *xyz 1 1
|  3> C         -0.70169        4.07250       -4.00392
|  4> N          0.68053        4.61482       -4.04800
|  5> H          0.69993        5.58489       -4.38827
|  6> H          1.27804        4.05598       -4.66824
|  7> H          1.08573        4.53358       -3.10652
|  8> C         -1.70347        5.09320       -3.47740
|  9> H         -0.99590        3.74039       -5.00065
| 10> H         -0.64358        3.20191       -3.35153
| 11> C         -1.31400        5.78600       -2.16927
| 12> H         -1.87706        5.85010       -4.25115
| 13> H         -2.65326        4.56448       -3.35480
| 14> H         -0.38448        6.29945       -2.30062
| 15> H         -1.21111        5.05451       -1.39516
| 16> H         -2.07413        6.48833       -1.89758
| 17> *
| 18> %MaxCore 64000
| 19>
| 20> %pal nprocs 4
| 21> end
| 22>
| 23> %scf
| 24>   MaxIter 150
| 25> end
| 26>
| 27>
| 28>                          ****END OF INPUT****

CARTESIAN COORDINATES (ANGSTROEM)
---------------------------------
  C     -0.701690    4.072500   -4.003920
  N      0.680530    4.614820   -4.048000
  H      0.699930    5.584890   -4.388270
  H      1.278040    4.055980   -4.668240
  H      1.085730    4.533580   -3.106520
  C     -1.703470    5.093200   -3.477400
  H     -0.995900    3.740390   -5.000650
  H     -0.643580    3.201910   -3.351530
  C     -1.314000    5.786000   -2.169270
  H     -1.877060    5.850100   -4.251150
  H     -2.653260    4.564480   -3.354800
  H     -0.384480    6.299450   -2.300620
  H     -1.211110    5.054510   -1.395160
  H     -2.074130    6.488330   -1.897580

 Total Charge           Charge          ....    1
 Multiplicity           Mult            ....    1
 Number of Electrons    NEL             ....   34
 Basis Dimension        Dim             ....  160

ORBITAL ENERGIES
----------------

  NO   OCC          E(Eh)            E(eV)
   0   2.0000     -14.328980      -389.9114
   1   2.0000     -10.142184      -275.9829
   2   2.0000     -10.076307      -274.1903
   3   2.0000     -10.045986      -273.3652
   4   2.0000      -1.125518       -30.6269
   5   2.0000      -0.897575       -24.4243
   6   2.0000      -0.816280       -22.2121
   7   2.0000      -0.753693       -20.5090
   8   2.0000      -0.737458       -20.0673
   9   2.0000      -0.715277       -19.4637
  10   2.0000      -0.638675       -17.3792
  11   2.0000      -0.588757       -16.0209
  12   2.0000      -0.563189       -15.3252
  13   2.0000      -0.541238       -14.7278
  14   2.0000      -0.488967       -13.3055
  15   2.0000      -0.483613       -13.1598
  16   2.0000      -0.469705       -12.7813
  17   0.0000      -0.213682        -5.8146
  18   0.0000      -0.159679        -4.3451
  19   0.0000      -0.156902        -4.2695
  20   0.0000      -0.140471        -3.8224
  21   0.0000      -0.113071        -3.0768

MULLIKEN ATOMIC CHARGES
-----------------------
   0 C :    0.607525
   1 N :   -0.658683
   2 H :    0.374200
   3 H :    0.273168
   4 H :    0.404935
   5 C :   -0.371461
   6 H :   -0.097204
   7 H :   -0.054393
   8 C :    0.782455
   9 H :   -0.032488
  10 H :   -0.046089
  11 H :   -0.077468
  12 H :   -0.010748
  13 H :   -0.093749
Sum of atomic charges:    1.0000000

LOEWDIN ATOMIC CHARGES
----------------------
   0 C :    0.079573
   1 N :    0.337389
   2 H :    0.104222
   3 H :    0.103719
   4 H :    0.100320
   5 C :   -0.048198
   6 H :    0.054470
   7 H :    0.054694
   8 C :    0.148320
   9 H :    0.038170
  10 H :    0.048377
  11 H :   -0.027165
  12 H :   -0.001309
  13 H :    0.007419

  Mayer bond orders larger than 0.100000
B(  0-C ,  1-N ) :   0.8315 B(  0-C ,  5-C ) :   1.2149 B(  0-C ,  6-H ) :   0.8977
B(  0-C ,  7-H ) :   0.8131 B(  0-C ,  9-H ) :   0.1152 B(  0-C , 10-H ) :   0.1525
B(  1-N ,  2-H ) :   0.7212 B(  1-N ,  3-H ) :   0.8468 B(  1-N ,  4-H ) :   0.7354
B(  1-N ,  7-H ) :   0.1327 B(  5-C ,  7-H ) :   0.1209 B(  5-C ,  8-C ) :   1.3520
B(  5-C ,  9-H ) :   0.9111 B(  5-C , 10-H ) :   0.9071 B(  5-C , 11-H ) :   0.1937
B(  5-C , 12-H ) :   0.1996 B(  5-C , 13-H ) :   0.2248 B(  8-C , 11-H ) :   0.8184
B(  8-C , 12-H ) :   0.7869 B(  8-C , 13-H ) :   0.7775

Dispersion correction           -0.009440793
FINAL SINGLE POINT ENERGY      -174.493184181020

DIPOLE MOMENT
-------------
                                X             Y             Z
Electronic contribution:      1.51649      -0.90005      -1.44704
Nuclear contribution   :      0.19992       0.44181       0.60618
                        -----------------------------------------
Total Dipole Moment    :      1.71641      -0.45823      -0.84085
                        -----------------------------------------
Magnitude (a.u.)       :      1.96547
Magnitude (Debye)      :      4.99582

Rotational constants in cm-1:     0.427003     0.166237     0.135950
Rotational constants in MHz : 12801.234133  4983.663157  4075.681698

                             ****ORCA TERMINATED NORMALLY****
TOTAL RUN TIME: 0 days 0 hours 0 minutes 5 seconds 64 msec
