                         Program Version 5.0.0 -  RELEASE  -
|  1> !PBE D3BJ RIJCOSX def2-SVPD def2/J TightSCF
|  2> *xyz 0 1
|  3> C          1.44442        5.26658       -0.97546
|  4> F          1.56525        4.23349       -1.86489
|  5> C         -1.07389        4.84473       -0.97990
|  6> C          0.14812        5.21087       -0.13809
|  7> H          1.47425        6.26464       -1.47692
|  8> H          2.28962        5.30327       -0.26445
|  9> H          0.26183        4.45094        0.64071
| 10> H         -0.00252        6.17103        0.37148
| 11> H         -1.20745        5.57445       -1.75098
| 12> H         -1.94291        4.82190       -0.35605
| 13> H         -0.92683        3.88150       -1.42201
| 14> *
| 15> %MaxCore 64000
| 16>
| 17> %pal nprocs 4
| 18> end
| 19>
| 20> %scf
| 21>   MaxIter 150
| 22> end
| 23>
| 24>
| 25>                          ****END OF INPUT****

CARTESIAN COORDINATES (ANGSTROEM)
---------------------------------
  C      1.444420    5.266580   -0.975460
  F      1.565250    4.233490   -1.864890
  C     -1.073890    4.844730   -0.979900
  C      0.148120    5.210870   -0.138090
  H      1.474250    6.264640   -1.476920
  H      2.289620    5.303270   -0.264450
  H      0.261830    4.450940    0.640710
  H     -0.002520    6.171030    0.371480
  H     -1.207450    5.574450   -1.750980
  H     -1.942910    4.821900   -0.356050
  H     -0.926830    3.881500   -1.422010

 Total Charge           Charge          ....    0
 Multiplicity           Mult            ....    1
 Number of Electrons    NEL             ....   34
 Basis Dimension        Dim             ....  139

ORBITAL ENERGIES
----------------

  NO   OCC          E(Eh)            E(eV)
   0   2.0000     -24.266351      -660.3210
   1   2.0000      -9.971579      -271.3404
   2   2.0000      -9.903256      -269.4813
   3   2.0000      -9.882519      -268.9170
   4   2.0000      -1.087624       -29.5958
   5   2.0000      -0.710313       -19.3286
   6   2.0000      -0.618863       -16.8401
   7   2.0000      -0.531876       -14.4731
   8   2.0000      -0.457478       -12.4486
   9   2.0000      -0.439598       -11.9621
  10   2.0000      -0.421969       -11.4824
  11   2.0000      -0.386470       -10.5164
  12   2.0000      -0.347690        -9.4611
  13   2.0000      -0.328719        -8.9449
  14   2.0000      -0.313371        -8.5273
  15   2.0000      -0.283158        -7.7051
  16   2.0000      -0.277774        -7.5586
  17   0.0000       0.002004         0.0545
  18   0.0000       0.027714         0.7541
  19   0.0000       0.039376         1.0715
  20   0.0000       0.048641         1.3236
  21   0.0000       0.067435         1.8350

MULLIKEN ATOMIC CHARGES
-----------------------
   0 C :    0.728392
   1 F :   -0.411947
   2 C :    0.649449
   3 C :   -0.510117
   4 H :   -0.036636
   5 H :   -0.111414
   6 H :   -0.053207
   7 H :   -0.073799
   8 H :   -0.065610
   9 H :   -0.098073
  10 H :   -0.017037
Sum of atomic charges:   -0.0000000

LOEWDIN ATOMIC CHARGES
----------------------
   0 C :    0.084182
   1 F :   -0.188752
   2 C :    0.119224
   3 C :   -0.068451
   4 H :    0.034468
   5 H :    0.025490
   6 H :    0.019452
   7 H :    0.026931
   8 H :   -0.015059
   9 H :   -0.019324
  10 H :   -0.018161

  Mayer bond orders larger than 0.100000
B(  0-C ,  1-F ) :   0.7644 B(  0-C ,  3-C ) :   1.2128 B(  0-C ,  4-H ) :   0.8759
B(  0-C ,  5-H ) :   0.9045 B(  2-C ,  3-C ) :   1.3574 B(  2-C ,  8-H ) :   0.8110
B(  2-C ,  9-H ) :   0.8085 B(  2-C , 10-H ) :   0.8116 B(  3-C ,  4-H ) :   0.1325
B(  3-C ,  5-H ) :   0.1240 B(  3-C ,  6-H ) :   0.9244 B(  3-C ,  7-H ) :   0.9524
B(  3-C ,  8-H ) :   0.1957 B(  3-C ,  9-H ) :   0.2043 B(  3-C , 10-H ) :   0.1851

Dispersion correction           -0.006267186
FINAL SINGLE POINT ENERGY      -217.958995123275

DIPOLE MOMENT
-------------
                                X             Y             Z
Electronic contribution:      4.60504      -2.46841      -3.16473
Nuclear contribution   :     -4.76356       2.92420       3.62609
                        -----------------------------------------
Total Dipole Moment    :     -0.15852       0.45579       0.46136
                        -----------------------------------------
Magnitude (a.u.)       :      0.66763
Magnitude (Debye)      :      1.69697

Rotational constants in cm-1:     0.464485     0.177633     0.142630
Rotational constants in MHz : 13924.923489  5325.290206  4275.938589

                             ****ORCA TERMINATED NORMALLY****
TOTAL RUN TIME: 0 days 0 hours 0 minutes 4 seconds 100 msec
