                         Program Version 5.0.0 -  RELEASE  -
|  1> !PBE D3BJ RIJCOSX def2-SVPD def2/J TightSCF
|  2> *xyz 0 1
|  3> C         -0.70169        4.07250       -4.00392
|  4> C          0.68053        4.61482       -4.04800
|  5> H          0.69993        5.58489       -4.38827
|  6> H          1.27804        4.05598       -4.66824
|  7> H          1.08573        4.53358       -3.10652
|  8> C         -1.70347        5.09320       -3.47740
|  9> H         -0.99590        3.74039       -5.00065
| 10> H         -0.64358        3.20191       -3.35153
| 11> C         -1.31400        5.78600       -2.16927
| 12> H         -1.87706        5.85010       -4.25115
| 13> H         -2.65326        4.56448       -3.35480
| 14> H         -0.38448        6.29945       -2.30062
| 15> H         -1.21111        5.05451       -1.39516
| 16> H         -2.07413        6.48833       -1.89758
| 17> *
| 18> %MaxCore 64000
| 19>
| 20> %pal nprocs 4
| 21> end
| 22>
| 23> %scf
| 24>   MaxIter 150
| 25> end
| 26>
| 27>
| 28>                          ****END OF INPUT****

CARTESIAN COORDINATES (ANGSTROEM)
---------------------------------
  C     -0.701690    4.072500   -4.003920
  C      0.680530    4.614820   -4.048000
  H      0.699930    5.584890   -4.388270
  H      1.278040    4.055980   -4.668240
  H      1.085730    4.533580   -3.106520
  C     -1.703470    5.093200   -3.477400
  H     -0.995900    3.740390   -5.000650
  H     -0.643580    3.201910   -3.351530
  C     -1.314000    5.786000   -2.169270
  H     -1.877060    5.850100   -4.251150
  H     -2.653260    4.564480   -3.354800
  H     -0.384480    6.299450   -2.300620
  H     -1.211110    5.054510   -1.395160
  H     -2.074130    6.488330   -1.897580

 Total Charge           Charge          ....    0
 Multiplicity           Mult            ....    1
 Number of Electrons    NEL             ....   34
 Basis Dimension        Dim             ....  160

ORBITAL ENERGIES
----------------

  NO   OCC          E(Eh)            E(eV)
   0   2.0000      -9.886419      -269.0231
   1   2.0000      -9.881899      -268.9001
   2   2.0000      -9.875948      -268.7382
   3   2.0000      -9.857665      -268.2407
   4   2.0000      -0.723645       -19.6914
   5   2.0000      -0.653420       -17.7805
   6   2.0000      -0.577438       -15.7129
   7   2.0000      -0.500686       -13.6244
   8   2.0000      -0.419190       -11.4067
   9   2.0000      -0.412654       -11.2289
  10   2.0000      -0.378783       -10.3072
  11   2.0000      -0.343744        -9.3537
  12   2.0000      -0.339885        -9.2487
  13   2.0000      -0.320758        -8.7283
  14   2.0000      -0.283451        -7.7131
  15   2.0000      -0.280724        -7.6389
  16   2.0000      -0.276395        -7.5211
  17   0.0000       0.006636         0.1806
  18   0.0000       0.034165         0.9297
  19   0.0000       0.037307         1.0152
  20   0.0000       0.046003         1.2518
  21   0.0000       0.073830         2.0090

MULLIKEN ATOMIC CHARGES
-----------------------
   0 C :   -0.273341
   1 C :    1.002400
   2 H :   -0.188949
   3 H :   -0.420872
   4 H :   -0.017293
   5 C :   -0.362928
   6 H :   -0.110581
   7 H :   -0.043273
   8 C :    0.688801
   9 H :    0.012846
  10 H :   -0.117100
  11 H :   -0.026833
  12 H :   -0.037511
  13 H :   -0.105366
Sum of atomic charges:   -0.0000000

LOEWDIN ATOMIC CHARGES
----------------------
   0 C :   -0.084102
   1 C :    0.113443
   2 H :   -0.026848
   3 H :   -0.035308
   4 H :   -0.028790
   5 C :   -0.085602
   6 H :    0.022549
   7 H :    0.024007
   8 C :    0.124218
   9 H :    0.023046
  10 H :    0.015304
  11 H :   -0.027143
  12 H :   -0.014838
  13 H :   -0.019935

  Mayer bond orders larger than 0.100000
B(  0-C ,  1-C ) :   1.3235 B(  0-C ,  2-H ) :   0.2533 B(  0-C ,  3-H ) :   0.2577
B(  0-C ,  4-H ) :   0.2770 B(  0-C ,  5-C ) :   1.2197 B(  0-C ,  6-H ) :   0.9064
B(  0-C ,  7-H ) :   0.8348 B(  0-C ,  9-H ) :   0.1354 B(  0-C , 10-H ) :   0.1556
B(  1-C ,  2-H ) :   0.7199 B(  1-C ,  3-H ) :   0.6955 B(  1-C ,  4-H ) :   0.6800
B(  1-C ,  7-H ) :   0.1518 B(  5-C ,  7-H ) :   0.1404 B(  5-C ,  8-C ) :   1.3631
B(  5-C ,  9-H ) :   0.8684 B(  5-C , 10-H ) :   0.9237 B(  5-C , 11-H ) :   0.2023
B(  5-C , 12-H ) :   0.2006 B(  5-C , 13-H ) :   0.2329 B(  8-C , 11-H ) :   0.8324
B(  8-C , 12-H ) :   0.7913 B(  8-C , 13-H ) :   0.7475

Dispersion correction           -0.009449203
FINAL SINGLE POINT ENERGY      -158.096393868384

DIPOLE MOMENT
-------------
                                X             Y             Z
Electronic contribution:     -0.62651      -0.37471      -0.43090
Nuclear contribution   :      0.63648       0.35464       0.41252
                        -----------------------------------------
Total Dipole Moment    :      0.00996      -0.02007      -0.01838
                        -----------------------------------------
Magnitude (a.u.)       :      0.02898
Magnitude (Debye)      :      0.07366

Rotational constants in cm-1:     0.435124     0.173315     0.141457
Rotational constants in MHz : 13044.691962  5195.845291  4240.763698

                             ****ORCA TERMINATED NORMALLY****
TOTAL RUN TIME: 0 days 0 hours 0 minutes 4 seconds 843 msec
