                         Program Version 5.0.0 -  RELEASE  -
|  1> !B3LYP D3BJ RIJCOSX def2-SVP def2/J TightSCF
|  2> *xyz -1 1
|  3> C         -1.91658       -2.48508       -3.64367
|  4> C         -1.36353       -1.98134       -2.29361
|  5> O         -0.35039       -2.74969       -1.79601
|  6> H         -2.22622       -1.90839       -1.60204
|  7> H         -1.05135       -0.91567       -2.44333
|  8> H         -1.11522       -2.57167       -4.34739
|  9> H         -2.64227       -1.79099       -4.01314
| 10> H         -2.37564       -3.44180       -3.50640
| 11> *
| 12>
| 13> %MaxCore 64000
| 14> %pal nprocs 4
| 15> end
| 16>
| 17> %scf
| 18>   MaxIter 150
| 19> end
| 20>
| 21>
| 22>                          ****END OF INPUT****

CARTESIAN COORDINATES (ANGSTROEM)
---------------------------------
  C     -1.916580   -2.485080   -3.643670
  C     -1.363530   -1.981340   -2.293610
  O     -0.350390   -2.749690   -1.796010
  H     -2.226220   -1.908390   -1.602040
  H     -1.051350   -0.915670   -2.443330
  H     -1.115220   -2.571670   -4.347390
  H     -2.642270   -1.790990   -4.013140
  H     -2.375640   -3.441800   -3.506400

 Total Charge           Charge          ....   -1
 Multiplicity           Mult            ....    1
 Number of Electrons    NEL             ....   26
 Basis Dimension        Dim             ....   67

ORBITAL ENERGIES
----------------

  NO   OCC          E(Eh)            E(eV)
   0   2.0000     -18.746882      -510.1286
   1   2.0000      -9.972061      -271.3536
   2   2.0000      -9.959503      -271.0119
   3   2.0000      -0.626508       -17.0481
   4   2.0000      -0.497061       -13.5257
   5   2.0000      -0.342268        -9.3136
   6   2.0000      -0.229522        -6.2456
   7   2.0000      -0.208464        -5.6726
   8   2.0000      -0.150868        -4.1053
   9   2.0000      -0.134277        -3.6539
  10   2.0000      -0.069547        -1.8925
  11   2.0000       0.076516         2.0821
  12   2.0000       0.079978         2.1763
  13   0.0000       0.252850         6.8804
  14   0.0000       0.295928         8.0526
  15   0.0000       0.309027         8.4090
  16   0.0000       0.318832         8.6759
  17   0.0000       0.360387         9.8066

MULLIKEN ATOMIC CHARGES
-----------------------
   0 C :    0.099797
   1 C :    0.270841
   2 O :   -0.689580
   3 H :   -0.188510
   4 H :   -0.192332
   5 H :   -0.081746
   6 H :   -0.137666
   7 H :   -0.080804
Sum of atomic charges:   -1.0000000

LOEWDIN ATOMIC CHARGES
----------------------
   0 C :   -0.103108
   1 C :    0.014939
   2 O :   -0.650325
   3 H :   -0.088012
   4 H :   -0.091525
   5 H :   -0.020490
   6 H :   -0.041447
   7 H :   -0.020031

  Mayer bond orders larger than 0.100000
B(  0-C ,  1-C ) :   0.9989 B(  0-C ,  5-H ) :   0.9486 B(  0-C ,  6-H ) :   0.9056
B(  0-C ,  7-H ) :   0.9520 B(  1-C ,  2-O ) :   1.5284 B(  1-C ,  3-H ) :   0.8532
B(  1-C ,  4-H ) :   0.8517

Dispersion correction           -0.006227196
FINAL SINGLE POINT ENERGY      -154.190144847364

DIPOLE MOMENT
-------------
                                X             Y             Z
Electronic contribution:      2.36201      -1.12342       2.01576
Nuclear contribution   :     -3.14382       1.30299      -2.83231
                        -----------------------------------------
Total Dipole Moment    :     -0.78181       0.17957      -0.81655
                        -----------------------------------------
Magnitude (a.u.)       :      1.14465
Magnitude (Debye)      :      2.90946

Rotational constants in cm-1:     1.288206     0.322942     0.285188
Rotational constants in MHz : 38619.437223  9681.562038  8549.712012

                             ****ORCA TERMINATED NORMALLY****
TOTAL RUN TIME: 0 days 0 hours 0 minutes 7 seconds 929 msec
