                         Program Version 5.0.0 -  RELEASE  -
|  1> !B3LYP D3BJ RIJCOSX def2-SVP def2/J TightSCF
|  2> *xyz 1 1
|  3> C          1.64703       -2.34528       -5.02041
|  4> C          2.20996       -2.81239       -3.66571
|  5> C          2.48901       -1.66851       -2.73754
|  6> N          3.59631       -0.94761       -2.95225
|  7> N          1.66394       -1.41369       -1.77781
|  8> H          0.81164       -1.96318       -1.70275
|  9> H          1.84550       -0.63508       -1.15875
| 10> H          4.20535       -1.17600       -3.73383
| 11> H          3.81723       -0.12585       -2.40604
| 12> H          3.14311       -3.36280       -3.81152
| 13> H          1.48768       -3.45893       -3.16521
| 14> H          1.46566       -3.19589       -5.64368
| 15> H          2.35406       -1.69850       -5.49654
| 16> H          0.73014       -1.81680       -4.86253
| 17> *
| 18>
| 19> %MaxCore 64000
| 20> %pal nprocs 4
| 21> end
| 22>
| 23> %scf
| 24>   MaxIter 150
| 25> end
| 26>
| 27>
| 28>                          ****END OF INPUT****

CARTESIAN COORDINATES (ANGSTROEM)
---------------------------------
  C      1.647030   -2.345280   -5.020410
  C      2.209960   -2.812390   -3.665710
  C      2.489010   -1.668510   -2.737540
  N      3.596310   -0.947610   -2.952250
  N      1.663940   -1.413690   -1.777810
  H      0.811640   -1.963180   -1.702750
  H      1.845500   -0.635080   -1.158750
  H      4.205350   -1.176000   -3.733830
  H      3.817230   -0.125850   -2.406040
  H      3.143110   -3.362800   -3.811520
  H      1.487680   -3.458930   -3.165210
  H      1.465660   -3.195890   -5.643680
  H      2.354060   -1.698500   -5.496540
  H      0.730140   -1.816800   -4.862530

 Total Charge           Charge          ....    1
 Multiplicity           Mult            ....    1
 Number of Electrons    NEL             ....   40
 Basis Dimension        Dim             ....  115

ORBITAL ENERGIES
----------------

  NO   OCC          E(Eh)            E(eV)
   0   2.0000     -14.580342      -396.7513
   1   2.0000     -14.570753      -396.4904
   2   2.0000     -10.502343      -285.7833
   3   2.0000     -10.380373      -282.4643
   4   2.0000     -10.339421      -281.3499
   5   2.0000      -1.195187       -32.5227
   6   2.0000      -1.099362       -29.9152
   7   2.0000      -0.960155       -26.1271
   8   2.0000      -0.854278       -23.2461
   9   2.0000      -0.813337       -22.1320
  10   2.0000      -0.775220       -21.0948
  11   2.0000      -0.747644       -20.3444
  12   2.0000      -0.705074       -19.1860
  13   2.0000      -0.646730       -17.5984
  14   2.0000      -0.620982       -16.8978
  15   2.0000      -0.611965       -16.6524
  16   2.0000      -0.543589       -14.7918
  17   2.0000      -0.534687       -14.5496
  18   2.0000      -0.529393       -14.4055
  19   2.0000      -0.491212       -13.3666
  20   0.0000      -0.202257        -5.5037
  21   0.0000      -0.146967        -3.9992
  22   0.0000      -0.100976        -2.7477
  23   0.0000      -0.099956        -2.7199
  24   0.0000      -0.070652        -1.9225

MULLIKEN ATOMIC CHARGES
-----------------------
   0 C :    0.047407
   1 C :    0.011887
   2 C :   -0.100371
   3 N :    0.009134
   4 N :    0.078118
   5 H :    0.184878
   6 H :    0.169136
   7 H :    0.179024
   8 H :    0.165992
   9 H :    0.073102
  10 H :    0.044430
  11 H :    0.071776
  12 H :    0.029692
  13 H :    0.035796
Sum of atomic charges:    1.0000000

LOEWDIN ATOMIC CHARGES
----------------------
   0 C :   -0.014372
   1 C :   -0.024211
   2 C :    0.146219
   3 N :    0.084215
   4 N :    0.121010
   5 H :    0.125918
   6 H :    0.113648
   7 H :    0.120024
   8 H :    0.108355
   9 H :    0.058450
  10 H :    0.047417
  11 H :    0.050618
  12 H :    0.028879
  13 H :    0.033830

  Mayer bond orders larger than 0.100000
B(  0-C ,  1-C ) :   1.0801 B(  0-C , 11-H ) :   0.9622 B(  0-C , 12-H ) :   0.9712
B(  0-C , 13-H ) :   0.9677 B(  1-C ,  2-C ) :   1.0275 B(  1-C ,  9-H ) :   0.9201
B(  1-C , 10-H ) :   0.9216 B(  2-C ,  3-N ) :   1.4856 B(  2-C ,  4-N ) :   1.5567
B(  3-N ,  7-H ) :   0.9229 B(  3-N ,  8-H ) :   0.9317 B(  4-N ,  5-H ) :   0.9116
B(  4-N ,  6-H ) :   0.9252

Dispersion correction           -0.016679363
FINAL SINGLE POINT ENERGY      -228.734925396851

DIPOLE MOMENT
-------------
                                X             Y             Z
Electronic contribution:      1.20742       1.69529       3.66028
Nuclear contribution   :     -0.98617      -1.03178      -2.77619
                        -----------------------------------------
Total Dipole Moment    :      0.22126       0.66351       0.88409
                        -----------------------------------------
Magnitude (a.u.)       :      1.12731
Magnitude (Debye)      :      2.86539

Rotational constants in cm-1:     0.257311     0.127495     0.099037
Rotational constants in MHz :  7713.982239  3822.189706  2969.039713

                             ****ORCA TERMINATED NORMALLY****
TOTAL RUN TIME: 0 days 0 hours 0 minutes 13 seconds 464 msec
