                         Program Version 5.0.0 -  RELEASE  -
|  1> !B3LYP D3BJ RIJCOSX def2-SVP def2/J TightSCF
|  2> *xyz 0 1
|  3> C         -1.91658       -2.48508       -3.64367
|  4> C         -1.36353       -1.98134       -2.29361
|  5> F         -0.35039       -2.74969       -1.79601
|  6> H         -2.22622       -1.90839       -1.60204
|  7> H         -1.05135       -0.91567       -2.44333
|  8> H         -1.11522       -2.57167       -4.34739
|  9> H         -2.64227       -1.79099       -4.01314
| 10> H         -2.37564       -3.44180       -3.50640
| 11> *
| 12>
| 13> %MaxCore 64000
| 14> %pal nprocs 4
| 15> end
| 16>
| 17> %scf
| 18>   MaxIter 150
| 19> end
| 20>
| 21>
| 22>                          ****END OF INPUT****

CARTESIAN COORDINATES (ANGSTROEM)
---------------------------------
  C     -1.916580   -2.485080   -3.643670
  C     -1.363530   -1.981340   -2.293610
  F     -0.350390   -2.749690   -1.796010
  H     -2.226220   -1.908390   -1.602040
  H     -1.051350   -0.915670   -2.443330
  H     -1.115220   -2.571670   -4.347390
  H     -2.642270   -1.790990   -4.013140
  H     -2.375640   -3.441800   -3.506400

 Total Charge           Charge          ....    0
 Multiplicity           Mult            ....    1
 Number of Electrons    NEL             ....   26
 Basis Dimension        Dim             ....   67

ORBITAL ENERGIES
----------------

  NO   OCC          E(Eh)            E(eV)
   0   2.0000     -24.662747      -671.1075
   1   2.0000     -10.257856      -279.1305
   2   2.0000     -10.178134      -276.9611
   3   2.0000      -1.168977       -31.8095
   4   2.0000      -0.751191       -20.4409
   5   2.0000      -0.619334       -16.8529
   6   2.0000      -0.499469       -13.5912
   7   2.0000      -0.486774       -13.2458
   8   2.0000      -0.449535       -12.2325
   9   2.0000      -0.399021       -10.8579
  10   2.0000      -0.397673       -10.8212
  11   2.0000      -0.327670        -8.9164
  12   2.0000      -0.322322        -8.7708
  13   0.0000       0.063946         1.7401
  14   0.0000       0.108811         2.9609
  15   0.0000       0.115602         3.1457
  16   0.0000       0.133882         3.6431
  17   0.0000       0.149549         4.0694

MULLIKEN ATOMIC CHARGES
-----------------------
   0 C :   -0.018859
   1 C :    0.235124
   2 F :   -0.258589
   3 H :   -0.001494
   4 H :   -0.000788
   5 H :    0.019090
   6 H :    0.007462
   7 H :    0.018054
Sum of atomic charges:    0.0000000

LOEWDIN ATOMIC CHARGES
----------------------
   0 C :   -0.065613
   1 C :    0.110863
   2 F :   -0.130994
   3 H :    0.006307
   4 H :    0.007230
   5 H :    0.023010
   6 H :    0.027237
   7 H :    0.021959

  Mayer bond orders larger than 0.100000
B(  0-C ,  1-C ) :   1.1000 B(  0-C ,  5-H ) :   0.9698 B(  0-C ,  6-H ) :   0.9591
B(  0-C ,  7-H ) :   0.9712 B(  1-C ,  2-F ) :   1.0111 B(  1-C ,  3-H ) :   0.9550
B(  1-C ,  4-H ) :   0.9560

Dispersion correction           -0.005734777
FINAL SINGLE POINT ENERGY      -178.829833624465

DIPOLE MOMENT
-------------
                                X             Y             Z
Electronic contribution:      3.66069      -1.38461       3.45833
Nuclear contribution   :     -4.15401       1.70894      -3.75000
                        -----------------------------------------
Total Dipole Moment    :     -0.49333       0.32433      -0.29166
                        -----------------------------------------
Magnitude (a.u.)       :      0.65850
Magnitude (Debye)      :      1.67378

Rotational constants in cm-1:     1.266842     0.300492     0.266603
Rotational constants in MHz : 37978.968232  9008.526876  7992.551454

                             ****ORCA TERMINATED NORMALLY****
TOTAL RUN TIME: 0 days 0 hours 0 minutes 7 seconds 675 msec
