                         Program Version 5.0.0 -  RELEASE  -
|  1> !B3LYP D3BJ RIJCOSX def2-SVP def2/J TightSCF
|  2> *xyz 0 1
|  3> C          1.64703       -2.34528       -5.02041
|  4> C          2.20996       -2.81239       -3.66571
|  5> C          2.48901       -1.66851       -2.73754
|  6> C          3.59631       -0.94761       -2.95225
|  7> N          1.66394       -1.41369       -1.77781
|  8> H          0.81164       -1.96318       -1.70275
|  9> H          1.84550       -0.63508       -1.15875
| 10> H          4.20535       -1.17600       -3.73383
| 11> H          3.81723       -0.12585       -2.40604
| 12> H          3.14311       -3.36280       -3.81152
| 13> H          1.48768       -3.45893       -3.16521
| 14> H          1.46566       -3.19589       -5.64368
| 15> H          2.35406       -1.69850       -5.49654
| 16> H          0.73014       -1.81680       -4.86253
| 17> *
| 18>
| 19> %MaxCore 64000
| 20> %pal nprocs 4
| 21> end
| 22>
| 23> %scf
| 24>   MaxIter 150
| 25> end
| 26>
| 27>
| 28>                          ****END OF INPUT****

CARTESIAN COORDINATES (ANGSTROEM)
---------------------------------
  C      1.647030   -2.345280   -5.020410
  C      2.209960   -2.812390   -3.665710
  C      2.489010   -1.668510   -2.737540
  C      3.596310   -0.947610   -2.952250
  N      1.663940   -1.413690   -1.777810
  H      0.811640   -1.963180   -1.702750
  H      1.845500   -0.635080   -1.158750
  H      4.205350   -1.176000   -3.733830
  H      3.817230   -0.125850   -2.406040
  H      3.143110   -3.362800   -3.811520
  H      1.487680   -3.458930   -3.165210
  H      1.465660   -3.195890   -5.643680
  H      2.354060   -1.698500   -5.496540
  H      0.730140   -1.816800   -4.862530

 Total Charge           Charge          ....    0
 Multiplicity           Mult            ....    1
 Number of Electrons    NEL             ....   40
 Basis Dimension        Dim             ....  115

ORBITAL ENERGIES
----------------

  NO   OCC          E(Eh)            E(eV)
   0   2.0000     -14.327171      -389.8621
   1   2.0000     -10.194075      -277.3949
   2   2.0000     -10.178600      -276.9738
   3   2.0000     -10.166368      -276.6409
   4   2.0000     -10.106655      -275.0161
   5   2.0000      -0.922134       -25.0925
   6   2.0000      -0.765931       -20.8421
   7   2.0000      -0.693950       -18.8833
   8   2.0000      -0.627702       -17.0806
   9   2.0000      -0.559314       -15.2197
  10   2.0000      -0.524763       -14.2795
  11   2.0000      -0.472189       -12.8489
  12   2.0000      -0.436698       -11.8832
  13   2.0000      -0.405936       -11.0461
  14   2.0000      -0.387594       -10.5470
  15   2.0000      -0.374901       -10.2016
  16   2.0000      -0.348085        -9.4719
  17   2.0000      -0.330038        -8.9808
  18   2.0000      -0.327759        -8.9188
  19   2.0000      -0.173604        -4.7240
  20   0.0000       0.046215         1.2576
  21   0.0000       0.065725         1.7885
  22   0.0000       0.094428         2.5695
  23   0.0000       0.099745         2.7142
  24   0.0000       0.121667         3.3107

MULLIKEN ATOMIC CHARGES
-----------------------
   0 C :    0.065280
   1 C :    0.062526
   2 C :   -0.172248
   3 C :   -0.026293
   4 N :   -0.006750
   5 H :    0.103855
   6 H :    0.108406
   7 H :   -0.051404
   8 H :   -0.069193
   9 H :    0.014516
  10 H :   -0.031294
  11 H :   -0.000136
  12 H :    0.007789
  13 H :   -0.005055
Sum of atomic charges:    0.0000000

LOEWDIN ATOMIC CHARGES
----------------------
   0 C :   -0.034791
   1 C :   -0.021205
   2 C :   -0.001874
   3 C :   -0.187274
   4 N :    0.016211
   5 H :    0.071970
   6 H :    0.078170
   7 H :   -0.005012
   8 H :   -0.013654
   9 H :    0.033085
  10 H :    0.010125
  11 H :    0.016365
  12 H :    0.021183
  13 H :    0.016701

  Mayer bond orders larger than 0.100000
B(  0-C ,  1-C ) :   1.1053 B(  0-C , 11-H ) :   0.9642 B(  0-C , 12-H ) :   0.9714
B(  0-C , 13-H ) :   0.9661 B(  1-C ,  2-C ) :   1.0157 B(  1-C ,  9-H ) :   0.9328
B(  1-C , 10-H ) :   0.9259 B(  2-C ,  3-C ) :   1.8418 B(  2-C ,  4-N ) :   1.3121
B(  3-C ,  7-H ) :   0.9361 B(  3-C ,  8-H ) :   0.9447 B(  4-N ,  5-H ) :   0.9421
B(  4-N ,  6-H ) :   0.9424

Dispersion correction           -0.017439377
FINAL SINGLE POINT ENERGY      -212.273257582563

DIPOLE MOMENT
-------------
                                X             Y             Z
Electronic contribution:     -0.09918       0.65872       3.08135
Nuclear contribution   :     -0.69146      -0.83112      -2.71336
                        -----------------------------------------
Total Dipole Moment    :     -0.79065      -0.17239       0.36799
                        -----------------------------------------
Magnitude (a.u.)       :      0.88896
Magnitude (Debye)      :      2.25957

Rotational constants in cm-1:     0.270661     0.129240     0.102040
Rotational constants in MHz :  8114.202941  3874.518141  3059.074383

                             ****ORCA TERMINATED NORMALLY****
TOTAL RUN TIME: 0 days 0 hours 0 minutes 14 seconds 372 msec
