                         Program Version 5.0.0 -  RELEASE  -
|  1> !B3LYP D3BJ RIJCOSX def2-SVP def2/J TightSCF
|  2> *xyz 0 1
|  3> C          1.64703       -2.34528       -5.02041
|  4> C          2.20996       -2.81239       -3.66571
|  5> C          2.48901       -1.66851       -2.73754
|  6> N          3.59631       -0.94761       -2.95225
|  7> C          1.66394       -1.41369       -1.77781
|  8> H          0.81164       -1.96318       -1.70275
|  9> H          1.84550       -0.63508       -1.15875
| 10> H          4.20535       -1.17600       -3.73383
| 11> H          3.81723       -0.12585       -2.40604
| 12> H          3.14311       -3.36280       -3.81152
| 13> H          1.48768       -3.45893       -3.16521
| 14> H          1.46566       -3.19589       -5.64368
| 15> H          2.35406       -1.69850       -5.49654
| 16> H          0.73014       -1.81680       -4.86253
| 17> *
| 18>
| 19> %MaxCore 64000
| 20> %pal nprocs 4
| 21> end
| 22>
| 23> %scf
| 24>   MaxIter 150
| 25> end
| 26>
| 27>
| 28>                          ****END OF INPUT****

CARTESIAN COORDINATES (ANGSTROEM)
---------------------------------
  C      1.647030   -2.345280   -5.020410
  C      2.209960   -2.812390   -3.665710
  C      2.489010   -1.668510   -2.737540
  N      3.596310   -0.947610   -2.952250
  C      1.663940   -1.413690   -1.777810
  H      0.811640   -1.963180   -1.702750
  H      1.845500   -0.635080   -1.158750
  H      4.205350   -1.176000   -3.733830
  H      3.817230   -0.125850   -2.406040
  H      3.143110   -3.362800   -3.811520
  H      1.487680   -3.458930   -3.165210
  H      1.465660   -3.195890   -5.643680
  H      2.354060   -1.698500   -5.496540
  H      0.730140   -1.816800   -4.862530

 Total Charge           Charge          ....    0
 Multiplicity           Mult            ....    1
 Number of Electrons    NEL             ....   40
 Basis Dimension        Dim             ....  115

ORBITAL ENERGIES
----------------

  NO   OCC          E(Eh)            E(eV)
   0   2.0000     -14.320052      -389.6684
   1   2.0000     -10.191390      -277.3218
   2   2.0000     -10.177052      -276.9317
   3   2.0000     -10.167903      -276.6827
   4   2.0000     -10.110734      -275.1271
   5   2.0000      -0.903462       -24.5844
   6   2.0000      -0.766159       -20.8483
   7   2.0000      -0.708503       -19.2793
   8   2.0000      -0.623341       -16.9620
   9   2.0000      -0.555397       -15.1131
  10   2.0000      -0.512884       -13.9563
  11   2.0000      -0.472537       -12.8584
  12   2.0000      -0.430173       -11.7056
  13   2.0000      -0.417016       -11.3476
  14   2.0000      -0.391119       -10.6429
  15   2.0000      -0.378253       -10.2928
  16   2.0000      -0.348145        -9.4735
  17   2.0000      -0.329540        -8.9672
  18   2.0000      -0.318620        -8.6701
  19   2.0000      -0.185258        -5.0411
  20   0.0000       0.047910         1.3037
  21   0.0000       0.069302         1.8858
  22   0.0000       0.097884         2.6636
  23   0.0000       0.104259         2.8370
  24   0.0000       0.117778         3.2049

MULLIKEN ATOMIC CHARGES
-----------------------
   0 C :    0.063703
   1 C :    0.064130
   2 C :   -0.116800
   3 N :   -0.071926
   4 C :   -0.002554
   5 H :   -0.051720
   6 H :   -0.068313
   7 H :    0.100035
   8 H :    0.104403
   9 H :   -0.011790
  10 H :   -0.004600
  11 H :    0.003333
  12 H :   -0.011230
  13 H :    0.003329
Sum of atomic charges:   -0.0000000

LOEWDIN ATOMIC CHARGES
----------------------
   0 C :   -0.038802
   1 C :   -0.021258
   2 C :    0.007538
   3 N :   -0.016765
   4 C :   -0.159354
   5 H :    0.000150
   6 H :   -0.008738
   7 H :    0.067666
   8 H :    0.072124
   9 H :    0.016501
  10 H :    0.028845
  11 H :    0.018248
  12 H :    0.012477
  13 H :    0.021368

  Mayer bond orders larger than 0.100000
B(  0-C ,  1-C ) :   1.0989 B(  0-C , 11-H ) :   0.9659 B(  0-C , 12-H ) :   0.9682
B(  0-C , 13-H ) :   0.9676 B(  1-C ,  2-C ) :   1.0337 B(  1-C ,  9-H ) :   0.9249
B(  1-C , 10-H ) :   0.9284 B(  2-C ,  3-N ) :   1.2497 B(  2-C ,  4-C ) :   1.8973
B(  3-N ,  7-H ) :   0.9512 B(  3-N ,  8-H ) :   0.9499 B(  4-C ,  5-H ) :   0.9221
B(  4-C ,  6-H ) :   0.9373

Dispersion correction           -0.017414842
FINAL SINGLE POINT ENERGY      -212.277052086029

DIPOLE MOMENT
-------------
                                X             Y             Z
Electronic contribution:      1.71849       1.10968       1.97738
Nuclear contribution   :     -1.13902      -0.93906      -2.44135
                        -----------------------------------------
Total Dipole Moment    :      0.57947       0.17062      -0.46397
                        -----------------------------------------
Magnitude (a.u.)       :      0.76168
Magnitude (Debye)      :      1.93605

Rotational constants in cm-1:     0.267243     0.130607     0.102304
Rotational constants in MHz :  8011.748167  3915.504600  3066.999841

                             ****ORCA TERMINATED NORMALLY****
TOTAL RUN TIME: 0 days 0 hours 0 minutes 13 seconds 360 msec
