                         Program Version 5.0.0 -  RELEASE  -
|  1> !LC-PBE RIJCOSX def2-SVP def2/J TightSCF
|  2> *xyz -1 1
|  3> C          1.44442        5.26658       -0.97546
|  4> O          1.56525        4.23349       -1.86489
|  5> C          0.14812        5.21087       -0.13809
|  6> H          1.47425        6.26464       -1.47692
|  7> H          2.28962        5.30327       -0.26445
|  8> H         -0.69779        5.17417       -0.79230
|  9> H          0.08430        6.08276        0.47887
| 10> H          0.15965        4.33708        0.47938
| 11> *
| 12> %MaxCore 64000
| 13>
| 14> %pal nprocs 4
| 15> end
| 16>
| 17> %scf
| 18>   MaxIter 150
| 19> end
| 20>
| 21>
| 22>                          ****END OF INPUT****

CARTESIAN COORDINATES (ANGSTROEM)
---------------------------------
  C      1.444420    5.266580   -0.975460
  O      1.565250    4.233490   -1.864890
  C      0.148120    5.210870   -0.138090
  H      1.474250    6.264640   -1.476920
  H      2.289620    5.303270   -0.264450
  H     -0.697790    5.174170   -0.792300
  H      0.084300    6.082760    0.478870
  H      0.159650    4.337080    0.479380

 Total Charge           Charge          ....   -1
 Multiplicity           Mult            ....    1
 Number of Electrons    NEL             ....   26
 Basis Dimension        Dim             ....   67

ORBITAL ENERGIES
----------------

  NO   OCC          E(Eh)            E(eV)
   0   2.0000     -18.586538      -505.7654
   1   2.0000      -9.914670      -269.7919
   2   2.0000      -9.903076      -269.4764
   3   2.0000      -0.792418       -21.5628
   4   2.0000      -0.668561       -18.1925
   5   2.0000      -0.501853       -13.6561
   6   2.0000      -0.377954       -10.2847
   7   2.0000      -0.351677        -9.5696
   8   2.0000      -0.291168        -7.9231
   9   2.0000      -0.269879        -7.3438
  10   2.0000      -0.199803        -5.4369
  11   2.0000      -0.047204        -1.2845
  12   2.0000      -0.043451        -1.1824
  13   0.0000       0.341946         9.3048
  14   0.0000       0.388729        10.5778
  15   0.0000       0.401299        10.9199
  16   0.0000       0.410442        11.1687
  17   0.0000       0.454439        12.3659

MULLIKEN ATOMIC CHARGES
-----------------------
   0 C :    0.150659
   1 O :   -0.721124
   2 C :   -0.108743
   3 H :   -0.127446
   4 H :   -0.123680
   5 H :   -0.006569
   6 H :   -0.055701
   7 H :   -0.007396
Sum of atomic charges:   -1.0000000

LOEWDIN ATOMIC CHARGES
----------------------
   0 C :   -0.023154
   1 O :   -0.686652
   2 C :   -0.147166
   3 H :   -0.068501
   4 H :   -0.065437
   5 H :    0.003140
   6 H :   -0.014954
   7 H :    0.002725

  Mayer bond orders larger than 0.100000
B(  0-C ,  1-O ) :   1.5069 B(  0-C ,  2-C ) :   0.9790 B(  0-C ,  3-H ) :   0.8993
B(  0-C ,  4-H ) :   0.9013 B(  2-C ,  5-H ) :   0.9705 B(  2-C ,  6-H ) :   0.9508
B(  2-C ,  7-H ) :   0.9730

FINAL SINGLE POINT ENERGY      -153.803801579747

DIPOLE MOMENT
-------------
                                X             Y             Z
Electronic contribution:      1.14964      -1.77745      -2.14135
Nuclear contribution   :     -1.83256       2.47114       3.17273
                        -----------------------------------------
Total Dipole Moment    :     -0.68292       0.69369       1.03139
                        -----------------------------------------
Magnitude (a.u.)       :      1.41822
Magnitude (Debye)      :      3.60483

Rotational constants in cm-1:     1.286062     0.322579     0.284728
Rotational constants in MHz : 38555.180127  9670.683110  8535.939140

                             ****ORCA TERMINATED NORMALLY****
TOTAL RUN TIME: 0 days 0 hours 0 minutes 8 seconds 497 msec
