                         Program Version 5.0.0 -  RELEASE  -
|  1> !LC-PBE RIJCOSX def2-SVP def2/J TightSCF
|  2> *xyz 1 1
|  3> C         -0.70169        4.07250       -4.00392
|  4> N          0.68053        4.61482       -4.04800
|  5> H          0.69993        5.58489       -4.38827
|  6> H          1.27804        4.05598       -4.66824
|  7> H          1.08573        4.53358       -3.10652
|  8> C         -1.70347        5.09320       -3.47740
|  9> H         -0.99590        3.74039       -5.00065
| 10> H         -0.64358        3.20191       -3.35153
| 11> H         -1.73704        5.93384       -4.13853
| 12> H         -1.40338        5.41759       -2.50291
| 13> H         -2.67335        4.64479       -3.42108
| 14> *
| 15> %MaxCore 64000
| 16>
| 17> %pal nprocs 4
| 18> end
| 19>
| 20> %scf
| 21>   MaxIter 150
| 22> end
| 23>
| 24>
| 25>                          ****END OF INPUT****

CARTESIAN COORDINATES (ANGSTROEM)
---------------------------------
  C     -0.701690    4.072500   -4.003920
  N      0.680530    4.614820   -4.048000
  H      0.699930    5.584890   -4.388270
  H      1.278040    4.055980   -4.668240
  H      1.085730    4.533580   -3.106520
  C     -1.703470    5.093200   -3.477400
  H     -0.995900    3.740390   -5.000650
  H     -0.643580    3.201910   -3.351530
  H     -1.737040    5.933840   -4.138530
  H     -1.403380    5.417590   -2.502910
  H     -2.673350    4.644790   -3.421080

 Total Charge           Charge          ....    1
 Multiplicity           Mult            ....    1
 Number of Electrons    NEL             ....   26
 Basis Dimension        Dim             ....   82

ORBITAL ENERGIES
----------------

  NO   OCC          E(Eh)            E(eV)
   0   2.0000     -14.568035      -396.4164
   1   2.0000     -10.380312      -282.4626
   2   2.0000     -10.299997      -280.2772
   3   2.0000      -1.386311       -37.7235
   4   2.0000      -1.134363       -30.8676
   5   2.0000      -1.003834       -27.3157
   6   2.0000      -0.956693       -26.0329
   7   2.0000      -0.936893       -25.4942
   8   2.0000      -0.841492       -22.8982
   9   2.0000      -0.785171       -21.3656
  10   2.0000      -0.718652       -19.5555
  11   2.0000      -0.700737       -19.0680
  12   2.0000      -0.680640       -18.5212
  13   0.0000      -0.086576        -2.3559
  14   0.0000      -0.028232        -0.7682
  15   0.0000      -0.022025        -0.5993
  16   0.0000       0.006480         0.1763
  17   0.0000       0.047908         1.3036

MULLIKEN ATOMIC CHARGES
-----------------------
   0 C :   -0.148149
   1 N :   -0.074627
   2 H :    0.244760
   3 H :    0.245818
   4 H :    0.248063
   5 C :   -0.166296
   6 H :    0.153719
   7 H :    0.145675
   8 H :    0.106885
   9 H :    0.101826
  10 H :    0.142327
Sum of atomic charges:    1.0000000

LOEWDIN ATOMIC CHARGES
----------------------
   0 C :    0.021049
   1 N :    0.276768
   2 H :    0.153852
   3 H :    0.157345
   4 H :    0.157644
   5 C :   -0.077068
   6 H :    0.067732
   7 H :    0.064841
   8 H :    0.051778
   9 H :    0.050493
  10 H :    0.075565

  Mayer bond orders larger than 0.100000
B(  0-C ,  1-N ) :   0.9077 B(  0-C ,  5-C ) :   1.0698 B(  0-C ,  6-H ) :   0.9527
B(  0-C ,  7-H ) :   0.9538 B(  1-N ,  2-H ) :   0.9223 B(  1-N ,  3-H ) :   0.9244
B(  1-N ,  4-H ) :   0.9261 B(  5-C ,  8-H ) :   0.9674 B(  5-C ,  9-H ) :   0.9707
B(  5-C , 10-H ) :   0.9575

FINAL SINGLE POINT ENERGY      -134.983692292601

DIPOLE MOMENT
-------------
                                X             Y             Z
Electronic contribution:      1.84790      -0.32746      -0.46893
Nuclear contribution   :     -0.23930       0.27560       0.19485
                        -----------------------------------------
Total Dipole Moment    :      1.60860      -0.05186      -0.27407
                        -----------------------------------------
Magnitude (a.u.)       :      1.63260
Magnitude (Debye)      :      4.14975

Rotational constants in cm-1:     1.018556     0.279088     0.248454
Rotational constants in MHz : 30535.536069  8366.847891  7448.451392

                             ****ORCA TERMINATED NORMALLY****
TOTAL RUN TIME: 0 days 0 hours 0 minutes 9 seconds 806 msec
