                         Program Version 5.0.0 -  RELEASE  -
|  1> !LC-PBE RIJCOSX def2-SVP def2/J TightSCF
|  2> *xyz 0 1
|  3> C          1.44442        5.26658       -0.97546
|  4> F          1.56525        4.23349       -1.86489
|  5> C          0.14812        5.21087       -0.13809
|  6> H          1.47425        6.26464       -1.47692
|  7> H          2.28962        5.30327       -0.26445
|  8> H         -0.69779        5.17417       -0.79230
|  9> H          0.08430        6.08276        0.47887
| 10> H          0.15965        4.33708        0.47938
| 11> *
| 12> %MaxCore 64000
| 13>
| 14> %pal nprocs 4
| 15> end
| 16>
| 17> %scf
| 18>   MaxIter 150
| 19> end
| 20>
| 21>
| 22>                          ****END OF INPUT****

CARTESIAN COORDINATES (ANGSTROEM)
---------------------------------
  C      1.444420    5.266580   -0.975460
  F      1.565250    4.233490   -1.864890
  C      0.148120    5.210870   -0.138090
  H      1.474250    6.264640   -1.476920
  H      2.289620    5.303270   -0.264450
  H     -0.697790    5.174170   -0.792300
  H      0.084300    6.082760    0.478870
  H      0.159650    4.337080    0.479380

 Total Charge           Charge          ....    0
 Multiplicity           Mult            ....    1
 Number of Electrons    NEL             ....   26
 Basis Dimension        Dim             ....   67

ORBITAL ENERGIES
----------------

  NO   OCC          E(Eh)            E(eV)
   0   2.0000     -24.471415      -665.9011
   1   2.0000     -10.201397      -277.5941
   2   2.0000     -10.120246      -275.3859
   3   2.0000      -1.324597       -36.0441
   4   2.0000      -0.929545       -25.2942
   5   2.0000      -0.783551       -21.3215
   6   2.0000      -0.648209       -17.6387
   7   2.0000      -0.640621       -17.4322
   8   2.0000      -0.597699       -16.2642
   9   2.0000      -0.540099       -14.6968
  10   2.0000      -0.534829       -14.5534
  11   2.0000      -0.462791       -12.5932
  12   2.0000      -0.454331       -12.3630
  13   0.0000       0.156717         4.2645
  14   0.0000       0.203774         5.5450
  15   0.0000       0.210920         5.7394
  16   0.0000       0.230305         6.2669
  17   0.0000       0.250157         6.8071

MULLIKEN ATOMIC CHARGES
-----------------------
   0 C :    0.116995
   1 F :   -0.249183
   2 C :   -0.194184
   3 H :    0.054997
   4 H :    0.053469
   5 H :    0.076894
   6 H :    0.065535
   7 H :    0.075477
Sum of atomic charges:   -0.0000000

LOEWDIN ATOMIC CHARGES
----------------------
   0 C :    0.074900
   1 F :   -0.127983
   2 C :   -0.111021
   3 H :    0.023528
   4 H :    0.021861
   5 H :    0.038834
   6 H :    0.042151
   7 H :    0.037729

  Mayer bond orders larger than 0.100000
B(  0-C ,  1-F ) :   1.0204 B(  0-C ,  2-C ) :   1.0646 B(  0-C ,  3-H ) :   0.9636
B(  0-C ,  4-H ) :   0.9633 B(  2-C ,  5-H ) :   0.9733 B(  2-C ,  6-H ) :   0.9662
B(  2-C ,  7-H ) :   0.9746

FINAL SINGLE POINT ENERGY      -178.421723878476

DIPOLE MOMENT
-------------
                                X             Y             Z
Electronic contribution:      2.31348      -2.73795      -3.70460
Nuclear contribution   :     -2.43357       3.25919       4.19687
                        -----------------------------------------
Total Dipole Moment    :     -0.12009       0.52125       0.49227
                        -----------------------------------------
Magnitude (a.u.)       :      0.72695
Magnitude (Debye)      :      1.84775

Rotational constants in cm-1:     1.264662     0.300144     0.266170
Rotational constants in MHz : 37913.611527  8998.095216  7979.576054

                             ****ORCA TERMINATED NORMALLY****
TOTAL RUN TIME: 0 days 0 hours 0 minutes 7 seconds 850 msec
