                         Program Version 5.0.0 -  RELEASE  -
|  1> !LC-PBE RIJCOSX def2-SVP def2/J TightSCF
|  2> *xyz 0 1
|  3> C         -0.70169        4.07250       -4.00392
|  4> C          0.68053        4.61482       -4.04800
|  5> H          0.69993        5.58489       -4.38827
|  6> H          1.27804        4.05598       -4.66824
|  7> H          1.08573        4.53358       -3.10652
|  8> C         -1.70347        5.09320       -3.47740
|  9> H         -0.99590        3.74039       -5.00065
| 10> H         -0.64358        3.20191       -3.35153
| 11> H         -1.73704        5.93384       -4.13853
| 12> H         -1.40338        5.41759       -2.50291
| 13> H         -2.67335        4.64479       -3.42108
| 14> *
| 15> %MaxCore 64000
| 16>
| 17> %pal nprocs 4
| 18> end
| 19>
| 20> %scf
| 21>   MaxIter 150
| 22> end
| 23>
| 24>
| 25>                          ****END OF INPUT****

CARTESIAN COORDINATES (ANGSTROEM)
---------------------------------
  C     -0.701690    4.072500   -4.003920
  C      0.680530    4.614820   -4.048000
  H      0.699930    5.584890   -4.388270
  H      1.278040    4.055980   -4.668240
  H      1.085730    4.533580   -3.106520
  C     -1.703470    5.093200   -3.477400
  H     -0.995900    3.740390   -5.000650
  H     -0.643580    3.201910   -3.351530
  H     -1.737040    5.933840   -4.138530
  H     -1.403380    5.417590   -2.502910
  H     -2.673350    4.644790   -3.421080

 Total Charge           Charge          ....    0
 Multiplicity           Mult            ....    1
 Number of Electrons    NEL             ....   26
 Basis Dimension        Dim             ....   82

ORBITAL ENERGIES
----------------

  NO   OCC          E(Eh)            E(eV)
   0   2.0000     -10.111122      -275.1376
   1   2.0000     -10.103064      -274.9184
   2   2.0000     -10.085935      -274.4522
   3   2.0000      -0.964660       -26.2497
   4   2.0000      -0.852989       -23.2110
   5   2.0000      -0.737800       -20.0765
   6   2.0000      -0.616536       -16.7768
   7   2.0000      -0.588892       -16.0246
   8   2.0000      -0.540385       -14.7046
   9   2.0000      -0.526602       -14.3296
  10   2.0000      -0.466939       -12.7061
  11   2.0000      -0.462120       -12.5749
  12   2.0000      -0.451651       -12.2901
  13   0.0000       0.155843         4.2407
  14   0.0000       0.204880         5.5751
  15   0.0000       0.207527         5.6471
  16   0.0000       0.212239         5.7753
  17   0.0000       0.241402         6.5689

MULLIKEN ATOMIC CHARGES
-----------------------
   0 C :   -0.200675
   1 C :   -0.070810
   2 H :    0.036966
   3 H :    0.037770
   4 H :    0.040466
   5 C :   -0.130142
   6 H :    0.058636
   7 H :    0.057507
   8 H :    0.056898
   9 H :    0.054265
  10 H :    0.059119
Sum of atomic charges:   -0.0000000

LOEWDIN ATOMIC CHARGES
----------------------
   0 C :   -0.069126
   1 C :   -0.078996
   2 H :    0.023555
   3 H :    0.027320
   4 H :    0.026946
   5 C :   -0.088306
   6 H :    0.030323
   7 H :    0.032485
   8 H :    0.031595
   9 H :    0.031439
  10 H :    0.032765

  Mayer bond orders larger than 0.100000
B(  0-C ,  1-C ) :   1.0703 B(  0-C ,  5-C ) :   1.0735 B(  0-C ,  6-H ) :   0.9691
B(  0-C ,  7-H ) :   0.9685 B(  1-C ,  2-H ) :   0.9777 B(  1-C ,  3-H ) :   0.9722
B(  1-C ,  4-H ) :   0.9762 B(  5-C ,  8-H ) :   0.9771 B(  5-C ,  9-H ) :   0.9789
B(  5-C , 10-H ) :   0.9774

FINAL SINGLE POINT ENERGY      -118.607723245903

DIPOLE MOMENT
-------------
                                X             Y             Z
Electronic contribution:     -0.13354      -0.30192      -0.13273
Nuclear contribution   :      0.16058       0.27975       0.12812
                        -----------------------------------------
Total Dipole Moment    :      0.02704      -0.02217      -0.00461
                        -----------------------------------------
Magnitude (a.u.)       :      0.03526
Magnitude (Debye)      :      0.08963

Rotational constants in cm-1:     1.027122     0.293327     0.260229
Rotational constants in MHz : 30792.337141  8793.723318  7801.458329

                             ****ORCA TERMINATED NORMALLY****
TOTAL RUN TIME: 0 days 0 hours 0 minutes 9 seconds 449 msec
