                         Program Version 5.0.0 -  RELEASE  -
|  1> !LC-PBE RIJCOSX def2-TZVP def2/J TightSCF xyzfile
|  2>
|  3> *xyzfile 0 1 D.xyz
|  4>
|  5> %MaxCore 64000
|  6>
|  7> %pal nprocs 18
|  8> end
|  9>
| 10> %scf
| 11>   MaxIter 150
| 12> end
| 13>
| 14>
| 15>                          ****END OF INPUT****

CARTESIAN COORDINATES (ANGSTROEM)
---------------------------------
  C     -0.701686    4.072499   -4.003920
  C      0.680528    4.614820   -4.048005
  C      1.444422    5.266576   -0.975463
  F      1.565248    4.233493   -1.864885
  H      0.699926    5.584890   -4.388272
  H      1.278044    4.055977   -4.668235
  H      1.085729    4.533581   -3.106524
  C     -1.703475    5.093197   -3.477396
  H     -0.995895    3.740394   -5.000654
  H     -0.643580    3.201910   -3.351533
  C     -1.313997    5.785995   -2.169271
  H     -1.877057    5.850103   -4.251154
  H     -2.653264    4.564475   -3.354796
  H     -2.097137    6.509395   -1.929558
  H     -0.416875    6.387594   -2.339097
  C     -1.073895    4.844728   -0.979904
  H     -1.968893    4.809608   -0.352568
  C      0.148120    5.210874   -0.138092
  H     -0.909754    3.827531   -1.338975
  H      1.474250    6.264638   -1.476917
  H      2.289622    5.303267   -0.264450
  H      0.261827    4.450942    0.640711
  H     -0.002516    6.171031    0.371483

 Total Charge           Charge          ....    0
 Multiplicity           Mult            ....    1
 Number of Electrons    NEL             ....   66
 Basis Dimension        Dim             ....  338

ORBITAL ENERGIES
----------------

  NO   OCC          E(Eh)            E(eV)
   0   2.0000     -24.495307      -666.5512
   1   2.0000     -10.202809      -277.6325
   2   2.0000     -10.125549      -275.5302
   3   2.0000     -10.110657      -275.1250
   4   2.0000     -10.104049      -274.9451
   5   2.0000     -10.096711      -274.7455
   6   2.0000     -10.083691      -274.3912
   7   2.0000     -10.027102      -272.8513
   8   2.0000      -1.387681       -37.7607
   9   2.0000      -0.997419       -27.1412
  10   2.0000      -0.963562       -26.2198
  11   2.0000      -0.896710       -24.4007
  12   2.0000      -0.860452       -23.4141
  13   2.0000      -0.796339       -21.6695
  14   2.0000      -0.756372       -20.5819
  15   2.0000      -0.698248       -19.0003
  16   2.0000      -0.690609       -18.7924
  17   2.0000      -0.672687       -18.3047
  18   2.0000      -0.643497       -17.5104
  19   2.0000      -0.606425       -16.5017
  20   2.0000      -0.599052       -16.3010
  21   2.0000      -0.570599       -15.5268
  22   2.0000      -0.555001       -15.1024
  23   2.0000      -0.526974       -14.3397
  24   2.0000      -0.515978       -14.0405
  25   2.0000      -0.502333       -13.6692
  26   2.0000      -0.491801       -13.3826
  27   2.0000      -0.468806       -12.7569
  28   2.0000      -0.458355       -12.4725
  29   2.0000      -0.441214       -12.0060
  30   2.0000      -0.427904       -11.6438
  31   2.0000      -0.424138       -11.5414
  32   2.0000      -0.402550       -10.9540
  33   0.0000       0.117414         3.1950
  34   0.0000       0.133261         3.6262
  35   0.0000       0.137648         3.7456
  36   0.0000       0.155877         4.2416
  37   0.0000       0.165976         4.5164

MULLIKEN ATOMIC CHARGES
-----------------------
   0 C :   -0.274862
   1 C :   -0.518380
   2 C :   -0.145470
   3 F :   -0.151989
   4 H :    0.141943
   5 H :    0.142577
   6 H :    0.188123
   7 C :   -0.286179
   8 H :    0.132371
   9 H :    0.138358
  10 C :   -0.319028
  11 H :    0.148051
  12 H :    0.136663
  13 H :    0.148792
  14 H :    0.150940
  15 C :   -0.293546
  16 H :    0.153321
  17 C :   -0.278254
  18 H :    0.164921
  19 H :    0.166115
  20 H :    0.152041
  21 H :    0.149576
  22 H :    0.153917
Sum of atomic charges:   -0.0000000

LOEWDIN ATOMIC CHARGES
----------------------
   0 C :   -0.325388
   1 C :   -0.341937
   2 C :   -0.369885
   3 F :    0.182471
   4 H :    0.110615
   5 H :    0.111252
   6 H :    0.069453
   7 C :   -0.289851
   8 H :    0.138774
   9 H :    0.138913
  10 C :   -0.281132
  11 H :    0.144684
  12 H :    0.142776
  13 H :    0.142197
  14 H :    0.143907
  15 C :   -0.282426
  16 H :    0.144097
  17 C :   -0.293178
  18 H :    0.149858
  19 H :    0.135406
  20 H :    0.133692
  21 H :    0.144951
  22 H :    0.150752

  Mayer bond orders larger than 0.100000
B(  0-C ,  1-C ) :   0.8694 B(  0-C ,  7-C ) :   0.9423 B(  0-C ,  8-H ) :   0.9875
B(  0-C ,  9-H ) :   0.9903 B(  1-C ,  4-H ) :   0.9831 B(  1-C ,  5-H ) :   0.9957
B(  1-C ,  6-H ) :   0.9493 B(  2-C ,  3-F ) :   0.9582 B(  2-C , 17-C ) :   0.9566
B(  2-C , 19-H ) :   0.9869 B(  2-C , 20-H ) :   0.9768 B(  7-C , 10-C ) :   0.9346
B(  7-C , 11-H ) :   0.9841 B(  7-C , 12-H ) :   0.9820 B( 10-C , 13-H ) :   0.9763
B( 10-C , 14-H ) :   0.9853 B( 10-C , 15-C ) :   0.8873 B( 15-C , 16-H ) :   0.9739
B( 15-C , 17-C ) :   0.9407 B( 15-C , 18-H ) :   0.9831 B( 17-C , 21-H ) :   0.9760
B( 17-C , 22-H ) :   0.9595

FINAL SINGLE POINT ENERGY      -374.508333415954

DIPOLE MOMENT
-------------
                                X             Y             Z
Electronic contribution:      5.11956      -2.24523       2.80791
Nuclear contribution   :     -5.08831       2.68947      -1.99048
                        -----------------------------------------
Total Dipole Moment    :      0.03126       0.44425       0.81744
                        -----------------------------------------
Magnitude (a.u.)       :      0.93088
Magnitude (Debye)      :      2.36611

Rotational constants in cm-1:     0.084646     0.055672     0.038419
Rotational constants in MHz :  2537.625105  1668.992890  1151.781380

                             ****ORCA TERMINATED NORMALLY****
TOTAL RUN TIME: 0 days 0 hours 0 minutes 32 seconds 126 msec
