                         Program Version 5.0.0 -  RELEASE  -
|  1> !wB97X-D3 RIJCOSX def2-SVPD def2/J TightSCF CPCM(Water)
|  2> *xyz -1 1
|  3> C         -1.10433        0.25137       -2.86006
|  4> C         -0.71189        0.84252       -4.21834
|  5> H          0.15463        1.49980       -4.13091
|  6> H         -1.53813        1.45922       -4.58267
|  7> C         -0.39762       -0.20587       -5.28802
|  8> O          0.61717       -0.00535       -5.99827
|  9> O         -1.13317       -1.22138       -5.34147
| 10> C         -0.19626       -0.86337       -2.32576
| 11> H         -1.14384        1.06671       -2.12968
| 12> H         -2.11440       -0.15683       -2.93032
| 13> H         -0.15538       -1.66172       -3.03700
| 14> H         -0.58845       -1.22999       -1.40020
| 15> H          0.78852       -0.47602       -2.16737
| 16> *
| 17>
| 18> %MaxCore 64000
| 19>
| 20> %pal nprocs 18
| 21> end
| 22>
| 23> %scf
| 24>   MaxIter 150
| 25> end
| 26>
| 27>
| 28>                          ****END OF INPUT****

CARTESIAN COORDINATES (ANGSTROEM)
---------------------------------
  C     -1.104330    0.251370   -2.860060
  C     -0.711890    0.842520   -4.218340
  H      0.154630    1.499800   -4.130910
  H     -1.538130    1.459220   -4.582670
  C     -0.397620   -0.205870   -5.288020
  O      0.617170   -0.005350   -5.998270
  O     -1.133170   -1.221380   -5.341470
  C     -0.196260   -0.863370   -2.325760
  H     -1.143840    1.066710   -2.129680
  H     -2.114400   -0.156830   -2.930320
  H     -0.155380   -1.661720   -3.037000
  H     -0.588450   -1.229990   -1.400200
  H      0.788520   -0.476020   -2.167370

 Total Charge           Charge          ....   -1
 Multiplicity           Mult            ....    1
 Number of Electrons    NEL             ....   48
 Basis Dimension        Dim             ....  182

ORBITAL ENERGIES
----------------

  NO   OCC          E(Eh)            E(eV)
   0   2.0000     -19.177348      -521.8422
   1   2.0000     -19.176221      -521.8115
   2   2.0000     -10.365331      -282.0550
   3   2.0000     -10.275149      -279.6010
   4   2.0000     -10.268241      -279.4130
   5   2.0000     -10.260025      -279.1895
   6   2.0000      -1.123696       -30.5773
   7   2.0000      -1.028317       -27.9819
   8   2.0000      -0.884756       -24.0754
   9   2.0000      -0.794112       -21.6089
  10   2.0000      -0.691472       -18.8159
  11   2.0000      -0.585398       -15.9295
  12   2.0000      -0.551237       -14.9999
  13   2.0000      -0.547893       -14.9089
  14   2.0000      -0.517226       -14.0744
  15   2.0000      -0.506212       -13.7747
  16   2.0000      -0.484269       -13.1776
  17   2.0000      -0.463102       -12.6017
  18   2.0000      -0.433870       -11.8062
  19   2.0000      -0.420788       -11.4502
  20   2.0000      -0.409328       -11.1384
  21   2.0000      -0.342527        -9.3206
  22   2.0000      -0.327735        -8.9181
  23   2.0000      -0.322852        -8.7853
  24   0.0000       0.095055         2.5866
  25   0.0000       0.117399         3.1946
  26   0.0000       0.122815         3.3420
  27   0.0000       0.134709         3.6656
  28   0.0000       0.148158         4.0316

MULLIKEN ATOMIC CHARGES
-----------------------
   0 C :   -0.401769
   1 C :    0.111875
   2 H :    0.007964
   3 H :    0.013565
   4 C :    0.381801
   5 O :   -0.715896
   6 O :   -0.763719
   7 C :    0.619821
   8 H :   -0.125525
   9 H :   -0.005550
  10 H :   -0.098852
  11 H :   -0.016659
  12 H :   -0.007056
Sum of atomic charges:   -1.0000000

LOEWDIN ATOMIC CHARGES
----------------------
   0 C :   -0.078751
   1 C :    0.003569
   2 H :    0.012174
   3 H :    0.027745
   4 C :   -0.321861
   5 O :   -0.365857
   6 O :   -0.352873
   7 C :    0.117792
   8 H :    0.017087
   9 H :    0.012998
  10 H :   -0.037324
  11 H :   -0.018594
  12 H :   -0.016107

  Mayer bond orders larger than 0.100000
B(  0-C ,  1-C ) :   1.2009 B(  0-C ,  2-H ) :   0.1284 B(  0-C ,  3-H ) :   0.1212
B(  0-C ,  7-C ) :   1.3201 B(  0-C ,  8-H ) :   0.9758 B(  0-C ,  9-H ) :   0.8985
B(  0-C , 10-H ) :   0.1958 B(  0-C , 11-H ) :   0.2010 B(  0-C , 12-H ) :   0.1838
B(  1-C ,  2-H ) :   0.8738 B(  1-C ,  3-H ) :   0.8337 B(  1-C ,  4-C ) :   1.0591
B(  1-C ,  8-H ) :   0.1052 B(  1-C ,  9-H ) :   0.1078 B(  2-H ,  4-C ) :   0.1822
B(  4-C ,  5-O ) :   1.4305 B(  4-C ,  6-O ) :   1.4918 B(  5-O ,  6-O ) :   0.1475
B(  7-C , 10-H ) :   0.8623 B(  7-C , 11-H ) :   0.7677 B(  7-C , 12-H ) :   0.8034

Dispersion correction           -0.003359286
FINAL SINGLE POINT ENERGY      -306.969814365586

DIPOLE MOMENT
-------------
                                X             Y             Z
Electronic contribution:      0.49421      -0.60486      -6.35935
Nuclear contribution   :     -1.15173       1.87787       9.37659
                        -----------------------------------------
Total Dipole Moment    :     -0.65753       1.27301       3.01724
                        -----------------------------------------
Magnitude (a.u.)       :      3.34016
Magnitude (Debye)      :      8.49000

Rotational constants in cm-1:     0.203160     0.081703     0.075834
Rotational constants in MHz :  6090.598467  2449.397428  2273.436534

                             ****ORCA TERMINATED NORMALLY****
TOTAL RUN TIME: 0 days 0 hours 0 minutes 10 seconds 757 msec
