                         Program Version 5.0.0 -  RELEASE  -
|  1> !wB97X-D3 RIJCOSX def2-SVPD def2/J TightSCF CPCM(Water)
|  2> *xyz 1 1
|  3> C          2.23447       -2.98975       -2.39762
|  4> N          2.75680       -2.94555       -3.76503
|  5> C          1.98721       -2.59045       -4.81898
|  6> N          0.74322       -3.01749       -4.91352
|  7> N          2.49964       -1.84860       -5.80324
|  8> H          3.30978       -1.29282       -5.55895
|  9> H          1.80103       -1.30430       -6.28913
| 10> H          3.71612       -2.62880       -3.82953
| 11> H          0.39583       -3.62775       -4.18502
| 12> H          0.03920       -2.45438       -5.37137
| 13> C          2.19120       -1.61950       -1.71549
| 14> H          2.87278       -3.66637       -1.82801
| 15> H          1.24619       -3.44744       -2.40784
| 16> C          1.29873       -0.55431       -2.35977
| 17> H          1.87292       -1.78796       -0.68131
| 18> H          3.21681       -1.23843       -1.65443
| 19> H          1.61097       -0.39090       -3.37007
| 20> H          1.37981        0.35955       -1.80916
| 21> H          0.28197       -0.88750       -2.35015
| 22> *
| 23>
| 24> %MaxCore 64000
| 25>
| 26> %pal nprocs 18
| 27> end
| 28>
| 29> %scf
| 30>   MaxIter 150
| 31> end
| 32>
| 33>
| 34>                          ****END OF INPUT****

CARTESIAN COORDINATES (ANGSTROEM)
---------------------------------
  C      2.234470   -2.989750   -2.397620
  N      2.756800   -2.945550   -3.765030
  C      1.987210   -2.590450   -4.818980
  N      0.743220   -3.017490   -4.913520
  N      2.499640   -1.848600   -5.803240
  H      3.309780   -1.292820   -5.558950
  H      1.801030   -1.304300   -6.289130
  H      3.716120   -2.628800   -3.829530
  H      0.395830   -3.627750   -4.185020
  H      0.039200   -2.454380   -5.371370
  C      2.191200   -1.619500   -1.715490
  H      2.872780   -3.666370   -1.828010
  H      1.246190   -3.447440   -2.407840
  C      1.298730   -0.554310   -2.359770
  H      1.872920   -1.787960   -0.681310
  H      3.216810   -1.238430   -1.654430
  H      1.610970   -0.390900   -3.370070
  H      1.379810    0.359550   -1.809160
  H      0.281970   -0.887500   -2.350150

 Total Charge           Charge          ....    1
 Multiplicity           Mult            ....    1
 Number of Electrons    NEL             ....   56
 Basis Dimension        Dim             ....  236

ORBITAL ENERGIES
----------------

  NO   OCC          E(Eh)            E(eV)
   0   2.0000     -14.490627      -394.3100
   1   2.0000     -14.490500      -394.3065
   2   2.0000     -14.486222      -394.1901
   3   2.0000     -10.461339      -284.6675
   4   2.0000     -10.339089      -281.3409
   5   2.0000     -10.293083      -280.0890
   6   2.0000     -10.275302      -279.6052
   7   2.0000      -1.158341       -31.5201
   8   2.0000      -1.044714       -28.4281
   9   2.0000      -1.033244       -28.1160
  10   2.0000      -0.899293       -24.4710
  11   2.0000      -0.821777       -22.3617
  12   2.0000      -0.761925       -20.7330
  13   2.0000      -0.719939       -19.5905
  14   2.0000      -0.713099       -19.4044
  15   2.0000      -0.668917       -18.2022
  16   2.0000      -0.629232       -17.1223
  17   2.0000      -0.607127       -16.5208
  18   2.0000      -0.588967       -16.0266
  19   2.0000      -0.565375       -15.3846
  20   2.0000      -0.544421       -14.8144
  21   2.0000      -0.532165       -14.4810
  22   2.0000      -0.504095       -13.7171
  23   2.0000      -0.469993       -12.7891
  24   2.0000      -0.444968       -12.1082
  25   2.0000      -0.435340       -11.8462
  26   2.0000      -0.410237       -11.1631
  27   2.0000      -0.377006       -10.2589
  28   0.0000       0.056342         1.5331
  29   0.0000       0.087496         2.3809
  30   0.0000       0.114473         3.1150
  31   0.0000       0.117028         3.1845
  32   0.0000       0.122976         3.3464

MULLIKEN ATOMIC CHARGES
-----------------------
   0 C :    0.682182
   1 N :   -0.517005
   2 C :    0.963981
   3 N :   -0.048329
   4 N :   -0.147965
   5 H :    0.072735
   6 H :    0.107008
   7 H :   -0.073203
   8 H :    0.078767
   9 H :    0.037857
  10 C :   -0.439484
  11 H :   -0.201730
  12 H :   -0.025291
  13 C :    0.680587
  14 H :   -0.001904
  15 H :   -0.006269
  16 H :   -0.147399
  17 H :   -0.047287
  18 H :    0.032747
Sum of atomic charges:    1.0000000

LOEWDIN ATOMIC CHARGES
----------------------
   0 C :    0.073020
   1 N :    0.052946
   2 C :   -0.056333
   3 N :    0.285482
   4 N :    0.267542
   5 H :    0.043250
   6 H :    0.043701
   7 H :    0.060804
   8 H :    0.031463
   9 H :    0.059252
  10 C :   -0.053136
  11 H :    0.035792
  12 H :    0.023392
  13 C :    0.130106
  14 H :    0.029993
  15 H :    0.027112
  16 H :   -0.030853
  17 H :   -0.012129
  18 H :   -0.011404

  Mayer bond orders larger than 0.100000
B(  0-C ,  1-N ) :   0.8650 B(  0-C , 10-C ) :   1.1342 B(  0-C , 11-H ) :   0.9041
B(  0-C , 12-H ) :   0.8131 B(  0-C , 14-H ) :   0.1359 B(  0-C , 15-H ) :   0.1155
B(  1-N ,  2-C ) :   1.0556 B(  1-N ,  4-N ) :   0.1566 B(  1-N ,  7-H ) :   1.1862
B(  1-N , 11-H ) :   0.1806 B(  1-N , 12-H ) :   0.1190 B(  2-C ,  3-N ) :   1.0296
B(  2-C ,  4-N ) :   0.9828 B(  2-C ,  7-H ) :  -0.1366 B(  3-N ,  4-N ) :   0.1375
B(  3-N ,  8-H ) :   0.9342 B(  3-N ,  9-H ) :   1.1553 B(  4-N ,  5-H ) :   0.9663
B(  4-N ,  6-H ) :   0.9539 B(  8-H ,  9-H ) :  -0.1471 B( 10-C , 12-H ) :   0.1288
B( 10-C , 13-C ) :   1.2732 B( 10-C , 14-H ) :   0.9386 B( 10-C , 15-H ) :   0.9515
B( 10-C , 16-H ) :   0.2172 B( 10-C , 17-H ) :   0.1992 B( 10-C , 18-H ) :   0.2137
B( 13-C , 16-H ) :   0.8404 B( 13-C , 17-H ) :   0.7986 B( 13-C , 18-H ) :   0.7551
B( 16-H , 18-H ) :   0.1263

Dispersion correction           -0.006059597
FINAL SINGLE POINT ENERGY      -323.505545398724

DIPOLE MOMENT
-------------
                                X             Y             Z
Electronic contribution:      1.18278      -3.50818      -5.86708
Nuclear contribution   :     -1.48325       3.81474       4.74728
                        -----------------------------------------
Total Dipole Moment    :     -0.30046       0.30656      -1.11980
                        -----------------------------------------
Magnitude (a.u.)       :      1.19925
Magnitude (Debye)      :      3.04826

Rotational constants in cm-1:     0.127669     0.058023     0.053953
Rotational constants in MHz :  3827.411023  1739.493733  1617.466565

                             ****ORCA TERMINATED NORMALLY****
TOTAL RUN TIME: 0 days 0 hours 0 minutes 18 seconds 446 msec
