                         Program Version 5.0.0 -  RELEASE  -
|  1> !wB97X-D3 RIJCOSX def2-SVPD def2/J TightSCF CPCM(Water) xyzfile
|  2>
|  3> *xyzfile 0 1 B.xyz
|  4>
|  5> %MaxCore 64000
|  6>
|  7> %pal nprocs 18
|  8> end
|  9>
| 10> %scf
| 11>   MaxIter 150
| 12> end
| 13>
| 14>
| 15>                          ****END OF INPUT****

CARTESIAN COORDINATES (ANGSTROEM)
---------------------------------
  C      2.234473   -2.989754   -2.397622
  N      2.756799   -2.945553   -3.765029
  C     -1.104325    0.251374   -2.860056
  C     -0.711893    0.842517   -4.218344
  H      0.154626    1.499800   -4.130909
  H     -1.538134    1.459222   -4.582671
  C     -0.397624   -0.205875   -5.288018
  C      1.987208   -2.590451   -4.818975
  N      0.743221   -3.017493   -4.913524
  N      2.499636   -1.848598   -5.803241
  H      3.309780   -1.292818   -5.558947
  H      1.801025   -1.304298   -6.289129
  H      3.716116   -2.628797   -3.829533
  H      0.395828   -3.627747   -4.185024
  H      0.039201   -2.454383   -5.371367
  O      0.617165   -0.005348   -5.998273
  O     -1.133173   -1.221380   -5.341465
  C      2.191199   -1.619503   -1.715492
  H      2.872783   -3.666368   -1.828014
  H      1.246188   -3.447444   -2.407842
  C      1.298729   -0.554314   -2.359773
  H      1.872917   -1.787955   -0.681310
  H      3.216809   -1.238432   -1.654428
  C     -0.196255   -0.863365   -2.325763
  H      1.612531   -0.371346   -3.393065
  H      1.480944    0.388638   -1.834444
  H     -0.404105   -1.761825   -2.909448
  H     -0.490439   -1.087880   -1.294131
  H     -1.143842    1.066711   -2.129680
  H     -2.114401   -0.156834   -2.930323

 Total Charge           Charge          ....    0
 Multiplicity           Mult            ....    1
 Number of Electrons    NEL             ....  102
 Basis Dimension        Dim             ....  402

ORBITAL ENERGIES
----------------

  NO   OCC          E(Eh)            E(eV)
   0   2.0000     -19.196576      -522.3654
   1   2.0000     -19.195832      -522.3452
   2   2.0000     -14.477904      -393.9638
   3   2.0000     -14.461310      -393.5122
   4   2.0000     -14.458575      -393.4378
   5   2.0000     -10.441879      -284.1380
   6   2.0000     -10.383389      -282.5464
   7   2.0000     -10.332986      -281.1748
   8   2.0000     -10.288396      -279.9615
   9   2.0000     -10.281743      -279.7805
  10   2.0000     -10.278950      -279.7045
  11   2.0000     -10.275475      -279.6099
  12   2.0000     -10.275422      -279.6084
  13   2.0000      -1.151021       -31.3209
  14   2.0000      -1.137069       -30.9412
  15   2.0000      -1.053292       -28.6615
  16   2.0000      -1.029810       -28.0226
  17   2.0000      -1.010531       -27.4979
  18   2.0000      -0.917496       -24.9663
  19   2.0000      -0.880770       -23.9670
  20   2.0000      -0.826115       -22.4797
  21   2.0000      -0.783538       -21.3212
  22   2.0000      -0.742553       -20.2059
  23   2.0000      -0.715747       -19.4765
  24   2.0000      -0.698537       -19.0081
  25   2.0000      -0.679282       -18.4842
  26   2.0000      -0.649206       -17.6658
  27   2.0000      -0.624234       -16.9863
  28   2.0000      -0.604686       -16.4543
  29   2.0000      -0.588512       -16.0142
  30   2.0000      -0.574577       -15.6350
  31   2.0000      -0.571265       -15.5449
  32   2.0000      -0.557362       -15.1666
  33   2.0000      -0.551822       -15.0158
  34   2.0000      -0.533817       -14.5259
  35   2.0000      -0.526121       -14.3165
  36   2.0000      -0.519366       -14.1327
  37   2.0000      -0.511591       -13.9211
  38   2.0000      -0.491646       -13.3784
  39   2.0000      -0.481140       -13.0925
  40   2.0000      -0.463299       -12.6070
  41   2.0000      -0.448245       -12.1974
  42   2.0000      -0.440568       -11.9885
  43   2.0000      -0.419622       -11.4185
  44   2.0000      -0.411430       -11.1956
  45   2.0000      -0.400811       -10.9066
  46   2.0000      -0.391937       -10.6651
  47   2.0000      -0.364853        -9.9281
  48   2.0000      -0.355538        -9.6747
  49   2.0000      -0.345571        -9.4035
  50   2.0000      -0.343239        -9.3400
  51   0.0000       0.072058         1.9608
  52   0.0000       0.090902         2.4736
  53   0.0000       0.101128         2.7518
  54   0.0000       0.106930         2.9097
  55   0.0000       0.112907         3.0724

MULLIKEN ATOMIC CHARGES
-----------------------
   0 C :    0.762769
   1 N :   -0.594761
   2 C :    0.491183
   3 C :    0.175108
   4 H :    0.170122
   5 H :   -0.211098
   6 C :    0.315142
   7 C :    1.030531
   8 N :    0.174282
   9 N :   -0.044705
  10 H :    0.145520
  11 H :   -0.149172
  12 H :   -0.056223
  13 H :    0.129880
  14 H :   -0.328526
  15 O :   -0.648815
  16 O :   -0.782542
  17 C :    0.285272
  18 H :   -0.276270
  19 H :    0.055087
  20 C :   -0.106934
  21 H :    0.080719
  22 H :   -0.029691
  23 C :   -0.054745
  24 H :   -0.124293
  25 H :   -0.134372
  26 H :   -0.142248
  27 H :   -0.124833
  28 H :   -0.077430
  29 H :    0.071044
Sum of atomic charges:    0.0000000

LOEWDIN ATOMIC CHARGES
----------------------
   0 C :    0.077024
   1 N :    0.046776
   2 C :   -0.024687
   3 C :    0.026296
   4 H :    0.016823
   5 H :    0.032090
   6 C :   -0.225708
   7 C :   -0.046969
   8 N :    0.300328
   9 N :    0.266860
  10 H :    0.040595
  11 H :   -0.076455
  12 H :    0.055374
  13 H :    0.030275
  14 H :   -0.085795
  15 O :   -0.290096
  16 O :   -0.288316
  17 C :   -0.009377
  18 H :    0.033536
  19 H :    0.016693
  20 C :   -0.023677
  21 H :    0.031767
  22 H :    0.028474
  23 C :   -0.028005
  24 H :    0.003438
  25 H :    0.031724
  26 H :   -0.010270
  27 H :    0.028421
  28 H :    0.023161
  29 H :    0.019703

  Mayer bond orders larger than 0.100000
B(  0-C ,  1-N ) :   0.8475 B(  0-C , 17-C ) :   1.1227 B(  0-C , 18-H ) :   0.8471
B(  0-C , 19-H ) :   0.8057 B(  0-C , 21-H ) :   0.1329 B(  0-C , 22-H ) :   0.1241
B(  1-N ,  7-C ) :   0.9353 B(  1-N ,  8-N ) :   0.1051 B(  1-N ,  9-N ) :   0.1748
B(  1-N , 12-H ) :   1.2007 B(  1-N , 18-H ) :   0.2054 B(  1-N , 19-H ) :   0.1087
B(  2-C ,  3-C ) :   1.1853 B(  2-C ,  5-H ) :   0.1531 B(  2-C , 23-C ) :   1.2361
B(  2-C , 28-H ) :   0.8063 B(  2-C , 29-H ) :   0.6485 B(  3-C ,  4-H ) :   0.7900
B(  3-C ,  5-H ) :   0.8204 B(  3-C ,  6-C ) :   1.1486 B(  3-C , 28-H ) :   0.1437
B(  3-C , 29-H ) :   0.1151 B(  4-H ,  6-C ) :   0.2477 B(  5-H ,  6-C ) :   0.1663
B(  6-C , 15-O ) :   1.4026 B(  6-C , 16-O ) :   1.3576 B(  7-C ,  8-N ) :   0.9691
B(  7-C ,  9-N ) :   0.8922 B(  7-C , 12-H ) :  -0.1578 B(  7-C , 14-H ) :  -0.1108
B(  8-N ,  9-N ) :   0.1222 B(  8-N , 13-H ) :   0.8573 B(  8-N , 14-H ) :   1.1980
B(  9-N , 10-H ) :   0.9083 B(  9-N , 11-H ) :   0.9786 B( 11-H , 15-O ) :   0.1226
B( 13-H , 14-H ) :  -0.2202 B( 14-H , 16-O ) :   0.1997 B( 15-O , 16-O ) :   0.1104
B( 17-C , 18-H ) :   0.1015 B( 17-C , 19-H ) :   0.1108 B( 17-C , 20-C ) :   1.2152
B( 17-C , 21-H ) :   0.8069 B( 17-C , 22-H ) :   0.7566 B( 18-H , 19-H ) :  -0.1132
B( 20-C , 21-H ) :   0.1576 B( 20-C , 22-H ) :   0.2313 B( 20-C , 23-C ) :   1.2877
B( 20-C , 24-H ) :   0.9567 B( 20-C , 25-H ) :   0.8691 B( 20-C , 26-H ) :   0.1426
B( 20-C , 27-H ) :   0.2208 B( 23-C , 24-H ) :   0.1283 B( 23-C , 25-H ) :   0.1958
B( 23-C , 26-H ) :   0.9265 B( 23-C , 27-H ) :   0.7987 B( 23-C , 28-H ) :   0.1636
B( 23-C , 29-H ) :   0.2440 B( 28-H , 29-H ) :  -0.1093

Dispersion correction           -0.016101868
FINAL SINGLE POINT ENERGY      -629.299321969280

DIPOLE MOMENT
-------------
                                X             Y             Z
Electronic contribution:      1.33077      -3.16131      -9.44127
Nuclear contribution   :      1.76912       1.50070      12.36652
                        -----------------------------------------
Total Dipole Moment    :      3.09988      -1.66062       2.92525
                        -----------------------------------------
Magnitude (a.u.)       :      4.57428
Magnitude (Debye)      :     11.62689

Rotational constants in cm-1:     0.033272     0.023886     0.017112
Rotational constants in MHz :   997.469575   716.074432   513.001395

                             ****ORCA TERMINATED NORMALLY****
TOTAL RUN TIME: 0 days 0 hours 0 minutes 57 seconds 364 msec
