                         Program Version 5.0.0 -  RELEASE  -
|  1> !wB97X-D3 RIJCOSX def2-SVPD def2/J TightSCF CPCM(Water)
|  2> *xyz 0 1
|  3> C         -1.10433        0.25137       -2.86006
|  4> C         -0.71189        0.84252       -4.21834
|  5> H          0.15463        1.49980       -4.13091
|  6> H         -1.53813        1.45922       -4.58267
|  7> C         -0.39762       -0.20587       -5.28802
|  8> F          0.61717       -0.00535       -5.99827
|  9> O         -1.13317       -1.22138       -5.34147
| 10> C         -0.19626       -0.86337       -2.32576
| 11> H         -1.14384        1.06671       -2.12968
| 12> H         -2.11440       -0.15683       -2.93032
| 13> H         -0.15538       -1.66172       -3.03700
| 14> H         -0.58845       -1.22999       -1.40020
| 15> H          0.78852       -0.47602       -2.16737
| 16> *
| 17>
| 18> %MaxCore 64000
| 19>
| 20> %pal nprocs 18
| 21> end
| 22>
| 23> %scf
| 24>   MaxIter 150
| 25> end
| 26>
| 27>
| 28>                          ****END OF INPUT****

CARTESIAN COORDINATES (ANGSTROEM)
---------------------------------
  C     -1.104330    0.251370   -2.860060
  C     -0.711890    0.842520   -4.218340
  H      0.154630    1.499800   -4.130910
  H     -1.538130    1.459220   -4.582670
  C     -0.397620   -0.205870   -5.288020
  F      0.617170   -0.005350   -5.998270
  O     -1.133170   -1.221380   -5.341470
  C     -0.196260   -0.863370   -2.325760
  H     -1.143840    1.066710   -2.129680
  H     -2.114400   -0.156830   -2.930320
  H     -0.155380   -1.661720   -3.037000
  H     -0.588450   -1.229990   -1.400200
  H      0.788520   -0.476020   -2.167370

 Total Charge           Charge          ....    0
 Multiplicity           Mult            ....    1
 Number of Electrons    NEL             ....   48
 Basis Dimension        Dim             ....  182

ORBITAL ENERGIES
----------------

  NO   OCC          E(Eh)            E(eV)
   0   2.0000     -24.876718      -676.9299
   1   2.0000     -19.263003      -524.1730
   2   2.0000     -10.480774      -285.1964
   3   2.0000     -10.309959      -280.5482
   4   2.0000     -10.293212      -280.0925
   5   2.0000     -10.269869      -279.4573
   6   2.0000      -1.426579       -38.8192
   7   2.0000      -1.151333       -31.3294
   8   2.0000      -0.913679       -24.8625
   9   2.0000      -0.832256       -22.6468
  10   2.0000      -0.770097       -20.9554
  11   2.0000      -0.711004       -19.3474
  12   2.0000      -0.658490       -17.9184
  13   2.0000      -0.636435       -17.3183
  14   2.0000      -0.616122       -16.7655
  15   2.0000      -0.561386       -15.2761
  16   2.0000      -0.551139       -14.9972
  17   2.0000      -0.506972       -13.7954
  18   2.0000      -0.503123       -13.6907
  19   2.0000      -0.466190       -12.6857
  20   2.0000      -0.444330       -12.0908
  21   2.0000      -0.440689       -11.9918
  22   2.0000      -0.427629       -11.6364
  23   2.0000      -0.400328       -10.8935
  24   0.0000       0.049255         1.3403
  25   0.0000       0.090624         2.4660
  26   0.0000       0.118824         3.2334
  27   0.0000       0.126286         3.4364
  28   0.0000       0.134799         3.6681

MULLIKEN ATOMIC CHARGES
-----------------------
   0 C :   -0.420449
   1 C :   -0.061155
   2 H :    0.108250
   3 H :    0.107730
   4 C :    0.778687
   5 F :   -0.374827
   6 O :   -0.585036
   7 C :    0.588576
   8 H :   -0.085461
   9 H :    0.023476
  10 H :   -0.087137
  11 H :   -0.000849
  12 H :    0.008194
Sum of atomic charges:    0.0000000

LOEWDIN ATOMIC CHARGES
----------------------
   0 C :   -0.060045
   1 C :    0.048900
   2 H :    0.035353
   3 H :    0.051457
   4 C :    0.007333
   5 F :   -0.031168
   6 O :   -0.177515
   7 C :    0.127070
   8 H :    0.029663
   9 H :    0.023693
  10 H :   -0.031407
  11 H :   -0.012175
  12 H :   -0.011160

  Mayer bond orders larger than 0.100000
B(  0-C ,  1-C ) :   1.2277 B(  0-C ,  2-H ) :   0.1245 B(  0-C ,  3-H ) :   0.1241
B(  0-C ,  7-C ) :   1.3367 B(  0-C ,  8-H ) :   0.9782 B(  0-C ,  9-H ) :   0.9081
B(  0-C , 10-H ) :   0.1834 B(  0-C , 11-H ) :   0.1950 B(  0-C , 12-H ) :   0.1778
B(  1-C ,  2-H ) :   0.8779 B(  1-C ,  3-H ) :   0.8359 B(  1-C ,  4-C ) :   1.1191
B(  1-C ,  8-H ) :   0.1014 B(  1-C ,  9-H ) :   0.1027 B(  2-H ,  4-C ) :   0.1039
B(  4-C ,  5-F ) :   0.7209 B(  4-C ,  6-O ) :   1.7859 B(  7-C , 10-H ) :   0.8662
B(  7-C , 11-H ) :   0.7737 B(  7-C , 12-H ) :   0.8142

Dispersion correction           -0.003283612
FINAL SINGLE POINT ENERGY      -331.401979543609

DIPOLE MOMENT
-------------
                                X             Y             Z
Electronic contribution:      2.73318      -0.30983     -10.56008
Nuclear contribution   :     -2.39146       1.63977      11.24418
                        -----------------------------------------
Total Dipole Moment    :      0.34173       1.32994       0.68409
                        -----------------------------------------
Magnitude (a.u.)       :      1.53411
Magnitude (Debye)      :      3.89940

Rotational constants in cm-1:     0.198868     0.077542     0.072498
Rotational constants in MHz :  5961.919605  2324.650173  2173.425242

                             ****ORCA TERMINATED NORMALLY****
TOTAL RUN TIME: 0 days 0 hours 0 minutes 10 seconds 803 msec
