                         Program Version 5.0.0 -  RELEASE  -
|  1> !wB97X-D3 RIJCOSX def2-SVPD def2/J TightSCF CPCM(Water)
|  2> *xyz 0 1
|  3> C          2.23447       -2.98975       -2.39762
|  4> C          2.75680       -2.94555       -3.76503
|  5> C          1.98721       -2.59045       -4.81898
|  6> N          0.74322       -3.01749       -4.91352
|  7> N          2.49964       -1.84860       -5.80324
|  8> H          3.30978       -1.29282       -5.55895
|  9> H          1.80103       -1.30430       -6.28913
| 10> H          3.71612       -2.62880       -3.82953
| 11> H          0.39583       -3.62775       -4.18502
| 12> H          0.03920       -2.45438       -5.37137
| 13> C          2.19120       -1.61950       -1.71549
| 14> H          2.87278       -3.66637       -1.82801
| 15> H          1.24619       -3.44744       -2.40784
| 16> C          1.29873       -0.55431       -2.35977
| 17> H          1.87292       -1.78796       -0.68131
| 18> H          3.21681       -1.23843       -1.65443
| 19> H          1.61097       -0.39090       -3.37007
| 20> H          1.37981        0.35955       -1.80916
| 21> H          0.28197       -0.88750       -2.35015
| 22> *
| 23>
| 24> %MaxCore 64000
| 25>
| 26> %pal nprocs 18
| 27> end
| 28>
| 29> %scf
| 30>   MaxIter 150
| 31> end
| 32>
| 33>
| 34>                          ****END OF INPUT****

CARTESIAN COORDINATES (ANGSTROEM)
---------------------------------
  C      2.234470   -2.989750   -2.397620
  C      2.756800   -2.945550   -3.765030
  C      1.987210   -2.590450   -4.818980
  N      0.743220   -3.017490   -4.913520
  N      2.499640   -1.848600   -5.803240
  H      3.309780   -1.292820   -5.558950
  H      1.801030   -1.304300   -6.289130
  H      3.716120   -2.628800   -3.829530
  H      0.395830   -3.627750   -4.185020
  H      0.039200   -2.454380   -5.371370
  C      2.191200   -1.619500   -1.715490
  H      2.872780   -3.666370   -1.828010
  H      1.246190   -3.447440   -2.407840
  C      1.298730   -0.554310   -2.359770
  H      1.872920   -1.787960   -0.681310
  H      3.216810   -1.238430   -1.654430
  H      1.610970   -0.390900   -3.370070
  H      1.379810    0.359550   -1.809160
  H      0.281970   -0.887500   -2.350150

 Total Charge           Charge          ....    0
 Multiplicity           Mult            ....    1
 Number of Electrons    NEL             ....   56
 Basis Dimension        Dim             ....  236

ORBITAL ENERGIES
----------------

  NO   OCC          E(Eh)            E(eV)
   0   2.0000     -14.436405      -392.8345
   1   2.0000     -14.434021      -392.7697
   2   2.0000     -10.343581      -281.4631
   3   2.0000     -10.271722      -279.5078
   4   2.0000     -10.268077      -279.4086
   5   2.0000     -10.262580      -279.2590
   6   2.0000     -10.215893      -277.9886
   7   2.0000      -1.077953       -29.3326
   8   2.0000      -0.980699       -26.6862
   9   2.0000      -0.898911       -24.4606
  10   2.0000      -0.831243       -22.6193
  11   2.0000      -0.767378       -20.8814
  12   2.0000      -0.701893       -19.0995
  13   2.0000      -0.671028       -18.2596
  14   2.0000      -0.640273       -17.4227
  15   2.0000      -0.606887       -16.5142
  16   2.0000      -0.562884       -15.3168
  17   2.0000      -0.551973       -15.0200
  18   2.0000      -0.540122       -14.6975
  19   2.0000      -0.511197       -13.9104
  20   2.0000      -0.487077       -13.2540
  21   2.0000      -0.473155       -12.8752
  22   2.0000      -0.448759       -12.2114
  23   2.0000      -0.434473       -11.8226
  24   2.0000      -0.410974       -11.1832
  25   2.0000      -0.406020       -11.0484
  26   2.0000      -0.368831       -10.0364
  27   2.0000      -0.252595        -6.8735
  28   0.0000       0.095203         2.5906
  29   0.0000       0.108403         2.9498
  30   0.0000       0.119662         3.2562
  31   0.0000       0.125541         3.4162
  32   0.0000       0.137655         3.7458

MULLIKEN ATOMIC CHARGES
-----------------------
   0 C :    0.132971
   1 C :   -0.093876
   2 C :    0.174646
   3 N :   -0.043307
   4 N :   -0.116887
   5 H :    0.107170
   6 H :    0.093284
   7 H :   -0.163210
   8 H :    0.061300
   9 H :   -0.033914
  10 C :   -0.338988
  11 H :   -0.055396
  12 H :   -0.144783
  13 C :    0.756853
  14 H :   -0.080537
  15 H :   -0.054640
  16 H :   -0.140963
  17 H :   -0.078564
  18 H :    0.018843
Sum of atomic charges:   -0.0000000

LOEWDIN ATOMIC CHARGES
----------------------
   0 C :   -0.080214
   1 C :   -0.050950
   2 C :   -0.261160
   3 N :    0.204098
   4 N :    0.189266
   5 H :    0.013612
   6 H :    0.007779
   7 H :   -0.063657
   8 H :    0.005474
   9 H :    0.020323
  10 C :   -0.075379
  11 H :    0.006904
  12 H :    0.000002
  13 C :    0.122545
  14 H :    0.014007
  15 H :    0.018734
  16 H :   -0.034062
  17 H :   -0.020061
  18 H :   -0.017259

  Mayer bond orders larger than 0.100000
B(  0-C ,  1-C ) :   1.2394 B(  0-C ,  2-C ) :   0.1367 B(  0-C ,  7-H ) :   0.3080
B(  0-C , 10-C ) :   1.1435 B(  0-C , 11-H ) :   0.8148 B(  0-C , 12-H ) :   0.8225
B(  0-C , 14-H ) :   0.1939 B(  0-C , 15-H ) :   0.1568 B(  1-C ,  2-C ) :   1.7768
B(  1-C ,  3-N ) :   0.1199 B(  1-C ,  4-N ) :   0.2467 B(  1-C ,  7-H ) :   0.6592
B(  1-C , 11-H ) :   0.1845 B(  1-C , 12-H ) :   0.1943 B(  2-C ,  3-N ) :   1.0679
B(  2-C ,  4-N ) :   0.9919 B(  2-C ,  6-H ) :   0.1298 B(  2-C ,  7-H ) :   0.2833
B(  3-N ,  4-N ) :   0.1121 B(  3-N ,  8-H ) :   0.9458 B(  3-N ,  9-H ) :   1.1416
B(  4-N ,  5-H ) :   0.8986 B(  4-N ,  6-H ) :   0.8198 B(  8-H ,  9-H ) :  -0.1327
B( 10-C , 12-H ) :   0.1166 B( 10-C , 13-C ) :   1.2856 B( 10-C , 14-H ) :   0.9091
B( 10-C , 15-H ) :   0.9307 B( 10-C , 16-H ) :   0.2306 B( 10-C , 17-H ) :   0.2165
B( 10-C , 18-H ) :   0.2083 B( 13-C , 16-H ) :   0.8257 B( 13-C , 17-H ) :   0.7693
B( 13-C , 18-H ) :   0.7508 B( 16-H , 18-H ) :   0.1294

Dispersion correction           -0.006035613
FINAL SINGLE POINT ENERGY      -306.954077582730

DIPOLE MOMENT
-------------
                                X             Y             Z
Electronic contribution:      0.19488      -2.41984      -5.11698
Nuclear contribution   :     -1.30515       3.65216       4.73330
                        -----------------------------------------
Total Dipole Moment    :     -1.11027       1.23232      -0.38368
                        -----------------------------------------
Magnitude (a.u.)       :      1.70251
Magnitude (Debye)      :      4.32743

Rotational constants in cm-1:     0.129987     0.058163     0.054282
Rotational constants in MHz :  3896.918182  1743.696851  1627.337267

                             ****ORCA TERMINATED NORMALLY****
TOTAL RUN TIME: 0 days 0 hours 0 minutes 20 seconds 524 msec
