                         Program Version 5.0.0 -  RELEASE  -
|  1> !wB97X-D3 RIJCOSX def2-SVPD def2/J TightSCF CPCM(Water)
|  2> *xyz 0 1
|  3> C         -1.10433        0.25137       -2.86006
|  4> C         -0.71189        0.84252       -4.21834
|  5> H          0.15463        1.49980       -4.13091
|  6> H         -1.53813        1.45922       -4.58267
|  7> C         -0.39762       -0.20587       -5.28802
|  8> O          0.61717       -0.00535       -5.99827
|  9> F         -1.13317       -1.22138       -5.34147
| 10> C         -0.19626       -0.86337       -2.32576
| 11> H         -1.14384        1.06671       -2.12968
| 12> H         -2.11440       -0.15683       -2.93032
| 13> H         -0.15538       -1.66172       -3.03700
| 14> H         -0.58845       -1.22999       -1.40020
| 15> H          0.78852       -0.47602       -2.16737
| 16> *
| 17>
| 18> %MaxCore 64000
| 19>
| 20> %pal nprocs 18
| 21> end
| 22>
| 23> %scf
| 24>   MaxIter 150
| 25> end
| 26>
| 27>
| 28>                          ****END OF INPUT****

CARTESIAN COORDINATES (ANGSTROEM)
---------------------------------
  C     -1.104330    0.251370   -2.860060
  C     -0.711890    0.842520   -4.218340
  H      0.154630    1.499800   -4.130910
  H     -1.538130    1.459220   -4.582670
  C     -0.397620   -0.205870   -5.288020
  O      0.617170   -0.005350   -5.998270
  F     -1.133170   -1.221380   -5.341470
  C     -0.196260   -0.863370   -2.325760
  H     -1.143840    1.066710   -2.129680
  H     -2.114400   -0.156830   -2.930320
  H     -0.155380   -1.661720   -3.037000
  H     -0.588450   -1.229990   -1.400200
  H      0.788520   -0.476020   -2.167370

 Total Charge           Charge          ....    0
 Multiplicity           Mult            ....    1
 Number of Electrons    NEL             ....   48
 Basis Dimension        Dim             ....  182

ORBITAL ENERGIES
----------------

  NO   OCC          E(Eh)            E(eV)
   0   2.0000     -24.878286      -676.9726
   1   2.0000     -19.263602      -524.1892
   2   2.0000     -10.481589      -285.2185
   3   2.0000     -10.309940      -280.5477
   4   2.0000     -10.293782      -280.1081
   5   2.0000     -10.272784      -279.5367
   6   2.0000      -1.427926       -38.8558
   7   2.0000      -1.151792       -31.3418
   8   2.0000      -0.917183       -24.9578
   9   2.0000      -0.830395       -22.5962
  10   2.0000      -0.770783       -20.9741
  11   2.0000      -0.713990       -19.4287
  12   2.0000      -0.661066       -17.9885
  13   2.0000      -0.649115       -17.6633
  14   2.0000      -0.602681       -16.3998
  15   2.0000      -0.563385       -15.3305
  16   2.0000      -0.545847       -14.8533
  17   2.0000      -0.516276       -14.0486
  18   2.0000      -0.497668       -13.5422
  19   2.0000      -0.475482       -12.9385
  20   2.0000      -0.453104       -12.3296
  21   2.0000      -0.440761       -11.9937
  22   2.0000      -0.428386       -11.6570
  23   2.0000      -0.395003       -10.7486
  24   0.0000       0.050519         1.3747
  25   0.0000       0.089652         2.4396
  26   0.0000       0.119326         3.2470
  27   0.0000       0.125605         3.4179
  28   0.0000       0.135149         3.6776

MULLIKEN ATOMIC CHARGES
-----------------------
   0 C :   -0.434091
   1 C :   -0.036258
   2 H :    0.071027
   3 H :    0.098888
   4 C :    0.798666
   5 O :   -0.538012
   6 F :   -0.422913
   7 C :    0.585559
   8 H :   -0.093059
   9 H :    0.031667
  10 H :   -0.073844
  11 H :   -0.002053
  12 H :    0.014424
Sum of atomic charges:    0.0000000

LOEWDIN ATOMIC CHARGES
----------------------
   0 C :   -0.064917
   1 C :    0.051087
   2 H :    0.039222
   3 H :    0.050696
   4 C :   -0.000506
   5 O :   -0.183105
   6 F :   -0.028062
   7 C :    0.127650
   8 H :    0.029357
   9 H :    0.025040
  10 H :   -0.025479
  11 H :   -0.011251
  12 H :   -0.009732

  Mayer bond orders larger than 0.100000
B(  0-C ,  1-C ) :   1.2046 B(  0-C ,  2-H ) :   0.1213 B(  0-C ,  3-H ) :   0.1124
B(  0-C ,  7-C ) :   1.3353 B(  0-C ,  8-H ) :   0.9843 B(  0-C ,  9-H ) :   0.9118
B(  0-C , 10-H ) :   0.1815 B(  0-C , 11-H ) :   0.1994 B(  0-C , 12-H ) :   0.1809
B(  1-C ,  2-H ) :   0.9169 B(  1-C ,  3-H ) :   0.8431 B(  1-C ,  4-C ) :   1.0714
B(  1-C ,  8-H ) :   0.1051 B(  2-H ,  4-C ) :   0.1238 B(  4-C ,  5-O ) :   1.7628
B(  4-C ,  6-F ) :   0.7021 B(  5-O ,  6-F ) :   0.1025 B(  7-C , 10-H ) :   0.8627
B(  7-C , 11-H ) :   0.7757 B(  7-C , 12-H ) :   0.8163

Dispersion correction           -0.003297995
FINAL SINGLE POINT ENERGY      -331.401645381360

DIPOLE MOMENT
-------------
                                X             Y             Z
Electronic contribution:     -0.62869      -2.62940      -9.26930
Nuclear contribution   :     -0.41432       3.01336      10.50227
                        -----------------------------------------
Total Dipole Moment    :     -1.04301       0.38397       1.23298
                        -----------------------------------------
Magnitude (a.u.)       :      1.65998
Magnitude (Debye)      :      4.21933

Rotational constants in cm-1:     0.192167     0.080512     0.073747
Rotational constants in MHz :  5761.018137  2413.690728  2210.882638

                             ****ORCA TERMINATED NORMALLY****
TOTAL RUN TIME: 0 days 0 hours 0 minutes 12 seconds 157 msec
