                         Program Version 5.0.0 -  RELEASE  -
|  1> !wB97X-D3 RIJCOSX def2-SVPD def2/J TightSCF CPCM(Water)
|  2> *xyz 0 1
|  3> C          2.23447       -2.98975       -2.39762
|  4> N          2.75680       -2.94555       -3.76503
|  5> C          1.98721       -2.59045       -4.81898
|  6> C          0.74322       -3.01749       -4.91352
|  7> N          2.49964       -1.84860       -5.80324
|  8> H          3.30978       -1.29282       -5.55895
|  9> H          1.80103       -1.30430       -6.28913
| 10> H          3.71612       -2.62880       -3.82953
| 11> H          0.39583       -3.62775       -4.18502
| 12> H          0.03920       -2.45438       -5.37137
| 13> C          2.19120       -1.61950       -1.71549
| 14> H          2.87278       -3.66637       -1.82801
| 15> H          1.24619       -3.44744       -2.40784
| 16> C          1.29873       -0.55431       -2.35977
| 17> H          1.87292       -1.78796       -0.68131
| 18> H          3.21681       -1.23843       -1.65443
| 19> H          1.61097       -0.39090       -3.37007
| 20> H          1.37981        0.35955       -1.80916
| 21> H          0.28197       -0.88750       -2.35015
| 22> *
| 23>
| 24> %MaxCore 64000
| 25>
| 26> %pal nprocs 18
| 27> end
| 28>
| 29> %scf
| 30>   MaxIter 150
| 31> end
| 32>
| 33>
| 34>                          ****END OF INPUT****

CARTESIAN COORDINATES (ANGSTROEM)
---------------------------------
  C      2.234470   -2.989750   -2.397620
  N      2.756800   -2.945550   -3.765030
  C      1.987210   -2.590450   -4.818980
  C      0.743220   -3.017490   -4.913520
  N      2.499640   -1.848600   -5.803240
  H      3.309780   -1.292820   -5.558950
  H      1.801030   -1.304300   -6.289130
  H      3.716120   -2.628800   -3.829530
  H      0.395830   -3.627750   -4.185020
  H      0.039200   -2.454380   -5.371370
  C      2.191200   -1.619500   -1.715490
  H      2.872780   -3.666370   -1.828010
  H      1.246190   -3.447440   -2.407840
  C      1.298730   -0.554310   -2.359770
  H      1.872920   -1.787960   -0.681310
  H      3.216810   -1.238430   -1.654430
  H      1.610970   -0.390900   -3.370070
  H      1.379810    0.359550   -1.809160
  H      0.281970   -0.887500   -2.350150

 Total Charge           Charge          ....    0
 Multiplicity           Mult            ....    1
 Number of Electrons    NEL             ....   56
 Basis Dimension        Dim             ....  236

ORBITAL ENERGIES
----------------

  NO   OCC          E(Eh)            E(eV)
   0   2.0000     -14.437325      -392.8596
   1   2.0000     -14.434376      -392.7793
   2   2.0000     -10.344637      -281.4919
   3   2.0000     -10.314523      -280.6724
   4   2.0000     -10.280859      -279.7564
   5   2.0000     -10.266686      -279.3707
   6   2.0000     -10.211935      -277.8809
   7   2.0000      -1.078119       -29.3371
   8   2.0000      -0.994086       -27.0504
   9   2.0000      -0.881632       -23.9904
  10   2.0000      -0.832435       -22.6517
  11   2.0000      -0.791802       -21.5460
  12   2.0000      -0.704673       -19.1751
  13   2.0000      -0.662111       -18.0170
  14   2.0000      -0.643527       -17.5113
  15   2.0000      -0.609157       -16.5760
  16   2.0000      -0.567779       -15.4501
  17   2.0000      -0.551271       -15.0008
  18   2.0000      -0.520234       -14.1563
  19   2.0000      -0.509902       -13.8751
  20   2.0000      -0.500698       -13.6247
  21   2.0000      -0.475219       -12.9314
  22   2.0000      -0.464685       -12.6447
  23   2.0000      -0.450080       -12.2473
  24   2.0000      -0.431565       -11.7435
  25   2.0000      -0.420457       -11.4412
  26   2.0000      -0.346291        -9.4231
  27   2.0000      -0.272643        -7.4190
  28   0.0000       0.095794         2.6067
  29   0.0000       0.109858         2.9894
  30   0.0000       0.118862         3.2344
  31   0.0000       0.123461         3.3596
  32   0.0000       0.136367         3.7107

MULLIKEN ATOMIC CHARGES
-----------------------
   0 C :    0.698342
   1 N :   -0.459343
   2 C :    0.322789
   3 C :    0.355639
   4 N :   -0.113826
   5 H :    0.028578
   6 H :    0.110528
   7 H :   -0.173884
   8 H :   -0.164100
   9 H :   -0.335135
  10 C :   -0.447344
  11 H :   -0.226093
  12 H :   -0.050982
  13 C :    0.758573
  14 H :   -0.030092
  15 H :   -0.025454
  16 H :   -0.207789
  17 H :   -0.027151
  18 H :   -0.013257
Sum of atomic charges:    0.0000000

LOEWDIN ATOMIC CHARGES
----------------------
   0 C :    0.051526
   1 N :   -0.005450
   2 C :   -0.268774
   3 C :    0.120865
   4 N :    0.187997
   5 H :    0.006745
   6 H :    0.013234
   7 H :    0.030645
   8 H :   -0.111386
   9 H :   -0.094474
  10 C :   -0.062268
  11 H :    0.022580
  12 H :    0.009836
  13 C :    0.124089
  14 H :    0.021722
  15 H :    0.020683
  16 H :   -0.033562
  17 H :   -0.017574
  18 H :   -0.016433

  Mayer bond orders larger than 0.100000
B(  0-C ,  1-N ) :   0.8784 B(  0-C , 10-C ) :   1.1052 B(  0-C , 11-H ) :   0.9063
B(  0-C , 12-H ) :   0.7760 B(  0-C , 14-H ) :   0.1459 B(  0-C , 15-H ) :   0.1177
B(  1-N ,  2-C ) :   1.0378 B(  1-N ,  3-C ) :   0.2579 B(  1-N ,  4-N ) :   0.1250
B(  1-N ,  7-H ) :   1.1313 B(  1-N , 11-H ) :   0.1579 B(  1-N , 12-H ) :   0.1229
B(  2-C ,  3-C ) :   1.8836 B(  2-C ,  4-N ) :   0.9280 B(  2-C ,  8-H ) :   0.2898
B(  2-C ,  9-H ) :   0.1986 B(  3-C ,  4-N ) :   0.1970 B(  3-C ,  8-H ) :   0.5559
B(  3-C ,  9-H ) :   0.8268 B(  4-N ,  5-H ) :   0.8989 B(  4-N ,  6-H ) :   0.8879
B(  8-H ,  9-H ) :   0.1744 B( 10-C , 12-H ) :   0.1376 B( 10-C , 13-C ) :   1.2605
B( 10-C , 14-H ) :   0.9400 B( 10-C , 15-H ) :   0.9531 B( 10-C , 16-H ) :   0.2374
B( 10-C , 17-H ) :   0.1891 B( 10-C , 18-H ) :   0.2227 B( 13-C , 16-H ) :   0.8332
B( 13-C , 17-H ) :   0.7767 B( 13-C , 18-H ) :   0.7422 B( 16-H , 18-H ) :   0.1509

Dispersion correction           -0.006060786
FINAL SINGLE POINT ENERGY      -306.946578559021

DIPOLE MOMENT
-------------
                                X             Y             Z
Electronic contribution:      2.70274      -2.25692      -3.64052
Nuclear contribution   :     -1.74624       3.63640       4.48172
                        -----------------------------------------
Total Dipole Moment    :      0.95650       1.37949       0.84120
                        -----------------------------------------
Magnitude (a.u.)       :      1.87763
Magnitude (Debye)      :      4.77256

Rotational constants in cm-1:     0.131012     0.059513     0.054636
Rotational constants in MHz :  3927.631151  1784.169731  1637.945644

                             ****ORCA TERMINATED NORMALLY****
TOTAL RUN TIME: 0 days 0 hours 0 minutes 20 seconds 137 msec
