                         Program Version 5.0.0 -  RELEASE  -
|  1> !wB97X-D3 RIJCOSX def2-SVPD def2/J TightSCF CPCM(Water)
|  2> *xyz 0 1
|  3> C          2.23447       -2.98975       -2.39762
|  4> N          2.75680       -2.94555       -3.76503
|  5> C          1.98721       -2.59045       -4.81898
|  6> N          0.74322       -3.01749       -4.91352
|  7> C          2.49964       -1.84860       -5.80324
|  8> H          3.30978       -1.29282       -5.55895
|  9> H          1.80103       -1.30430       -6.28913
| 10> H          3.71612       -2.62880       -3.82953
| 11> H          0.39583       -3.62775       -4.18502
| 12> H          0.03920       -2.45438       -5.37137
| 13> C          2.19120       -1.61950       -1.71549
| 14> H          2.87278       -3.66637       -1.82801
| 15> H          1.24619       -3.44744       -2.40784
| 16> C          1.29873       -0.55431       -2.35977
| 17> H          1.87292       -1.78796       -0.68131
| 18> H          3.21681       -1.23843       -1.65443
| 19> H          1.61097       -0.39090       -3.37007
| 20> H          1.37981        0.35955       -1.80916
| 21> H          0.28197       -0.88750       -2.35015
| 22> *
| 23>
| 24> %MaxCore 64000
| 25>
| 26> %pal nprocs 18
| 27> end
| 28>
| 29> %scf
| 30>   MaxIter 150
| 31> end
| 32>
| 33>
| 34>                          ****END OF INPUT****

CARTESIAN COORDINATES (ANGSTROEM)
---------------------------------
  C      2.234470   -2.989750   -2.397620
  N      2.756800   -2.945550   -3.765030
  C      1.987210   -2.590450   -4.818980
  N      0.743220   -3.017490   -4.913520
  C      2.499640   -1.848600   -5.803240
  H      3.309780   -1.292820   -5.558950
  H      1.801030   -1.304300   -6.289130
  H      3.716120   -2.628800   -3.829530
  H      0.395830   -3.627750   -4.185020
  H      0.039200   -2.454380   -5.371370
  C      2.191200   -1.619500   -1.715490
  H      2.872780   -3.666370   -1.828010
  H      1.246190   -3.447440   -2.407840
  C      1.298730   -0.554310   -2.359770
  H      1.872920   -1.787960   -0.681310
  H      3.216810   -1.238430   -1.654430
  H      1.610970   -0.390900   -3.370070
  H      1.379810    0.359550   -1.809160
  H      0.281970   -0.887500   -2.350150

 Total Charge           Charge          ....    0
 Multiplicity           Mult            ....    1
 Number of Electrons    NEL             ....   56
 Basis Dimension        Dim             ....  236

ORBITAL ENERGIES
----------------

  NO   OCC          E(Eh)            E(eV)
   0   2.0000     -14.438876      -392.9018
   1   2.0000     -14.438208      -392.8836
   2   2.0000     -10.351586      -281.6810
   3   2.0000     -10.317985      -280.7667
   4   2.0000     -10.281830      -279.7828
   5   2.0000     -10.267247      -279.3860
   6   2.0000     -10.209959      -277.8271
   7   2.0000      -1.081895       -29.4399
   8   2.0000      -0.994630       -27.0653
   9   2.0000      -0.888073       -24.1657
  10   2.0000      -0.838118       -22.8064
  11   2.0000      -0.779403       -21.2086
  12   2.0000      -0.705267       -19.1913
  13   2.0000      -0.694219       -18.8907
  14   2.0000      -0.641891       -17.4668
  15   2.0000      -0.590975       -16.0813
  16   2.0000      -0.584464       -15.9041
  17   2.0000      -0.546340       -14.8667
  18   2.0000      -0.539572       -14.6825
  19   2.0000      -0.501026       -13.6336
  20   2.0000      -0.486226       -13.2309
  21   2.0000      -0.478828       -13.0296
  22   2.0000      -0.470344       -12.7987
  23   2.0000      -0.450300       -12.2533
  24   2.0000      -0.430965       -11.7271
  25   2.0000      -0.424353       -11.5472
  26   2.0000      -0.348281        -9.4772
  27   2.0000      -0.271565        -7.3897
  28   0.0000       0.095054         2.5865
  29   0.0000       0.106462         2.8970
  30   0.0000       0.118059         3.2125
  31   0.0000       0.122277         3.3273
  32   0.0000       0.135878         3.6974

MULLIKEN ATOMIC CHARGES
-----------------------
   0 C :    0.699370
   1 N :   -0.523868
   2 C :    0.185150
   3 N :    0.101851
   4 C :    0.481985
   5 H :   -0.181148
   6 H :   -0.372010
   7 H :   -0.082637
   8 H :   -0.018576
   9 H :   -0.010038
  10 C :   -0.447923
  11 H :   -0.231026
  12 H :   -0.059266
  13 C :    0.704327
  14 H :   -0.028957
  15 H :   -0.030956
  16 H :   -0.127766
  17 H :   -0.095762
  18 H :    0.037249
Sum of atomic charges:    0.0000000

LOEWDIN ATOMIC CHARGES
----------------------
   0 C :    0.050651
   1 N :   -0.001858
   2 C :   -0.264100
   3 N :    0.207764
   4 C :    0.090544
   5 H :   -0.112321
   6 H :   -0.111893
   7 H :    0.036002
   8 H :   -0.000646
   9 H :    0.030264
  10 C :   -0.062975
  11 H :    0.022468
  12 H :    0.013217
  13 C :    0.125928
  14 H :    0.021721
  15 H :    0.021949
  16 H :   -0.034829
  17 H :   -0.017003
  18 H :   -0.014882

  Mayer bond orders larger than 0.100000
B(  0-C ,  1-N ) :   0.9024 B(  0-C , 10-C ) :   1.1198 B(  0-C , 11-H ) :   0.8937
B(  0-C , 12-H ) :   0.8008 B(  0-C , 14-H ) :   0.1302 B(  0-C , 15-H ) :   0.1309
B(  1-N ,  2-C ) :   1.0422 B(  1-N ,  4-C ) :   0.1871 B(  1-N ,  7-H ) :   1.1139
B(  1-N , 11-H ) :   0.1796 B(  1-N , 12-H ) :   0.1387 B(  2-C ,  3-N ) :   1.1053
B(  2-C ,  4-C ) :   2.0741 B(  2-C ,  5-H ) :   0.2645 B(  2-C ,  6-H ) :   0.3045
B(  3-N ,  4-C ) :   0.1842 B(  3-N ,  8-H ) :   0.9394 B(  3-N ,  9-H ) :   1.0593
B(  4-C ,  5-H ) :   0.7033 B(  4-C ,  6-H ) :   0.6808 B(  5-H ,  6-H ) :   0.2589
B(  8-H ,  9-H ) :  -0.1417 B( 10-C , 12-H ) :   0.1360 B( 10-C , 13-C ) :   1.2750
B( 10-C , 14-H ) :   0.9534 B( 10-C , 15-H ) :   0.9329 B( 10-C , 16-H ) :   0.2324
B( 10-C , 17-H ) :   0.2033 B( 10-C , 18-H ) :   0.2138 B( 13-C , 16-H ) :   0.8382
B( 13-C , 17-H ) :   0.7969 B( 13-C , 18-H ) :   0.7510 B( 16-H , 18-H ) :   0.1114

Dispersion correction           -0.006083774
FINAL SINGLE POINT ENERGY      -306.943218356885

DIPOLE MOMENT
-------------
                                X             Y             Z
Electronic contribution:      0.46278      -3.82340      -2.43851
Nuclear contribution   :     -1.36148       3.89245       4.28682
                        -----------------------------------------
Total Dipole Moment    :     -0.89870       0.06905       1.84832
                        -----------------------------------------
Magnitude (a.u.)       :      2.05638
Magnitude (Debye)      :      5.22691

Rotational constants in cm-1:     0.130039     0.059901     0.055416
Rotational constants in MHz :  3898.472533  1795.778295  1661.317267

                             ****ORCA TERMINATED NORMALLY****
TOTAL RUN TIME: 0 days 0 hours 0 minutes 20 seconds 138 msec
