                         Program Version 5.0.0 -  RELEASE  -
|  1> !wB97X-D3 RIJCOSX def2-SVPD def2/J TightSCF CPCM(Water) xyzfile
|  2>
|  3> *xyzfile 0 1 D2.xyz
|  4>
|  5> %MaxCore 64000
|  6>
|  7> %pal nprocs 18
|  8> end
|  9>
| 10> %scf
| 11>   MaxIter 150
| 12> end
| 13>
| 14>
| 15>                          ****END OF INPUT****

CARTESIAN COORDINATES (ANGSTROEM)
---------------------------------
  C      2.234473   -2.989754   -2.397622
  N      2.756799   -2.945553   -3.765029
  C     -1.104325    0.251374   -2.860056
  C     -0.711893    0.842517   -4.218344
  H      0.154626    1.499800   -4.130909
  H     -1.538134    1.459222   -4.582671
  C     -0.397624   -0.205875   -5.288018
  C      1.987208   -2.590451   -4.818975
  C      0.743221   -3.017493   -4.913524
  N      2.499636   -1.848598   -5.803241
  H      3.309780   -1.292818   -5.558947
  H      1.801025   -1.304298   -6.289129
  H      3.716116   -2.628797   -3.829533
  H      0.395828   -3.627747   -4.185024
  H      0.039201   -2.454383   -5.371367
  F      0.617165   -0.005348   -5.998273
  O     -1.133173   -1.221380   -5.341465
  C      2.191199   -1.619503   -1.715492
  H      2.872783   -3.666368   -1.828014
  H      1.246188   -3.447444   -2.407842
  C      1.298729   -0.554314   -2.359773
  H      1.872917   -1.787955   -0.681310
  H      3.216809   -1.238432   -1.654428
  C     -0.196255   -0.863365   -2.325763
  H      1.612531   -0.371346   -3.393065
  H      1.480944    0.388638   -1.834444
  H     -0.404105   -1.761825   -2.909448
  H     -0.490439   -1.087880   -1.294131
  H     -1.143842    1.066711   -2.129680
  H     -2.114401   -0.156834   -2.930323

 Total Charge           Charge          ....    0
 Multiplicity           Mult            ....    1
 Number of Electrons    NEL             ....  102
 Basis Dimension        Dim             ....  402

ORBITAL ENERGIES
----------------

  NO   OCC          E(Eh)            E(eV)
   0   2.0000     -24.888317      -677.2455
   1   2.0000     -19.264269      -524.2074
   2   2.0000     -14.432922      -392.7398
   3   2.0000     -14.426312      -392.5599
   4   2.0000     -10.483901      -285.2815
   5   2.0000     -10.336623      -281.2738
   6   2.0000     -10.312879      -280.6277
   7   2.0000     -10.310569      -280.5648
   8   2.0000     -10.291643      -280.0499
   9   2.0000     -10.280565      -279.7484
  10   2.0000     -10.280396      -279.7438
  11   2.0000     -10.276640      -279.6416
  12   2.0000     -10.196786      -277.4686
  13   2.0000      -1.439284       -39.1649
  14   2.0000      -1.158405       -31.5218
  15   2.0000      -1.073520       -29.2120
  16   2.0000      -0.990920       -26.9643
  17   2.0000      -0.925262       -25.1777
  18   2.0000      -0.886959       -24.1354
  19   2.0000      -0.840046       -22.8588
  20   2.0000      -0.820705       -22.3325
  21   2.0000      -0.797337       -21.6966
  22   2.0000      -0.764217       -20.7954
  23   2.0000      -0.718571       -19.5533
  24   2.0000      -0.690605       -18.7923
  25   2.0000      -0.670156       -18.2359
  26   2.0000      -0.654154       -17.8004
  27   2.0000      -0.646684       -17.5972
  28   2.0000      -0.639527       -17.4024
  29   2.0000      -0.623237       -16.9591
  30   2.0000      -0.597718       -16.2647
  31   2.0000      -0.580398       -15.7934
  32   2.0000      -0.561337       -15.2747
  33   2.0000      -0.547575       -14.9003
  34   2.0000      -0.538586       -14.6557
  35   2.0000      -0.522832       -14.2270
  36   2.0000      -0.512458       -13.9447
  37   2.0000      -0.503289       -13.6952
  38   2.0000      -0.499006       -13.5786
  39   2.0000      -0.482535       -13.1304
  40   2.0000      -0.470783       -12.8107
  41   2.0000      -0.457354       -12.4452
  42   2.0000      -0.454360       -12.3638
  43   2.0000      -0.446067       -12.1381
  44   2.0000      -0.440664       -11.9911
  45   2.0000      -0.414235       -11.2719
  46   2.0000      -0.410113       -11.1597
  47   2.0000      -0.402717       -10.9585
  48   2.0000      -0.386803       -10.5255
  49   2.0000      -0.341778        -9.3002
  50   2.0000      -0.264517        -7.1979
  51   0.0000       0.042724         1.1626
  52   0.0000       0.091182         2.4812
  53   0.0000       0.105937         2.8827
  54   0.0000       0.106525         2.8987
  55   0.0000       0.110687         3.0119

MULLIKEN ATOMIC CHARGES
-----------------------
   0 C :    0.764433
   1 N :   -0.488048
   2 C :    0.487714
   3 C :    0.029976
   4 H :    0.225444
   5 H :   -0.146766
   6 C :    0.651072
   7 C :    0.342624
   8 C :    0.832723
   9 N :    0.039079
  10 H :    0.124667
  11 H :   -0.108465
  12 H :   -0.126332
  13 H :   -0.064726
  14 H :   -0.806554
  15 F :   -0.426353
  16 O :   -0.666871
  17 C :    0.275304
  18 H :   -0.307270
  19 H :    0.025488
  20 C :   -0.059423
  21 H :    0.056740
  22 H :   -0.040025
  23 C :   -0.122384
  24 H :   -0.182440
  25 H :   -0.115559
  26 H :   -0.138533
  27 H :   -0.110991
  28 H :   -0.036760
  29 H :    0.092235
Sum of atomic charges:   -0.0000000

LOEWDIN ATOMIC CHARGES
----------------------
   0 C :    0.060154
   1 N :   -0.005377
   2 C :   -0.010603
   3 C :    0.063127
   4 H :    0.034273
   5 H :    0.051128
   6 C :    0.045622
   7 C :   -0.244749
   8 C :    0.142322
   9 N :    0.198476
  10 H :    0.012202
  11 H :   -0.051287
  12 H :    0.028828
  13 H :   -0.095315
  14 H :   -0.176614
  15 F :   -0.024534
  16 O :   -0.160178
  17 C :   -0.014827
  18 H :    0.022433
  19 H :    0.006554
  20 C :   -0.023860
  21 H :    0.026162
  22 H :    0.023968
  23 C :   -0.023979
  24 H :    0.003893
  25 H :    0.029832
  26 H :   -0.008298
  27 H :    0.030912
  28 H :    0.032364
  29 H :    0.027371

  Mayer bond orders larger than 0.100000
B(  0-C ,  1-N ) :   0.8774 B(  0-C , 17-C ) :   1.1042 B(  0-C , 18-H ) :   0.8470
B(  0-C , 19-H ) :   0.7697 B(  0-C , 21-H ) :   0.1505 B(  0-C , 22-H ) :   0.1189
B(  1-N ,  7-C ) :   0.9976 B(  1-N ,  8-C ) :   0.2930 B(  1-N ,  9-N ) :   0.1455
B(  1-N , 12-H ) :   1.0867 B(  1-N , 18-H ) :   0.1870 B(  1-N , 19-H ) :   0.1188
B(  2-C ,  3-C ) :   1.1951 B(  2-C ,  5-H ) :   0.1685 B(  2-C , 23-C ) :   1.2603
B(  2-C , 28-H ) :   0.7953 B(  2-C , 29-H ) :   0.6584 B(  3-C ,  4-H ) :   0.8170
B(  3-C ,  5-H ) :   0.8178 B(  3-C ,  6-C ) :   1.2173 B(  3-C , 28-H ) :   0.1405
B(  4-H ,  6-C ) :   0.1462 B(  5-H ,  6-C ) :   0.2021 B(  6-C , 14-H ) :   0.1195
B(  6-C , 15-F ) :   0.5988 B(  6-C , 16-O ) :   1.7217 B(  7-C ,  8-C ) :   1.8579
B(  7-C ,  9-N ) :   0.8356 B(  7-C , 13-H ) :   0.3495 B(  7-C , 14-H ) :   0.2131
B(  8-C ,  9-N ) :   0.2179 B(  8-C , 13-H ) :   0.3495 B(  8-C , 14-H ) :   0.1657
B(  9-N , 10-H ) :   0.8197 B(  9-N , 11-H ) :   0.8931 B( 14-H , 16-O ) :   0.2730
B( 17-C , 18-H ) :   0.1013 B( 17-C , 19-H ) :   0.1210 B( 17-C , 20-C ) :   1.2150
B( 17-C , 21-H ) :   0.7995 B( 17-C , 22-H ) :   0.7561 B( 17-C , 24-H ) :   0.1096
B( 18-H , 19-H ) :  -0.1214 B( 20-C , 21-H ) :   0.1641 B( 20-C , 22-H ) :   0.2293
B( 20-C , 23-C ) :   1.2724 B( 20-C , 24-H ) :   0.9467 B( 20-C , 25-H ) :   0.8442
B( 20-C , 26-H ) :   0.1416 B( 20-C , 27-H ) :   0.2247 B( 23-C , 24-H ) :   0.1441
B( 23-C , 25-H ) :   0.2124 B( 23-C , 26-H ) :   0.9698 B( 23-C , 27-H ) :   0.7842
B( 23-C , 28-H ) :   0.1630 B( 23-C , 29-H ) :   0.2429 B( 28-H , 29-H ) :  -0.1048

Dispersion correction           -0.015856260
FINAL SINGLE POINT ENERGY      -637.134076237043

DIPOLE MOMENT
-------------
                                X             Y             Z
Electronic contribution:     -1.01838       3.08901     -13.08609
Nuclear contribution   :      2.00823      -0.28769      14.57028
                        -----------------------------------------
Total Dipole Moment    :      0.98984       2.80132       1.48418
                        -----------------------------------------
Magnitude (a.u.)       :      3.32114
Magnitude (Debye)      :      8.44167

Rotational constants in cm-1:     0.033070     0.023715     0.016943
Rotational constants in MHz :   991.423248   710.957140   507.940500

                             ****ORCA TERMINATED NORMALLY****
TOTAL RUN TIME: 0 days 0 hours 1 minutes 8 seconds 393 msec
