                         Program Version 5.0.0 -  RELEASE  -
|  1> !wB97X-D3 RIJCOSX def2-SVPD def2/J TightSCF CPCM(Water) xyzfile
|  2>
|  3> *xyzfile 0 1 D3.xyz
|  4>
|  5> %MaxCore 64000
|  6>
|  7> %pal nprocs 18
|  8> end
|  9>
| 10> %scf
| 11>   MaxIter 150
| 12> end
| 13>
| 14>
| 15>                          ****END OF INPUT****

CARTESIAN COORDINATES (ANGSTROEM)
---------------------------------
  C      2.234473   -2.989754   -2.397622
  N      2.756799   -2.945553   -3.765029
  C     -1.104325    0.251374   -2.860056
  C     -0.711893    0.842517   -4.218344
  H      0.154626    1.499800   -4.130909
  H     -1.538134    1.459222   -4.582671
  C     -0.397624   -0.205875   -5.288018
  C      1.987208   -2.590451   -4.818975
  N      0.743221   -3.017493   -4.913524
  C      2.499636   -1.848598   -5.803241
  H      3.309780   -1.292818   -5.558947
  H      1.801025   -1.304298   -6.289129
  H      3.716116   -2.628797   -3.829533
  H      0.395828   -3.627747   -4.185024
  H      0.039201   -2.454383   -5.371367
  F      0.617165   -0.005348   -5.998273
  O     -1.133173   -1.221380   -5.341465
  C      2.191199   -1.619503   -1.715492
  H      2.872783   -3.666368   -1.828014
  H      1.246188   -3.447444   -2.407842
  C      1.298729   -0.554314   -2.359773
  H      1.872917   -1.787955   -0.681310
  H      3.216809   -1.238432   -1.654428
  C     -0.196255   -0.863365   -2.325763
  H      1.612531   -0.371346   -3.393065
  H      1.480944    0.388638   -1.834444
  H     -0.404105   -1.761825   -2.909448
  H     -0.490439   -1.087880   -1.294131
  H     -1.143842    1.066711   -2.129680
  H     -2.114401   -0.156834   -2.930323

 Total Charge           Charge          ....    0
 Multiplicity           Mult            ....    1
 Number of Electrons    NEL             ....  102
 Basis Dimension        Dim             ....  402

ORBITAL ENERGIES
----------------

  NO   OCC          E(Eh)            E(eV)
   0   2.0000     -24.884576      -677.1437
   1   2.0000     -19.274379      -524.4825
   2   2.0000     -14.435809      -392.8183
   3   2.0000     -14.422902      -392.4671
   4   2.0000     -10.491239      -285.4811
   5   2.0000     -10.345941      -281.5274
   6   2.0000     -10.316815      -280.7348
   7   2.0000     -10.313062      -280.6327
   8   2.0000     -10.293708      -280.1060
   9   2.0000     -10.282055      -279.7889
  10   2.0000     -10.281780      -279.7815
  11   2.0000     -10.280469      -279.7458
  12   2.0000     -10.202412      -277.6217
  13   2.0000      -1.437007       -39.1029
  14   2.0000      -1.168217       -31.7888
  15   2.0000      -1.076955       -29.3054
  16   2.0000      -0.989846       -26.9351
  17   2.0000      -0.928502       -25.2658
  18   2.0000      -0.891578       -24.2611
  19   2.0000      -0.852055       -23.1856
  20   2.0000      -0.817848       -22.2548
  21   2.0000      -0.794498       -21.6194
  22   2.0000      -0.757693       -20.6179
  23   2.0000      -0.715646       -19.4737
  24   2.0000      -0.706274       -19.2187
  25   2.0000      -0.678907       -18.4740
  26   2.0000      -0.666072       -18.1247
  27   2.0000      -0.645646       -17.5689
  28   2.0000      -0.636274       -17.3139
  29   2.0000      -0.628830       -17.1113
  30   2.0000      -0.591628       -16.0990
  31   2.0000      -0.581927       -15.8350
  32   2.0000      -0.566934       -15.4271
  33   2.0000      -0.558919       -15.2090
  34   2.0000      -0.544121       -14.8063
  35   2.0000      -0.526764       -14.3340
  36   2.0000      -0.509944       -13.8763
  37   2.0000      -0.498980       -13.5779
  38   2.0000      -0.491916       -13.3857
  39   2.0000      -0.482296       -13.1239
  40   2.0000      -0.470802       -12.8112
  41   2.0000      -0.461281       -12.5521
  42   2.0000      -0.454721       -12.3736
  43   2.0000      -0.452765       -12.3204
  44   2.0000      -0.443177       -12.0595
  45   2.0000      -0.421295       -11.4640
  46   2.0000      -0.416750       -11.3404
  47   2.0000      -0.406401       -11.0587
  48   2.0000      -0.400384       -10.8950
  49   2.0000      -0.342024        -9.3069
  50   2.0000      -0.266360        -7.2480
  51   0.0000       0.036808         1.0016
  52   0.0000       0.090659         2.4670
  53   0.0000       0.102834         2.7983
  54   0.0000       0.107873         2.9354
  55   0.0000       0.109223         2.9721

MULLIKEN ATOMIC CHARGES
-----------------------
   0 C :    0.777219
   1 N :   -0.583726
   2 C :    0.482066
   3 C :    0.005005
   4 H :    0.241737
   5 H :   -0.126488
   6 C :    0.743057
   7 C :    0.205664
   8 N :    0.285083
   9 C :    0.787315
  10 H :   -0.085598
  11 H :   -0.670257
  12 H :   -0.062474
  13 H :    0.046191
  14 H :   -0.331904
  15 F :   -0.436322
  16 O :   -0.627100
  17 C :    0.261179
  18 H :   -0.302878
  19 H :    0.033850
  20 C :   -0.091274
  21 H :    0.059680
  22 H :   -0.066301
  23 C :   -0.080649
  24 H :   -0.074110
  25 H :   -0.182550
  26 H :   -0.139883
  27 H :   -0.123706
  28 H :   -0.034813
  29 H :    0.091986
Sum of atomic charges:   -0.0000000

LOEWDIN ATOMIC CHARGES
----------------------
   0 C :    0.059413
   1 N :    0.000029
   2 C :   -0.009485
   3 C :    0.065381
   4 H :    0.036311
   5 H :    0.053344
   6 C :    0.053367
   7 C :   -0.240387
   8 N :    0.229081
   9 C :    0.104658
  10 H :   -0.102930
  11 H :   -0.156763
  12 H :    0.034660
  13 H :    0.005670
  14 H :   -0.091309
  15 F :   -0.032780
  16 O :   -0.148570
  17 C :   -0.014837
  18 H :    0.022793
  19 H :    0.009260
  20 C :   -0.023361
  21 H :    0.026559
  22 H :    0.025610
  23 C :   -0.025664
  24 H :    0.003201
  25 H :    0.030554
  26 H :   -0.008354
  27 H :    0.032098
  28 H :    0.033905
  29 H :    0.028543

  Mayer bond orders larger than 0.100000
B(  0-C ,  1-N ) :   0.8871 B(  0-C , 17-C ) :   1.1197 B(  0-C , 18-H ) :   0.8398
B(  0-C , 19-H ) :   0.7846 B(  0-C , 21-H ) :   0.1314 B(  0-C , 22-H ) :   0.1429
B(  1-N ,  7-C ) :   1.0252 B(  1-N ,  9-C ) :   0.1903 B(  1-N , 12-H ) :   1.1250
B(  1-N , 18-H ) :   0.2110 B(  1-N , 19-H ) :   0.1296 B(  2-C ,  3-C ) :   1.2035
B(  2-C ,  5-H ) :   0.1657 B(  2-C , 23-C ) :   1.2510 B(  2-C , 28-H ) :   0.8108
B(  2-C , 29-H ) :   0.6592 B(  3-C ,  4-H ) :   0.8121 B(  3-C ,  5-H ) :   0.8244
B(  3-C ,  6-C ) :   1.2103 B(  3-C , 28-H ) :   0.1348 B(  4-H ,  6-C ) :   0.1531
B(  5-H ,  6-C ) :   0.1858 B(  6-C , 15-F ) :   0.6434 B(  6-C , 16-O ) :   1.6153
B(  7-C ,  8-N ) :   1.0060 B(  7-C ,  9-C ) :   2.0021 B(  7-C , 10-H ) :   0.3282
B(  7-C , 11-H ) :   0.3794 B(  7-C , 12-H ) :  -0.1031 B(  8-N ,  9-C ) :   0.1969
B(  8-N , 13-H ) :   0.8986 B(  8-N , 14-H ) :   1.0062 B(  9-C , 10-H ) :   0.4815
B(  9-C , 11-H ) :   0.1235 B( 10-H , 11-H ) :   0.3094 B( 11-H , 15-F ) :   0.1902
B( 13-H , 14-H ) :  -0.2139 B( 14-H , 16-O ) :   0.1564 B( 17-C , 18-H ) :   0.1068
B( 17-C , 19-H ) :   0.1229 B( 17-C , 20-C ) :   1.2263 B( 17-C , 21-H ) :   0.8262
B( 17-C , 22-H ) :   0.7417 B( 17-C , 24-H ) :   0.1057 B( 18-H , 19-H ) :  -0.1217
B( 20-C , 21-H ) :   0.1491 B( 20-C , 22-H ) :   0.2347 B( 20-C , 23-C ) :   1.2738
B( 20-C , 24-H ) :   0.9390 B( 20-C , 25-H ) :   0.8720 B( 20-C , 26-H ) :   0.1412
B( 20-C , 27-H ) :   0.2018 B( 23-C , 24-H ) :   0.1287 B( 23-C , 25-H ) :   0.1842
B( 23-C , 26-H ) :   0.9543 B( 23-C , 27-H ) :   0.8015 B( 23-C , 28-H ) :   0.1638
B( 23-C , 29-H ) :   0.2433 B( 26-H , 27-H ) :   0.1015 B( 28-H , 29-H ) :  -0.1022

Dispersion correction           -0.015940473
FINAL SINGLE POINT ENERGY      -637.138608853305

DIPOLE MOMENT
-------------
                                X             Y             Z
Electronic contribution:     -3.05654       1.76973     -11.93836
Nuclear contribution   :      2.27881      -0.10762      14.43322
                        -----------------------------------------
Total Dipole Moment    :     -0.77773       1.66211       2.49485
                        -----------------------------------------
Magnitude (a.u.)       :      3.09706
Magnitude (Debye)      :      7.87209

Rotational constants in cm-1:     0.033336     0.023673     0.017062
Rotational constants in MHz :   999.388459   709.685364   511.514310

                             ****ORCA TERMINATED NORMALLY****
TOTAL RUN TIME: 0 days 0 hours 1 minutes 7 seconds 746 msec
