                         Program Version 5.0.0 -  RELEASE  -
|  1> !wB97X-D3 RIJCOSX def2-SVPD def2/J TightSCF CPCM(Water) xyzfile
|  2>
|  3> *xyzfile 0 1 D6.xyz
|  4>
|  5> %MaxCore 64000
|  6>
|  7> %pal nprocs 18
|  8> end
|  9>
| 10> %scf
| 11>   MaxIter 150
| 12> end
| 13>
| 14>
| 15>                          ****END OF INPUT****

CARTESIAN COORDINATES (ANGSTROEM)
---------------------------------
  C      2.234473   -2.989754   -2.397622
  N      2.756799   -2.945553   -3.765029
  C     -1.104325    0.251374   -2.860056
  C     -0.711893    0.842517   -4.218344
  H      0.154626    1.499800   -4.130909
  H     -1.538134    1.459222   -4.582671
  C     -0.397624   -0.205875   -5.288018
  C      1.987208   -2.590451   -4.818975
  N      0.743221   -3.017493   -4.913524
  C      2.499636   -1.848598   -5.803241
  H      3.309780   -1.292818   -5.558947
  H      1.801025   -1.304298   -6.289129
  H      3.716116   -2.628797   -3.829533
  H      0.395828   -3.627747   -4.185024
  H      0.039201   -2.454383   -5.371367
  O      0.617165   -0.005348   -5.998273
  F     -1.133173   -1.221380   -5.341465
  C      2.191199   -1.619503   -1.715492
  H      2.872783   -3.666368   -1.828014
  H      1.246188   -3.447444   -2.407842
  C      1.298729   -0.554314   -2.359773
  H      1.872917   -1.787955   -0.681310
  H      3.216809   -1.238432   -1.654428
  C     -0.196255   -0.863365   -2.325763
  H      1.612531   -0.371346   -3.393065
  H      1.480944    0.388638   -1.834444
  H     -0.404105   -1.761825   -2.909448
  H     -0.490439   -1.087880   -1.294131
  H     -1.143842    1.066711   -2.129680
  H     -2.114401   -0.156834   -2.930323

 Total Charge           Charge          ....    0
 Multiplicity           Mult            ....    1
 Number of Electrons    NEL             ....  102
 Basis Dimension        Dim             ....  402

ORBITAL ENERGIES
----------------

  NO   OCC          E(Eh)            E(eV)
   0   2.0000     -24.891653      -677.3363
   1   2.0000     -19.267893      -524.3060
   2   2.0000     -14.435251      -392.8032
   3   2.0000     -14.431677      -392.7059
   4   2.0000     -10.484978      -285.3107
   5   2.0000     -10.344235      -281.4809
   6   2.0000     -10.316586      -280.7286
   7   2.0000     -10.311379      -280.5869
   8   2.0000     -10.293108      -280.0897
   9   2.0000     -10.282459      -279.7999
  10   2.0000     -10.281719      -279.7798
  11   2.0000     -10.280865      -279.7565
  12   2.0000     -10.196696      -277.4662
  13   2.0000      -1.443918       -39.2910
  14   2.0000      -1.159593       -31.5541
  15   2.0000      -1.078508       -29.3477
  16   2.0000      -0.992837       -27.0165
  17   2.0000      -0.930075       -25.3086
  18   2.0000      -0.891677       -24.2638
  19   2.0000      -0.848958       -23.1013
  20   2.0000      -0.817719       -22.2513
  21   2.0000      -0.788664       -21.4606
  22   2.0000      -0.765700       -20.8358
  23   2.0000      -0.714691       -19.4477
  24   2.0000      -0.713981       -19.4284
  25   2.0000      -0.678881       -18.4733
  26   2.0000      -0.670765       -18.2524
  27   2.0000      -0.660977       -17.9861
  28   2.0000      -0.638531       -17.3753
  29   2.0000      -0.612133       -16.6570
  30   2.0000      -0.588299       -16.0084
  31   2.0000      -0.578544       -15.7430
  32   2.0000      -0.567857       -15.4522
  33   2.0000      -0.555595       -15.1185
  34   2.0000      -0.540512       -14.7081
  35   2.0000      -0.530031       -14.4229
  36   2.0000      -0.510669       -13.8960
  37   2.0000      -0.499198       -13.5839
  38   2.0000      -0.492541       -13.4027
  39   2.0000      -0.484158       -13.1746
  40   2.0000      -0.473305       -12.8793
  41   2.0000      -0.467651       -12.7254
  42   2.0000      -0.459001       -12.4901
  43   2.0000      -0.452740       -12.3197
  44   2.0000      -0.437628       -11.9085
  45   2.0000      -0.417265       -11.3544
  46   2.0000      -0.414497       -11.2790
  47   2.0000      -0.404494       -11.0068
  48   2.0000      -0.387412       -10.5420
  49   2.0000      -0.345217        -9.3938
  50   2.0000      -0.263457        -7.1690
  51   0.0000       0.042973         1.1693
  52   0.0000       0.090416         2.4604
  53   0.0000       0.103005         2.8029
  54   0.0000       0.107777         2.9328
  55   0.0000       0.110121         2.9965

MULLIKEN ATOMIC CHARGES
-----------------------
   0 C :    0.779904
   1 N :   -0.587398
   2 C :    0.456846
   3 C :    0.053429
   4 H :    0.225059
   5 H :   -0.134219
   6 C :    0.634869
   7 C :    0.182214
   8 N :    0.292269
   9 C :    0.785454
  10 H :   -0.099440
  11 H :   -0.642977
  12 H :   -0.058294
  13 H :    0.042990
  14 H :   -0.303162
  15 O :   -0.509655
  16 F :   -0.472748
  17 C :    0.274846
  18 H :   -0.304812
  19 H :    0.031228
  20 C :   -0.064775
  21 H :    0.054332
  22 H :   -0.066973
  23 C :   -0.054966
  24 H :   -0.085820
  25 H :   -0.194225
  26 H :   -0.170044
  27 H :   -0.106541
  28 H :   -0.041931
  29 H :    0.084541
Sum of atomic charges:    0.0000000

LOEWDIN ATOMIC CHARGES
----------------------
   0 C :    0.058786
   1 N :   -0.001062
   2 C :   -0.015823
   3 C :    0.067525
   4 H :    0.039555
   5 H :    0.051193
   6 C :    0.042475
   7 C :   -0.240021
   8 N :    0.233553
   9 C :    0.102400
  10 H :   -0.102737
  11 H :   -0.183448
  12 H :    0.034485
  13 H :    0.007610
  14 H :   -0.052890
  15 O :   -0.156179
  16 F :   -0.025365
  17 C :   -0.015217
  18 H :    0.022631
  19 H :    0.009068
  20 C :   -0.022642
  21 H :    0.026192
  22 H :    0.025597
  23 C :   -0.026974
  24 H :    0.003268
  25 H :    0.030638
  26 H :   -0.006770
  27 H :    0.032288
  28 H :    0.032804
  29 H :    0.029060

  Mayer bond orders larger than 0.100000
B(  0-C ,  1-N ) :   0.8911 B(  0-C , 17-C ) :   1.1164 B(  0-C , 18-H ) :   0.8397
B(  0-C , 19-H ) :   0.7848 B(  0-C , 21-H ) :   0.1323 B(  0-C , 22-H ) :   0.1433
B(  1-N ,  7-C ) :   1.0230 B(  1-N ,  9-C ) :   0.1919 B(  1-N , 12-H ) :   1.1201
B(  1-N , 18-H ) :   0.2115 B(  1-N , 19-H ) :   0.1307 B(  2-C ,  3-C ) :   1.1806
B(  2-C ,  5-H ) :   0.1597 B(  2-C , 23-C ) :   1.2496 B(  2-C , 28-H ) :   0.8244
B(  2-C , 29-H ) :   0.6695 B(  3-C ,  4-H ) :   0.8321 B(  3-C ,  5-H ) :   0.8282
B(  3-C ,  6-C ) :   1.1867 B(  3-C , 28-H ) :   0.1269 B(  4-H ,  6-C ) :   0.1771
B(  5-H ,  6-C ) :   0.1912 B(  6-C , 15-O ) :   1.7168 B(  6-C , 16-F ) :   0.5690
B(  7-C ,  8-N ) :   0.9948 B(  7-C ,  9-C ) :   2.0076 B(  7-C , 10-H ) :   0.3431
B(  7-C , 11-H ) :   0.3994 B(  7-C , 12-H ) :  -0.1057 B(  8-N ,  9-C ) :   0.2040
B(  8-N , 13-H ) :   0.9158 B(  8-N , 14-H ) :   1.0029 B(  9-C , 10-H ) :   0.4564
B(  9-C , 11-H ) :   0.1459 B( 10-H , 11-H ) :   0.3341 B( 11-H , 15-O ) :   0.2158
B( 13-H , 14-H ) :  -0.2048 B( 17-C , 18-H ) :   0.1060 B( 17-C , 19-H ) :   0.1239
B( 17-C , 20-C ) :   1.2193 B( 17-C , 21-H ) :   0.8239 B( 17-C , 22-H ) :   0.7395
B( 17-C , 24-H ) :   0.1090 B( 18-H , 19-H ) :  -0.1222 B( 20-C , 21-H ) :   0.1477
B( 20-C , 22-H ) :   0.2381 B( 20-C , 23-C ) :   1.2765 B( 20-C , 24-H ) :   0.9336
B( 20-C , 25-H ) :   0.8777 B( 20-C , 26-H ) :   0.1457 B( 20-C , 27-H ) :   0.2066
B( 23-C , 24-H ) :   0.1297 B( 23-C , 25-H ) :   0.1832 B( 23-C , 26-H ) :   0.9233
B( 23-C , 27-H ) :   0.8083 B( 23-C , 28-H ) :   0.1632 B( 23-C , 29-H ) :   0.2341
B( 28-H , 29-H ) :  -0.1054

Dispersion correction           -0.015903772
FINAL SINGLE POINT ENERGY      -637.131552599215

DIPOLE MOMENT
-------------
                                X             Y             Z
Electronic contribution:     -6.36744      -0.60548     -10.72145
Nuclear contribution   :      4.34606       1.32859      13.65749
                        -----------------------------------------
Total Dipole Moment    :     -2.02138       0.72311       2.93604
                        -----------------------------------------
Magnitude (a.u.)       :      3.63720
Magnitude (Debye)      :      9.24502

Rotational constants in cm-1:     0.033551     0.023540     0.017085
Rotational constants in MHz :  1005.818710   705.725032   512.192443

                             ****ORCA TERMINATED NORMALLY****
TOTAL RUN TIME: 0 days 0 hours 1 minutes 8 seconds 65 msec
