                         Program Version 5.0.0 -  RELEASE  -
|  1> !B3LYP D3BJ RIJCOSX def2-SVPD def2/J TightSCF
|  2>
|  3> *xyz -1 1
|  4> C          2.95263        1.86308       -3.57485
|  5> C          4.12921        0.89839       -3.41895
|  6> H          3.73369       -0.10060       -3.23763
|  7> H          4.71910        0.86256       -4.33901
|  8> C          5.01734        1.31521       -2.22130
|  9> O          4.73706        0.85411       -1.12283
| 10> O          5.92815        2.16811       -2.49136
| 11> H          2.35067        1.56005       -4.40594
| 12> H          3.32277        2.85258       -3.74453
| 13> H          2.36134        1.85149       -2.68315
| 14> *
| 15> %MaxCore 64000
| 16>
| 17> %pal nprocs 4
| 18> end
| 19>
| 20> %scf
| 21>   MaxIter 150
| 22> end
| 23>
| 24>
| 25>                          ****END OF INPUT****

CARTESIAN COORDINATES (ANGSTROEM)
---------------------------------
  C      2.952630    1.863080   -3.574850
  C      4.129210    0.898390   -3.418950
  H      3.733690   -0.100600   -3.237630
  H      4.719100    0.862560   -4.339010
  C      5.017340    1.315210   -2.221300
  O      4.737060    0.854110   -1.122830
  O      5.928150    2.168110   -2.491360
  H      2.350670    1.560050   -4.405940
  H      3.322770    2.852580   -3.744530
  H      2.361340    1.851490   -2.683150

 Total Charge           Charge          ....   -1
 Multiplicity           Mult            ....    1
 Number of Electrons    NEL             ....   40
 Basis Dimension        Dim             ....  146

ORBITAL ENERGIES
----------------

  NO   OCC          E(Eh)            E(eV)
   0   2.0000     -18.884359      -513.8695
   1   2.0000     -18.873693      -513.5793
   2   2.0000     -10.069016      -273.9919
   3   2.0000     -10.022863      -272.7360
   4   2.0000     -10.007054      -272.3058
   5   2.0000      -0.817815       -22.2539
   6   2.0000      -0.721300       -19.6276
   7   2.0000      -0.598605       -16.2889
   8   2.0000      -0.464224       -12.6322
   9   2.0000      -0.318790        -8.6747
  10   2.0000      -0.290637        -7.9086
  11   2.0000      -0.258363        -7.0304
  12   2.0000      -0.231611        -6.3024
  13   2.0000      -0.212763        -5.7896
  14   2.0000      -0.212044        -5.7700
  15   2.0000      -0.179819        -4.8931
  16   2.0000      -0.169677        -4.6171
  17   2.0000      -0.052949        -1.4408
  18   2.0000      -0.042897        -1.1673
  19   2.0000      -0.031242        -0.8502
  20   0.0000       0.154734         4.2105
  21   0.0000       0.187291         5.0964
  22   0.0000       0.203312         5.5324
  23   0.0000       0.221595         6.0299
  24   0.0000       0.240377         6.5410

MULLIKEN ATOMIC CHARGES
-----------------------
   0 C :    0.714441
   1 C :   -0.126510
   2 H :   -0.095433
   3 H :   -0.114596
   4 C :    0.435800
   5 O :   -0.634884
   6 O :   -0.738504
   7 H :   -0.169885
   8 H :   -0.137648
   9 H :   -0.132782
Sum of atomic charges:   -1.0000000

LOEWDIN ATOMIC CHARGES
----------------------
   0 C :    0.108156
   1 C :   -0.035393
   2 H :   -0.006994
   3 H :   -0.002379
   4 C :   -0.311072
   5 O :   -0.303749
   6 O :   -0.348677
   7 H :   -0.047026
   8 H :   -0.026676
   9 H :   -0.026192

  Mayer bond orders larger than 0.100000
B(  0-C ,  1-C ) :   1.3105 B(  0-C ,  2-H ) :   0.1202 B(  0-C ,  3-H ) :   0.1115
B(  0-C ,  7-H ) :   0.8200 B(  0-C ,  8-H ) :   0.8067 B(  0-C ,  9-H ) :   0.7971
B(  1-C ,  2-H ) :   0.9057 B(  1-C ,  3-H ) :   0.9222 B(  1-C ,  4-C ) :   1.0144
B(  1-C ,  7-H ) :   0.1691 B(  1-C ,  8-H ) :   0.2036 B(  1-C ,  9-H ) :   0.2096
B(  2-H ,  4-C ) :   0.1160 B(  3-H ,  4-C ) :   0.1005 B(  4-C ,  5-O ) :   1.5271
B(  4-C ,  6-O ) :   1.4374

Dispersion correction           -0.010997444
FINAL SINGLE POINT ENERGY      -267.524511132217

DIPOLE MOMENT
-------------
                                X             Y             Z
Electronic contribution:      4.40234      -0.21176       3.88378
Nuclear contribution   :     -5.85873      -0.10793      -5.24103
                        -----------------------------------------
Total Dipole Moment    :     -1.45639      -0.31969      -1.35725
                        -----------------------------------------
Magnitude (a.u.)       :      2.01628
Magnitude (Debye)      :      5.12499

Rotational constants in cm-1:     0.292505     0.135951     0.110253
Rotational constants in MHz :  8769.065873  4075.717001  3305.311891

                             ****ORCA TERMINATED NORMALLY****
TOTAL RUN TIME: 0 days 0 hours 0 minutes 16 seconds 950 msec
