                         Program Version 5.0.0 -  RELEASE  -
|  1> !B3LYP D3BJ RIJCOSX def2-SVPD def2/J TightSCF
|  2>
|  3> *xyz 1 1
|  4> C          3.34350        3.35457       -3.59200
|  5> C          2.95263        1.86308       -3.57485
|  6> C          4.25587        3.70385       -4.72605
|  7> N          3.73403        4.29378       -5.80077
|  8> N          5.51504        3.40725       -4.63718
|  9> H          6.14919        3.60120       -5.39905
| 10> H          5.81358        2.89950       -3.80879
| 11> H          2.74138        4.51311       -5.82470
| 12> H          4.28755        4.52126       -6.61434
| 13> H          3.86125        3.59725       -2.66298
| 14> H          2.44649        3.97346       -3.65656
| 15> H          2.44395        1.61721       -4.48352
| 16> H          2.30781        1.67290       -2.74242
| 17> H          3.83491        1.26414       -3.48670
| 18> *
| 19> %MaxCore 64000
| 20>
| 21> %pal nprocs 4
| 22> end
| 23>
| 24> %scf
| 25>   MaxIter 150
| 26> end
| 27>
| 28>
| 29>                          ****END OF INPUT****

CARTESIAN COORDINATES (ANGSTROEM)
---------------------------------
  C      3.343500    3.354570   -3.592000
  C      2.952630    1.863080   -3.574850
  C      4.255870    3.703850   -4.726050
  N      3.734030    4.293780   -5.800770
  N      5.515040    3.407250   -4.637180
  H      6.149190    3.601200   -5.399050
  H      5.813580    2.899500   -3.808790
  H      2.741380    4.513110   -5.824700
  H      4.287550    4.521260   -6.614340
  H      3.861250    3.597250   -2.662980
  H      2.446490    3.973460   -3.656560
  H      2.443950    1.617210   -4.483520
  H      2.307810    1.672900   -2.742420
  H      3.834910    1.264140   -3.486700

 Total Charge           Charge          ....    1
 Multiplicity           Mult            ....    1
 Number of Electrons    NEL             ....   40
 Basis Dimension        Dim             ....  172

ORBITAL ENERGIES
----------------

  NO   OCC          E(Eh)            E(eV)
   0   2.0000     -14.580069      -396.7438
   1   2.0000     -14.575547      -396.6208
   2   2.0000     -10.505455      -285.8680
   3   2.0000     -10.382504      -282.5223
   4   2.0000     -10.340962      -281.3919
   5   2.0000      -1.197305       -32.5803
   6   2.0000      -1.102965       -30.0132
   7   2.0000      -0.962562       -26.1926
   8   2.0000      -0.857272       -23.3275
   9   2.0000      -0.814810       -22.1721
  10   2.0000      -0.780811       -21.2469
  11   2.0000      -0.750467       -20.4213
  12   2.0000      -0.705952       -19.2099
  13   2.0000      -0.649528       -17.6746
  14   2.0000      -0.625161       -17.0115
  15   2.0000      -0.614507       -16.7216
  16   2.0000      -0.546774       -14.8785
  17   2.0000      -0.538176       -14.6445
  18   2.0000      -0.530381       -14.4324
  19   2.0000      -0.495323       -13.4784
  20   0.0000      -0.212772        -5.7898
  21   0.0000      -0.163418        -4.4468
  22   0.0000      -0.119901        -3.2627
  23   0.0000      -0.116818        -3.1788
  24   0.0000      -0.087425        -2.3790

MULLIKEN ATOMIC CHARGES
-----------------------
   0 C :   -0.143283
   1 C :    0.852010
   2 C :    0.621959
   3 N :    0.101738
   4 N :    0.277139
   5 H :   -0.193797
   6 H :    0.035631
   7 H :    0.009923
   8 H :   -0.168019
   9 H :   -0.045375
  10 H :   -0.083963
  11 H :   -0.115764
  12 H :   -0.053551
  13 H :   -0.094650
Sum of atomic charges:    1.0000000

LOEWDIN ATOMIC CHARGES
----------------------
   0 C :    0.016888
   1 C :    0.182479
   2 C :   -0.049707
   3 N :    0.288616
   4 N :    0.292331
   5 H :    0.051976
   6 H :    0.058709
   7 H :    0.050150
   8 H :    0.041675
   9 H :    0.042325
  10 H :    0.036176
  11 H :   -0.004794
  12 H :    0.005460
  13 H :   -0.012284

  Mayer bond orders larger than 0.100000
B(  0-C ,  1-C ) :   1.2645 B(  0-C ,  2-C ) :   1.1384 B(  0-C ,  9-H ) :   0.8629
B(  0-C , 10-H ) :   0.8664 B(  0-C , 11-H ) :   0.1770 B(  0-C , 12-H ) :   0.1711
B(  0-C , 13-H ) :   0.2104 B(  1-C , 11-H ) :   0.8091 B(  1-C , 12-H ) :   0.8114
B(  1-C , 13-H ) :   0.7550 B(  2-C ,  3-N ) :   1.0436 B(  2-C ,  4-N ) :   1.2563
B(  2-C ,  5-H ) :  -0.1471 B(  2-C ,  8-H ) :  -0.2066 B(  2-C , 10-H ) :   0.1462
B(  3-N ,  4-N ) :   0.1554 B(  3-N ,  7-H ) :   1.1025 B(  3-N ,  8-H ) :   1.3247
B(  4-N ,  5-H ) :   1.2801 B(  4-N ,  6-H ) :   1.0686 B(  5-H ,  6-H ) :  -0.1623
B(  7-H ,  8-H ) :  -0.1831

Dispersion correction           -0.016658870
FINAL SINGLE POINT ENERGY      -228.752448652003

DIPOLE MOMENT
-------------
                                X             Y             Z
Electronic contribution:      2.37690       2.57697      -2.28285
Nuclear contribution   :     -1.74195      -2.09431       1.58516
                        -----------------------------------------
Total Dipole Moment    :      0.63495       0.48266      -0.69769
                        -----------------------------------------
Magnitude (a.u.)       :      1.05967
Magnitude (Debye)      :      2.69347

Rotational constants in cm-1:     0.258965     0.126500     0.098780
Rotational constants in MHz :  7763.584551  3792.383135  2961.336502

                             ****ORCA TERMINATED NORMALLY****
TOTAL RUN TIME: 0 days 0 hours 0 minutes 19 seconds 771 msec
