                         Program Version 5.0.0 -  RELEASE  -
|  1> !B3LYP D3BJ RIJCOSX def2-SVPD def2/J TightSCF
|  2>
|  3> *xyz 0 1
|  4> C          2.95263        1.86308       -3.57485
|  5> C          4.12921        0.89839       -3.41895
|  6> H          3.73369       -0.10060       -3.23763
|  7> H          4.71910        0.86256       -4.33901
|  8> C          5.01734        1.31521       -2.22130
|  9> F          4.73706        0.85411       -1.12283
| 10> O          5.92815        2.16811       -2.49136
| 11> H          2.35067        1.56005       -4.40594
| 12> H          3.32277        2.85258       -3.74453
| 13> H          2.36134        1.85149       -2.68315
| 14> *
| 15> %MaxCore 64000
| 16>
| 17> %pal nprocs 4
| 18> end
| 19>
| 20> %scf
| 21>   MaxIter 150
| 22> end
| 23>
| 24>
| 25>                          ****END OF INPUT****

CARTESIAN COORDINATES (ANGSTROEM)
---------------------------------
  C      2.952630    1.863080   -3.574850
  C      4.129210    0.898390   -3.418950
  H      3.733690   -0.100600   -3.237630
  H      4.719100    0.862560   -4.339010
  C      5.017340    1.315210   -2.221300
  F      4.737060    0.854110   -1.122830
  O      5.928150    2.168110   -2.491360
  H      2.350670    1.560050   -4.405940
  H      3.322770    2.852580   -3.744530
  H      2.361340    1.851490   -2.683150

 Total Charge           Charge          ....    0
 Multiplicity           Mult            ....    1
 Number of Electrons    NEL             ....   40
 Basis Dimension        Dim             ....  146

ORBITAL ENERGIES
----------------

  NO   OCC          E(Eh)            E(eV)
   0   2.0000     -24.783954      -674.4057
   1   2.0000     -19.146753      -521.0096
   2   2.0000     -10.369865      -282.1784
   3   2.0000     -10.215933      -277.9897
   4   2.0000     -10.193848      -277.3887
   5   2.0000      -1.334147       -36.3040
   6   2.0000      -1.014105       -27.5952
   7   2.0000      -0.796059       -21.6619
   8   2.0000      -0.692562       -18.8456
   9   2.0000      -0.648524       -17.6472
  10   2.0000      -0.568791       -15.4776
  11   2.0000      -0.553118       -15.0511
  12   2.0000      -0.507063       -13.7979
  13   2.0000      -0.467046       -12.7090
  14   2.0000      -0.437915       -11.9163
  15   2.0000      -0.403712       -10.9855
  16   2.0000      -0.382275       -10.4022
  17   2.0000      -0.375418       -10.2156
  18   2.0000      -0.348669        -9.4878
  19   2.0000      -0.289745        -7.8844
  20   0.0000      -0.037362        -1.0167
  21   0.0000       0.011640         0.3167
  22   0.0000       0.043958         1.1962
  23   0.0000       0.054782         1.4907
  24   0.0000       0.072663         1.9773

MULLIKEN ATOMIC CHARGES
-----------------------
   0 C :    0.740431
   1 C :   -0.144399
   2 H :   -0.064704
   3 H :   -0.078415
   4 C :    0.754809
   5 F :   -0.337200
   6 O :   -0.507468
   7 H :   -0.125379
   8 H :   -0.116196
   9 H :   -0.121478
Sum of atomic charges:   -0.0000000

LOEWDIN ATOMIC CHARGES
----------------------
   0 C :    0.146231
   1 C :    0.012204
   2 H :    0.017481
   3 H :    0.032571
   4 C :   -0.016802
   5 F :   -0.006344
   6 O :   -0.148345
   7 H :   -0.014512
   8 H :   -0.008997
   9 H :   -0.013488

  Mayer bond orders larger than 0.100000
B(  0-C ,  1-C ) :   1.3210 B(  0-C ,  2-H ) :   0.1143 B(  0-C ,  3-H ) :   0.1048
B(  0-C ,  7-H ) :   0.8284 B(  0-C ,  8-H ) :   0.8113 B(  0-C ,  9-H ) :   0.7932
B(  1-C ,  2-H ) :   0.8982 B(  1-C ,  3-H ) :   0.9211 B(  1-C ,  4-C ) :   1.0479
B(  1-C ,  7-H ) :   0.1574 B(  1-C ,  8-H ) :   0.1818 B(  1-C ,  9-H ) :   0.1853
B(  4-C ,  5-F ) :   0.7697 B(  4-C ,  6-O ) :   1.7795 B(  5-F ,  6-O ) :   0.1280

Dispersion correction           -0.010391843
FINAL SINGLE POINT ENERGY      -292.045455435756

DIPOLE MOMENT
-------------
                                X             Y             Z
Electronic contribution:      5.04071      -1.18673       6.51196
Nuclear contribution   :     -6.06116       0.51860      -6.80802
                        -----------------------------------------
Total Dipole Moment    :     -1.02045      -0.66813      -0.29606
                        -----------------------------------------
Magnitude (a.u.)       :      1.25514
Magnitude (Debye)      :      3.19031

Rotational constants in cm-1:     0.276196     0.132056     0.105465
Rotational constants in MHz :  8280.156449  3958.940601  3161.775929

                             ****ORCA TERMINATED NORMALLY****
TOTAL RUN TIME: 0 days 0 hours 0 minutes 17 seconds 662 msec
