                         Program Version 5.0.0 -  RELEASE  -
|  1> !B3LYP D3BJ RIJCOSX def2-SVPD def2/J TightSCF
|  2>
|  3> *xyz 0 1
|  4> C          3.34350        3.35457       -3.59200
|  5> C          2.95263        1.86308       -3.57485
|  6> C          4.25587        3.70385       -4.72605
|  7> C          3.73403        4.29378       -5.80077
|  8> N          5.51504        3.40725       -4.63718
|  9> H          6.14919        3.60120       -5.39905
| 10> H          5.81358        2.89950       -3.80879
| 11> H          2.74138        4.51311       -5.82470
| 12> H          4.28755        4.52126       -6.61434
| 13> H          3.86125        3.59725       -2.66298
| 14> H          2.44649        3.97346       -3.65656
| 15> H          2.44395        1.61721       -4.48352
| 16> H          2.30781        1.67290       -2.74242
| 17> H          3.83491        1.26414       -3.48670
| 18> *
| 19> %MaxCore 64000
| 20>
| 21> %pal nprocs 4
| 22> end
| 23>
| 24> %scf
| 25>   MaxIter 150
| 26> end
| 27>
| 28>
| 29>                          ****END OF INPUT****

CARTESIAN COORDINATES (ANGSTROEM)
---------------------------------
  C      3.343500    3.354570   -3.592000
  C      2.952630    1.863080   -3.574850
  C      4.255870    3.703850   -4.726050
  C      3.734030    4.293780   -5.800770
  N      5.515040    3.407250   -4.637180
  H      6.149190    3.601200   -5.399050
  H      5.813580    2.899500   -3.808790
  H      2.741380    4.513110   -5.824700
  H      4.287550    4.521260   -6.614340
  H      3.861250    3.597250   -2.662980
  H      2.446490    3.973460   -3.656560
  H      2.443950    1.617210   -4.483520
  H      2.307810    1.672900   -2.742420
  H      3.834910    1.264140   -3.486700

 Total Charge           Charge          ....    0
 Multiplicity           Mult            ....    1
 Number of Electrons    NEL             ....   40
 Basis Dimension        Dim             ....  172

ORBITAL ENERGIES
----------------

  NO   OCC          E(Eh)            E(eV)
   0   2.0000     -14.334566      -390.0634
   1   2.0000     -10.201251      -277.5902
   2   2.0000     -10.182225      -277.0724
   3   2.0000     -10.170494      -276.7532
   4   2.0000     -10.115229      -275.2494
   5   2.0000      -0.929315       -25.2880
   6   2.0000      -0.770626       -20.9698
   7   2.0000      -0.706930       -19.2365
   8   2.0000      -0.630728       -17.1630
   9   2.0000      -0.568437       -15.4680
  10   2.0000      -0.532313       -14.4850
  11   2.0000      -0.478416       -13.0184
  12   2.0000      -0.437968       -11.9177
  13   2.0000      -0.421035       -11.4569
  14   2.0000      -0.394128       -10.7248
  15   2.0000      -0.382668       -10.4129
  16   2.0000      -0.355077        -9.6621
  17   2.0000      -0.335504        -9.1295
  18   2.0000      -0.332121        -9.0375
  19   2.0000      -0.187648        -5.1062
  20   0.0000       0.012682         0.3451
  21   0.0000       0.040170         1.0931
  22   0.0000       0.051271         1.3952
  23   0.0000       0.057284         1.5588
  24   0.0000       0.065728         1.7886

MULLIKEN ATOMIC CHARGES
-----------------------
   0 C :    0.029347
   1 C :    0.863549
   2 C :   -0.137565
   3 C :    0.611293
   4 N :    0.392452
   5 H :   -0.246909
   6 H :   -0.143329
   7 H :   -0.223624
   8 H :   -0.596556
   9 H :   -0.147603
  10 H :   -0.032423
  11 H :   -0.148683
  12 H :   -0.094629
  13 H :   -0.125320
Sum of atomic charges:    0.0000000

LOEWDIN ATOMIC CHARGES
----------------------
   0 C :   -0.025285
   1 C :    0.143338
   2 C :   -0.272009
   3 C :    0.184966
   4 N :    0.176450
   5 H :    0.011745
   6 H :    0.005242
   7 H :   -0.089155
   8 H :   -0.096387
   9 H :    0.013559
  10 H :    0.018939
  11 H :   -0.018293
  12 H :   -0.023789
  13 H :   -0.029322

  Mayer bond orders larger than 0.100000
B(  0-C ,  1-C ) :   1.2350 B(  0-C ,  2-C ) :   1.1713 B(  0-C ,  3-C ) :   0.1793
B(  0-C ,  9-H ) :   0.7976 B(  0-C , 10-H ) :   0.8242 B(  0-C , 11-H ) :   0.1920
B(  0-C , 12-H ) :   0.1926 B(  0-C , 13-H ) :   0.2330 B(  1-C , 11-H ) :   0.8196
B(  1-C , 12-H ) :   0.7828 B(  1-C , 13-H ) :   0.7579 B(  2-C ,  3-C ) :   1.5925
B(  2-C ,  4-N ) :   1.3275 B(  2-C ,  8-H ) :   0.1782 B(  2-C ,  9-H ) :   0.1873
B(  2-C , 10-H ) :   0.1818 B(  3-C ,  4-N ) :   0.2578 B(  3-C ,  7-H ) :   0.9170
B(  3-C ,  8-H ) :   0.6197 B(  4-N ,  5-H ) :   1.2293 B(  4-N ,  6-H ) :   1.0863
B(  5-H ,  6-H ) :  -0.1286

Dispersion correction           -0.017393645
FINAL SINGLE POINT ENERGY      -212.295553523371

DIPOLE MOMENT
-------------
                                X             Y             Z
Electronic contribution:      2.33876       1.48391      -0.86441
Nuclear contribution   :     -1.79713      -1.86925       1.28073
                        -----------------------------------------
Total Dipole Moment    :      0.54164      -0.38534       0.41632
                        -----------------------------------------
Magnitude (a.u.)       :      0.78433
Magnitude (Debye)      :      1.99361

Rotational constants in cm-1:     0.269040     0.129645     0.102087
Rotational constants in MHz :  8065.609820  3886.645139  3060.489045

                             ****ORCA TERMINATED NORMALLY****
TOTAL RUN TIME: 0 days 0 hours 0 minutes 23 seconds 23 msec
