                         Program Version 5.0.0 -  RELEASE  -
|  1> !B3LYP D3BJ RIJCOSX def2-SVPD def2/J TightSCF
|  2>
|  3> *xyz 0 1
|  4> C          3.34350        3.35457       -3.59200
|  5> C          2.95263        1.86308       -3.57485
|  6> C          4.25587        3.70385       -4.72605
|  7> N          3.73403        4.29378       -5.80077
|  8> C          5.51504        3.40725       -4.63718
|  9> H          6.14919        3.60120       -5.39905
| 10> H          5.81358        2.89950       -3.80879
| 11> H          2.74138        4.51311       -5.82470
| 12> H          4.28755        4.52126       -6.61434
| 13> H          3.86125        3.59725       -2.66298
| 14> H          2.44649        3.97346       -3.65656
| 15> H          2.44395        1.61721       -4.48352
| 16> H          2.30781        1.67290       -2.74242
| 17> H          3.83491        1.26414       -3.48670
| 18> *
| 19> %MaxCore 64000
| 20>
| 21> %pal nprocs 4
| 22> end
| 23>
| 24> %scf
| 25>   MaxIter 150
| 26> end
| 27>
| 28>
| 29>                          ****END OF INPUT****

CARTESIAN COORDINATES (ANGSTROEM)
---------------------------------
  C      3.343500    3.354570   -3.592000
  C      2.952630    1.863080   -3.574850
  C      4.255870    3.703850   -4.726050
  N      3.734030    4.293780   -5.800770
  C      5.515040    3.407250   -4.637180
  H      6.149190    3.601200   -5.399050
  H      5.813580    2.899500   -3.808790
  H      2.741380    4.513110   -5.824700
  H      4.287550    4.521260   -6.614340
  H      3.861250    3.597250   -2.662980
  H      2.446490    3.973460   -3.656560
  H      2.443950    1.617210   -4.483520
  H      2.307810    1.672900   -2.742420
  H      3.834910    1.264140   -3.486700

 Total Charge           Charge          ....    0
 Multiplicity           Mult            ....    1
 Number of Electrons    NEL             ....   40
 Basis Dimension        Dim             ....  172

ORBITAL ENERGIES
----------------

  NO   OCC          E(Eh)            E(eV)
   0   2.0000     -14.330691      -389.9579
   1   2.0000     -10.198880      -277.5256
   2   2.0000     -10.181825      -277.0616
   3   2.0000     -10.168408      -276.6965
   4   2.0000     -10.114002      -275.2160
   5   2.0000      -0.914529       -24.8856
   6   2.0000      -0.773176       -21.0392
   7   2.0000      -0.710790       -19.3416
   8   2.0000      -0.631658       -17.1883
   9   2.0000      -0.562167       -15.2973
  10   2.0000      -0.520441       -14.1619
  11   2.0000      -0.481903       -13.1133
  12   2.0000      -0.439401       -11.9567
  13   2.0000      -0.414683       -11.2841
  14   2.0000      -0.394438       -10.7332
  15   2.0000      -0.383395       -10.4327
  16   2.0000      -0.350640        -9.5414
  17   2.0000      -0.339627        -9.2417
  18   2.0000      -0.327996        -8.9252
  19   2.0000      -0.192133        -5.2282
  20   0.0000       0.015043         0.4093
  21   0.0000       0.039964         1.0875
  22   0.0000       0.051309         1.3962
  23   0.0000       0.057779         1.5723
  24   0.0000       0.067459         1.8356

MULLIKEN ATOMIC CHARGES
-----------------------
   0 C :    0.041541
   1 C :    0.822842
   2 C :    0.052578
   3 N :    0.204764
   4 C :    0.564414
   5 H :   -0.546984
   6 H :   -0.197933
   7 H :   -0.138851
   8 H :   -0.227499
   9 H :   -0.007187
  10 H :   -0.199356
  11 H :   -0.151542
  12 H :   -0.085938
  13 H :   -0.130849
Sum of atomic charges:   -0.0000000

LOEWDIN ATOMIC CHARGES
----------------------
   0 C :   -0.025589
   1 C :    0.144505
   2 C :   -0.262429
   3 N :    0.175885
   4 C :    0.174323
   5 H :   -0.085062
   6 H :   -0.075672
   7 H :   -0.006073
   8 H :   -0.000117
   9 H :    0.021101
  10 H :    0.008495
  11 H :   -0.021146
  12 H :   -0.024612
  13 H :   -0.023610

  Mayer bond orders larger than 0.100000
B(  0-C ,  1-C ) :   1.2586 B(  0-C ,  2-C ) :   1.0961 B(  0-C ,  3-N ) :   0.1212
B(  0-C ,  4-C ) :   0.1956 B(  0-C ,  9-H ) :   0.8079 B(  0-C , 10-H ) :   0.8042
B(  0-C , 11-H ) :   0.2049 B(  0-C , 12-H ) :   0.1719 B(  0-C , 13-H ) :   0.2108
B(  1-C , 10-H ) :   0.1126 B(  1-C , 11-H ) :   0.8012 B(  1-C , 12-H ) :   0.7839
B(  1-C , 13-H ) :   0.8034 B(  2-C ,  3-N ) :   1.1335 B(  2-C ,  4-C ) :   1.7241
B(  2-C ,  5-H ) :   0.2425 B(  2-C ,  6-H ) :   0.1605 B(  2-C ,  8-H ) :  -0.1371
B(  2-C ,  9-H ) :   0.1387 B(  2-C , 10-H ) :   0.1654 B(  3-N ,  4-C ) :   0.2738
B(  3-N ,  7-H ) :   1.1055 B(  3-N ,  8-H ) :   1.2960 B(  4-C ,  5-H ) :   0.6216
B(  4-C ,  6-H ) :   0.7456 B(  7-H ,  8-H ) :  -0.1680

Dispersion correction           -0.017415736
FINAL SINGLE POINT ENERGY      -212.295675451804

DIPOLE MOMENT
-------------
                                X             Y             Z
Electronic contribution:      0.78916       2.27296      -1.86865
Nuclear contribution   :     -1.38463      -2.07457       1.55023
                        -----------------------------------------
Total Dipole Moment    :     -0.59547       0.19838      -0.31842
                        -----------------------------------------
Magnitude (a.u.)       :      0.70379
Magnitude (Debye)      :      1.78890

Rotational constants in cm-1:     0.272312     0.128195     0.101724
Rotational constants in MHz :  8163.717141  3843.180148  3049.598073

                             ****ORCA TERMINATED NORMALLY****
TOTAL RUN TIME: 0 days 0 hours 0 minutes 22 seconds 277 msec
