                         Program Version 5.0.0 -  RELEASE  -
|  1> !LC-PBE RIJCOSX def2-SVPD def2/J TightSCF
|  2> *xyz -1 1
|  3> C          2.49556        1.81615       -2.13636
|  4> C          1.87218        0.42790       -2.07750
|  5> H          2.61427       -0.36583       -2.19889
|  6> H          1.38995        0.27309       -1.11236
|  7> S          0.57902        0.14047       -3.29794
|  8> O          0.22886       -1.24687       -3.12787
|  9> O         -0.43927        1.11897       -3.01455
| 10> O          1.24788        0.40347       -4.59565
| 11> H          2.96535        1.95613       -3.08747
| 12> H          3.22581        1.91242       -1.36024
| 13> H          1.73350        2.55528       -2.00274
| 14> *
| 15>
| 16> %MaxCore 64000
| 17>
| 18> %pal nprocs 4
| 19> end
| 20>
| 21> %scf
| 22>   MaxIter 150
| 23> end
| 24>
| 25>
| 26>                          ****END OF INPUT****

CARTESIAN COORDINATES (ANGSTROEM)
---------------------------------
  C      2.495560    1.816150   -2.136360
  C      1.872180    0.427900   -2.077500
  H      2.614270   -0.365830   -2.198890
  H      1.389950    0.273090   -1.112360
  S      0.579020    0.140470   -3.297940
  O      0.228860   -1.246870   -3.127870
  O     -0.439270    1.118970   -3.014550
  O      1.247880    0.403470   -4.595650
  H      2.965350    1.956130   -3.087470
  H      3.225810    1.912420   -1.360240
  H      1.733500    2.555280   -2.002740

 Total Charge           Charge          ....   -1
 Multiplicity           Mult            ....    1
 Number of Electrons    NEL             ....   58
 Basis Dimension        Dim             ....  176

ORBITAL ENERGIES
----------------

  NO   OCC          E(Eh)            E(eV)
   0   2.0000     -88.314267     -2403.1534
   1   2.0000     -18.776686      -510.9396
   2   2.0000     -18.776455      -510.9333
   3   2.0000     -18.761265      -510.5200
   4   2.0000      -9.991948      -271.8947
   5   2.0000      -9.983237      -271.6577
   6   2.0000      -7.936287      -215.9574
   7   2.0000      -5.958575      -162.1411
   8   2.0000      -5.958442      -162.1374
   9   2.0000      -5.958276      -162.1329
  10   2.0000      -1.112679       -30.2775
  11   2.0000      -0.960076       -26.1250
  12   2.0000      -0.932699       -25.3800
  13   2.0000      -0.807410       -21.9708
  14   2.0000      -0.669196       -18.2097
  15   2.0000      -0.534444       -14.5430
  16   2.0000      -0.471901       -12.8411
  17   2.0000      -0.466187       -12.6856
  18   2.0000      -0.427103       -11.6221
  19   2.0000      -0.415416       -11.3040
  20   2.0000      -0.400482       -10.8977
  21   2.0000      -0.369587       -10.0570
  22   2.0000      -0.345320        -9.3966
  23   2.0000      -0.298135        -8.1127
  24   2.0000      -0.295323        -8.0361
  25   2.0000      -0.257290        -7.0012
  26   2.0000      -0.243467        -6.6251
  27   2.0000      -0.232009        -6.3133
  28   2.0000      -0.200750        -5.4627
  29   0.0000       0.206348         5.6150
  30   0.0000       0.225893         6.1469
  31   0.0000       0.228660         6.2221
  32   0.0000       0.233847         6.3633
  33   0.0000       0.257089         6.9958

MULLIKEN ATOMIC CHARGES
-----------------------
   0 C :    0.513844
   1 C :   -0.488957
   2 H :    0.010700
   3 H :    0.045386
   4 S :    1.223103
   5 O :   -0.753075
   6 O :   -0.754171
   7 O :   -0.802181
   8 H :    0.012053
   9 H :   -0.024247
  10 H :    0.017545
Sum of atomic charges:   -1.0000000

LOEWDIN ATOMIC CHARGES
----------------------
   0 C :    0.070602
   1 C :   -0.164122
   2 H :    0.019292
   3 H :    0.014488
   4 S :    0.832464
   5 O :   -0.572354
   6 O :   -0.569582
   7 O :   -0.593460
   8 H :   -0.009145
   9 H :   -0.021115
  10 H :   -0.007069

  Mayer bond orders larger than 0.100000
B(  0-C ,  1-C ) :   1.2634 B(  0-C ,  8-H ) :   0.8681 B(  0-C ,  9-H ) :   0.8014
B(  0-C , 10-H ) :   0.8514 B(  1-C ,  2-H ) :   1.0251 B(  1-C ,  3-H ) :   0.9878
B(  1-C ,  4-S ) :   0.9530 B(  1-C ,  8-H ) :   0.1567 B(  1-C ,  9-H ) :   0.1658
B(  1-C , 10-H ) :   0.1635 B(  4-S ,  5-O ) :   1.3851 B(  4-S ,  6-O ) :   1.3425
B(  4-S ,  7-O ) :   1.3059

FINAL SINGLE POINT ENERGY      -701.578768063151

DIPOLE MOMENT
-------------
                                X             Y             Z
Electronic contribution:     -5.57701      -3.55413      -3.97394
Nuclear contribution   :      6.89220       4.11756       5.35566
                        -----------------------------------------
Total Dipole Moment    :      1.31518       0.56344       1.38172
                        -----------------------------------------
Magnitude (a.u.)       :      1.98905
Magnitude (Debye)      :      5.05576

Rotational constants in cm-1:     0.162183     0.084017     0.082390
Rotational constants in MHz :  4862.117324  2518.774315  2469.980309

                             ****ORCA TERMINATED NORMALLY****
TOTAL RUN TIME: 0 days 0 hours 0 minutes 16 seconds 536 msec
