                         Program Version 5.0.0 -  RELEASE  -
|  1> !LC-PBE RIJCOSX def2-SVPD def2/J TightSCF
|  2> *xyz 1 1
|  3> C          3.38093        2.08304       -3.35013
|  4> N          4.53592        1.18245       -3.42852
|  5> C          2.49556        1.81615       -2.13636
|  6> C          4.67196        0.12227       -4.22060
|  7> N          5.86602       -0.50785       -4.22428
|  8> N          3.69888       -0.31284       -4.98699
|  9> H          2.73141       -0.05009       -4.84900
| 10> H          3.89005       -1.05517       -5.64373
| 11> H          5.25193        1.30346       -2.72101
| 12> H          6.69516       -0.06232       -3.85160
| 13> H          5.97538       -1.39688       -4.69141
| 14> H          2.80646        1.98651       -4.26848
| 15> H          3.77871        3.09828       -3.30738
| 16> H          2.11090        0.81901       -2.18783
| 17> H          1.68276        2.51198       -2.12786
| 18> H          3.07216        1.93031       -1.24227
| 19> *
| 20>
| 21> %MaxCore 64000
| 22>
| 23> %pal nprocs 4
| 24> end
| 25>
| 26> %scf
| 27>   MaxIter 150
| 28> end
| 29>
| 30>
| 31>                          ****END OF INPUT****

CARTESIAN COORDINATES (ANGSTROEM)
---------------------------------
  C      3.380930    2.083040   -3.350130
  N      4.535920    1.182450   -3.428520
  C      2.495560    1.816150   -2.136360
  C      4.671960    0.122270   -4.220600
  N      5.866020   -0.507850   -4.224280
  N      3.698880   -0.312840   -4.986990
  H      2.731410   -0.050090   -4.849000
  H      3.890050   -1.055170   -5.643730
  H      5.251930    1.303460   -2.721010
  H      6.695160   -0.062320   -3.851600
  H      5.975380   -1.396880   -4.691410
  H      2.806460    1.986510   -4.268480
  H      3.778710    3.098280   -3.307380
  H      2.110900    0.819010   -2.187830
  H      1.682760    2.511980   -2.127860
  H      3.072160    1.930310   -1.242270

 Total Charge           Charge          ....    1
 Multiplicity           Mult            ....    1
 Number of Electrons    NEL             ....   48
 Basis Dimension        Dim             ....  200

ORBITAL ENERGIES
----------------

  NO   OCC          E(Eh)            E(eV)
   0   2.0000     -14.457498      -393.4085
   1   2.0000     -14.454897      -393.3377
   2   2.0000     -14.449413      -393.1885
   3   2.0000     -10.474316      -285.0206
   4   2.0000     -10.334002      -281.2025
   5   2.0000     -10.261042      -279.2171
   6   2.0000      -1.387972       -37.7686
   7   2.0000      -1.269318       -34.5399
   8   2.0000      -1.252569       -34.0841
   9   2.0000      -1.098623       -29.8950
  10   2.0000      -0.997069       -27.1316
  11   2.0000      -0.960381       -26.1333
  12   2.0000      -0.941526       -25.6202
  13   2.0000      -0.892464       -24.2852
  14   2.0000      -0.841303       -22.8930
  15   2.0000      -0.835464       -22.7341
  16   2.0000      -0.789475       -21.4827
  17   2.0000      -0.780512       -21.2388
  18   2.0000      -0.745680       -20.2910
  19   2.0000      -0.697943       -18.9920
  20   2.0000      -0.663177       -18.0460
  21   2.0000      -0.644031       -17.5250
  22   2.0000      -0.612472       -16.6662
  23   2.0000      -0.575302       -15.6548
  24   0.0000      -0.078782        -2.1438
  25   0.0000      -0.071417        -1.9434
  26   0.0000      -0.038343        -1.0434
  27   0.0000      -0.032366        -0.8807
  28   0.0000      -0.005522        -0.1503

MULLIKEN ATOMIC CHARGES
-----------------------
   0 C :    0.142588
   1 N :   -0.481025
   2 C :    0.395158
   3 C :    1.404174
   4 N :   -0.162277
   5 N :   -0.100280
   6 H :   -0.020008
   7 H :   -0.022521
   8 H :   -0.183446
   9 H :   -0.018442
  10 H :    0.021880
  11 H :   -0.041172
  12 H :   -0.082491
  13 H :   -0.000716
  14 H :    0.116571
  15 H :    0.032007
Sum of atomic charges:    1.0000000

LOEWDIN ATOMIC CHARGES
----------------------
   0 C :    0.021126
   1 N :    0.030532
   2 C :    0.124052
   3 C :   -0.029873
   4 N :    0.240455
   5 N :    0.262214
   6 H :    0.042487
   7 H :    0.051211
   8 H :    0.070344
   9 H :    0.045316
  10 H :    0.042133
  11 H :    0.031821
  12 H :    0.051531
  13 H :   -0.001835
  14 H :    0.013907
  15 H :    0.004580

  Mayer bond orders larger than 0.100000
B(  0-C ,  1-N ) :   0.9196 B(  0-C ,  2-C ) :   1.2590 B(  0-C ,  8-H ) :  -0.1910
B(  0-C , 11-H ) :   0.9119 B(  0-C , 12-H ) :   0.9644 B(  0-C , 13-H ) :   0.1561
B(  0-C , 14-H ) :   0.1289 B(  0-C , 15-H ) :   0.1639 B(  1-N ,  3-C ) :   0.9954
B(  1-N ,  4-N ) :   0.2449 B(  1-N ,  5-N ) :   0.2318 B(  1-N ,  8-H ) :   1.3448
B(  1-N , 11-H ) :   0.1297 B(  1-N , 12-H ) :   0.1273 B(  2-C , 13-H ) :   0.8705
B(  2-C , 14-H ) :   0.8259 B(  2-C , 15-H ) :   0.8504 B(  3-C ,  4-N ) :   0.7996
B(  3-C ,  5-N ) :   0.9451 B(  3-C ,  6-H ) :  -0.1647 B(  3-C ,  7-H ) :  -0.1426
B(  3-C ,  8-H ) :  -0.2466 B(  3-C ,  9-H ) :  -0.1648 B(  3-C , 10-H ) :  -0.1037
B(  4-N ,  5-N ) :   0.1691 B(  4-N ,  9-H ) :   1.1933 B(  4-N , 10-H ) :   1.1614
B(  5-N ,  6-H ) :   1.1671 B(  5-N ,  7-H ) :   1.2166 B(  6-H ,  7-H ) :  -0.1805
B(  9-H , 10-H ) :  -0.1600

FINAL SINGLE POINT ENERGY      -283.316536617856

DIPOLE MOMENT
-------------
                                X             Y             Z
Electronic contribution:      3.57365      -2.66637      -2.83212
Nuclear contribution   :     -2.93277       1.85779       2.25966
                        -----------------------------------------
Total Dipole Moment    :      0.64088      -0.80858      -0.57246
                        -----------------------------------------
Magnitude (a.u.)       :      1.17993
Magnitude (Debye)      :      2.99915

Rotational constants in cm-1:     0.245511     0.068839     0.059711
Rotational constants in MHz :  7360.233487  2063.743353  1790.088408

                             ****ORCA TERMINATED NORMALLY****
TOTAL RUN TIME: 0 days 0 hours 0 minutes 25 seconds 527 msec
