                         Program Version 5.0.0 -  RELEASE  -
|  1> !LC-PBE RIJCOSX def2-SVPD def2/J TightSCF
|  2> *xyz 0 1
|  3> C          2.49556        1.81615       -2.13636
|  4> C          1.87218        0.42790       -2.07750
|  5> H          2.61427       -0.36583       -2.19889
|  6> H          1.38995        0.27309       -1.11236
|  7> S          0.57902        0.14047       -3.29794
|  8> F          0.22886       -1.24687       -3.12787
|  9> O         -0.43927        1.11897       -3.01455
| 10> O          1.24788        0.40347       -4.59565
| 11> H          2.96535        1.95613       -3.08747
| 12> H          3.22581        1.91242       -1.36024
| 13> H          1.73350        2.55528       -2.00274
| 14> *
| 15>
| 16> %MaxCore 64000
| 17>
| 18> %pal nprocs 4
| 19> end
| 20>
| 21> %scf
| 22>   MaxIter 150
| 23> end
| 24>
| 25>
| 26>                          ****END OF INPUT****

CARTESIAN COORDINATES (ANGSTROEM)
---------------------------------
  C      2.495560    1.816150   -2.136360
  C      1.872180    0.427900   -2.077500
  H      2.614270   -0.365830   -2.198890
  H      1.389950    0.273090   -1.112360
  S      0.579020    0.140470   -3.297940
  F      0.228860   -1.246870   -3.127870
  O     -0.439270    1.118970   -3.014550
  O      1.247880    0.403470   -4.595650
  H      2.965350    1.956130   -3.087470
  H      3.225810    1.912420   -1.360240
  H      1.733500    2.555280   -2.002740

 Total Charge           Charge          ....    0
 Multiplicity           Mult            ....    1
 Number of Electrons    NEL             ....   58
 Basis Dimension        Dim             ....  176

ORBITAL ENERGIES
----------------

  NO   OCC          E(Eh)            E(eV)
   0   2.0000     -88.576658     -2410.2934
   1   2.0000     -24.635575      -670.3681
   2   2.0000     -19.012153      -517.3470
   3   2.0000     -18.996487      -516.9207
   4   2.0000     -10.195846      -277.4431
   5   2.0000     -10.146609      -276.1033
   6   2.0000      -8.199561      -223.1214
   7   2.0000      -6.226616      -169.4348
   8   2.0000      -6.219343      -169.2369
   9   2.0000      -6.218066      -169.2022
  10   2.0000      -1.546739       -42.0889
  11   2.0000      -1.285774       -34.9877
  12   2.0000      -1.170471       -31.8501
  13   2.0000      -1.000063       -27.2131
  14   2.0000      -0.904245       -24.6058
  15   2.0000      -0.841074       -22.8868
  16   2.0000      -0.752005       -20.4631
  17   2.0000      -0.749246       -20.3880
  18   2.0000      -0.711326       -19.3562
  19   2.0000      -0.645543       -17.5661
  20   2.0000      -0.637069       -17.3355
  21   2.0000      -0.590968       -16.0811
  22   2.0000      -0.574528       -15.6337
  23   2.0000      -0.549470       -14.9518
  24   2.0000      -0.532802       -14.4983
  25   2.0000      -0.521623       -14.1941
  26   2.0000      -0.474931       -12.9235
  27   2.0000      -0.457281       -12.4432
  28   2.0000      -0.445014       -12.1095
  29   0.0000       0.061694         1.6788
  30   0.0000       0.086728         2.3600
  31   0.0000       0.092250         2.5102
  32   0.0000       0.094173         2.5626
  33   0.0000       0.123210         3.3527

MULLIKEN ATOMIC CHARGES
-----------------------
   0 C :    0.486858
   1 C :   -0.545246
   2 H :    0.075051
   3 H :    0.110859
   4 S :    1.410697
   5 F :   -0.370955
   6 O :   -0.612287
   7 O :   -0.658885
   8 H :    0.038785
   9 H :    0.022056
  10 H :    0.043067
Sum of atomic charges:    0.0000000

LOEWDIN ATOMIC CHARGES
----------------------
   0 C :    0.114012
   1 C :   -0.125984
   2 H :    0.036475
   3 H :    0.031799
   4 S :    1.097259
   5 F :   -0.240254
   6 O :   -0.458159
   7 O :   -0.481313
   8 H :    0.008030
   9 H :    0.008470
  10 H :    0.009664

  Mayer bond orders larger than 0.100000
B(  0-C ,  1-C ) :   1.3256 B(  0-C ,  8-H ) :   0.8652 B(  0-C ,  9-H ) :   0.8140
B(  0-C , 10-H ) :   0.8483 B(  1-C ,  2-H ) :   0.9963 B(  1-C ,  3-H ) :   0.9604
B(  1-C ,  4-S ) :   0.9889 B(  1-C ,  8-H ) :   0.1514 B(  1-C ,  9-H ) :   0.1561
B(  1-C , 10-H ) :   0.1565 B(  4-S ,  5-F ) :   0.7373 B(  4-S ,  6-O ) :   1.5566
B(  4-S ,  7-O ) :   1.5201

FINAL SINGLE POINT ENERGY      -726.030746023368

DIPOLE MOMENT
-------------
                                X             Y             Z
Electronic contribution:     -6.75578      -6.42531      -4.00225
Nuclear contribution   :      7.60530       5.82028       5.38743
                        -----------------------------------------
Total Dipole Moment    :      0.84952      -0.60503       1.38518
                        -----------------------------------------
Magnitude (a.u.)       :      1.73392
Magnitude (Debye)      :      4.40726

Rotational constants in cm-1:     0.157861     0.081452     0.078859
Rotational constants in MHz :  4732.562506  2441.865430  2364.129821

                             ****ORCA TERMINATED NORMALLY****
TOTAL RUN TIME: 0 days 0 hours 0 minutes 18 seconds 325 msec
