                         Program Version 5.0.0 -  RELEASE  -
|  1> !LC-PBE RIJCOSX def2-SVPD def2/J TightSCF
|  2> *xyz 0 1
|  3> C          3.38093        2.08304       -3.35013
|  4> C          4.53592        1.18245       -3.42852
|  5> C          2.49556        1.81615       -2.13636
|  6> C          4.67196        0.12227       -4.22060
|  7> N          5.86602       -0.50785       -4.22428
|  8> N          3.69888       -0.31284       -4.98699
|  9> H          2.73141       -0.05009       -4.84900
| 10> H          3.89005       -1.05517       -5.64373
| 11> H          5.25193        1.30346       -2.72101
| 12> H          6.69516       -0.06232       -3.85160
| 13> H          5.97538       -1.39688       -4.69141
| 14> H          2.80646        1.98651       -4.26848
| 15> H          3.77871        3.09828       -3.30738
| 16> H          2.11090        0.81901       -2.18783
| 17> H          1.68276        2.51198       -2.12786
| 18> H          3.07216        1.93031       -1.24227
| 19> *
| 20>
| 21> %MaxCore 64000
| 22>
| 23> %pal nprocs 4
| 24> end
| 25>
| 26> %scf
| 27>   MaxIter 150
| 28> end
| 29>
| 30>
| 31>                          ****END OF INPUT****

CARTESIAN COORDINATES (ANGSTROEM)
---------------------------------
  C      3.380930    2.083040   -3.350130
  C      4.535920    1.182450   -3.428520
  C      2.495560    1.816150   -2.136360
  C      4.671960    0.122270   -4.220600
  N      5.866020   -0.507850   -4.224280
  N      3.698880   -0.312840   -4.986990
  H      2.731410   -0.050090   -4.849000
  H      3.890050   -1.055170   -5.643730
  H      5.251930    1.303460   -2.721010
  H      6.695160   -0.062320   -3.851600
  H      5.975380   -1.396880   -4.691410
  H      2.806460    1.986510   -4.268480
  H      3.778710    3.098280   -3.307380
  H      2.110900    0.819010   -2.187830
  H      1.682760    2.511980   -2.127860
  H      3.072160    1.930310   -1.242270

 Total Charge           Charge          ....    0
 Multiplicity           Mult            ....    1
 Number of Electrons    NEL             ....   48
 Basis Dimension        Dim             ....  200

ORBITAL ENERGIES
----------------

  NO   OCC          E(Eh)            E(eV)
   0   2.0000     -14.231850      -387.2683
   1   2.0000     -14.224429      -387.0664
   2   2.0000     -10.175541      -276.8905
   3   2.0000     -10.100667      -274.8531
   4   2.0000     -10.091148      -274.5941
   5   2.0000     -10.049082      -273.4494
   6   2.0000      -1.130428       -30.7605
   7   2.0000      -1.028519       -27.9874
   8   2.0000      -0.943085       -25.6626
   9   2.0000      -0.856625       -23.3099
  10   2.0000      -0.771648       -20.9976
  11   2.0000      -0.730781       -19.8856
  12   2.0000      -0.693685       -18.8761
  13   2.0000      -0.652657       -17.7597
  14   2.0000      -0.620428       -16.8827
  15   2.0000      -0.584635       -15.9087
  16   2.0000      -0.557909       -15.1815
  17   2.0000      -0.539779       -14.6881
  18   2.0000      -0.514306       -13.9950
  19   2.0000      -0.486869       -13.2484
  20   2.0000      -0.455798       -12.4029
  21   2.0000      -0.447223       -12.1696
  22   2.0000      -0.399045       -10.8586
  23   2.0000      -0.273883        -7.4527
  24   0.0000       0.089231         2.4281
  25   0.0000       0.111303         3.0287
  26   0.0000       0.124435         3.3860
  27   0.0000       0.136146         3.7047
  28   0.0000       0.151877         4.1328

MULLIKEN ATOMIC CHARGES
-----------------------
   0 C :   -0.259286
   1 C :   -0.386198
   2 C :    0.401686
   3 C :    0.958959
   4 N :   -0.102313
   5 N :   -0.041793
   6 H :   -0.050278
   7 H :   -0.169112
   8 H :   -0.283142
   9 H :   -0.038801
  10 H :   -0.088397
  11 H :   -0.031088
  12 H :    0.025000
  13 H :   -0.023788
  14 H :    0.066097
  15 H :    0.022455
Sum of atomic charges:   -0.0000000

LOEWDIN ATOMIC CHARGES
----------------------
   0 C :   -0.119618
   1 C :   -0.057170
   2 C :    0.082254
   3 C :   -0.229257
   4 N :    0.158520
   5 N :    0.176680
   6 H :    0.010997
   7 H :    0.004216
   8 H :   -0.035838
   9 H :    0.012120
  10 H :   -0.005804
  11 H :    0.011254
  12 H :    0.025512
  13 H :   -0.011568
  14 H :   -0.014408
  15 H :   -0.007890

  Mayer bond orders larger than 0.100000
B(  0-C ,  1-C ) :   1.1584 B(  0-C ,  2-C ) :   1.2292 B(  0-C ,  8-H ) :   0.2021
B(  0-C , 11-H ) :   0.9181 B(  0-C , 12-H ) :   0.9043 B(  0-C , 13-H ) :   0.1581
B(  0-C , 14-H ) :   0.1341 B(  0-C , 15-H ) :   0.1688 B(  1-C ,  3-C ) :   1.7139
B(  1-C ,  4-N ) :   0.4355 B(  1-C ,  5-N ) :   0.2643 B(  1-C ,  8-H ) :   0.9262
B(  1-C , 11-H ) :   0.2084 B(  1-C , 12-H ) :   0.1191 B(  2-C , 13-H ) :   0.8927
B(  2-C , 14-H ) :   0.8336 B(  2-C , 15-H ) :   0.8429 B(  3-C ,  4-N ) :   0.7193
B(  3-C ,  5-N ) :   0.9646 B(  3-C ,  7-H ) :  -0.1683 B(  3-C ,  9-H ) :  -0.1402
B(  4-N ,  5-N ) :   0.1067 B(  4-N ,  9-H ) :   1.2024 B(  4-N , 10-H ) :   1.1647
B(  5-N ,  6-H ) :   1.1533 B(  5-N ,  7-H ) :   1.3068 B(  6-H ,  7-H ) :  -0.1753
B(  9-H , 10-H ) :  -0.1519

FINAL SINGLE POINT ENERGY      -266.865331026046

DIPOLE MOMENT
-------------
                                X             Y             Z
Electronic contribution:      2.97899      -2.77858      -2.88239
Nuclear contribution   :     -2.84307       1.95814       2.32378
                        -----------------------------------------
Total Dipole Moment    :      0.13592      -0.82045      -0.55861
                        -----------------------------------------
Magnitude (a.u.)       :      1.00182
Magnitude (Debye)      :      2.54643

Rotational constants in cm-1:     0.248902     0.068887     0.059904
Rotational constants in MHz :  7461.898926  2065.183281  1795.882140

                             ****ORCA TERMINATED NORMALLY****
TOTAL RUN TIME: 0 days 0 hours 0 minutes 26 seconds 276 msec
