                         Program Version 5.0.0 -  RELEASE  -
|  1> !LC-PBE RIJCOSX def2-SVPD def2/J TightSCF
|  2> *xyz 0 1
|  3> C          2.49556        1.81615       -2.13636
|  4> C          1.87218        0.42790       -2.07750
|  5> H          2.61427       -0.36583       -2.19889
|  6> H          1.38995        0.27309       -1.11236
|  7> S          0.57902        0.14047       -3.29794
|  8> O          0.22886       -1.24687       -3.12787
|  9> F         -0.43927        1.11897       -3.01455
| 10> O          1.24788        0.40347       -4.59565
| 11> H          2.96535        1.95613       -3.08747
| 12> H          3.22581        1.91242       -1.36024
| 13> H          1.73350        2.55528       -2.00274
| 14> *
| 15>
| 16> %MaxCore 64000
| 17>
| 18> %pal nprocs 4
| 19> end
| 20>
| 21> %scf
| 22>   MaxIter 150
| 23> end
| 24>
| 25>
| 26>                          ****END OF INPUT****

CARTESIAN COORDINATES (ANGSTROEM)
---------------------------------
  C      2.495560    1.816150   -2.136360
  C      1.872180    0.427900   -2.077500
  H      2.614270   -0.365830   -2.198890
  H      1.389950    0.273090   -1.112360
  S      0.579020    0.140470   -3.297940
  O      0.228860   -1.246870   -3.127870
  F     -0.439270    1.118970   -3.014550
  O      1.247880    0.403470   -4.595650
  H      2.965350    1.956130   -3.087470
  H      3.225810    1.912420   -1.360240
  H      1.733500    2.555280   -2.002740

 Total Charge           Charge          ....    0
 Multiplicity           Mult            ....    1
 Number of Electrons    NEL             ....   58
 Basis Dimension        Dim             ....  176

ORBITAL ENERGIES
----------------

  NO   OCC          E(Eh)            E(eV)
   0   2.0000     -88.576784     -2410.2968
   1   2.0000     -24.635265      -670.3596
   2   2.0000     -19.012551      -517.3578
   3   2.0000     -18.997013      -516.9350
   4   2.0000     -10.195731      -277.4400
   5   2.0000     -10.150312      -276.2040
   6   2.0000      -8.199636      -223.1234
   7   2.0000      -6.226792      -169.4396
   8   2.0000      -6.219352      -169.2372
   9   2.0000      -6.218139      -169.2042
  10   2.0000      -1.546904       -42.0934
  11   2.0000      -1.285243       -34.9733
  12   2.0000      -1.171603       -31.8809
  13   2.0000      -1.003272       -27.3004
  14   2.0000      -0.899324       -24.4719
  15   2.0000      -0.846077       -23.0229
  16   2.0000      -0.761481       -20.7210
  17   2.0000      -0.750035       -20.4095
  18   2.0000      -0.703040       -19.1307
  19   2.0000      -0.645470       -17.5641
  20   2.0000      -0.631694       -17.1893
  21   2.0000      -0.602693       -16.4001
  22   2.0000      -0.578901       -15.7527
  23   2.0000      -0.550499       -14.9798
  24   2.0000      -0.539276       -14.6744
  25   2.0000      -0.518239       -14.1020
  26   2.0000      -0.474641       -12.9156
  27   2.0000      -0.456918       -12.4334
  28   2.0000      -0.447344       -12.1729
  29   0.0000       0.060715         1.6521
  30   0.0000       0.087196         2.3727
  31   0.0000       0.092126         2.5069
  32   0.0000       0.094970         2.5843
  33   0.0000       0.123623         3.3639

MULLIKEN ATOMIC CHARGES
-----------------------
   0 C :    0.511845
   1 C :   -0.524641
   2 H :    0.073175
   3 H :    0.098310
   4 S :    1.384010
   5 O :   -0.605829
   6 F :   -0.357690
   7 O :   -0.662690
   8 H :    0.042924
   9 H :    0.021056
  10 H :    0.019530
Sum of atomic charges:   -0.0000000

LOEWDIN ATOMIC CHARGES
----------------------
   0 C :    0.099214
   1 C :   -0.114995
   2 H :    0.050381
   3 H :    0.032260
   4 S :    1.094899
   5 O :   -0.458917
   6 F :   -0.238307
   7 O :   -0.479452
   8 H :    0.005774
   9 H :    0.006633
  10 H :    0.002512

  Mayer bond orders larger than 0.100000
B(  0-C ,  1-C ) :   1.2798 B(  0-C ,  8-H ) :   0.8734 B(  0-C ,  9-H ) :   0.8087
B(  0-C , 10-H ) :   0.8471 B(  1-C ,  2-H ) :   1.0120 B(  1-C ,  3-H ) :   0.9758
B(  1-C ,  4-S ) :   1.0172 B(  1-C ,  8-H ) :   0.1516 B(  1-C ,  9-H ) :   0.1562
B(  1-C , 10-H ) :   0.1524 B(  4-S ,  5-O ) :   1.5988 B(  4-S ,  6-F ) :   0.7169
B(  4-S ,  7-O ) :   1.5327

FINAL SINGLE POINT ENERGY      -726.030962482195

DIPOLE MOMENT
-------------
                                X             Y             Z
Electronic contribution:     -7.88805      -2.36200      -3.80080
Nuclear contribution   :      8.30151       3.35500       5.26935
                        -----------------------------------------
Total Dipole Moment    :      0.41346       0.99300       1.46855
                        -----------------------------------------
Magnitude (a.u.)       :      1.82034
Magnitude (Debye)      :      4.62694

Rotational constants in cm-1:     0.152913     0.083043     0.080351
Rotational constants in MHz :  4584.227971  2489.580280  2408.872860

                             ****ORCA TERMINATED NORMALLY****
TOTAL RUN TIME: 0 days 0 hours 0 minutes 18 seconds 313 msec
