                         Program Version 5.0.0 -  RELEASE  -
|  1> !LC-PBE RIJCOSX def2-SVPD def2/J TightSCF
|  2> *xyz 0 1
|  3> C          3.38093        2.08304       -3.35013
|  4> N          4.53592        1.18245       -3.42852
|  5> C          2.49556        1.81615       -2.13636
|  6> C          4.67196        0.12227       -4.22060
|  7> C          5.86602       -0.50785       -4.22428
|  8> N          3.69888       -0.31284       -4.98699
|  9> H          2.73141       -0.05009       -4.84900
| 10> H          3.89005       -1.05517       -5.64373
| 11> H          5.25193        1.30346       -2.72101
| 12> H          6.69516       -0.06232       -3.85160
| 13> H          5.97538       -1.39688       -4.69141
| 14> H          2.80646        1.98651       -4.26848
| 15> H          3.77871        3.09828       -3.30738
| 16> H          2.11090        0.81901       -2.18783
| 17> H          1.68276        2.51198       -2.12786
| 18> H          3.07216        1.93031       -1.24227
| 19> *
| 20>
| 21> %MaxCore 64000
| 22>
| 23> %pal nprocs 4
| 24> end
| 25>
| 26> %scf
| 27>   MaxIter 150
| 28> end
| 29>
| 30>
| 31>                          ****END OF INPUT****

CARTESIAN COORDINATES (ANGSTROEM)
---------------------------------
  C      3.380930    2.083040   -3.350130
  N      4.535920    1.182450   -3.428520
  C      2.495560    1.816150   -2.136360
  C      4.671960    0.122270   -4.220600
  C      5.866020   -0.507850   -4.224280
  N      3.698880   -0.312840   -4.986990
  H      2.731410   -0.050090   -4.849000
  H      3.890050   -1.055170   -5.643730
  H      5.251930    1.303460   -2.721010
  H      6.695160   -0.062320   -3.851600
  H      5.975380   -1.396880   -4.691410
  H      2.806460    1.986510   -4.268480
  H      3.778710    3.098280   -3.307380
  H      2.110900    0.819010   -2.187830
  H      1.682760    2.511980   -2.127860
  H      3.072160    1.930310   -1.242270

 Total Charge           Charge          ....    0
 Multiplicity           Mult            ....    1
 Number of Electrons    NEL             ....   48
 Basis Dimension        Dim             ....  200

ORBITAL ENERGIES
----------------

  NO   OCC          E(Eh)            E(eV)
   0   2.0000     -14.232160      -387.2768
   1   2.0000     -14.230046      -387.2192
   2   2.0000     -10.181121      -277.0424
   3   2.0000     -10.168186      -276.6904
   4   2.0000     -10.119790      -275.3735
   5   2.0000     -10.032897      -273.0090
   6   2.0000      -1.139187       -30.9989
   7   2.0000      -1.050674       -28.5903
   8   2.0000      -0.940811       -25.6008
   9   2.0000      -0.859918       -23.3995
  10   2.0000      -0.784342       -21.3430
  11   2.0000      -0.756555       -20.5869
  12   2.0000      -0.694046       -18.8860
  13   2.0000      -0.644631       -17.5413
  14   2.0000      -0.624194       -16.9852
  15   2.0000      -0.589823       -16.0499
  16   2.0000      -0.571904       -15.5623
  17   2.0000      -0.541599       -14.7376
  18   2.0000      -0.526430       -14.3249
  19   2.0000      -0.500735       -13.6257
  20   2.0000      -0.494980       -13.4691
  21   2.0000      -0.487595       -13.2681
  22   2.0000      -0.384882       -10.4732
  23   2.0000      -0.274339        -7.4652
  24   0.0000       0.082659         2.2493
  25   0.0000       0.114277         3.1096
  26   0.0000       0.119120         3.2414
  27   0.0000       0.121665         3.3107
  28   0.0000       0.150370         4.0918

MULLIKEN ATOMIC CHARGES
-----------------------
   0 C :    0.144507
   1 N :   -0.374925
   2 C :    0.418406
   3 C :    0.736890
   4 C :    0.271145
   5 N :    0.021489
   6 H :   -0.127543
   7 H :   -0.052798
   8 H :   -0.235303
   9 H :   -0.334526
  10 H :   -0.304120
  11 H :   -0.075177
  12 H :   -0.146161
  13 H :   -0.024585
  14 H :    0.080606
  15 H :    0.002096
Sum of atomic charges:   -0.0000000

LOEWDIN ATOMIC CHARGES
----------------------
   0 C :   -0.009125
   1 N :   -0.026179
   2 C :    0.095647
   3 C :   -0.240387
   4 C :    0.106548
   5 N :    0.177246
   6 H :   -0.001447
   7 H :    0.020862
   8 H :    0.046022
   9 H :   -0.094222
  10 H :   -0.097971
  11 H :    0.018067
  12 H :    0.028507
  13 H :   -0.008689
  14 H :   -0.007251
  15 H :   -0.007628

  Mayer bond orders larger than 0.100000
B(  0-C ,  1-N ) :   0.9444 B(  0-C ,  2-C ) :   1.2436 B(  0-C ,  8-H ) :  -0.2031
B(  0-C , 11-H ) :   0.9217 B(  0-C , 12-H ) :   0.9723 B(  0-C , 13-H ) :   0.1713
B(  0-C , 14-H ) :   0.1401 B(  0-C , 15-H ) :   0.1751 B(  1-N ,  3-C ) :   1.0202
B(  1-N ,  4-C ) :   0.2296 B(  1-N ,  5-N ) :   0.1739 B(  1-N ,  8-H ) :   1.3042
B(  1-N , 11-H ) :   0.1445 B(  1-N , 12-H ) :   0.1286 B(  2-C , 13-H ) :   0.8776
B(  2-C , 14-H ) :   0.8187 B(  2-C , 15-H ) :   0.8491 B(  3-C ,  4-C ) :   1.4777
B(  3-C ,  5-N ) :   1.0167 B(  3-C ,  6-H ) :  -0.1045 B(  3-C ,  8-H ) :  -0.2300
B(  3-C , 10-H ) :   0.1618 B(  4-C ,  5-N ) :   0.1897 B(  4-C ,  9-H ) :   0.9487
B(  4-C , 10-H ) :   0.8126 B(  5-N ,  6-H ) :   1.1905 B(  5-N ,  7-H ) :   1.1904
B(  6-H ,  7-H ) :  -0.1742

FINAL SINGLE POINT ENERGY      -266.851926385417

DIPOLE MOMENT
-------------
                                X             Y             Z
Electronic contribution:      1.47786      -1.09227      -2.03530
Nuclear contribution   :     -2.56090       1.59955       2.15496
                        -----------------------------------------
Total Dipole Moment    :     -1.08304       0.50728       0.11966
                        -----------------------------------------
Magnitude (a.u.)       :      1.20193
Magnitude (Debye)      :      3.05505

Rotational constants in cm-1:     0.249834     0.071381     0.061833
Rotational constants in MHz :  7489.842787  2139.945635  1853.706310

                             ****ORCA TERMINATED NORMALLY****
TOTAL RUN TIME: 0 days 0 hours 0 minutes 26 seconds 776 msec
