                         Program Version 5.0.0 -  RELEASE  -
|  1> !LC-PBE RIJCOSX def2-SVPD def2/J TightSCF
|  2> *xyz 0 1
|  3> C          2.49556        1.81615       -2.13636
|  4> C          1.87218        0.42790       -2.07750
|  5> H          2.61427       -0.36583       -2.19889
|  6> H          1.38995        0.27309       -1.11236
|  7> S          0.57902        0.14047       -3.29794
|  8> O          0.22886       -1.24687       -3.12787
|  9> O         -0.43927        1.11897       -3.01455
| 10> F          1.24788        0.40347       -4.59565
| 11> H          2.96535        1.95613       -3.08747
| 12> H          3.22581        1.91242       -1.36024
| 13> H          1.73350        2.55528       -2.00274
| 14> *
| 15>
| 16> %MaxCore 64000
| 17>
| 18> %pal nprocs 4
| 19> end
| 20>
| 21> %scf
| 22>   MaxIter 150
| 23> end
| 24>
| 25>
| 26>                          ****END OF INPUT****

CARTESIAN COORDINATES (ANGSTROEM)
---------------------------------
  C      2.495560    1.816150   -2.136360
  C      1.872180    0.427900   -2.077500
  H      2.614270   -0.365830   -2.198890
  H      1.389950    0.273090   -1.112360
  S      0.579020    0.140470   -3.297940
  O      0.228860   -1.246870   -3.127870
  O     -0.439270    1.118970   -3.014550
  F      1.247880    0.403470   -4.595650
  H      2.965350    1.956130   -3.087470
  H      3.225810    1.912420   -1.360240
  H      1.733500    2.555280   -2.002740

 Total Charge           Charge          ....    0
 Multiplicity           Mult            ....    1
 Number of Electrons    NEL             ....   58
 Basis Dimension        Dim             ....  176

ORBITAL ENERGIES
----------------

  NO   OCC          E(Eh)            E(eV)
   0   2.0000     -88.574663     -2410.2391
   1   2.0000     -24.612731      -669.7465
   2   2.0000     -19.012092      -517.3453
   3   2.0000     -19.012000      -517.3428
   4   2.0000     -10.194408      -277.4040
   5   2.0000     -10.150777      -276.2167
   6   2.0000      -8.197373      -223.0619
   7   2.0000      -6.224326      -169.3725
   8   2.0000      -6.217357      -169.1829
   9   2.0000      -6.216077      -169.1481
  10   2.0000      -1.510595       -41.1054
  11   2.0000      -1.294759       -35.2322
  12   2.0000      -1.193033       -32.4641
  13   2.0000      -1.002568       -27.2813
  14   2.0000      -0.885932       -24.1074
  15   2.0000      -0.837994       -22.8030
  16   2.0000      -0.744125       -20.2487
  17   2.0000      -0.724776       -19.7222
  18   2.0000      -0.701353       -19.0848
  19   2.0000      -0.647640       -17.6232
  20   2.0000      -0.628173       -17.0934
  21   2.0000      -0.605991       -16.4899
  22   2.0000      -0.583683       -15.8828
  23   2.0000      -0.553375       -15.0581
  24   2.0000      -0.544371       -14.8131
  25   2.0000      -0.519232       -14.1290
  26   2.0000      -0.484746       -13.1906
  27   2.0000      -0.465583       -12.6692
  28   2.0000      -0.462393       -12.5823
  29   0.0000       0.063786         1.7357
  30   0.0000       0.088488         2.4079
  31   0.0000       0.093303         2.5389
  32   0.0000       0.094404         2.5689
  33   0.0000       0.125813         3.4235

MULLIKEN ATOMIC CHARGES
-----------------------
   0 C :    0.507350
   1 C :   -0.526355
   2 H :    0.064797
   3 H :    0.109638
   4 S :    1.390373
   5 O :   -0.618233
   6 O :   -0.628725
   7 F :   -0.383479
   8 H :    0.016581
   9 H :    0.019413
  10 H :    0.048639
Sum of atomic charges:    0.0000000

LOEWDIN ATOMIC CHARGES
----------------------
   0 C :    0.098974
   1 C :   -0.114581
   2 H :    0.038251
   3 H :    0.045446
   4 S :    1.091752
   5 O :   -0.459246
   6 O :   -0.457080
   7 F :   -0.258227
   8 H :    0.001507
   9 H :    0.006669
  10 H :    0.006535

  Mayer bond orders larger than 0.100000
B(  0-C ,  1-C ) :   1.2783 B(  0-C ,  8-H ) :   0.8642 B(  0-C ,  9-H ) :   0.8098
B(  0-C , 10-H ) :   0.8570 B(  1-C ,  2-H ) :   1.0183 B(  1-C ,  3-H ) :   0.9738
B(  1-C ,  4-S ) :   1.0178 B(  1-C ,  8-H ) :   0.1447 B(  1-C ,  9-H ) :   0.1573
B(  1-C , 10-H ) :   0.1566 B(  4-S ,  5-O ) :   1.5950 B(  4-S ,  6-O ) :   1.5644
B(  4-S ,  7-F ) :   0.6743

FINAL SINGLE POINT ENERGY      -726.050484602616

DIPOLE MOMENT
-------------
                                X             Y             Z
Electronic contribution:     -4.98437      -3.58144      -6.53126
Nuclear contribution   :      6.54345       4.10057       6.91691
                        -----------------------------------------
Total Dipole Moment    :      1.55908       0.51913       0.38565
                        -----------------------------------------
Magnitude (a.u.)       :      1.68789
Magnitude (Debye)      :      4.29026

Rotational constants in cm-1:     0.152835     0.082826     0.080611
Rotational constants in MHz :  4581.878371  2483.049050  2416.647141

                             ****ORCA TERMINATED NORMALLY****
TOTAL RUN TIME: 0 days 0 hours 0 minutes 16 seconds 548 msec
