                         Program Version 5.0.0 -  RELEASE  -
|  1> !LC-PBE RIJCOSX def2-SVPD def2/J TightSCF
|  2> *xyz 0 1
|  3> C          3.38093        2.08304       -3.35013
|  4> N          4.53592        1.18245       -3.42852
|  5> C          2.49556        1.81615       -2.13636
|  6> C          4.67196        0.12227       -4.22060
|  7> N          5.86602       -0.50785       -4.22428
|  8> C          3.69888       -0.31284       -4.98699
|  9> H          2.73141       -0.05009       -4.84900
| 10> H          3.89005       -1.05517       -5.64373
| 11> H          5.25193        1.30346       -2.72101
| 12> H          6.69516       -0.06232       -3.85160
| 13> H          5.97538       -1.39688       -4.69141
| 14> H          2.80646        1.98651       -4.26848
| 15> H          3.77871        3.09828       -3.30738
| 16> H          2.11090        0.81901       -2.18783
| 17> H          1.68276        2.51198       -2.12786
| 18> H          3.07216        1.93031       -1.24227
| 19> *
| 20>
| 21> %MaxCore 64000
| 22>
| 23> %pal nprocs 4
| 24> end
| 25>
| 26> %scf
| 27>   MaxIter 150
| 28> end
| 29>
| 30>
| 31>                          ****END OF INPUT****

CARTESIAN COORDINATES (ANGSTROEM)
---------------------------------
  C      3.380930    2.083040   -3.350130
  N      4.535920    1.182450   -3.428520
  C      2.495560    1.816150   -2.136360
  C      4.671960    0.122270   -4.220600
  N      5.866020   -0.507850   -4.224280
  C      3.698880   -0.312840   -4.986990
  H      2.731410   -0.050090   -4.849000
  H      3.890050   -1.055170   -5.643730
  H      5.251930    1.303460   -2.721010
  H      6.695160   -0.062320   -3.851600
  H      5.975380   -1.396880   -4.691410
  H      2.806460    1.986510   -4.268480
  H      3.778710    3.098280   -3.307380
  H      2.110900    0.819010   -2.187830
  H      1.682760    2.511980   -2.127860
  H      3.072160    1.930310   -1.242270

 Total Charge           Charge          ....    0
 Multiplicity           Mult            ....    1
 Number of Electrons    NEL             ....   48
 Basis Dimension        Dim             ....  200

ORBITAL ENERGIES
----------------

  NO   OCC          E(Eh)            E(eV)
   0   2.0000     -14.230509      -387.2318
   1   2.0000     -14.225649      -387.0996
   2   2.0000     -10.178184      -276.9625
   3   2.0000     -10.159396      -276.4512
   4   2.0000     -10.111878      -275.1582
   5   2.0000     -10.038453      -273.1602
   6   2.0000      -1.132800       -30.8251
   7   2.0000      -1.042509       -28.3681
   8   2.0000      -0.923506       -25.1299
   9   2.0000      -0.875557       -23.8251
  10   2.0000      -0.797199       -21.6929
  11   2.0000      -0.715330       -19.4651
  12   2.0000      -0.695071       -18.9138
  13   2.0000      -0.660722       -17.9792
  14   2.0000      -0.599969       -16.3260
  15   2.0000      -0.593288       -16.1442
  16   2.0000      -0.567293       -15.4368
  17   2.0000      -0.539230       -14.6732
  18   2.0000      -0.516056       -14.0426
  19   2.0000      -0.508745       -13.8437
  20   2.0000      -0.489769       -13.3273
  21   2.0000      -0.479518       -13.0484
  22   2.0000      -0.377571       -10.2742
  23   2.0000      -0.287903        -7.8342
  24   0.0000       0.089696         2.4407
  25   0.0000       0.110098         2.9959
  26   0.0000       0.121784         3.3139
  27   0.0000       0.125964         3.4277
  28   0.0000       0.152898         4.1606

MULLIKEN ATOMIC CHARGES
-----------------------
   0 C :    0.118738
   1 N :   -0.431051
   2 C :    0.399903
   3 C :    0.928443
   4 N :   -0.053420
   5 C :    0.011044
   6 H :   -0.160152
   7 H :   -0.331552
   8 H :   -0.300706
   9 H :   -0.138051
  10 H :    0.002312
  11 H :    0.024493
  12 H :   -0.135639
  13 H :   -0.017218
  14 H :    0.073182
  15 H :    0.009673
Sum of atomic charges:    0.0000000

LOEWDIN ATOMIC CHARGES
----------------------
   0 C :   -0.000637
   1 N :   -0.035896
   2 C :    0.098846
   3 C :   -0.240145
   4 N :    0.162476
   5 C :    0.119574
   6 H :   -0.088658
   7 H :   -0.085282
   8 H :    0.032389
   9 H :   -0.001909
  10 H :    0.010631
  11 H :    0.023852
  12 H :    0.028319
  13 H :   -0.005515
  14 H :   -0.006932
  15 H :   -0.011113

  Mayer bond orders larger than 0.100000
B(  0-C ,  1-N ) :   0.9292 B(  0-C ,  2-C ) :   1.2385 B(  0-C ,  8-H ) :  -0.1840
B(  0-C , 11-H ) :   0.8995 B(  0-C , 12-H ) :   0.9763 B(  0-C , 13-H ) :   0.1641
B(  0-C , 14-H ) :   0.1434 B(  0-C , 15-H ) :   0.1578 B(  1-N ,  3-C ) :   0.8793
B(  1-N ,  4-N ) :   0.1721 B(  1-N ,  5-C ) :   0.3409 B(  1-N ,  8-H ) :   1.3921
B(  1-N , 11-H ) :   0.1185 B(  1-N , 12-H ) :   0.1241 B(  2-C , 13-H ) :   0.8882
B(  2-C , 14-H ) :   0.8244 B(  2-C , 15-H ) :   0.8584 B(  3-C ,  4-N ) :   0.8843
B(  3-C ,  5-C ) :   1.6186 B(  3-C ,  7-H ) :   0.1310 B(  3-C ,  8-H ) :  -0.2837
B(  3-C ,  9-H ) :  -0.1169 B(  4-N ,  5-C ) :   0.2579 B(  4-N ,  9-H ) :   1.2281
B(  4-N , 10-H ) :   1.1350 B(  5-C ,  6-H ) :   0.7736 B(  5-C ,  7-H ) :   0.9357
B(  9-H , 10-H ) :  -0.1586

FINAL SINGLE POINT ENERGY      -266.856948507067

DIPOLE MOMENT
-------------
                                X             Y             Z
Electronic contribution:      3.66575      -1.31950      -1.35054
Nuclear contribution   :     -3.02065       1.64092       1.99316
                        -----------------------------------------
Total Dipole Moment    :      0.64510       0.32142       0.64262
                        -----------------------------------------
Magnitude (a.u.)       :      0.96562
Magnitude (Debye)      :      2.45442

Rotational constants in cm-1:     0.259304     0.069422     0.060943
Rotational constants in MHz :  7773.747720  2081.225169  1827.013389

                             ****ORCA TERMINATED NORMALLY****
TOTAL RUN TIME: 0 days 0 hours 0 minutes 26 seconds 350 msec
