                         Program Version 5.0.0 -  RELEASE  -
|  1> !LC-PBE RIJCOSX def2-SVPD def2/J TightSCF xyzfile
|  2>
|  3> *xyzfile 0 1 D4.xyz
|  4>
|  5> %MaxCore 64000
|  6>
|  7> %pal nprocs 4
|  8> end
|  9>
| 10> %scf
| 11>   MaxIter 150
| 12> end
| 13>
| 14>
| 15>                          ****END OF INPUT****

CARTESIAN COORDINATES (ANGSTROEM)
---------------------------------
  C      3.380928    2.083045   -3.350127
  C      4.535924    1.182447   -3.428518
  C      2.495557    1.816150   -2.136364
  C      1.872181    0.427903   -2.077497
  H      2.614270   -0.365825   -2.198894
  H      1.389953    0.273087   -1.112360
  S      0.579024    0.140472   -3.297943
  C      4.671956    0.122273   -4.220598
  N      5.866023   -0.507849   -4.224284
  N      3.698881   -0.312844   -4.986988
  H      2.731405   -0.050091   -4.849000
  H      3.890046   -1.055172   -5.643730
  H      5.251933    1.303459   -2.721014
  H      6.695165   -0.062322   -3.851596
  H      5.975383   -1.396884   -4.691414
  O      0.228860   -1.246868   -3.127871
  F     -0.439269    1.118966   -3.014550
  O      1.247881    0.403474   -4.595647
  H      1.697003    2.561969   -2.141109
  H      3.080787    1.987436   -1.225838
  H      2.806463    1.986511   -4.268484
  H      3.778714    3.098282   -3.307383

 Total Charge           Charge          ....    0
 Multiplicity           Mult            ....    1
 Number of Electrons    NEL             ....   96
 Basis Dimension        Dim             ....  324

ORBITAL ENERGIES
----------------

  NO   OCC          E(Eh)            E(eV)
   0   2.0000     -88.587819     -2410.5971
   1   2.0000     -24.642196      -670.5482
   2   2.0000     -19.020344      -517.5699
   3   2.0000     -19.014322      -517.4060
   4   2.0000     -14.222142      -387.0041
   5   2.0000     -14.203612      -386.4999
   6   2.0000     -10.187309      -277.2108
   7   2.0000     -10.173986      -276.8482
   8   2.0000     -10.143755      -276.0256
   9   2.0000     -10.107288      -275.0333
  10   2.0000     -10.048769      -273.4409
  11   2.0000      -8.209761      -223.3990
  12   2.0000      -6.236910      -169.7150
  13   2.0000      -6.230020      -169.5275
  14   2.0000      -6.227874      -169.4691
  15   2.0000      -1.553302       -42.2675
  16   2.0000      -1.297344       -35.3025
  17   2.0000      -1.189862       -32.3778
  18   2.0000      -1.120971       -30.5032
  19   2.0000      -1.018993       -27.7282
  20   2.0000      -1.007418       -27.4132
  21   2.0000      -0.933751       -25.4087
  22   2.0000      -0.891553       -24.2604
  23   2.0000      -0.848716       -23.0947
  24   2.0000      -0.789658       -21.4877
  25   2.0000      -0.765926       -20.8419
  26   2.0000      -0.752154       -20.4672
  27   2.0000      -0.736517       -20.0416
  28   2.0000      -0.701512       -19.0891
  29   2.0000      -0.684103       -18.6154
  30   2.0000      -0.665464       -18.1082
  31   2.0000      -0.637174       -17.3384
  32   2.0000      -0.629550       -17.1309
  33   2.0000      -0.623880       -16.9766
  34   2.0000      -0.601856       -16.3773
  35   2.0000      -0.585187       -15.9238
  36   2.0000      -0.551053       -14.9949
  37   2.0000      -0.547290       -14.8925
  38   2.0000      -0.542318       -14.7572
  39   2.0000      -0.521896       -14.2015
  40   2.0000      -0.497830       -13.5467
  41   2.0000      -0.482953       -13.1418
  42   2.0000      -0.479026       -13.0350
  43   2.0000      -0.468387       -12.7455
  44   2.0000      -0.461252       -12.5513
  45   2.0000      -0.437040       -11.8925
  46   2.0000      -0.387419       -10.5422
  47   2.0000      -0.274563        -7.4713
  48   0.0000       0.062226         1.6932
  49   0.0000       0.085406         2.3240
  50   0.0000       0.090212         2.4548
  51   0.0000       0.096660         2.6302
  52   0.0000       0.114937         3.1276

MULLIKEN ATOMIC CHARGES
-----------------------
   0 C :    0.236989
   1 C :   -0.221877
   2 C :    0.072183
   3 C :   -0.117522
   4 H :    0.165735
   5 H :    0.029492
   6 S :    1.520382
   7 C :    0.873267
   8 N :   -0.110014
   9 N :    0.395233
  10 H :   -0.361896
  11 H :   -0.195838
  12 H :   -0.334906
  13 H :   -0.059118
  14 H :   -0.077236
  15 O :   -0.614452
  16 F :   -0.427587
  17 O :   -0.784756
  18 H :    0.057374
  19 H :    0.045702
  20 H :   -0.045883
  21 H :   -0.045271
Sum of atomic charges:    0.0000000

LOEWDIN ATOMIC CHARGES
----------------------
   0 C :   -0.062504
   1 C :   -0.050933
   2 C :   -0.055044
   3 C :   -0.052988
   4 H :    0.046673
   5 H :    0.033267
   6 S :    1.148433
   7 C :   -0.216173
   8 N :    0.162257
   9 N :    0.216110
  10 H :   -0.136499
  11 H :    0.013075
  12 H :   -0.040032
  13 H :    0.010582
  14 H :   -0.003772
  15 O :   -0.444177
  16 F :   -0.226619
  17 O :   -0.456437
  18 H :    0.031860
  19 H :    0.046953
  20 H :    0.004228
  21 H :    0.031739

  Mayer bond orders larger than 0.100000
B(  0-C ,  1-C ) :   1.1161 B(  0-C ,  2-C ) :   1.1680 B(  0-C , 12-H ) :   0.2030
B(  0-C , 18-H ) :   0.1465 B(  0-C , 19-H ) :   0.1429 B(  0-C , 20-H ) :   0.8396
B(  0-C , 21-H ) :   0.8418 B(  1-C ,  7-C ) :   1.6801 B(  1-C ,  8-N ) :   0.3896
B(  1-C ,  9-N ) :   0.1907 B(  1-C , 12-H ) :   0.8676 B(  1-C , 20-H ) :   0.2350
B(  1-C , 21-H ) :   0.1046 B(  2-C ,  3-C ) :   1.2531 B(  2-C ,  4-H ) :   0.1256
B(  2-C ,  5-H ) :   0.1393 B(  2-C , 18-H ) :   0.8161 B(  2-C , 19-H ) :   0.8265
B(  2-C , 20-H ) :   0.1488 B(  3-C ,  4-H ) :   0.9604 B(  3-C ,  5-H ) :   0.8372
B(  3-C ,  6-S ) :   0.9900 B(  3-C , 17-O ) :   0.1113 B(  3-C , 18-H ) :   0.1205
B(  6-S , 15-O ) :   1.5779 B(  6-S , 16-F ) :   0.6719 B(  6-S , 17-O ) :   1.3808
B(  7-C ,  8-N ) :   0.7511 B(  7-C ,  9-N ) :   1.0188 B(  7-C , 10-H ) :  -0.1123
B(  7-C , 11-H ) :  -0.1918 B(  7-C , 13-H ) :  -0.1738 B(  7-C , 20-H ) :  -0.1084
B(  8-N , 13-H ) :   1.2303 B(  8-N , 14-H ) :   1.1578 B(  9-N , 10-H ) :   1.1698
B(  9-N , 11-H ) :   1.2233 B( 10-H , 11-H ) :  -0.1875 B( 10-H , 17-O ) :   0.1820
B( 13-H , 14-H ) :  -0.1545

FINAL SINGLE POINT ENERGY      -952.574607062379

DIPOLE MOMENT
-------------
                                X             Y             Z
Electronic contribution:    -16.37765      -2.60860      -0.88608
Nuclear contribution   :     16.65743       2.74852       1.69529
                        -----------------------------------------
Total Dipole Moment    :      0.27978       0.13992       0.80921
                        -----------------------------------------
Magnitude (a.u.)       :      0.86757
Magnitude (Debye)      :      2.20518

Rotational constants in cm-1:     0.059907     0.020458     0.017675
Rotational constants in MHz :  1795.978106   613.328205   529.885290

                             ****ORCA TERMINATED NORMALLY****
TOTAL RUN TIME: 0 days 0 hours 1 minutes 43 seconds 140 msec
