                         Program Version 5.0.0 -  RELEASE  -
|  1> !LC-PBE RIJCOSX def2-SVPD def2/J TightSCF xyzfile
|  2>
|  3> *xyzfile 0 1 D5.xyz
|  4>
|  5> %MaxCore 64000
|  6>
|  7> %pal nprocs 4
|  8> end
|  9>
| 10> %scf
| 11>   MaxIter 150
| 12> end
| 13>
| 14>
| 15>                          ****END OF INPUT****

CARTESIAN COORDINATES (ANGSTROEM)
---------------------------------
  C      3.380928    2.083045   -3.350127
  N      4.535924    1.182447   -3.428518
  C      2.495557    1.816150   -2.136364
  C      1.872181    0.427903   -2.077497
  H      2.614270   -0.365825   -2.198894
  H      1.389953    0.273087   -1.112360
  S      0.579024    0.140472   -3.297943
  C      4.671956    0.122273   -4.220598
  C      5.866023   -0.507849   -4.224284
  N      3.698881   -0.312844   -4.986988
  H      2.731405   -0.050091   -4.849000
  H      3.890046   -1.055172   -5.643730
  H      5.251933    1.303459   -2.721014
  H      6.695165   -0.062322   -3.851596
  H      5.975383   -1.396884   -4.691414
  O      0.228860   -1.246868   -3.127871
  F     -0.439269    1.118966   -3.014550
  O      1.247881    0.403474   -4.595647
  H      1.697003    2.561969   -2.141109
  H      3.080787    1.987436   -1.225838
  H      2.806463    1.986511   -4.268484
  H      3.778714    3.098282   -3.307383

 Total Charge           Charge          ....    0
 Multiplicity           Mult            ....    1
 Number of Electrons    NEL             ....   96
 Basis Dimension        Dim             ....  324

ORBITAL ENERGIES
----------------

  NO   OCC          E(Eh)            E(eV)
   0   2.0000     -88.601157     -2410.9601
   1   2.0000     -24.654839      -670.8923
   2   2.0000     -19.031913      -517.8847
   3   2.0000     -19.026844      -517.7467
   4   2.0000     -14.233635      -387.3169
   5   2.0000     -14.200619      -386.4185
   6   2.0000     -10.206503      -277.7331
   7   2.0000     -10.174887      -276.8728
   8   2.0000     -10.173245      -276.8281
   9   2.0000     -10.171745      -276.7872
  10   2.0000     -10.025857      -272.8174
  11   2.0000      -8.222992      -223.7590
  12   2.0000      -6.250096      -170.0738
  13   2.0000      -6.243162      -169.8851
  14   2.0000      -6.241292      -169.8342
  15   2.0000      -1.566094       -42.6156
  16   2.0000      -1.309427       -35.6313
  17   2.0000      -1.202025       -32.7088
  18   2.0000      -1.133674       -30.8488
  19   2.0000      -1.047866       -28.5139
  20   2.0000      -1.013492       -27.5785
  21   2.0000      -0.938298       -25.5324
  22   2.0000      -0.894178       -24.3318
  23   2.0000      -0.855329       -23.2747
  24   2.0000      -0.799998       -21.7691
  25   2.0000      -0.774812       -21.0837
  26   2.0000      -0.770146       -20.9568
  27   2.0000      -0.750323       -20.4173
  28   2.0000      -0.728579       -19.8256
  29   2.0000      -0.694434       -18.8965
  30   2.0000      -0.661651       -18.0044
  31   2.0000      -0.648334       -17.6421
  32   2.0000      -0.637508       -17.3475
  33   2.0000      -0.626781       -17.0556
  34   2.0000      -0.607745       -16.5376
  35   2.0000      -0.595035       -16.1917
  36   2.0000      -0.565856       -15.3977
  37   2.0000      -0.556117       -15.1327
  38   2.0000      -0.547107       -14.8875
  39   2.0000      -0.528273       -14.3750
  40   2.0000      -0.521965       -14.2034
  41   2.0000      -0.502731       -13.6800
  42   2.0000      -0.491118       -13.3640
  43   2.0000      -0.478677       -13.0255
  44   2.0000      -0.474441       -12.9102
  45   2.0000      -0.466301       -12.6887
  46   2.0000      -0.378228       -10.2921
  47   2.0000      -0.268339        -7.3019
  48   0.0000       0.051573         1.4034
  49   0.0000       0.075800         2.0626
  50   0.0000       0.083053         2.2600
  51   0.0000       0.089912         2.4466
  52   0.0000       0.102943         2.8012

MULLIKEN ATOMIC CHARGES
-----------------------
   0 C :    0.726959
   1 N :   -0.408314
   2 C :    0.038145
   3 C :   -0.104195
   4 H :    0.221459
   5 H :   -0.010003
   6 S :    1.509218
   7 C :    0.528173
   8 C :    0.219425
   9 N :    0.523617
  10 H :   -0.454051
  11 H :   -0.127849
  12 H :   -0.182800
  13 H :   -0.328650
  14 H :   -0.213445
  15 O :   -0.604059
  16 F :   -0.420573
  17 O :   -0.790004
  18 H :    0.063582
  19 H :    0.041423
  20 H :   -0.010907
  21 H :   -0.217153
Sum of atomic charges:   -0.0000000

LOEWDIN ATOMIC CHARGES
----------------------
   0 C :    0.049432
   1 N :   -0.014055
   2 C :   -0.046353
   3 C :   -0.051237
   4 H :    0.051342
   5 H :    0.035794
   6 S :    1.149733
   7 C :   -0.240405
   8 C :    0.103275
   9 N :    0.215861
  10 H :   -0.144289
  11 H :    0.028560
  12 H :    0.045472
  13 H :   -0.098737
  14 H :   -0.097585
  15 O :   -0.435772
  16 F :   -0.225413
  17 O :   -0.456752
  18 H :    0.037382
  19 H :    0.046244
  20 H :    0.011109
  21 H :    0.036394

  Mayer bond orders larger than 0.100000
B(  0-C ,  1-N ) :   0.9720 B(  0-C ,  2-C ) :   1.1113 B(  0-C , 12-H ) :  -0.1805
B(  0-C , 18-H ) :   0.1257 B(  0-C , 19-H ) :   0.1135 B(  0-C , 20-H ) :   0.7759
B(  0-C , 21-H ) :   0.9389 B(  1-N ,  7-C ) :   1.0238 B(  1-N ,  8-C ) :   0.2164
B(  1-N ,  9-N ) :   0.1184 B(  1-N , 12-H ) :   1.2575 B(  1-N , 20-H ) :   0.2126
B(  1-N , 21-H ) :   0.1205 B(  2-C ,  3-C ) :   1.2348 B(  2-C ,  4-H ) :   0.1214
B(  2-C ,  5-H ) :   0.1344 B(  2-C , 18-H ) :   0.8554 B(  2-C , 19-H ) :   0.8508
B(  2-C , 20-H ) :   0.1351 B(  3-C ,  4-H ) :   0.9144 B(  3-C ,  5-H ) :   0.8653
B(  3-C ,  6-S ) :   0.9934 B(  3-C , 17-O ) :   0.1161 B(  3-C , 18-H ) :   0.1027
B(  6-S , 15-O ) :   1.5878 B(  6-S , 16-F ) :   0.6823 B(  6-S , 17-O ) :   1.3833
B(  7-C ,  8-C ) :   1.5471 B(  7-C ,  9-N ) :   1.0790 B(  7-C , 11-H ) :  -0.1042
B(  7-C , 12-H ) :  -0.1997 B(  7-C , 14-H ) :   0.1788 B(  8-C ,  9-N ) :   0.1338
B(  8-C , 13-H ) :   0.8331 B(  8-C , 14-H ) :   0.8242 B(  9-N , 10-H ) :   1.0265
B(  9-N , 11-H ) :   1.1531 B( 10-H , 11-H ) :  -0.2075 B( 10-H , 17-O ) :   0.1935
B( 13-H , 14-H ) :   0.1092 B( 20-H , 21-H ) :  -0.1185

FINAL SINGLE POINT ENERGY      -952.554934196732

DIPOLE MOMENT
-------------
                                X             Y             Z
Electronic contribution:    -17.85512      -1.13545      -0.09442
Nuclear contribution   :     16.78714       2.58368       1.61768
                        -----------------------------------------
Total Dipole Moment    :     -1.06798       1.44823       1.52326
                        -----------------------------------------
Magnitude (a.u.)       :      2.35760
Magnitude (Debye)      :      5.99255

Rotational constants in cm-1:     0.059928     0.020911     0.017993
Rotational constants in MHz :  1796.610847   626.896941   539.414615

                             ****ORCA TERMINATED NORMALLY****
TOTAL RUN TIME: 0 days 0 hours 1 minutes 44 seconds 476 msec
