                         Program Version 5.0.0 -  RELEASE  -
|  1> !PBE D3BJ RIJCOSX def2-TZVPD def2/J TightSCF
|  2> *xyz -1 1
|  3> C         -1.91658       -2.48508       -3.64367
|  4> C         -1.36353       -1.98134       -2.29361
|  5> O         -0.35039       -2.74969       -1.79601
|  6> H         -2.22622       -1.90839       -1.60204
|  7> H         -1.05135       -0.91567       -2.44333
|  8> H         -1.11522       -2.57167       -4.34739
|  9> H         -2.64227       -1.79099       -4.01314
| 10> H         -2.37564       -3.44180       -3.50640
| 11> *
| 12>
| 13> %MaxCore 64000
| 14> %pal nprocs 4
| 15> end
| 16>
| 17> %scf
| 18>   MaxIter 150
| 19> end
| 20>
| 21>
| 22>                          ****END OF INPUT****

CARTESIAN COORDINATES (ANGSTROEM)
---------------------------------
  C     -1.916580   -2.485080   -3.643670
  C     -1.363530   -1.981340   -2.293610
  O     -0.350390   -2.749690   -1.796010
  H     -2.226220   -1.908390   -1.602040
  H     -1.051350   -0.915670   -2.443330
  H     -1.115220   -2.571670   -4.347390
  H     -2.642270   -1.790990   -4.013140
  H     -2.375640   -3.441800   -3.506400

 Total Charge           Charge          ....   -1
 Multiplicity           Mult            ....    1
 Number of Electrons    NEL             ....   26
 Basis Dimension        Dim             ....  159

ORBITAL ENERGIES
----------------

  NO   OCC          E(Eh)            E(eV)
   0   2.0000     -18.434672      -501.6329
   1   2.0000      -9.698968      -263.9223
   2   2.0000      -9.673535      -263.2303
   3   2.0000      -0.609502       -16.5854
   4   2.0000      -0.459955       -12.5160
   5   2.0000      -0.316746        -8.6191
   6   2.0000      -0.203802        -5.5457
   7   2.0000      -0.183611        -4.9963
   8   2.0000      -0.133616        -3.6359
   9   2.0000      -0.115691        -3.1481
  10   2.0000      -0.079345        -2.1591
  11   2.0000       0.059315         1.6140
  12   2.0000       0.064146         1.7455
  13   0.0000       0.140122         3.8129
  14   0.0000       0.162981         4.4349
  15   0.0000       0.187572         5.1041
  16   0.0000       0.191369         5.2074
  17   0.0000       0.212107         5.7717

MULLIKEN ATOMIC CHARGES
-----------------------
   0 C :   -0.975722
   1 C :   -0.177883
   2 O :   -0.863402
   3 H :    0.128277
   4 H :    0.131139
   5 H :    0.212210
   6 H :    0.331257
   7 H :    0.214124
Sum of atomic charges:   -1.0000000

LOEWDIN ATOMIC CHARGES
----------------------
   0 C :   -0.181902
   1 C :   -0.636305
   2 O :   -0.371473
   3 H :    0.048572
   4 H :    0.051759
   5 H :    0.035422
   6 H :    0.020056
   7 H :    0.033871

  Mayer bond orders larger than 0.100000
B(  0-C ,  1-C ) :   0.8762 B(  0-C ,  2-O ) :   0.6227 B(  0-C ,  5-H ) :   1.0162
B(  0-C ,  6-H ) :   0.9683 B(  0-C ,  7-H ) :   1.0082 B(  1-C ,  2-O ) :   0.8857
B(  1-C ,  3-H ) :   1.0797 B(  1-C ,  4-H ) :   1.0749 B(  2-O ,  6-H ) :  -0.1157
B(  3-H ,  4-H ) :   0.1239

Dispersion correction           -0.003757227
FINAL SINGLE POINT ENERGY      -154.301821671453

DIPOLE MOMENT
-------------
                                X             Y             Z
Electronic contribution:      2.23839      -0.94116       2.02531
Nuclear contribution   :     -3.14382       1.30299      -2.83231
                        -----------------------------------------
Total Dipole Moment    :     -0.90544       0.36183      -0.80700
                        -----------------------------------------
Magnitude (a.u.)       :      1.26569
Magnitude (Debye)      :      3.21714

Rotational constants in cm-1:     1.288206     0.322942     0.285188
Rotational constants in MHz : 38619.437223  9681.562038  8549.712012

                             ****ORCA TERMINATED NORMALLY****
TOTAL RUN TIME: 0 days 0 hours 0 minutes 8 seconds 596 msec
