                         Program Version 5.0.0 -  RELEASE  -
|  1> !PBE D3BJ RIJCOSX def2-TZVPD def2/J TightSCF
|  2> *xyz 1 1
|  3> C          1.64703       -2.34528       -5.02041
|  4> C          2.20996       -2.81239       -3.66571
|  5> C          2.48901       -1.66851       -2.73754
|  6> N          3.59631       -0.94761       -2.95225
|  7> N          1.66394       -1.41369       -1.77781
|  8> H          0.81164       -1.96318       -1.70275
|  9> H          1.84550       -0.63508       -1.15875
| 10> H          4.20535       -1.17600       -3.73383
| 11> H          3.81723       -0.12585       -2.40604
| 12> H          3.14311       -3.36280       -3.81152
| 13> H          1.48768       -3.45893       -3.16521
| 14> H          1.46566       -3.19589       -5.64368
| 15> H          2.35406       -1.69850       -5.49654
| 16> H          0.73014       -1.81680       -4.86253
| 17> *
| 18>
| 19> %MaxCore 64000
| 20> %pal nprocs 4
| 21> end
| 22>
| 23> %scf
| 24>   MaxIter 150
| 25> end
| 26>
| 27>
| 28>                          ****END OF INPUT****

CARTESIAN COORDINATES (ANGSTROEM)
---------------------------------
  C      1.647030   -2.345280   -5.020410
  C      2.209960   -2.812390   -3.665710
  C      2.489010   -1.668510   -2.737540
  N      3.596310   -0.947610   -2.952250
  N      1.663940   -1.413690   -1.777810
  H      0.811640   -1.963180   -1.702750
  H      1.845500   -0.635080   -1.158750
  H      4.205350   -1.176000   -3.733830
  H      3.817230   -0.125850   -2.406040
  H      3.143110   -3.362800   -3.811520
  H      1.487680   -3.458930   -3.165210
  H      1.465660   -3.195890   -5.643680
  H      2.354060   -1.698500   -5.496540
  H      0.730140   -1.816800   -4.862530

 Total Charge           Charge          ....    1
 Multiplicity           Mult            ....    1
 Number of Electrons    NEL             ....   40
 Basis Dimension        Dim             ....  266

ORBITAL ENERGIES
----------------

  NO   OCC          E(Eh)            E(eV)
   0   2.0000     -14.234095      -387.3294
   1   2.0000     -14.226029      -387.1099
   2   2.0000     -10.193763      -277.3864
   3   2.0000     -10.080264      -274.2979
   4   2.0000     -10.035601      -273.0826
   5   2.0000      -1.122213       -30.5370
   6   2.0000      -1.032956       -28.1082
   7   2.0000      -0.897202       -24.4141
   8   2.0000      -0.799159       -21.7462
   9   2.0000      -0.759116       -20.6566
  10   2.0000      -0.722858       -19.6700
  11   2.0000      -0.697480       -18.9794
  12   2.0000      -0.656181       -17.8556
  13   2.0000      -0.600766       -16.3477
  14   2.0000      -0.575244       -15.6532
  15   2.0000      -0.567307       -15.4372
  16   2.0000      -0.503287       -13.6951
  17   2.0000      -0.492887       -13.4121
  18   2.0000      -0.487387       -13.2625
  19   2.0000      -0.454476       -12.3669
  20   0.0000      -0.243467        -6.6251
  21   0.0000      -0.190874        -5.1940
  22   0.0000      -0.147454        -4.0124
  23   0.0000      -0.144501        -3.9321
  24   0.0000      -0.116647        -3.1741

MULLIKEN ATOMIC CHARGES
-----------------------
   0 C :   -0.838314
   1 C :   -0.228613
   2 C :    0.502780
   3 N :   -0.205294
   4 N :   -0.136348
   5 H :    0.206352
   6 H :    0.174923
   7 H :    0.204939
   8 H :    0.163798
   9 H :    0.202682
  10 H :    0.181573
  11 H :    0.230874
  12 H :    0.270556
  13 H :    0.270092
Sum of atomic charges:    1.0000000

LOEWDIN ATOMIC CHARGES
----------------------
   0 C :   -0.050123
   1 C :   -0.148614
   2 C :   -0.381753
   3 N :    0.235364
   4 N :    0.249147
   5 H :    0.156218
   6 H :    0.150527
   7 H :    0.146261
   8 H :    0.139864
   9 H :    0.134695
  10 H :    0.124744
  11 H :    0.086166
  12 H :    0.075131
  13 H :    0.082374

  Mayer bond orders larger than 0.100000
B(  0-C ,  1-C ) :   0.7631 B(  0-C ,  2-C ) :   0.1504 B(  0-C , 11-H ) :   0.9930
B(  0-C , 12-H ) :   0.9258 B(  0-C , 13-H ) :   0.9727 B(  1-C ,  2-C ) :   0.8780
B(  1-C ,  3-N ) :   0.1080 B(  1-C ,  9-H ) :   0.9417 B(  1-C , 10-H ) :   0.9752
B(  2-C ,  3-N ) :   1.2034 B(  2-C ,  4-N ) :   1.3155 B(  3-N ,  4-N ) :   0.1215
B(  3-N ,  7-H ) :   0.9481 B(  3-N ,  8-H ) :   1.0227 B(  4-N ,  5-H ) :   0.9425
B(  4-N ,  6-H ) :   1.0072

Dispersion correction           -0.010135027
FINAL SINGLE POINT ENERGY      -228.829174356822

DIPOLE MOMENT
-------------
                                X             Y             Z
Electronic contribution:      1.19596       1.65403       3.60807
Nuclear contribution   :     -0.98617      -1.03178      -2.77619
                        -----------------------------------------
Total Dipole Moment    :      0.20980       0.62225       0.83189
                        -----------------------------------------
Magnitude (a.u.)       :      1.05983
Magnitude (Debye)      :      2.69388

Rotational constants in cm-1:     0.257311     0.127495     0.099037
Rotational constants in MHz :  7713.982239  3822.189706  2969.039713

                             ****ORCA TERMINATED NORMALLY****
TOTAL RUN TIME: 0 days 0 hours 0 minutes 14 seconds 636 msec
