                         Program Version 5.0.0 -  RELEASE  -
|  1> !PBE D3BJ RIJCOSX def2-TZVPD def2/J TightSCF xyzfile
|  2>
|  3> *xyzfile 0 1 B.xyz
|  4>
|  5> %MaxCore 64000
|  6>
|  7> %pal nprocs 4
|  8> end
|  9>
| 10> %scf
| 11>   MaxIter 150
| 12> end
| 13>
| 14>
| 15>                          ****END OF INPUT****

CARTESIAN COORDINATES (ANGSTROEM)
---------------------------------
  C      1.647032   -2.345276   -5.020411
  C      0.217628   -1.814022   -4.924389
  C      2.209964   -2.812388   -3.665708
  C     -0.811356   -2.908780   -4.607625
  C     -1.916579   -2.485081   -3.643665
  H     -2.554525   -1.712428   -4.091993
  C     -1.363531   -1.981337   -2.293608
  H     -2.553448   -3.355667   -3.458815
  O     -0.350395   -2.749689   -1.796006
  H      2.308385   -1.588704   -5.457128
  H      1.674286   -3.203478   -5.697392
  C      2.489007   -1.668510   -2.737538
  N      3.596314   -0.947608   -2.952247
  N      1.663936   -1.413685   -1.777806
  H      0.811642   -1.963178   -1.702755
  H      1.845503   -0.635078   -1.158749
  H      4.205351   -1.176003   -3.733825
  H      3.817230   -0.125845   -2.406041
  H     -1.244829   -3.280884   -5.541040
  H     -0.306331   -3.757746   -4.142734
  H     -0.036244   -1.318555   -5.865303
  H      0.175004   -1.035382   -4.158095
  H      3.143106   -3.362803   -3.811524
  H      1.487683   -3.458935   -3.165211
  H     -2.226220   -1.908386   -1.602039
  H     -1.051353   -0.915671   -2.443331

 Total Charge           Charge          ....    0
 Multiplicity           Mult            ....    1
 Number of Electrons    NEL             ....   80
 Basis Dimension        Dim             ....  517

ORBITAL ENERGIES
----------------

  NO   OCC          E(Eh)            E(eV)
   0   2.0000     -18.616761      -506.5878
   1   2.0000     -14.060390      -382.6027
   2   2.0000     -14.015905      -381.3922
   3   2.0000     -10.011254      -272.4201
   4   2.0000      -9.906770      -269.5769
   5   2.0000      -9.895273      -269.2641
   6   2.0000      -9.866168      -268.4721
   7   2.0000      -9.856725      -268.2151
   8   2.0000      -9.847439      -267.9624
   9   2.0000      -9.830723      -267.5076
  10   2.0000      -0.939007       -25.5517
  11   2.0000      -0.852143       -23.1880
  12   2.0000      -0.800784       -21.7904
  13   2.0000      -0.743311       -20.2265
  14   2.0000      -0.684796       -18.6343
  15   2.0000      -0.638852       -17.3840
  16   2.0000      -0.591722       -16.1016
  17   2.0000      -0.570245       -15.5172
  18   2.0000      -0.545000       -14.8302
  19   2.0000      -0.532205       -14.4820
  20   2.0000      -0.506951       -13.7948
  21   2.0000      -0.470829       -12.8119
  22   2.0000      -0.447432       -12.1752
  23   2.0000      -0.436449       -11.8764
  24   2.0000      -0.416063       -11.3217
  25   2.0000      -0.394147       -10.7253
  26   2.0000      -0.382677       -10.4132
  27   2.0000      -0.357911        -9.7393
  28   2.0000      -0.346376        -9.4254
  29   2.0000      -0.343395        -9.3442
  30   2.0000      -0.314884        -8.5684
  31   2.0000      -0.306090        -8.3291
  32   2.0000      -0.296291        -8.0625
  33   2.0000      -0.278994        -7.5918
  34   2.0000      -0.273399        -7.4396
  35   2.0000      -0.259097        -7.0504
  36   2.0000      -0.251576        -6.8457
  37   2.0000      -0.245076        -6.6689
  38   2.0000      -0.132400        -3.6028
  39   2.0000      -0.123536        -3.3616
  40   0.0000      -0.068290        -1.8583
  41   0.0000      -0.049712        -1.3527
  42   0.0000      -0.014577        -0.3967
  43   0.0000       0.004821         0.1312
  44   0.0000       0.011016         0.2998

MULLIKEN ATOMIC CHARGES
-----------------------
   0 C :   -0.164338
   1 C :   -0.273769
   2 C :   -0.326720
   3 C :   -0.182410
   4 C :   -0.372859
   5 H :    0.133919
   6 C :   -0.312603
   7 H :    0.186486
   8 O :   -0.860824
   9 H :    0.150718
  10 H :    0.126317
  11 C :    0.189993
  12 N :   -0.233639
  13 N :   -0.065869
  14 H :    0.189196
  15 H :    0.113689
  16 H :    0.183792
  17 H :    0.138508
  18 H :    0.149051
  19 H :    0.129315
  20 H :    0.178848
  21 H :    0.143662
  22 H :    0.182514
  23 H :    0.274487
  24 H :    0.132665
  25 H :    0.189869
Sum of atomic charges:    0.0000000

LOEWDIN ATOMIC CHARGES
----------------------
   0 C :   -0.191706
   1 C :   -0.203364
   2 C :   -0.114520
   3 C :   -0.218961
   4 C :   -0.204459
   5 H :    0.103480
   6 C :   -0.443565
   7 H :    0.102567
   8 O :   -0.253196
   9 H :    0.102729
  10 H :    0.115860
  11 C :   -0.386072
  12 N :    0.185542
  13 N :    0.242630
  14 H :   -0.032418
  15 H :    0.134558
  16 H :    0.121553
  17 H :    0.118064
  18 H :    0.106292
  19 H :    0.096899
  20 H :    0.110397
  21 H :    0.094642
  22 H :    0.122940
  23 H :    0.110784
  24 H :    0.093599
  25 H :    0.085724

  Mayer bond orders larger than 0.100000
B(  0-C ,  1-C ) :   1.0783 B(  0-C ,  2-C ) :   0.8741 B(  0-C ,  3-C ) :   0.2721
B(  0-C ,  9-H ) :   0.8299 B(  0-C , 10-H ) :   0.9672 B(  0-C , 11-C ) :   0.2353
B(  1-C ,  3-C ) :   0.7818 B(  1-C ,  4-C ) :   0.2438 B(  1-C ,  6-C ) :   0.1135
B(  1-C , 20-H ) :   0.9303 B(  1-C , 21-H ) :   0.9911 B(  2-C , 11-C ) :   0.9513
B(  2-C , 12-N ) :   0.1326 B(  2-C , 22-H ) :   0.9321 B(  2-C , 23-H ) :   0.9465
B(  3-C ,  4-C ) :   1.0222 B(  3-C , 18-H ) :   0.9653 B(  3-C , 19-H ) :   0.9297
B(  4-C ,  5-H ) :   1.0030 B(  4-C ,  6-C ) :   0.9631 B(  4-C ,  7-H ) :   0.9005
B(  4-C ,  8-O ) :   0.1229 B(  4-C , 19-H ) :   0.1028 B(  6-C ,  8-O ) :   0.9636
B(  6-C , 24-H ) :   1.0080 B(  6-C , 25-H ) :   0.9973 B(  8-O , 13-N ) :  -0.1071
B(  8-O , 14-H ) :   0.3933 B( 11-C , 12-N ) :   1.0877 B( 11-C , 13-N ) :   1.4262
B( 12-N , 13-N ) :   0.1268 B( 12-N , 16-H ) :   0.9851 B( 12-N , 17-H ) :   1.0177
B( 13-N , 14-H ) :   0.6578 B( 13-N , 15-H ) :   0.9946

Dispersion correction           -0.026822833
FINAL SINGLE POINT ENERGY      -460.681166101694

DIPOLE MOMENT
-------------
                                X             Y             Z
Electronic contribution:      5.52009       0.81231       4.36608
Nuclear contribution   :     -2.25948       0.71378      -5.15247
                        -----------------------------------------
Total Dipole Moment    :      3.26061       1.52609      -0.78639
                        -----------------------------------------
Magnitude (a.u.)       :      3.68496
Magnitude (Debye)      :      9.36643

Rotational constants in cm-1:     0.063973     0.031829     0.024059
Rotational constants in MHz :  1917.874550   954.201145   721.285252

                             ****ORCA TERMINATED NORMALLY****
TOTAL RUN TIME: 0 days 0 hours 0 minutes 55 seconds 288 msec
