                         Program Version 5.0.0 -  RELEASE  -
|  1> !PBE D3BJ RIJCOSX def2-TZVPD def2/J TightSCF
|  2> *xyz 0 1
|  3> C         -1.91658       -2.48508       -3.64367
|  4> C         -1.36353       -1.98134       -2.29361
|  5> F         -0.35039       -2.74969       -1.79601
|  6> H         -2.22622       -1.90839       -1.60204
|  7> H         -1.05135       -0.91567       -2.44333
|  8> H         -1.11522       -2.57167       -4.34739
|  9> H         -2.64227       -1.79099       -4.01314
| 10> H         -2.37564       -3.44180       -3.50640
| 11> *
| 12>
| 13> %MaxCore 64000
| 14> %pal nprocs 4
| 15> end
| 16>
| 17> %scf
| 18>   MaxIter 150
| 19> end
| 20>
| 21>
| 22>                          ****END OF INPUT****

CARTESIAN COORDINATES (ANGSTROEM)
---------------------------------
  C     -1.916580   -2.485080   -3.643670
  C     -1.363530   -1.981340   -2.293610
  F     -0.350390   -2.749690   -1.796010
  H     -2.226220   -1.908390   -1.602040
  H     -1.051350   -0.915670   -2.443330
  H     -1.115220   -2.571670   -4.347390
  H     -2.642270   -1.790990   -4.013140
  H     -2.375640   -3.441800   -3.506400

 Total Charge           Charge          ....    0
 Multiplicity           Mult            ....    1
 Number of Electrons    NEL             ....   26
 Basis Dimension        Dim             ....  159

ORBITAL ENERGIES
----------------

  NO   OCC          E(Eh)            E(eV)
   0   2.0000     -24.248823      -659.8440
   1   2.0000      -9.957816      -270.9659
   2   2.0000      -9.875614      -268.7291
   3   2.0000      -1.102493       -30.0004
   4   2.0000      -0.692953       -18.8562
   5   2.0000      -0.569665       -15.5014
   6   2.0000      -0.457721       -12.4552
   7   2.0000      -0.439144       -11.9497
   8   2.0000      -0.404586       -11.0094
   9   2.0000      -0.356440        -9.6992
  10   2.0000      -0.355177        -9.6649
  11   2.0000      -0.288241        -7.8434
  12   2.0000      -0.281767        -7.6673
  13   0.0000      -0.005692        -0.1549
  14   0.0000       0.022664         0.6167
  15   0.0000       0.034352         0.9348
  16   0.0000       0.041184         1.1207
  17   0.0000       0.065420         1.7802

MULLIKEN ATOMIC CHARGES
-----------------------
   0 C :   -0.678314
   1 C :   -0.015437
   2 F :   -0.242848
   3 H :    0.146709
   4 H :    0.146610
   5 H :    0.199568
   6 H :    0.245085
   7 H :    0.198626
Sum of atomic charges:    0.0000000

LOEWDIN ATOMIC CHARGES
----------------------
   0 C :   -0.083309
   1 C :   -0.311495
   2 F :   -0.019062
   3 H :    0.108512
   4 H :    0.113628
   5 H :    0.063364
   6 H :    0.066000
   7 H :    0.062362

  Mayer bond orders larger than 0.100000
B(  0-C ,  1-C ) :   0.9080 B(  0-C ,  5-H ) :   0.9755 B(  0-C ,  6-H ) :   0.9474
B(  0-C ,  7-H ) :   0.9728 B(  1-C ,  2-F ) :   0.8900 B(  1-C ,  3-H ) :   0.9835
B(  1-C ,  4-H ) :   0.9806

Dispersion correction           -0.003476669
FINAL SINGLE POINT ENERGY      -178.924195874843

DIPOLE MOMENT
-------------
                                X             Y             Z
Electronic contribution:      3.65033      -1.38145       3.44262
Nuclear contribution   :     -4.15401       1.70894      -3.75000
                        -----------------------------------------
Total Dipole Moment    :     -0.50369       0.32749      -0.30737
                        -----------------------------------------
Magnitude (a.u.)       :      0.67485
Magnitude (Debye)      :      1.71534

Rotational constants in cm-1:     1.266842     0.300492     0.266603
Rotational constants in MHz : 37978.968232  9008.526876  7992.551454

                             ****ORCA TERMINATED NORMALLY****
TOTAL RUN TIME: 0 days 0 hours 0 minutes 8 seconds 169 msec
