                         Program Version 5.0.0 -  RELEASE  -
|  1> !PBE D3BJ RIJCOSX def2-TZVPD def2/J TightSCF
|  2> *xyz 0 1
|  3> C          1.64703       -2.34528       -5.02041
|  4> C          2.20996       -2.81239       -3.66571
|  5> C          2.48901       -1.66851       -2.73754
|  6> C          3.59631       -0.94761       -2.95225
|  7> N          1.66394       -1.41369       -1.77781
|  8> H          0.81164       -1.96318       -1.70275
|  9> H          1.84550       -0.63508       -1.15875
| 10> H          4.20535       -1.17600       -3.73383
| 11> H          3.81723       -0.12585       -2.40604
| 12> H          3.14311       -3.36280       -3.81152
| 13> H          1.48768       -3.45893       -3.16521
| 14> H          1.46566       -3.19589       -5.64368
| 15> H          2.35406       -1.69850       -5.49654
| 16> H          0.73014       -1.81680       -4.86253
| 17> *
| 18>
| 19> %MaxCore 64000
| 20> %pal nprocs 4
| 21> end
| 22>
| 23> %scf
| 24>   MaxIter 150
| 25> end
| 26>
| 27>
| 28>                          ****END OF INPUT****

CARTESIAN COORDINATES (ANGSTROEM)
---------------------------------
  C      1.647030   -2.345280   -5.020410
  C      2.209960   -2.812390   -3.665710
  C      2.489010   -1.668510   -2.737540
  C      3.596310   -0.947610   -2.952250
  N      1.663940   -1.413690   -1.777810
  H      0.811640   -1.963180   -1.702750
  H      1.845500   -0.635080   -1.158750
  H      4.205350   -1.176000   -3.733830
  H      3.817230   -0.125850   -2.406040
  H      3.143110   -3.362800   -3.811520
  H      1.487680   -3.458930   -3.165210
  H      1.465660   -3.195890   -5.643680
  H      2.354060   -1.698500   -5.496540
  H      0.730140   -1.816800   -4.862530

 Total Charge           Charge          ....    0
 Multiplicity           Mult            ....    1
 Number of Electrons    NEL             ....   40
 Basis Dimension        Dim             ....  266

ORBITAL ENERGIES
----------------

  NO   OCC          E(Eh)            E(eV)
   0   2.0000     -13.991993      -380.7415
   1   2.0000      -9.897408      -269.3222
   2   2.0000      -9.881566      -268.8911
   3   2.0000      -9.863996      -268.4130
   4   2.0000      -9.810898      -266.9681
   5   2.0000      -0.860646       -23.4194
   6   2.0000      -0.707260       -19.2455
   7   2.0000      -0.639919       -17.4131
   8   2.0000      -0.576342       -15.6831
   9   2.0000      -0.514050       -13.9880
  10   2.0000      -0.482259       -13.1229
  11   2.0000      -0.429747       -11.6940
  12   2.0000      -0.394389       -10.7319
  13   2.0000      -0.365318        -9.9408
  14   2.0000      -0.349020        -9.4973
  15   2.0000      -0.336311        -9.1515
  16   2.0000      -0.308594        -8.3973
  17   2.0000      -0.293569        -7.9884
  18   2.0000      -0.292086        -7.9481
  19   2.0000      -0.154906        -4.2152
  20   0.0000      -0.016521        -0.4496
  21   0.0000       0.006437         0.1752
  22   0.0000       0.018226         0.4960
  23   0.0000       0.023456         0.6383
  24   0.0000       0.033869         0.9216

MULLIKEN ATOMIC CHARGES
-----------------------
   0 C :   -0.835413
   1 C :   -0.249288
   2 C :    0.789451
   3 C :   -1.237468
   4 N :   -0.231998
   5 H :    0.146480
   6 H :    0.131571
   7 H :    0.238830
   8 H :    0.220739
   9 H :    0.169224
  10 H :    0.161140
  11 H :    0.211140
  12 H :    0.259848
  13 H :    0.225744
Sum of atomic charges:    0.0000000

LOEWDIN ATOMIC CHARGES
----------------------
   0 C :   -0.089329
   1 C :   -0.201518
   2 C :   -0.517026
   3 C :    0.017611
   4 N :    0.120728
   5 H :    0.110929
   6 H :    0.116251
   7 H :    0.020790
   8 H :    0.012224
   9 H :    0.114163
  10 H :    0.101774
  11 H :    0.060540
  12 H :    0.065217
  13 H :    0.067645

  Mayer bond orders larger than 0.100000
B(  0-C ,  1-C ) :   0.7264 B(  0-C ,  2-C ) :   0.1391 B(  0-C , 11-H ) :   0.9796
B(  0-C , 12-H ) :   0.9663 B(  0-C , 13-H ) :   0.9856 B(  1-C ,  2-C ) :   0.7841
B(  1-C ,  3-C ) :   0.1111 B(  1-C ,  9-H ) :   0.9367 B(  1-C , 10-H ) :   1.0454
B(  2-C ,  3-C ) :   1.1166 B(  2-C ,  4-N ) :   1.1111 B(  3-C ,  4-N ) :   0.1353
B(  3-C ,  7-H ) :   0.9781 B(  3-C ,  8-H ) :   1.0711 B(  4-N ,  5-H ) :   1.0123
B(  4-N ,  6-H ) :   1.0208

Dispersion correction           -0.010518775
FINAL SINGLE POINT ENERGY      -212.359421803247

DIPOLE MOMENT
-------------
                                X             Y             Z
Electronic contribution:     -0.04056       0.66573       3.03363
Nuclear contribution   :     -0.69146      -0.83112      -2.71336
                        -----------------------------------------
Total Dipole Moment    :     -0.73203      -0.16539       0.32026
                        -----------------------------------------
Magnitude (a.u.)       :      0.81596
Magnitude (Debye)      :      2.07400

Rotational constants in cm-1:     0.270661     0.129240     0.102040
Rotational constants in MHz :  8114.202941  3874.518141  3059.074383

                             ****ORCA TERMINATED NORMALLY****
TOTAL RUN TIME: 0 days 0 hours 0 minutes 17 seconds 296 msec
