                         Program Version 5.0.0 -  RELEASE  -
|  1> !PBE D3BJ RIJCOSX def2-TZVPD def2/J TightSCF
|  2> *xyz 0 1
|  3> C          1.64703       -2.34528       -5.02041
|  4> C          2.20996       -2.81239       -3.66571
|  5> C          2.48901       -1.66851       -2.73754
|  6> N          3.59631       -0.94761       -2.95225
|  7> C          1.66394       -1.41369       -1.77781
|  8> H          0.81164       -1.96318       -1.70275
|  9> H          1.84550       -0.63508       -1.15875
| 10> H          4.20535       -1.17600       -3.73383
| 11> H          3.81723       -0.12585       -2.40604
| 12> H          3.14311       -3.36280       -3.81152
| 13> H          1.48768       -3.45893       -3.16521
| 14> H          1.46566       -3.19589       -5.64368
| 15> H          2.35406       -1.69850       -5.49654
| 16> H          0.73014       -1.81680       -4.86253
| 17> *
| 18>
| 19> %MaxCore 64000
| 20> %pal nprocs 4
| 21> end
| 22>
| 23> %scf
| 24>   MaxIter 150
| 25> end
| 26>
| 27>
| 28>                          ****END OF INPUT****

CARTESIAN COORDINATES (ANGSTROEM)
---------------------------------
  C      1.647030   -2.345280   -5.020410
  C      2.209960   -2.812390   -3.665710
  C      2.489010   -1.668510   -2.737540
  N      3.596310   -0.947610   -2.952250
  C      1.663940   -1.413690   -1.777810
  H      0.811640   -1.963180   -1.702750
  H      1.845500   -0.635080   -1.158750
  H      4.205350   -1.176000   -3.733830
  H      3.817230   -0.125850   -2.406040
  H      3.143110   -3.362800   -3.811520
  H      1.487680   -3.458930   -3.165210
  H      1.465660   -3.195890   -5.643680
  H      2.354060   -1.698500   -5.496540
  H      0.730140   -1.816800   -4.862530

 Total Charge           Charge          ....    0
 Multiplicity           Mult            ....    1
 Number of Electrons    NEL             ....   40
 Basis Dimension        Dim             ....  266

ORBITAL ENERGIES
----------------

  NO   OCC          E(Eh)            E(eV)
   0   2.0000     -13.985851      -380.5744
   1   2.0000      -9.894957      -269.2555
   2   2.0000      -9.879929      -268.8465
   3   2.0000      -9.865183      -268.4453
   4   2.0000      -9.812890      -267.0223
   5   2.0000      -0.842836       -22.9347
   6   2.0000      -0.707652       -19.2562
   7   2.0000      -0.652883       -17.7658
   8   2.0000      -0.571736       -15.5577
   9   2.0000      -0.510788       -13.8992
  10   2.0000      -0.470926       -12.8146
  11   2.0000      -0.429745       -11.6940
  12   2.0000      -0.387851       -10.5540
  13   2.0000      -0.375769       -10.2252
  14   2.0000      -0.351287        -9.5590
  15   2.0000      -0.339538        -9.2393
  16   2.0000      -0.308712        -8.4005
  17   2.0000      -0.291308        -7.9269
  18   2.0000      -0.284827        -7.7505
  19   2.0000      -0.164774        -4.4837
  20   0.0000      -0.015518        -0.4223
  21   0.0000       0.008698         0.2367
  22   0.0000       0.020048         0.5455
  23   0.0000       0.024850         0.6762
  24   0.0000       0.033974         0.9245

MULLIKEN ATOMIC CHARGES
-----------------------
   0 C :   -0.812116
   1 C :   -0.262133
   2 C :    0.715480
   3 N :   -0.280590
   4 C :   -1.113438
   5 H :    0.227599
   6 H :    0.237977
   7 H :    0.137589
   8 H :    0.124939
   9 H :    0.193339
  10 H :    0.135029
  11 H :    0.209207
  12 H :    0.236113
  13 H :    0.251005
Sum of atomic charges:   -0.0000000

LOEWDIN ATOMIC CHARGES
----------------------
   0 C :   -0.090472
   1 C :   -0.202307
   2 C :   -0.508265
   3 N :    0.113736
   4 C :    0.017015
   5 H :    0.030393
   6 H :    0.026145
   7 H :    0.101395
   8 H :    0.103992
   9 H :    0.109915
  10 H :    0.107765
  11 H :    0.060885
  12 H :    0.059432
  13 H :    0.070370

  Mayer bond orders larger than 0.100000
B(  0-C ,  1-C ) :   0.7535 B(  0-C ,  2-C ) :   0.1171 B(  0-C , 11-H ) :   0.9873
B(  0-C , 12-H ) :   0.9550 B(  0-C , 13-H ) :   1.0008 B(  1-C ,  2-C ) :   0.8260
B(  1-C ,  3-N ) :   0.1362 B(  1-C ,  9-H ) :   0.9764 B(  1-C , 10-H ) :   0.9727
B(  2-C ,  3-N ) :   0.9748 B(  2-C ,  4-C ) :   1.3092 B(  3-N ,  4-C ) :   0.1256
B(  3-N ,  7-H ) :   1.0243 B(  3-N ,  8-H ) :   1.0304 B(  4-C ,  5-H ) :   0.9789
B(  4-C ,  6-H ) :   1.0441

Dispersion correction           -0.010507685
FINAL SINGLE POINT ENERGY      -212.362774897005

DIPOLE MOMENT
-------------
                                X             Y             Z
Electronic contribution:      1.65140       1.07960       2.00615
Nuclear contribution   :     -1.13902      -0.93906      -2.44135
                        -----------------------------------------
Total Dipole Moment    :      0.51238       0.14054      -0.43520
                        -----------------------------------------
Magnitude (a.u.)       :      0.68679
Magnitude (Debye)      :      1.74569

Rotational constants in cm-1:     0.267243     0.130607     0.102304
Rotational constants in MHz :  8011.748167  3915.504600  3066.999841

                             ****ORCA TERMINATED NORMALLY****
TOTAL RUN TIME: 0 days 0 hours 0 minutes 15 seconds 614 msec
