                         Program Version 5.0.0 -  RELEASE  -
|  1> !PBE D3BJ RIJCOSX def2-TZVPD def2/J TightSCF xyzfile
|  2>
|  3> *xyzfile 0 1 D1.xyz
|  4>
|  5> %MaxCore 64000
|  6>
|  7> %pal nprocs 4
|  8> end
|  9>
| 10> %scf
| 11>   MaxIter 150
| 12> end
| 13>
| 14>
| 15>                          ****END OF INPUT****

CARTESIAN COORDINATES (ANGSTROEM)
---------------------------------
  C      1.647032   -2.345276   -5.020411
  C      0.217628   -1.814022   -4.924389
  C      2.209964   -2.812388   -3.665708
  C     -0.811356   -2.908780   -4.607625
  C     -1.916579   -2.485081   -3.643665
  H     -2.554525   -1.712428   -4.091993
  C     -1.363531   -1.981337   -2.293608
  H     -2.553448   -3.355667   -3.458815
  F     -0.350395   -2.749689   -1.796006
  H      2.308385   -1.588704   -5.457128
  H      1.674286   -3.203478   -5.697392
  C      2.489007   -1.668510   -2.737538
  C      3.596314   -0.947608   -2.952247
  N      1.663936   -1.413685   -1.777806
  H      0.811642   -1.963178   -1.702755
  H      1.845503   -0.635078   -1.158749
  H      4.205351   -1.176003   -3.733825
  H      3.817230   -0.125845   -2.406041
  H     -1.244829   -3.280884   -5.541040
  H     -0.306331   -3.757746   -4.142734
  H     -0.036244   -1.318555   -5.865303
  H      0.175004   -1.035382   -4.158095
  H      3.143106   -3.362803   -3.811524
  H      1.487683   -3.458935   -3.165211
  H     -2.226220   -1.908386   -1.602039
  H     -1.051353   -0.915671   -2.443331

 Total Charge           Charge          ....    0
 Multiplicity           Mult            ....    1
 Number of Electrons    NEL             ....   80
 Basis Dimension        Dim             ....  517

ORBITAL ENERGIES
----------------

  NO   OCC          E(Eh)            E(eV)
   0   2.0000     -24.295209      -661.1062
   1   2.0000     -13.956967      -379.7884
   2   2.0000      -9.977042      -271.4891
   3   2.0000      -9.899622      -269.3824
   4   2.0000      -9.884232      -268.9636
   5   2.0000      -9.881888      -268.8998
   6   2.0000      -9.875873      -268.7362
   7   2.0000      -9.872710      -268.6501
   8   2.0000      -9.868722      -268.5416
   9   2.0000      -9.796121      -266.5660
  10   2.0000      -1.157509       -31.4974
  11   2.0000      -0.838908       -22.8279
  12   2.0000      -0.747972       -20.3534
  13   2.0000      -0.708825       -19.2881
  14   2.0000      -0.667260       -18.1571
  15   2.0000      -0.625612       -17.0238
  16   2.0000      -0.602336       -16.3904
  17   2.0000      -0.552874       -15.0445
  18   2.0000      -0.532045       -14.4777
  19   2.0000      -0.517547       -14.0832
  20   2.0000      -0.479924       -13.0594
  21   2.0000      -0.477348       -12.9893
  22   2.0000      -0.457688       -12.4543
  23   2.0000      -0.436655       -11.8820
  24   2.0000      -0.416887       -11.3441
  25   2.0000      -0.408457       -11.1147
  26   2.0000      -0.389673       -10.6035
  27   2.0000      -0.374187       -10.1821
  28   2.0000      -0.370520       -10.0824
  29   2.0000      -0.343757        -9.3541
  30   2.0000      -0.326169        -8.8755
  31   2.0000      -0.319622        -8.6973
  32   2.0000      -0.315759        -8.5922
  33   2.0000      -0.310356        -8.4452
  34   2.0000      -0.297580        -8.0976
  35   2.0000      -0.290103        -7.8941
  36   2.0000      -0.281267        -7.6537
  37   2.0000      -0.270393        -7.3578
  38   2.0000      -0.267974        -7.2920
  39   2.0000      -0.138653        -3.7729
  40   0.0000      -0.016424        -0.4469
  41   0.0000      -0.005013        -0.1364
  42   0.0000       0.002871         0.0781
  43   0.0000       0.008293         0.2257
  44   0.0000       0.018082         0.4920

MULLIKEN ATOMIC CHARGES
-----------------------
   0 C :   -0.229697
   1 C :   -0.353798
   2 C :   -0.307109
   3 C :   -0.264704
   4 C :   -0.296947
   5 H :    0.125927
   6 C :   -0.224364
   7 H :    0.183520
   8 F :   -0.342961
   9 H :    0.248054
  10 H :    0.100063
  11 C :    0.531120
  12 C :   -1.325721
  13 N :   -0.246455
  14 H :    0.322772
  15 H :    0.071997
  16 H :    0.262097
  17 H :    0.243125
  18 H :    0.141870
  19 H :    0.171350
  20 H :    0.174793
  21 H :    0.189066
  22 H :    0.186408
  23 H :    0.210777
  24 H :    0.163826
  25 H :    0.264992
Sum of atomic charges:    0.0000000

LOEWDIN ATOMIC CHARGES
----------------------
   0 C :   -0.192002
   1 C :   -0.201608
   2 C :   -0.146678
   3 C :   -0.211243
   4 C :   -0.177829
   5 H :    0.121154
   6 C :   -0.227257
   7 H :    0.108623
   8 F :   -0.001502
   9 H :    0.111631
  10 H :    0.109918
  11 C :   -0.495840
  12 C :    0.013952
  13 N :    0.139958
  14 H :    0.014367
  15 H :    0.120428
  16 H :    0.016829
  17 H :    0.009730
  18 H :    0.114669
  19 H :    0.100612
  20 H :    0.111592
  21 H :    0.097936
  22 H :    0.120227
  23 H :    0.096528
  24 H :    0.123142
  25 H :    0.122663

  Mayer bond orders larger than 0.100000
B(  0-C ,  1-C ) :   1.0748 B(  0-C ,  2-C ) :   0.8828 B(  0-C ,  3-C ) :   0.2447
B(  0-C ,  9-H ) :   0.8430 B(  0-C , 10-H ) :   0.9707 B(  0-C , 11-C ) :   0.2412
B(  1-C ,  3-C ) :   0.7778 B(  1-C ,  4-C ) :   0.1989 B(  1-C ,  6-C ) :   0.1261
B(  1-C , 11-C ) :   0.1089 B(  1-C , 20-H ) :   0.9209 B(  1-C , 21-H ) :   1.0046
B(  2-C , 11-C ) :   0.8083 B(  2-C , 22-H ) :   0.9362 B(  2-C , 23-H ) :   0.9558
B(  3-C ,  4-C ) :   0.9927 B(  3-C , 18-H ) :   0.9664 B(  3-C , 19-H ) :   0.9787
B(  4-C ,  5-H ) :   0.9700 B(  4-C ,  6-C ) :   0.9983 B(  4-C ,  7-H ) :   0.9233
B(  4-C ,  8-F ) :   0.1417 B(  6-C ,  8-F ) :   0.7650 B(  6-C , 24-H ) :   0.9519
B(  6-C , 25-H ) :   0.9559 B(  8-F , 14-H ) :   0.1423 B( 11-C , 12-C ) :   1.0770
B( 11-C , 13-N ) :   1.1287 B( 12-C , 13-N ) :   0.1571 B( 12-C , 16-H ) :   1.0038
B( 12-C , 17-H ) :   1.0285 B( 13-N , 14-H ) :   0.7508 B( 13-N , 15-H ) :   1.0329

Dispersion correction           -0.026552459
FINAL SINGLE POINT ENERGY      -468.622839360270

DIPOLE MOMENT
-------------
                                X             Y             Z
Electronic contribution:     -1.26430      -1.76054       6.94926
Nuclear contribution   :     -0.37390       1.73388      -6.94752
                        -----------------------------------------
Total Dipole Moment    :     -1.63820      -0.02666       0.00174
                        -----------------------------------------
Magnitude (a.u.)       :      1.63842
Magnitude (Debye)      :      4.16454

Rotational constants in cm-1:     0.062220     0.032742     0.024374
Rotational constants in MHz :  1865.297979   981.573941   730.711364

                             ****ORCA TERMINATED NORMALLY****
TOTAL RUN TIME: 0 days 0 hours 1 minutes 1 seconds 190 msec
