                         Program Version 5.0.0 -  RELEASE  -
|  1> !PBE D3BJ RIJCOSX def2-TZVPD def2/J TightSCF xyzfile
|  2>
|  3> *xyzfile 0 1 D2.xyz
|  4>
|  5> %MaxCore 64000
|  6>
|  7> %pal nprocs 4
|  8> end
|  9>
| 10> %scf
| 11>   MaxIter 150
| 12> end
| 13>
| 14>
| 15>                          ****END OF INPUT****

CARTESIAN COORDINATES (ANGSTROEM)
---------------------------------
  C      1.647032   -2.345276   -5.020411
  C      0.217628   -1.814022   -4.924389
  C      2.209964   -2.812388   -3.665708
  C     -0.811356   -2.908780   -4.607625
  C     -1.916579   -2.485081   -3.643665
  H     -2.554525   -1.712428   -4.091993
  C     -1.363531   -1.981337   -2.293608
  H     -2.553448   -3.355667   -3.458815
  F     -0.350395   -2.749689   -1.796006
  H      2.308385   -1.588704   -5.457128
  H      1.674286   -3.203478   -5.697392
  C      2.489007   -1.668510   -2.737538
  N      3.596314   -0.947608   -2.952247
  C      1.663936   -1.413685   -1.777806
  H      0.811642   -1.963178   -1.702755
  H      1.845503   -0.635078   -1.158749
  H      4.205351   -1.176003   -3.733825
  H      3.817230   -0.125845   -2.406041
  H     -1.244829   -3.280884   -5.541040
  H     -0.306331   -3.757746   -4.142734
  H     -0.036244   -1.318555   -5.865303
  H      0.175004   -1.035382   -4.158095
  H      3.143106   -3.362803   -3.811524
  H      1.487683   -3.458935   -3.165211
  H     -2.226220   -1.908386   -1.602039
  H     -1.051353   -0.915671   -2.443331

 Total Charge           Charge          ....    0
 Multiplicity           Mult            ....    1
 Number of Electrons    NEL             ....   80
 Basis Dimension        Dim             ....  517

ORBITAL ENERGIES
----------------

  NO   OCC          E(Eh)            E(eV)
   0   2.0000     -24.262316      -660.2112
   1   2.0000     -13.973163      -380.2291
   2   2.0000      -9.957854      -270.9670
   3   2.0000      -9.887449      -269.0512
   4   2.0000      -9.879544      -268.8361
   5   2.0000      -9.876478      -268.7526
   6   2.0000      -9.873806      -268.6799
   7   2.0000      -9.869698      -268.5681
   8   2.0000      -9.868502      -268.5356
   9   2.0000      -9.781998      -266.1817
  10   2.0000      -1.126721       -30.6596
  11   2.0000      -0.830077       -22.5875
  12   2.0000      -0.738658       -20.0999
  13   2.0000      -0.705930       -19.2093
  14   2.0000      -0.658651       -17.9228
  15   2.0000      -0.633699       -17.2438
  16   2.0000      -0.593021       -16.1369
  17   2.0000      -0.544128       -14.8065
  18   2.0000      -0.512861       -13.9556
  19   2.0000      -0.510127       -13.8813
  20   2.0000      -0.473204       -12.8765
  21   2.0000      -0.458656       -12.4807
  22   2.0000      -0.446279       -12.1439
  23   2.0000      -0.435476       -11.8499
  24   2.0000      -0.412457       -11.2235
  25   2.0000      -0.395626       -10.7655
  26   2.0000      -0.392442       -10.6789
  27   2.0000      -0.383657       -10.4398
  28   2.0000      -0.353993        -9.6326
  29   2.0000      -0.338572        -9.2130
  30   2.0000      -0.325537        -8.8583
  31   2.0000      -0.314662        -8.5624
  32   2.0000      -0.305690        -8.3183
  33   2.0000      -0.294924        -8.0253
  34   2.0000      -0.283804        -7.7227
  35   2.0000      -0.280700        -7.6382
  36   2.0000      -0.272015        -7.4019
  37   2.0000      -0.266550        -7.2532
  38   2.0000      -0.250752        -6.8233
  39   2.0000      -0.150298        -4.0898
  40   0.0000      -0.010493        -0.2855
  41   0.0000      -0.003481        -0.0947
  42   0.0000       0.002434         0.0662
  43   0.0000       0.013942         0.3794
  44   0.0000       0.024976         0.6796

MULLIKEN ATOMIC CHARGES
-----------------------
   0 C :   -0.133913
   1 C :   -0.282640
   2 C :   -0.366095
   3 C :   -0.303588
   4 C :   -0.288642
   5 H :    0.128525
   6 C :   -0.248138
   7 H :    0.178219
   8 F :   -0.257707
   9 H :    0.194380
  10 H :    0.087512
  11 C :    0.626751
  12 N :   -0.289966
  13 C :   -1.701731
  14 H :    0.769975
  15 H :    0.147857
  16 H :    0.140453
  17 H :    0.114494
  18 H :    0.147906
  19 H :    0.170565
  20 H :    0.168240
  21 H :    0.201207
  22 H :    0.218698
  23 H :    0.141433
  24 H :    0.158677
  25 H :    0.277527
Sum of atomic charges:   -0.0000000

LOEWDIN ATOMIC CHARGES
----------------------
   0 C :   -0.195793
   1 C :   -0.202331
   2 C :   -0.145554
   3 C :   -0.210470
   4 C :   -0.179303
   5 H :    0.118873
   6 C :   -0.231878
   7 H :    0.107168
   8 F :   -0.021216
   9 H :    0.106195
  10 H :    0.109227
  11 C :   -0.478596
  12 N :    0.112161
  13 C :    0.031599
  14 H :   -0.038982
  15 H :    0.037001
  16 H :    0.097693
  17 H :    0.101602
  18 H :    0.112813
  19 H :    0.101262
  20 H :    0.110260
  21 H :    0.097436
  22 H :    0.115814
  23 H :    0.101765
  24 H :    0.121239
  25 H :    0.122014

  Mayer bond orders larger than 0.100000
B(  0-C ,  1-C ) :   1.1035 B(  0-C ,  2-C ) :   0.9325 B(  0-C ,  3-C ) :   0.2588
B(  0-C ,  9-H ) :   0.8129 B(  0-C , 10-H ) :   0.9763 B(  0-C , 11-C ) :   0.1410
B(  1-C ,  3-C ) :   0.7738 B(  1-C ,  4-C ) :   0.1931 B(  1-C ,  6-C ) :   0.1335
B(  1-C , 11-C ) :   0.1093 B(  1-C , 20-H ) :   0.9334 B(  1-C , 21-H ) :   0.9976
B(  2-C , 11-C ) :   0.8688 B(  2-C , 12-N ) :   0.1879 B(  2-C , 22-H ) :   0.9588
B(  2-C , 23-H ) :   0.9660 B(  3-C ,  4-C ) :   1.0030 B(  3-C , 18-H ) :   0.9627
B(  3-C , 19-H ) :   0.9785 B(  4-C ,  5-H ) :   0.9652 B(  4-C ,  6-C ) :   1.0110
B(  4-C ,  7-H ) :   0.9202 B(  4-C ,  8-F ) :   0.1305 B(  6-C ,  8-F ) :   0.8059
B(  6-C , 13-C ) :   0.2408 B(  6-C , 24-H ) :   0.9320 B(  6-C , 25-H ) :   0.9333
B(  8-F , 13-C ) :   0.1307 B(  8-F , 14-H ) :  -0.2136 B( 11-C , 12-N ) :   0.9167
B( 11-C , 13-C ) :   1.1242 B( 11-C , 15-H ) :  -0.1354 B( 12-N , 13-C ) :   0.1164
B( 12-N , 16-H ) :   1.0382 B( 12-N , 17-H ) :   1.0329 B( 13-C , 14-H ) :   0.4452
B( 13-C , 15-H ) :   1.1904

Dispersion correction           -0.026680553
FINAL SINGLE POINT ENERGY      -468.606061511145

DIPOLE MOMENT
-------------
                                X             Y             Z
Electronic contribution:      0.46331      -1.33529       6.09844
Nuclear contribution   :     -0.73748       1.64619      -6.72655
                        -----------------------------------------
Total Dipole Moment    :     -0.27418       0.31091      -0.62811
                        -----------------------------------------
Magnitude (a.u.)       :      0.75257
Magnitude (Debye)      :      1.91288

Rotational constants in cm-1:     0.063169     0.031711     0.023958
Rotational constants in MHz :  1893.751676   950.657187   718.229932

                             ****ORCA TERMINATED NORMALLY****
TOTAL RUN TIME: 0 days 0 hours 0 minutes 49 seconds 142 msec
