                         Program Version 5.0.0 -  RELEASE  -
|  1> !PBE0 D3BJ RIJCOSX def2-SVPD def2/J TightSCF
|  2> *xyz -1 1
|  3> C          4.90646       -3.10282       -5.95484
|  4> C          3.51177       -2.80621       -6.49228
|  5> H          2.73604       -3.37345       -5.97374
|  6> H          3.44490       -3.04083       -7.55528
|  7> S          3.00462       -1.09621       -6.38926
|  8> O          4.12886       -0.32965       -6.95372
|  9> O          1.78128       -1.00078       -7.13640
| 10> O          2.85155       -0.78368       -4.95679
| 11> H          5.62703       -2.52424       -6.49422
| 12> H          5.12164       -4.14387       -6.07654
| 13> H          4.95004       -2.84862       -4.91639
| 14> *
| 15>
| 16> %MaxCore 64000
| 17>
| 18> %pal nprocs 4
| 19> end
| 20>
| 21> %scf
| 22>   MaxIter 150
| 23> end
| 24>
| 25>
| 26>                          ****END OF INPUT****

CARTESIAN COORDINATES (ANGSTROEM)
---------------------------------
  C      4.906460   -3.102820   -5.954840
  C      3.511770   -2.806210   -6.492280
  H      2.736040   -3.373450   -5.973740
  H      3.444900   -3.040830   -7.555280
  S      3.004620   -1.096210   -6.389260
  O      4.128860   -0.329650   -6.953720
  O      1.781280   -1.000780   -7.136400
  O      2.851550   -0.783680   -4.956790
  H      5.627030   -2.524240   -6.494220
  H      5.121640   -4.143870   -6.076540
  H      4.950040   -2.848620   -4.916390

 Total Charge           Charge          ....   -1
 Multiplicity           Mult            ....    1
 Number of Electrons    NEL             ....   58
 Basis Dimension        Dim             ....  176

ORBITAL ENERGIES
----------------

  NO   OCC          E(Eh)            E(eV)
   0   2.0000     -89.035915     -2422.7904
   1   2.0000     -19.000261      -517.0234
   2   2.0000     -18.988703      -516.7089
   3   2.0000     -18.988306      -516.6981
   4   2.0000     -10.099449      -274.8200
   5   2.0000     -10.091079      -274.5922
   6   2.0000      -7.995605      -217.5715
   7   2.0000      -5.937853      -161.5772
   8   2.0000      -5.937730      -161.5738
   9   2.0000      -5.937225      -161.5601
  10   2.0000      -0.956124       -26.0175
  11   2.0000      -0.814271       -22.1574
  12   2.0000      -0.793161       -21.5830
  13   2.0000      -0.654376       -17.8065
  14   2.0000      -0.528051       -14.3690
  15   2.0000      -0.399114       -10.8604
  16   2.0000      -0.336497        -9.1566
  17   2.0000      -0.332564        -9.0495
  18   2.0000      -0.295146        -8.0313
  19   2.0000      -0.280311        -7.6276
  20   2.0000      -0.272068        -7.4033
  21   2.0000      -0.246775        -6.7151
  22   2.0000      -0.228941        -6.2298
  23   2.0000      -0.164961        -4.4888
  24   2.0000      -0.164589        -4.4787
  25   2.0000      -0.128483        -3.4962
  26   2.0000      -0.119162        -3.2426
  27   2.0000      -0.115399        -3.1402
  28   2.0000      -0.076794        -2.0897
  29   0.0000       0.148361         4.0371
  30   0.0000       0.174539         4.7494
  31   0.0000       0.182712         4.9718
  32   0.0000       0.189554         5.1580
  33   0.0000       0.209956         5.7132

MULLIKEN ATOMIC CHARGES
-----------------------
   0 C :    0.590879
   1 C :   -0.497858
   2 H :    0.004895
   3 H :    0.037361
   4 S :    1.429805
   5 O :   -0.856978
   6 O :   -0.819611
   7 O :   -0.856750
   8 H :    0.009821
   9 H :   -0.045997
  10 H :    0.004433
Sum of atomic charges:   -1.0000000

LOEWDIN ATOMIC CHARGES
----------------------
   0 C :    0.099912
   1 C :   -0.145548
   2 H :    0.007397
   3 H :    0.004491
   4 S :    0.862824
   5 O :   -0.591621
   6 O :   -0.576089
   7 O :   -0.595434
   8 H :   -0.019757
   9 H :   -0.031834
  10 H :   -0.014340

  Mayer bond orders larger than 0.100000
B(  0-C ,  1-C ) :   1.2822 B(  0-C ,  8-H ) :   0.8486 B(  0-C ,  9-H ) :   0.7869
B(  0-C , 10-H ) :   0.8384 B(  1-C ,  2-H ) :   1.0015 B(  1-C ,  3-H ) :   0.9952
B(  1-C ,  4-S ) :   0.9403 B(  1-C ,  8-H ) :   0.1815 B(  1-C ,  9-H ) :   0.1871
B(  1-C , 10-H ) :   0.1747 B(  4-S ,  5-O ) :   1.2520 B(  4-S ,  6-O ) :   1.3040
B(  4-S ,  7-O ) :   1.2439

Dispersion correction           -0.008269804
FINAL SINGLE POINT ENERGY      -702.320884759576

DIPOLE MOMENT
-------------
                                X             Y             Z
Electronic contribution:     -4.33736       6.33688      -0.66280
Nuclear contribution   :      5.05690      -8.21735       0.57889
                        -----------------------------------------
Total Dipole Moment    :      0.71954      -1.88047      -0.08391
                        -----------------------------------------
Magnitude (a.u.)       :      2.01518
Magnitude (Debye)      :      5.12219

Rotational constants in cm-1:     0.162547     0.083494     0.081672
Rotational constants in MHz :  4873.033504  2503.090885  2448.458543

                             ****ORCA TERMINATED NORMALLY****
TOTAL RUN TIME: 0 days 0 hours 0 minutes 14 seconds 207 msec
