                         Program Version 5.0.0 -  RELEASE  -
|  1> !PBE0 D3BJ RIJCOSX def2-SVPD def2/J TightSCF
|  2> *xyz 1 1
|  3> C          4.49059        1.15590       -2.46929
|  4> N          4.30539        1.22276       -3.90832
|  5> C          4.63192        2.24637       -4.67096
|  6> N          4.54169        2.14399       -5.98714
|  7> N          5.08409        3.39358       -4.11855
|  8> H          4.92067        3.57050       -3.13587
|  9> H          5.25465        4.19739       -4.70696
| 10> H          3.82453        0.44911       -4.35093
| 11> H          4.34337        1.24932       -6.41665
| 12> H          4.67671        2.95662       -6.57411
| 13> C          5.94213        0.93950       -2.03689
| 14> H          3.86431        0.32853       -2.13661
| 15> H          4.07623        2.04999       -1.98901
| 16> H          6.32982        0.06401       -2.51451
| 17> H          5.98308        0.81426       -0.97504
| 18> H          6.52865        1.78889       -2.31873
| 19> *
| 20>
| 21> %MaxCore 64000
| 22>
| 23> %pal nprocs 4
| 24> end
| 25>
| 26> %scf
| 27>   MaxIter 150
| 28> end
| 29>
| 30>
| 31>                          ****END OF INPUT****

CARTESIAN COORDINATES (ANGSTROEM)
---------------------------------
  C      4.490590    1.155900   -2.469290
  N      4.305390    1.222760   -3.908320
  C      4.631920    2.246370   -4.670960
  N      4.541690    2.143990   -5.987140
  N      5.084090    3.393580   -4.118550
  H      4.920670    3.570500   -3.135870
  H      5.254650    4.197390   -4.706960
  H      3.824530    0.449110   -4.350930
  H      4.343370    1.249320   -6.416650
  H      4.676710    2.956620   -6.574110
  C      5.942130    0.939500   -2.036890
  H      3.864310    0.328530   -2.136610
  H      4.076230    2.049990   -1.989010
  H      6.329820    0.064010   -2.514510
  H      5.983080    0.814260   -0.975040
  H      6.528650    1.788890   -2.318730

 Total Charge           Charge          ....    1
 Multiplicity           Mult            ....    1
 Number of Electrons    NEL             ....   48
 Basis Dimension        Dim             ....  200

ORBITAL ENERGIES
----------------

  NO   OCC          E(Eh)            E(eV)
   0   2.0000     -14.622486      -397.8981
   1   2.0000     -14.620550      -397.8454
   2   2.0000     -14.617939      -397.7743
   3   2.0000     -10.567692      -287.5615
   4   2.0000     -10.441162      -284.1185
   5   2.0000     -10.367337      -282.1096
   6   2.0000      -1.236547       -33.6482
   7   2.0000      -1.124991       -30.6126
   8   2.0000      -1.108373       -30.1604
   9   2.0000      -0.947980       -25.7958
  10   2.0000      -0.861703       -23.4481
  11   2.0000      -0.818259       -22.2660
  12   2.0000      -0.804778       -21.8991
  13   2.0000      -0.759062       -20.6551
  14   2.0000      -0.708467       -19.2784
  15   2.0000      -0.706259       -19.2183
  16   2.0000      -0.676433       -18.4067
  17   2.0000      -0.641589       -17.4585
  18   2.0000      -0.617564       -16.8048
  19   2.0000      -0.572792       -15.5865
  20   2.0000      -0.543684       -14.7944
  21   2.0000      -0.523424       -14.2431
  22   2.0000      -0.489951       -13.3323
  23   2.0000      -0.463959       -12.6250
  24   0.0000      -0.164414        -4.4739
  25   0.0000      -0.146015        -3.9733
  26   0.0000      -0.112463        -3.0603
  27   0.0000      -0.106889        -2.9086
  28   0.0000      -0.083353        -2.2682

MULLIKEN ATOMIC CHARGES
-----------------------
   0 C :    0.198324
   1 N :   -0.505346
   2 C :    1.693712
   3 N :   -0.206606
   4 N :   -0.152846
   5 H :   -0.003614
   6 H :   -0.139135
   7 H :   -0.220576
   8 H :   -0.027024
   9 H :   -0.019996
  10 C :    0.503352
  11 H :   -0.241028
  12 H :    0.047744
  13 H :    0.002010
  14 H :    0.065359
  15 H :    0.005669
Sum of atomic charges:    1.0000000

LOEWDIN ATOMIC CHARGES
----------------------
   0 C :    0.036223
   1 N :    0.032841
   2 C :   -0.024252
   3 N :    0.256858
   4 N :    0.278337
   5 H :    0.018361
   6 H :    0.037053
   7 H :    0.063143
   8 H :    0.043631
   9 H :    0.042830
  10 C :    0.157757
  11 H :    0.043379
  12 H :    0.031360
  13 H :   -0.002107
  14 H :    0.004905
  15 H :   -0.020318

  Mayer bond orders larger than 0.100000
B(  0-C ,  1-N ) :   0.8387 B(  0-C ,  7-H ) :  -0.1521 B(  0-C , 10-C ) :   1.2897
B(  0-C , 11-H ) :   0.9501 B(  0-C , 12-H ) :   0.8825 B(  0-C , 13-H ) :   0.2072
B(  0-C , 14-H ) :   0.1284 B(  0-C , 15-H ) :   0.1679 B(  1-N ,  2-C ) :   0.9149
B(  1-N ,  3-N ) :   0.2734 B(  1-N ,  4-N ) :   0.2325 B(  1-N ,  7-H ) :   1.3435
B(  1-N , 11-H ) :   0.1586 B(  2-C ,  3-N ) :   0.7136 B(  2-C ,  4-N ) :   0.7968
B(  2-C ,  5-H ) :  -0.1185 B(  2-C ,  6-H ) :  -0.1765 B(  2-C ,  7-H ) :  -0.2580
B(  2-C ,  8-H ) :  -0.1715 B(  2-C ,  9-H ) :  -0.1448 B(  3-N ,  4-N ) :   0.1745
B(  3-N ,  8-H ) :   1.1929 B(  3-N ,  9-H ) :   1.2238 B(  4-N ,  5-H ) :   1.0767
B(  4-N ,  6-H ) :   1.2915 B(  5-H ,  6-H ) :  -0.1949 B(  8-H ,  9-H ) :  -0.1696
B( 10-C , 13-H ) :   0.8426 B( 10-C , 14-H ) :   0.8471 B( 10-C , 15-H ) :   0.8433

Dispersion correction           -0.010484929
FINAL SINGLE POINT ENERGY      -283.894653101833

DIPOLE MOMENT
-------------
                                X             Y             Z
Electronic contribution:     -1.80874       1.57750      -4.46339
Nuclear contribution   :      1.34333      -1.11039       3.43667
                        -----------------------------------------
Total Dipole Moment    :     -0.46542       0.46711      -1.02672
                        -----------------------------------------
Magnitude (a.u.)       :      1.22023
Magnitude (Debye)      :      3.10158

Rotational constants in cm-1:     0.227161     0.075356     0.065003
Rotational constants in MHz :  6810.114531  2259.122204  1948.738523

                             ****ORCA TERMINATED NORMALLY****
TOTAL RUN TIME: 0 days 0 hours 0 minutes 18 seconds 657 msec
