                         Program Version 5.0.0 -  RELEASE  -
|  1> !PBE0 D3BJ RIJCOSX def2-SVPD def2/J TightSCF
|  2> *xyz 0 1
|  3> C          4.90646       -3.10282       -5.95484
|  4> C          3.51177       -2.80621       -6.49228
|  5> H          2.73604       -3.37345       -5.97374
|  6> H          3.44490       -3.04083       -7.55528
|  7> S          3.00462       -1.09621       -6.38926
|  8> F          4.12886       -0.32965       -6.95372
|  9> O          1.78128       -1.00078       -7.13640
| 10> O          2.85155       -0.78368       -4.95679
| 11> H          5.62703       -2.52424       -6.49422
| 12> H          5.12164       -4.14387       -6.07654
| 13> H          4.95004       -2.84862       -4.91639
| 14> *
| 15>
| 16> %MaxCore 64000
| 17>
| 18> %pal nprocs 4
| 19> end
| 20>
| 21> %scf
| 22>   MaxIter 150
| 23> end
| 24>
| 25>
| 26>                          ****END OF INPUT****

CARTESIAN COORDINATES (ANGSTROEM)
---------------------------------
  C      4.906460   -3.102820   -5.954840
  C      3.511770   -2.806210   -6.492280
  H      2.736040   -3.373450   -5.973740
  H      3.444900   -3.040830   -7.555280
  S      3.004620   -1.096210   -6.389260
  F      4.128860   -0.329650   -6.953720
  O      1.781280   -1.000780   -7.136400
  O      2.851550   -0.783680   -4.956790
  H      5.627030   -2.524240   -6.494220
  H      5.121640   -4.143870   -6.076540
  H      4.950040   -2.848620   -4.916390

 Total Charge           Charge          ....    0
 Multiplicity           Mult            ....    1
 Number of Electrons    NEL             ....   58
 Basis Dimension        Dim             ....  176

ORBITAL ENERGIES
----------------

  NO   OCC          E(Eh)            E(eV)
   0   2.0000     -89.295310     -2429.8489
   1   2.0000     -24.890033      -677.2922
   2   2.0000     -19.234941      -523.4094
   3   2.0000     -19.222904      -523.0818
   4   2.0000     -10.301865      -280.3280
   5   2.0000     -10.259886      -279.1857
   6   2.0000      -8.255817      -224.6522
   7   2.0000      -6.201991      -168.7647
   8   2.0000      -6.195840      -168.5974
   9   2.0000      -6.194505      -168.5611
  10   2.0000      -1.385008       -37.6880
  11   2.0000      -1.141912       -31.0730
  12   2.0000      -1.038420       -28.2569
  13   2.0000      -0.851680       -23.1754
  14   2.0000      -0.748960       -20.3802
  15   2.0000      -0.698768       -19.0144
  16   2.0000      -0.607310       -16.5258
  17   2.0000      -0.591733       -16.1019
  18   2.0000      -0.567340       -15.4381
  19   2.0000      -0.515395       -14.0246
  20   2.0000      -0.497924       -13.5492
  21   2.0000      -0.475008       -12.9256
  22   2.0000      -0.457222       -12.4416
  23   2.0000      -0.429214       -11.6795
  24   2.0000      -0.416964       -11.3462
  25   2.0000      -0.399166       -10.8619
  26   2.0000      -0.354976        -9.6594
  27   2.0000      -0.343116        -9.3367
  28   2.0000      -0.328028        -8.9261
  29   0.0000      -0.001744        -0.0475
  30   0.0000       0.034265         0.9324
  31   0.0000       0.040474         1.1013
  32   0.0000       0.042543         1.1577
  33   0.0000       0.052890         1.4392

MULLIKEN ATOMIC CHARGES
-----------------------
   0 C :    0.601605
   1 C :   -0.505700
   2 H :    0.054173
   3 H :    0.081966
   4 S :    1.579558
   5 F :   -0.434393
   6 O :   -0.683454
   7 O :   -0.726032
   8 H :    0.013965
   9 H :   -0.011906
  10 H :    0.030219
Sum of atomic charges:   -0.0000000

LOEWDIN ATOMIC CHARGES
----------------------
   0 C :    0.129736
   1 C :   -0.096715
   2 H :    0.040149
   3 H :    0.024395
   4 S :    1.125733
   5 F :   -0.270577
   6 O :   -0.462156
   7 O :   -0.479972
   8 H :   -0.008155
   9 H :   -0.002395
  10 H :   -0.000042

  Mayer bond orders larger than 0.100000
B(  0-C ,  1-C ) :   1.2972 B(  0-C ,  8-H ) :   0.8448 B(  0-C ,  9-H ) :   0.7883
B(  0-C , 10-H ) :   0.8445 B(  1-C ,  2-H ) :   0.9890 B(  1-C ,  3-H ) :   0.9861
B(  1-C ,  4-S ) :   1.0139 B(  1-C ,  8-H ) :   0.1672 B(  1-C ,  9-H ) :   0.1793
B(  1-C , 10-H ) :   0.1679 B(  4-S ,  5-F ) :   0.6064 B(  4-S ,  6-O ) :   1.5227
B(  4-S ,  7-O ) :   1.4658

Dispersion correction           -0.007860972
FINAL SINGLE POINT ENERGY      -726.805568855435

DIPOLE MOMENT
-------------
                                X             Y             Z
Electronic contribution:     -2.97005       8.14118      -1.74792
Nuclear contribution   :      4.18919      -9.36357       1.23251
                        -----------------------------------------
Total Dipole Moment    :      1.21914      -1.22239      -0.51541
                        -----------------------------------------
Magnitude (a.u.)       :      1.80172
Magnitude (Debye)      :      4.57960

Rotational constants in cm-1:     0.153152     0.082513     0.079874
Rotational constants in MHz :  4591.373714  2473.673397  2394.575279

                             ****ORCA TERMINATED NORMALLY****
TOTAL RUN TIME: 0 days 0 hours 0 minutes 15 seconds 698 msec
