                         Program Version 5.0.0 -  RELEASE  -
|  1> !PBE0 D3BJ RIJCOSX def2-SVPD def2/J TightSCF
|  2> *xyz 0 1
|  3> C          4.49059        1.15590       -2.46929
|  4> C          4.30539        1.22276       -3.90832
|  5> C          4.63192        2.24637       -4.67096
|  6> N          4.54169        2.14399       -5.98714
|  7> N          5.08409        3.39358       -4.11855
|  8> H          4.92067        3.57050       -3.13587
|  9> H          5.25465        4.19739       -4.70696
| 10> H          3.82453        0.44911       -4.35093
| 11> H          4.34337        1.24932       -6.41665
| 12> H          4.67671        2.95662       -6.57411
| 13> C          5.94213        0.93950       -2.03689
| 14> H          3.86431        0.32853       -2.13661
| 15> H          4.07623        2.04999       -1.98901
| 16> H          6.32982        0.06401       -2.51451
| 17> H          5.98308        0.81426       -0.97504
| 18> H          6.52865        1.78889       -2.31873
| 19> *
| 20>
| 21> %MaxCore 64000
| 22>
| 23> %pal nprocs 4
| 24> end
| 25>
| 26> %scf
| 27>   MaxIter 150
| 28> end
| 29>
| 30>
| 31>                          ****END OF INPUT****

CARTESIAN COORDINATES (ANGSTROEM)
---------------------------------
  C      4.490590    1.155900   -2.469290
  C      4.305390    1.222760   -3.908320
  C      4.631920    2.246370   -4.670960
  N      4.541690    2.143990   -5.987140
  N      5.084090    3.393580   -4.118550
  H      4.920670    3.570500   -3.135870
  H      5.254650    4.197390   -4.706960
  H      3.824530    0.449110   -4.350930
  H      4.343370    1.249320   -6.416650
  H      4.676710    2.956620   -6.574110
  C      5.942130    0.939500   -2.036890
  H      3.864310    0.328530   -2.136610
  H      4.076230    2.049990   -1.989010
  H      6.329820    0.064010   -2.514510
  H      5.983080    0.814260   -0.975040
  H      6.528650    1.788890   -2.318730

 Total Charge           Charge          ....    0
 Multiplicity           Mult            ....    1
 Number of Electrons    NEL             ....   48
 Basis Dimension        Dim             ....  200

ORBITAL ENERGIES
----------------

  NO   OCC          E(Eh)            E(eV)
   0   2.0000     -14.397321      -391.7710
   1   2.0000     -14.395173      -391.7126
   2   2.0000     -10.273930      -279.5678
   3   2.0000     -10.206943      -277.7451
   4   2.0000     -10.194900      -277.4173
   5   2.0000     -10.153545      -276.2920
   6   2.0000      -0.978350       -26.6223
   7   2.0000      -0.886241       -24.1159
   8   2.0000      -0.788834       -21.4653
   9   2.0000      -0.709458       -19.3053
  10   2.0000      -0.632296       -17.2057
  11   2.0000      -0.592978       -16.1358
  12   2.0000      -0.558296       -15.1920
  13   2.0000      -0.522454       -14.2167
  14   2.0000      -0.490151       -13.3377
  15   2.0000      -0.450756       -12.2657
  16   2.0000      -0.434499       -11.8233
  17   2.0000      -0.403793       -10.9878
  18   2.0000      -0.397132       -10.8065
  19   2.0000      -0.363040        -9.8788
  20   2.0000      -0.340076        -9.2539
  21   2.0000      -0.327354        -8.9077
  22   2.0000      -0.277373        -7.5477
  23   2.0000      -0.170259        -4.6330
  24   0.0000       0.021576         0.5871
  25   0.0000       0.046294         1.2597
  26   0.0000       0.057770         1.5720
  27   0.0000       0.066918         1.8209
  28   0.0000       0.084733         2.3057

MULLIKEN ATOMIC CHARGES
-----------------------
   0 C :   -0.317218
   1 C :   -0.392780
   2 C :    1.257987
   3 N :   -0.161581
   4 N :   -0.150374
   5 H :   -0.022825
   6 H :   -0.238718
   7 H :   -0.332389
   8 H :   -0.029504
   9 H :   -0.141108
  10 C :    0.496754
  11 H :    0.022903
  12 H :    0.005589
  13 H :   -0.002550
  14 H :    0.026197
  15 H :   -0.020383
Sum of atomic charges:   -0.0000000

LOEWDIN ATOMIC CHARGES
----------------------
   0 C :   -0.109917
   1 C :   -0.042887
   2 C :   -0.213898
   3 N :    0.169484
   4 N :    0.199149
   5 H :   -0.010985
   6 H :   -0.011043
   7 H :   -0.048765
   8 H :    0.010828
   9 H :   -0.007056
  10 C :    0.114919
  11 H :    0.016546
  12 H :    0.006813
  13 H :   -0.016892
  14 H :   -0.025853
  15 H :   -0.030445

  Mayer bond orders larger than 0.100000
B(  0-C ,  1-C ) :   1.2372 B(  0-C ,  7-H ) :   0.2700 B(  0-C , 10-C ) :   1.2697
B(  0-C , 11-H ) :   0.8530 B(  0-C , 12-H ) :   0.8892 B(  0-C , 13-H ) :   0.1667
B(  0-C , 14-H ) :   0.1433 B(  0-C , 15-H ) :   0.1949 B(  1-C ,  2-C ) :   1.4983
B(  1-C ,  3-N ) :   0.4075 B(  1-C ,  4-N ) :   0.2065 B(  1-C ,  7-H ) :   1.0014
B(  1-C , 11-H ) :   0.2617 B(  1-C , 12-H ) :   0.1451 B(  2-C ,  3-N ) :   0.6926
B(  2-C ,  4-N ) :   0.8067 B(  2-C ,  6-H ) :  -0.1834 B(  3-N ,  4-N ) :   0.1278
B(  3-N ,  8-H ) :   1.1759 B(  3-N ,  9-H ) :   1.2518 B(  4-N ,  5-H ) :   1.0577
B(  4-N ,  6-H ) :   1.3470 B(  5-H ,  6-H ) :  -0.1803 B(  8-H ,  9-H ) :  -0.1604
B( 10-C , 13-H ) :   0.8738 B( 10-C , 14-H ) :   0.8434 B( 10-C , 15-H ) :   0.8409

Dispersion correction           -0.010907523
FINAL SINGLE POINT ENERGY      -267.434441337082

DIPOLE MOMENT
-------------
                                X             Y             Z
Electronic contribution:     -1.26517       1.97077      -4.12854
Nuclear contribution   :      1.23062      -1.24683       3.43056
                        -----------------------------------------
Total Dipole Moment    :     -0.03455       0.72394      -0.69797
                        -----------------------------------------
Magnitude (a.u.)       :      1.00620
Magnitude (Debye)      :      2.55756

Rotational constants in cm-1:     0.231477     0.075416     0.065327
Rotational constants in MHz :  6939.497385  2260.912204  1958.442932

                             ****ORCA TERMINATED NORMALLY****
TOTAL RUN TIME: 0 days 0 hours 0 minutes 22 seconds 296 msec
