                         Program Version 5.0.0 -  RELEASE  -
|  1> !PBE0 D3BJ RIJCOSX def2-SVPD def2/J TightSCF
|  2> *xyz 0 1
|  3> C          4.90646       -3.10282       -5.95484
|  4> C          3.51177       -2.80621       -6.49228
|  5> H          2.73604       -3.37345       -5.97374
|  6> H          3.44490       -3.04083       -7.55528
|  7> S          3.00462       -1.09621       -6.38926
|  8> O          4.12886       -0.32965       -6.95372
|  9> F          1.78128       -1.00078       -7.13640
| 10> O          2.85155       -0.78368       -4.95679
| 11> H          5.62703       -2.52424       -6.49422
| 12> H          5.12164       -4.14387       -6.07654
| 13> H          4.95004       -2.84862       -4.91639
| 14> *
| 15>
| 16> %MaxCore 64000
| 17>
| 18> %pal nprocs 4
| 19> end
| 20>
| 21> %scf
| 22>   MaxIter 150
| 23> end
| 24>
| 25>
| 26>                          ****END OF INPUT****

CARTESIAN COORDINATES (ANGSTROEM)
---------------------------------
  C      4.906460   -3.102820   -5.954840
  C      3.511770   -2.806210   -6.492280
  H      2.736040   -3.373450   -5.973740
  H      3.444900   -3.040830   -7.555280
  S      3.004620   -1.096210   -6.389260
  O      4.128860   -0.329650   -6.953720
  F      1.781280   -1.000780   -7.136400
  O      2.851550   -0.783680   -4.956790
  H      5.627030   -2.524240   -6.494220
  H      5.121640   -4.143870   -6.076540
  H      4.950040   -2.848620   -4.916390

 Total Charge           Charge          ....    0
 Multiplicity           Mult            ....    1
 Number of Electrons    NEL             ....   58
 Basis Dimension        Dim             ....  176

ORBITAL ENERGIES
----------------

  NO   OCC          E(Eh)            E(eV)
   0   2.0000     -89.297258     -2429.9019
   1   2.0000     -24.908539      -677.7958
   2   2.0000     -19.223153      -523.0886
   3   2.0000     -19.223047      -523.0857
   4   2.0000     -10.302771      -280.3527
   5   2.0000     -10.255360      -279.0625
   6   2.0000      -8.257786      -224.7058
   7   2.0000      -6.204071      -168.8214
   8   2.0000      -6.197613      -168.6456
   9   2.0000      -6.196368      -168.6117
  10   2.0000      -1.416541       -38.5460
  11   2.0000      -1.128238       -30.7009
  12   2.0000      -1.024439       -27.8764
  13   2.0000      -0.848894       -23.0996
  14   2.0000      -0.764364       -20.7994
  15   2.0000      -0.700376       -19.0582
  16   2.0000      -0.614511       -16.7217
  17   2.0000      -0.611355       -16.6358
  18   2.0000      -0.577577       -15.7167
  19   2.0000      -0.515846       -14.0369
  20   2.0000      -0.500703       -13.6248
  21   2.0000      -0.459992       -12.5170
  22   2.0000      -0.451052       -12.2738
  23   2.0000      -0.426898       -11.6165
  24   2.0000      -0.405591       -11.0367
  25   2.0000      -0.396971       -10.8021
  26   2.0000      -0.343026        -9.3342
  27   2.0000      -0.341256        -9.2860
  28   2.0000      -0.316727        -8.6186
  29   0.0000       0.002263         0.0616
  30   0.0000       0.023455         0.6382
  31   0.0000       0.041526         1.1300
  32   0.0000       0.043769         1.1910
  33   0.0000       0.057179         1.5559

MULLIKEN ATOMIC CHARGES
-----------------------
   0 C :    0.582584
   1 C :   -0.534011
   2 H :    0.059886
   3 H :    0.091876
   4 S :    1.603863
   5 O :   -0.715836
   6 F :   -0.422341
   7 O :   -0.716123
   8 H :    0.032640
   9 H :   -0.008630
  10 H :    0.026092
Sum of atomic charges:   -0.0000000

LOEWDIN ATOMIC CHARGES
----------------------
   0 C :    0.145112
   1 C :   -0.109477
   2 H :    0.026107
   3 H :    0.022014
   4 S :    1.130794
   5 O :   -0.479810
   6 F :   -0.255218
   7 O :   -0.480889
   8 H :   -0.001788
   9 H :   -0.000296
  10 H :    0.003451

  Mayer bond orders larger than 0.100000
B(  0-C ,  1-C ) :   1.3502 B(  0-C ,  8-H ) :   0.8430 B(  0-C ,  9-H ) :   0.7916
B(  0-C , 10-H ) :   0.8355 B(  1-C ,  2-H ) :   0.9765 B(  1-C ,  3-H ) :   0.9601
B(  1-C ,  4-S ) :   0.9835 B(  1-C ,  8-H ) :   0.1759 B(  1-C ,  9-H ) :   0.1765
B(  1-C , 10-H ) :   0.1691 B(  4-S ,  5-O ) :   1.4677 B(  4-S ,  6-F ) :   0.6485
B(  4-S ,  7-O ) :   1.4560

Dispersion correction           -0.007906816
FINAL SINGLE POINT ENERGY      -726.789874375904

DIPOLE MOMENT
-------------
                                X             Y             Z
Electronic contribution:     -6.93620       7.02281      -2.05366
Nuclear contribution   :      6.63544      -8.66423       1.42287
                        -----------------------------------------
Total Dipole Moment    :     -0.30076      -1.64142      -0.63079
                        -----------------------------------------
Magnitude (a.u.)       :      1.78399
Magnitude (Debye)      :      4.53455

Rotational constants in cm-1:     0.158118     0.080978     0.078216
Rotational constants in MHz :  4740.271775  2427.649826  2344.849020

                             ****ORCA TERMINATED NORMALLY****
TOTAL RUN TIME: 0 days 0 hours 0 minutes 15 seconds 487 msec
