                         Program Version 5.0.0 -  RELEASE  -
|  1> !PBE0 D3BJ RIJCOSX def2-SVPD def2/J TightSCF
|  2> *xyz 0 1
|  3> C          4.49059        1.15590       -2.46929
|  4> N          4.30539        1.22276       -3.90832
|  5> C          4.63192        2.24637       -4.67096
|  6> C          4.54169        2.14399       -5.98714
|  7> N          5.08409        3.39358       -4.11855
|  8> H          4.92067        3.57050       -3.13587
|  9> H          5.25465        4.19739       -4.70696
| 10> H          3.82453        0.44911       -4.35093
| 11> H          4.34337        1.24932       -6.41665
| 12> H          4.67671        2.95662       -6.57411
| 13> C          5.94213        0.93950       -2.03689
| 14> H          3.86431        0.32853       -2.13661
| 15> H          4.07623        2.04999       -1.98901
| 16> H          6.32982        0.06401       -2.51451
| 17> H          5.98308        0.81426       -0.97504
| 18> H          6.52865        1.78889       -2.31873
| 19> *
| 20>
| 21> %MaxCore 64000
| 22>
| 23> %pal nprocs 4
| 24> end
| 25>
| 26> %scf
| 27>   MaxIter 150
| 28> end
| 29>
| 30>
| 31>                          ****END OF INPUT****

CARTESIAN COORDINATES (ANGSTROEM)
---------------------------------
  C      4.490590    1.155900   -2.469290
  N      4.305390    1.222760   -3.908320
  C      4.631920    2.246370   -4.670960
  C      4.541690    2.143990   -5.987140
  N      5.084090    3.393580   -4.118550
  H      4.920670    3.570500   -3.135870
  H      5.254650    4.197390   -4.706960
  H      3.824530    0.449110   -4.350930
  H      4.343370    1.249320   -6.416650
  H      4.676710    2.956620   -6.574110
  C      5.942130    0.939500   -2.036890
  H      3.864310    0.328530   -2.136610
  H      4.076230    2.049990   -1.989010
  H      6.329820    0.064010   -2.514510
  H      5.983080    0.814260   -0.975040
  H      6.528650    1.788890   -2.318730

 Total Charge           Charge          ....    0
 Multiplicity           Mult            ....    1
 Number of Electrons    NEL             ....   48
 Basis Dimension        Dim             ....  200

ORBITAL ENERGIES
----------------

  NO   OCC          E(Eh)            E(eV)
   0   2.0000     -14.397500      -391.7759
   1   2.0000     -14.394926      -391.7059
   2   2.0000     -10.275713      -279.6164
   3   2.0000     -10.273948      -279.5683
   4   2.0000     -10.220496      -278.1138
   5   2.0000     -10.142298      -275.9860
   6   2.0000      -0.987036       -26.8586
   7   2.0000      -0.898212       -24.4416
   8   2.0000      -0.787446       -21.4275
   9   2.0000      -0.717173       -19.5153
  10   2.0000      -0.645646       -17.5689
  11   2.0000      -0.613331       -16.6896
  12   2.0000      -0.551018       -14.9940
  13   2.0000      -0.513051       -13.9608
  14   2.0000      -0.495600       -13.4860
  15   2.0000      -0.461712       -12.5638
  16   2.0000      -0.437645       -11.9089
  17   2.0000      -0.416131       -11.3235
  18   2.0000      -0.394116       -10.7244
  19   2.0000      -0.387967       -10.5571
  20   2.0000      -0.371985       -10.1222
  21   2.0000      -0.364820        -9.9273
  22   2.0000      -0.266830        -7.2608
  23   2.0000      -0.172129        -4.6839
  24   0.0000       0.018967         0.5161
  25   0.0000       0.046070         1.2536
  26   0.0000       0.052736         1.4350
  27   0.0000       0.059810         1.6275
  28   0.0000       0.085557         2.3281

MULLIKEN ATOMIC CHARGES
-----------------------
   0 C :    0.201459
   1 N :   -0.440780
   2 C :    0.901524
   3 C :    0.209306
   4 N :   -0.017929
   5 H :   -0.095515
   6 H :   -0.173070
   7 H :   -0.272657
   8 H :   -0.214994
   9 H :   -0.293952
  10 C :    0.497925
  11 H :   -0.291084
  12 H :    0.001670
  13 H :   -0.017639
  14 H :    0.009894
  15 H :   -0.004158
Sum of atomic charges:    0.0000000

LOEWDIN ATOMIC CHARGES
----------------------
   0 C :    0.004537
   1 N :   -0.028578
   2 C :   -0.232502
   3 C :    0.134956
   4 N :    0.195680
   5 H :   -0.024719
   6 H :    0.005873
   7 H :    0.037763
   8 H :   -0.096491
   9 H :   -0.098684
  10 C :    0.129635
  11 H :    0.021919
  12 H :    0.011221
  13 H :   -0.014035
  14 H :   -0.018957
  15 H :   -0.027619

  Mayer bond orders larger than 0.100000
B(  0-C ,  1-N ) :   0.8588 B(  0-C ,  7-H ) :  -0.1660 B(  0-C , 10-C ) :   1.2720
B(  0-C , 11-H ) :   0.9590 B(  0-C , 12-H ) :   0.8892 B(  0-C , 13-H ) :   0.2148
B(  0-C , 14-H ) :   0.1397 B(  0-C , 15-H ) :   0.1803 B(  1-N ,  2-C ) :   0.9557
B(  1-N ,  3-C ) :   0.2313 B(  1-N ,  4-N ) :   0.1890 B(  1-N ,  7-H ) :   1.3171
B(  1-N , 11-H ) :   0.1587 B(  1-N , 12-H ) :   0.1243 B(  2-C ,  3-C ) :   1.4391
B(  2-C ,  4-N ) :   0.8311 B(  2-C ,  6-H ) :  -0.1240 B(  2-C ,  7-H ) :  -0.2219
B(  2-C ,  9-H ) :   0.1321 B(  3-C ,  4-N ) :   0.2016 B(  3-C ,  8-H ) :   0.8909
B(  3-C ,  9-H ) :   0.8522 B(  4-N ,  5-H ) :   1.0646 B(  4-N ,  6-H ) :   1.2436
B(  5-H ,  6-H ) :  -0.1820 B(  8-H ,  9-H ) :   0.1033 B( 10-C , 13-H ) :   0.8423
B( 10-C , 14-H ) :   0.8644 B( 10-C , 15-H ) :   0.8450

Dispersion correction           -0.010814643
FINAL SINGLE POINT ENERGY      -267.425212637562

DIPOLE MOMENT
-------------
                                X             Y             Z
Electronic contribution:     -1.41936       1.07843      -1.94790
Nuclear contribution   :      1.28075      -1.05140       2.98955
                        -----------------------------------------
Total Dipole Moment    :     -0.13862       0.02704       1.04165
                        -----------------------------------------
Magnitude (a.u.)       :      1.05118
Magnitude (Debye)      :      2.67189

Rotational constants in cm-1:     0.229858     0.078444     0.067377
Rotational constants in MHz :  6890.979812  2351.691803  2019.910665

                             ****ORCA TERMINATED NORMALLY****
TOTAL RUN TIME: 0 days 0 hours 0 minutes 21 seconds 217 msec
