                         Program Version 5.0.0 -  RELEASE  -
|  1> !PBE0 D3BJ RIJCOSX def2-SVPD def2/J TightSCF
|  2> *xyz 0 1
|  3> C          4.90646       -3.10282       -5.95484
|  4> C          3.51177       -2.80621       -6.49228
|  5> H          2.73604       -3.37345       -5.97374
|  6> H          3.44490       -3.04083       -7.55528
|  7> S          3.00462       -1.09621       -6.38926
|  8> O          4.12886       -0.32965       -6.95372
|  9> O          1.78128       -1.00078       -7.13640
| 10> F          2.85155       -0.78368       -4.95679
| 11> H          5.62703       -2.52424       -6.49422
| 12> H          5.12164       -4.14387       -6.07654
| 13> H          4.95004       -2.84862       -4.91639
| 14> *
| 15>
| 16> %MaxCore 64000
| 17>
| 18> %pal nprocs 4
| 19> end
| 20>
| 21> %scf
| 22>   MaxIter 150
| 23> end
| 24>
| 25>
| 26>                          ****END OF INPUT****

CARTESIAN COORDINATES (ANGSTROEM)
---------------------------------
  C      4.906460   -3.102820   -5.954840
  C      3.511770   -2.806210   -6.492280
  H      2.736040   -3.373450   -5.973740
  H      3.444900   -3.040830   -7.555280
  S      3.004620   -1.096210   -6.389260
  O      4.128860   -0.329650   -6.953720
  O      1.781280   -1.000780   -7.136400
  F      2.851550   -0.783680   -4.956790
  H      5.627030   -2.524240   -6.494220
  H      5.121640   -4.143870   -6.076540
  H      4.950040   -2.848620   -4.916390

 Total Charge           Charge          ....    0
 Multiplicity           Mult            ....    1
 Number of Electrons    NEL             ....   58
 Basis Dimension        Dim             ....  176

ORBITAL ENERGIES
----------------

  NO   OCC          E(Eh)            E(eV)
   0   2.0000     -89.295387     -2429.8510
   1   2.0000     -24.889677      -677.2825
   2   2.0000     -19.235119      -523.4142
   3   2.0000     -19.223305      -523.0927
   4   2.0000     -10.301742      -280.3247
   5   2.0000     -10.256850      -279.1031
   6   2.0000      -8.255879      -224.6539
   7   2.0000      -6.202008      -168.7652
   8   2.0000      -6.195900      -168.5990
   9   2.0000      -6.194622      -168.5642
  10   2.0000      -1.384073       -37.6625
  11   2.0000      -1.142014       -31.0758
  12   2.0000      -1.040119       -28.3031
  13   2.0000      -0.849330       -23.1115
  14   2.0000      -0.748396       -20.3649
  15   2.0000      -0.697638       -18.9837
  16   2.0000      -0.604515       -16.4497
  17   2.0000      -0.590700       -16.0738
  18   2.0000      -0.569139       -15.4871
  19   2.0000      -0.513997       -13.9866
  20   2.0000      -0.500120       -13.6090
  21   2.0000      -0.476563       -12.9679
  22   2.0000      -0.453012       -12.3271
  23   2.0000      -0.425401       -11.5757
  24   2.0000      -0.417381       -11.3575
  25   2.0000      -0.396557       -10.7909
  26   2.0000      -0.355300        -9.6682
  27   2.0000      -0.343546        -9.3484
  28   2.0000      -0.329587        -8.9685
  29   0.0000      -0.001361        -0.0370
  30   0.0000       0.032372         0.8809
  31   0.0000       0.038948         1.0598
  32   0.0000       0.042607         1.1594
  33   0.0000       0.052275         1.4225

MULLIKEN ATOMIC CHARGES
-----------------------
   0 C :    0.613144
   1 C :   -0.519636
   2 H :    0.053160
   3 H :    0.086309
   4 S :    1.583651
   5 O :   -0.726978
   6 O :   -0.686215
   7 F :   -0.435106
   8 H :    0.035988
   9 H :   -0.009691
  10 H :    0.005373
Sum of atomic charges:    0.0000000

LOEWDIN ATOMIC CHARGES
----------------------
   0 C :    0.130503
   1 C :   -0.098374
   2 H :    0.025897
   3 H :    0.036746
   4 S :    1.127275
   5 O :   -0.477950
   6 O :   -0.462515
   7 F :   -0.270713
   8 H :   -0.003914
   9 H :   -0.002776
  10 H :   -0.004178

  Mayer bond orders larger than 0.100000
B(  0-C ,  1-C ) :   1.3062 B(  0-C ,  8-H ) :   0.8512 B(  0-C ,  9-H ) :   0.7854
B(  0-C , 10-H ) :   0.8330 B(  1-C ,  2-H ) :   0.9842 B(  1-C ,  3-H ) :   0.9826
B(  1-C ,  4-S ) :   1.0164 B(  1-C ,  8-H ) :   0.1760 B(  1-C ,  9-H ) :   0.1766
B(  1-C , 10-H ) :   0.1680 B(  4-S ,  5-O ) :   1.4761 B(  4-S ,  6-O ) :   1.5202
B(  4-S ,  7-F ) :   0.5945

Dispersion correction           -0.007873002
FINAL SINGLE POINT ENERGY      -726.805954654065

DIPOLE MOMENT
-------------
                                X             Y             Z
Electronic contribution:     -5.13643       7.38423       1.63932
Nuclear contribution   :      5.52019      -8.89046      -0.84835
                        -----------------------------------------
Total Dipole Moment    :      0.38376      -1.50623       0.79097
                        -----------------------------------------
Magnitude (a.u.)       :      1.74403
Magnitude (Debye)      :      4.43297

Rotational constants in cm-1:     0.153332     0.082132     0.079755
Rotational constants in MHz :  4596.775407  2462.251277  2391.008596

                             ****ORCA TERMINATED NORMALLY****
TOTAL RUN TIME: 0 days 0 hours 0 minutes 15 seconds 607 msec
