                         Program Version 5.0.0 -  RELEASE  -
|  1> !PBE0 D3BJ RIJCOSX def2-SVPD def2/J TightSCF
|  2> *xyz 0 1
|  3> C          4.49059        1.15590       -2.46929
|  4> N          4.30539        1.22276       -3.90832
|  5> C          4.63192        2.24637       -4.67096
|  6> N          4.54169        2.14399       -5.98714
|  7> C          5.08409        3.39358       -4.11855
|  8> H          4.92067        3.57050       -3.13587
|  9> H          5.25465        4.19739       -4.70696
| 10> H          3.82453        0.44911       -4.35093
| 11> H          4.34337        1.24932       -6.41665
| 12> H          4.67671        2.95662       -6.57411
| 13> C          5.94213        0.93950       -2.03689
| 14> H          3.86431        0.32853       -2.13661
| 15> H          4.07623        2.04999       -1.98901
| 16> H          6.32982        0.06401       -2.51451
| 17> H          5.98308        0.81426       -0.97504
| 18> H          6.52865        1.78889       -2.31873
| 19> *
| 20>
| 21> %MaxCore 64000
| 22>
| 23> %pal nprocs 4
| 24> end
| 25>
| 26> %scf
| 27>   MaxIter 150
| 28> end
| 29>
| 30>
| 31>                          ****END OF INPUT****

CARTESIAN COORDINATES (ANGSTROEM)
---------------------------------
  C      4.490590    1.155900   -2.469290
  N      4.305390    1.222760   -3.908320
  C      4.631920    2.246370   -4.670960
  N      4.541690    2.143990   -5.987140
  C      5.084090    3.393580   -4.118550
  H      4.920670    3.570500   -3.135870
  H      5.254650    4.197390   -4.706960
  H      3.824530    0.449110   -4.350930
  H      4.343370    1.249320   -6.416650
  H      4.676710    2.956620   -6.574110
  C      5.942130    0.939500   -2.036890
  H      3.864310    0.328530   -2.136610
  H      4.076230    2.049990   -1.989010
  H      6.329820    0.064010   -2.514510
  H      5.983080    0.814260   -0.975040
  H      6.528650    1.788890   -2.318730

 Total Charge           Charge          ....    0
 Multiplicity           Mult            ....    1
 Number of Electrons    NEL             ....   48
 Basis Dimension        Dim             ....  200

ORBITAL ENERGIES
----------------

  NO   OCC          E(Eh)            E(eV)
   0   2.0000     -14.401589      -391.8872
   1   2.0000     -14.397599      -391.7786
   2   2.0000     -10.278810      -279.7006
   3   2.0000     -10.265736      -279.3449
   4   2.0000     -10.210350      -277.8378
   5   2.0000     -10.143951      -276.0309
   6   2.0000      -0.991121       -26.9698
   7   2.0000      -0.905580       -24.6421
   8   2.0000      -0.768216       -20.9042
   9   2.0000      -0.722711       -19.6660
  10   2.0000      -0.655317       -17.8321
  11   2.0000      -0.576459       -15.6863
  12   2.0000      -0.570145       -15.5144
  13   2.0000      -0.536473       -14.5982
  14   2.0000      -0.485606       -13.2140
  15   2.0000      -0.452704       -12.3187
  16   2.0000      -0.427698       -11.6383
  17   2.0000      -0.409716       -11.1489
  18   2.0000      -0.393233       -10.7004
  19   2.0000      -0.376846       -10.2545
  20   2.0000      -0.374330       -10.1860
  21   2.0000      -0.356415        -9.6985
  22   2.0000      -0.262715        -7.1488
  23   2.0000      -0.173687        -4.7263
  24   0.0000       0.021564         0.5868
  25   0.0000       0.043962         1.1963
  26   0.0000       0.052442         1.4270
  27   0.0000       0.064605         1.7580
  28   0.0000       0.087508         2.3812

MULLIKEN ATOMIC CHARGES
-----------------------
   0 C :    0.192075
   1 N :   -0.486259
   2 C :    0.840089
   3 N :   -0.097799
   4 C :    0.255026
   5 H :   -0.064749
   6 H :   -0.417229
   7 H :   -0.336712
   8 H :   -0.140890
   9 H :   -0.048607
  10 C :    0.512994
  11 H :   -0.284301
  12 H :    0.108787
  13 H :   -0.036538
  14 H :    0.023763
  15 H :   -0.019651
Sum of atomic charges:    0.0000000

LOEWDIN ATOMIC CHARGES
----------------------
   0 C :    0.011243
   1 N :   -0.033830
   2 C :   -0.231656
   3 N :    0.175202
   4 C :    0.155654
   5 H :   -0.112788
   6 H :   -0.104131
   7 H :    0.023160
   8 H :   -0.005042
   9 H :    0.011738
  10 C :    0.133241
  11 H :    0.020689
  12 H :    0.019262
  13 H :   -0.017618
  14 H :   -0.017986
  15 H :   -0.027137

  Mayer bond orders larger than 0.100000
B(  0-C ,  1-N ) :   0.8452 B(  0-C ,  5-H ) :   0.1084 B(  0-C ,  7-H ) :  -0.1597
B(  0-C , 10-C ) :   1.2469 B(  0-C , 11-H ) :   0.9966 B(  0-C , 12-H ) :   0.8565
B(  0-C , 13-H ) :   0.2024 B(  0-C , 14-H ) :   0.1348 B(  0-C , 15-H ) :   0.1763
B(  1-N ,  2-C ) :   0.8687 B(  1-N ,  3-N ) :   0.1955 B(  1-N ,  4-C ) :   0.3456
B(  1-N ,  7-H ) :   1.4482 B(  1-N , 11-H ) :   0.1403 B(  2-C ,  3-N ) :   0.8097
B(  2-C ,  4-C ) :   1.7122 B(  2-C ,  5-H ) :   0.2346 B(  2-C ,  6-H ) :   0.1710
B(  2-C ,  7-H ) :  -0.3133 B(  2-C ,  8-H ) :  -0.1048 B(  3-N ,  4-C ) :   0.2447
B(  3-N ,  8-H ) :   1.2167 B(  3-N ,  9-H ) :   1.2040 B(  4-C ,  5-H ) :   0.7111
B(  4-C ,  6-H ) :   0.9119 B(  5-H ,  6-H ) :   0.1390 B(  8-H ,  9-H ) :  -0.1623
B( 10-C , 13-H ) :   0.8437 B( 10-C , 14-H ) :   0.8556 B( 10-C , 15-H ) :   0.8601

Dispersion correction           -0.010882335
FINAL SINGLE POINT ENERGY      -267.424961283984

DIPOLE MOMENT
-------------
                                X             Y             Z
Electronic contribution:     -1.89554      -0.12325      -3.83568
Nuclear contribution   :      1.39581      -0.78630       3.38596
                        -----------------------------------------
Total Dipole Moment    :     -0.49972      -0.90955      -0.44971
                        -----------------------------------------
Magnitude (a.u.)       :      1.13104
Magnitude (Debye)      :      2.87487

Rotational constants in cm-1:     0.239249     0.075811     0.066261
Rotational constants in MHz :  7172.504830  2272.756282  1986.457543

                             ****ORCA TERMINATED NORMALLY****
TOTAL RUN TIME: 0 days 0 hours 0 minutes 22 seconds 879 msec
