                         Program Version 5.0.0 -  RELEASE  -
|  1> !PBE0 D3BJ RIJCOSX def2-SVPD def2/J TightSCF xyzfile
|  2>
|  3> *xyzfile 0 1 D4.xyz
|  4>
|  5> %MaxCore 64000
|  6>
|  7> %pal nprocs 4
|  8> end
|  9>
| 10> %scf
| 11>   MaxIter 150
| 12> end
| 13>
| 14>
| 15>                          ****END OF INPUT****

CARTESIAN COORDINATES (ANGSTROEM)
---------------------------------
  C      4.490588    1.155899   -2.469290
  C      4.305394    1.222762   -3.908317
  C      4.906458   -3.102816   -5.954844
  C      3.511771   -2.806215   -6.492283
  H      2.736044   -3.373445   -5.973736
  H      3.444904   -3.040831   -7.555281
  S      3.004618   -1.096206   -6.389259
  C      4.631918    2.246365   -4.670958
  N      4.541686    2.143990   -5.987139
  N      5.084086    3.393584   -4.118545
  H      4.920675    3.570501   -3.135870
  H      5.254652    4.197390   -4.706956
  H      3.824530    0.449113   -4.350926
  H      4.343373    1.249318   -6.416646
  H      4.676712    2.956624   -6.574113
  O      4.128856   -0.329647   -6.953717
  F      1.781285   -1.000779   -7.136399
  C      5.942129    0.939500   -2.036893
  H      3.864305    0.328532   -2.136611
  H      4.076233    2.049994   -1.989010
  C      6.462677   -3.117775   -3.944671
  C      5.024977   -3.025679   -4.437625
  H      4.423321   -3.818693   -3.977648
  H      4.579350   -2.087131   -4.108727
  H      5.201533   -4.100207   -6.296905
  H      5.605922   -2.397822   -6.413368
  C      6.559957   -0.356290   -2.559086
  H      5.967976    0.952567   -0.942444
  H      6.547184    1.788331   -2.368849
  C      6.006283   -1.615917   -1.899301
  H      7.642360   -0.318000   -2.402059
  H      6.414855   -0.403433   -3.642587
  C      6.608718   -2.917014   -2.435655
  H      6.190324   -1.561115   -0.820948
  H      4.919250   -1.651245   -2.016586
  H      7.066975   -2.374258   -4.475514
  H      6.887808   -4.089747   -4.215332
  H      6.135197   -3.755573   -1.915159
  H      7.671142   -2.955503   -2.172291
  O      2.851546   -0.783683   -4.956789

 Total Charge           Charge          ....    0
 Multiplicity           Mult            ....    1
 Number of Electrons    NEL             ....  144
 Basis Dimension        Dim             ....  540

ORBITAL ENERGIES
----------------

  NO   OCC          E(Eh)            E(eV)
   0   2.0000     -89.314108     -2430.3604
   1   2.0000     -24.919913      -678.1053
   2   2.0000     -19.244378      -523.6662
   3   2.0000     -19.235732      -523.4309
   4   2.0000     -14.373767      -391.1301
   5   2.0000     -14.353949      -390.5908
   6   2.0000     -10.306249      -280.4473
   7   2.0000     -10.263191      -279.2756
   8   2.0000     -10.244456      -278.7658
   9   2.0000     -10.230656      -278.3903
  10   2.0000     -10.224832      -278.2318
  11   2.0000     -10.218194      -278.0512
  12   2.0000     -10.208252      -277.7807
  13   2.0000     -10.199007      -277.5291
  14   2.0000     -10.193404      -277.3766
  15   2.0000     -10.186080      -277.1773
  16   2.0000     -10.115427      -275.2548
  17   2.0000      -8.273158      -225.1241
  18   2.0000      -6.219486      -169.2408
  19   2.0000      -6.213319      -169.0730
  20   2.0000      -6.211701      -169.0290
  21   2.0000      -1.427013       -38.8310
  22   2.0000      -1.147808       -31.2334
  23   2.0000      -1.044865       -28.4322
  24   2.0000      -0.948848       -25.8195
  25   2.0000      -0.865152       -23.5420
  26   2.0000      -0.856296       -23.3010
  27   2.0000      -0.822161       -22.3721
  28   2.0000      -0.793430       -21.5903
  29   2.0000      -0.774071       -21.0636
  30   2.0000      -0.744451       -20.2575
  31   2.0000      -0.716229       -19.4896
  32   2.0000      -0.682389       -18.5687
  33   2.0000      -0.653381       -17.7794
  34   2.0000      -0.630167       -17.1477
  35   2.0000      -0.626996       -17.0614
  36   2.0000      -0.609531       -16.5862
  37   2.0000      -0.603146       -16.4124
  38   2.0000      -0.585129       -15.9222
  39   2.0000      -0.566584       -15.4175
  40   2.0000      -0.549361       -14.9489
  41   2.0000      -0.535223       -14.5642
  42   2.0000      -0.521337       -14.1863
  43   2.0000      -0.514459       -13.9991
  44   2.0000      -0.494507       -13.4562
  45   2.0000      -0.485117       -13.2007
  46   2.0000      -0.482270       -13.1232
  47   2.0000      -0.467434       -12.7195
  48   2.0000      -0.461227       -12.5506
  49   2.0000      -0.447941       -12.1891
  50   2.0000      -0.439662       -11.9638
  51   2.0000      -0.426598       -11.6083
  52   2.0000      -0.425963       -11.5910
  53   2.0000      -0.420418       -11.4401
  54   2.0000      -0.397833       -10.8256
  55   2.0000      -0.392161       -10.6712
  56   2.0000      -0.387387       -10.5413
  57   2.0000      -0.379938       -10.3386
  58   2.0000      -0.367474        -9.9995
  59   2.0000      -0.363591        -9.8938
  60   2.0000      -0.358237        -9.7481
  61   2.0000      -0.349333        -9.5058
  62   2.0000      -0.343550        -9.3485
  63   2.0000      -0.334782        -9.1099
  64   2.0000      -0.331332        -9.0160
  65   2.0000      -0.327719        -8.9177
  66   2.0000      -0.314801        -8.5662
  67   2.0000      -0.306119        -8.3299
  68   2.0000      -0.297423        -8.0933
  69   2.0000      -0.283290        -7.7087
  70   2.0000      -0.248714        -6.7679
  71   2.0000      -0.142040        -3.8651
  72   0.0000      -0.002607        -0.0709
  73   0.0000       0.016047         0.4367
  74   0.0000       0.030173         0.8211
  75   0.0000       0.035881         0.9764
  76   0.0000       0.041906         1.1403

MULLIKEN ATOMIC CHARGES
-----------------------
   0 C :   -0.041277
   1 C :   -0.013368
   2 C :    0.026701
   3 C :    0.096220
   4 H :    0.119746
   5 H :    0.093709
   6 S :    1.756176
   7 C :    1.191729
   8 N :    0.040030
   9 N :   -0.155138
  10 H :   -0.029282
  11 H :   -0.251991
  12 H :   -0.351053
  13 H :   -0.177879
  14 H :   -0.209563
  15 O :   -0.743925
  16 F :   -0.546307
  17 C :    0.278191
  18 H :    0.187540
  19 H :   -0.143778
  20 C :   -0.121120
  21 C :    0.082506
  22 H :    0.075350
  23 H :   -0.364824
  24 H :   -0.033541
  25 H :    0.127422
  26 C :   -0.093085
  27 H :   -0.010416
  28 H :   -0.057806
  29 C :   -0.228897
  30 H :   -0.067354
  31 H :    0.041241
  32 C :    0.526901
  33 H :   -0.277896
  34 H :    0.188942
  35 H :    0.190020
  36 H :   -0.274713
  37 H :    0.020660
  38 H :    0.061715
  39 O :   -0.911584
Sum of atomic charges:    0.0000000

LOEWDIN ATOMIC CHARGES
----------------------
   0 C :   -0.049026
   1 C :   -0.017823
   2 C :   -0.022859
   3 C :   -0.051193
   4 H :    0.033294
   5 H :    0.024643
   6 S :    1.205032
   7 C :   -0.188331
   8 N :    0.198591
   9 N :    0.194892
  10 H :   -0.015983
  11 H :   -0.016258
  12 H :   -0.137116
  13 H :   -0.114193
  14 H :   -0.008662
  15 O :   -0.445340
  16 F :   -0.241363
  17 C :   -0.034864
  18 H :    0.011617
  19 H :    0.005665
  20 C :   -0.038997
  21 C :   -0.027434
  22 H :    0.042277
  23 H :   -0.006688
  24 H :    0.041695
  25 H :    0.034590
  26 C :   -0.035254
  27 H :    0.015385
  28 H :    0.011906
  29 C :   -0.040199
  30 H :    0.024650
  31 H :    0.010919
  32 C :   -0.035542
  33 H :    0.024549
  34 H :    0.009546
  35 H :    0.021669
  36 H :    0.023486
  37 H :    0.021627
  38 H :    0.023659
  39 O :   -0.452566

  Mayer bond orders larger than 0.100000
B(  0-C ,  1-C ) :   1.2221 B(  0-C , 12-H ) :   0.7074 B(  0-C , 17-C ) :   1.1619
B(  0-C , 18-H ) :   0.7009 B(  0-C , 19-H ) :   0.9620 B(  0-C , 27-H ) :   0.1642
B(  0-C , 28-H ) :   0.1569 B(  1-C ,  7-C ) :   1.6605 B(  1-C ,  8-N ) :   0.3705
B(  1-C ,  9-N ) :   0.3008 B(  1-C , 18-H ) :   0.2999 B(  1-C , 19-H ) :   0.1659
B(  2-C ,  3-C ) :   1.3045 B(  2-C ,  5-H ) :   0.2473 B(  2-C , 21-C ) :   1.1432
B(  2-C , 24-H ) :   0.8573 B(  2-C , 25-H ) :   0.8642 B(  3-C ,  4-H ) :   0.9039
B(  3-C ,  5-H ) :   0.7066 B(  3-C ,  6-S ) :   1.0144 B(  3-C , 16-F ) :   0.1120
B(  3-C , 25-H ) :   0.1048 B(  6-S , 15-O ) :   1.3181 B(  6-S , 16-F ) :   0.3977
B(  6-S , 39-O ) :   1.4107 B(  7-C ,  8-N ) :   0.6927 B(  7-C ,  9-N ) :   0.6683
B(  7-C , 11-H ) :  -0.1862 B(  7-C , 12-H ) :  -0.1500 B(  7-C , 13-H ) :  -0.2277
B(  7-C , 14-H ) :  -0.1863 B(  8-N ,  9-N ) :   0.1094 B(  8-N , 13-H ) :   1.1750
B(  8-N , 14-H ) :   1.3796 B(  9-N , 10-H ) :   1.0644 B(  9-N , 11-H ) :   1.3609
B( 10-H , 11-H ) :  -0.1865 B( 11-H , 12-H ) :  -0.1049 B( 12-H , 18-H ) :  -0.1479
B( 13-H , 14-H ) :  -0.2500 B( 13-H , 15-O ) :   0.1094 B( 16-F , 39-O ) :   0.1173
B( 17-C , 18-H ) :   0.1097 B( 17-C , 26-C ) :   1.3103 B( 17-C , 27-H ) :   0.8262
B( 17-C , 28-H ) :   0.7546 B( 17-C , 31-H ) :   0.1339 B( 20-C , 21-C ) :   1.2380
B( 20-C , 22-H ) :   0.1119 B( 20-C , 32-C ) :   1.1631 B( 20-C , 35-H ) :   0.8467
B( 20-C , 36-H ) :   1.0121 B( 20-C , 37-H ) :   0.1087 B( 20-C , 38-H ) :   0.1869
B( 21-C , 22-H ) :   0.7439 B( 21-C , 23-H ) :   0.9133 B( 21-C , 24-H ) :   0.1740
B( 21-C , 36-H ) :   0.1880 B( 22-H , 23-H ) :   0.2223 B( 23-H , 34-H ) :   0.1051
B( 26-C , 27-H ) :   0.1298 B( 26-C , 28-H ) :   0.1929 B( 26-C , 29-C ) :   1.2151
B( 26-C , 30-H ) :   0.8671 B( 26-C , 31-H ) :   0.9066 B( 26-C , 33-H ) :   0.1268
B( 29-C , 30-H ) :   0.1274 B( 29-C , 32-C ) :   1.1531 B( 29-C , 33-H ) :   1.0764
B( 29-C , 34-H ) :   0.8404 B( 29-C , 37-H ) :   0.2453 B( 29-C , 38-H ) :   0.1337
B( 32-C , 37-H ) :   0.7184 B( 32-C , 38-H ) :   0.7273

Dispersion correction           -0.043115344
FINAL SINGLE POINT ENERGY     -1189.241663558181

DIPOLE MOMENT
-------------
                                X             Y             Z
Electronic contribution:    -20.56325       3.48113     -21.98014
Nuclear contribution   :     19.99734      -4.67125      20.55522
                        -----------------------------------------
Total Dipole Moment    :     -0.56591      -1.19011      -1.42492
                        -----------------------------------------
Magnitude (a.u.)       :      1.94088
Magnitude (Debye)      :      4.93332

Rotational constants in cm-1:     0.014213     0.012058     0.007367
Rotational constants in MHz :   426.102180   361.491761   220.844824

                             ****ORCA TERMINATED NORMALLY****
TOTAL RUN TIME: 0 days 0 hours 5 minutes 42 seconds 767 msec
