                         Program Version 5.0.0 -  RELEASE  -
|  1> !wB97X-D3 RIJCOSX def2-TZVPD def2/J TightSCF
|  2> *xyz -1 1
|  3> C          1.22302        2.46987       -3.75691
|  4> O          2.35381        1.71203       -3.93448
|  5> H          1.26998        3.33359       -4.38673
|  6> H          1.15671        2.77738       -2.73420
|  7> H          0.36099        1.88932       -4.01140
|  8> *
|  9>
| 10> %MaxCore 64000
| 11>
| 12> %pal nprocs 18
| 13> end
| 14>
| 15> %scf
| 16>   MaxIter 150
| 17> end
| 18>
| 19>
| 20>                          ****END OF INPUT****

CARTESIAN COORDINATES (ANGSTROEM)
---------------------------------
  C      1.223020    2.469870   -3.756910
  O      2.353810    1.712030   -3.934480
  H      1.269980    3.333590   -4.386730
  H      1.156710    2.777380   -2.734200
  H      0.360990    1.889320   -4.011400

 Total Charge           Charge          ....   -1
 Multiplicity           Mult            ....    1
 Number of Electrons    NEL             ....   18
 Basis Dimension        Dim             ....  104

ORBITAL ENERGIES
----------------

  NO   OCC          E(Eh)            E(eV)
   0   2.0000     -18.874272      -513.5951
   1   2.0000     -10.056051      -273.6391
   2   2.0000      -0.771944       -21.0057
   3   2.0000      -0.509147       -13.8546
   4   2.0000      -0.295098        -8.0300
   5   2.0000      -0.295087        -8.0297
   6   2.0000      -0.194380        -5.2893
   7   2.0000      -0.041719        -1.1352
   8   2.0000      -0.041714        -1.1351
   9   0.0000       0.226159         6.1541
  10   0.0000       0.274843         7.4788
  11   0.0000       0.280239         7.6257
  12   0.0000       0.280243         7.6258
  13   0.0000       0.329774         8.9736

MULLIKEN ATOMIC CHARGES
-----------------------
   0 C :   -0.549771
   1 O :   -0.944437
   2 H :    0.164766
   3 H :    0.164716
   4 H :    0.164726
Sum of atomic charges:   -1.0000000

LOEWDIN ATOMIC CHARGES
----------------------
   0 C :   -0.509687
   1 O :   -0.519243
   2 H :    0.009649
   3 H :    0.009633
   4 H :    0.009648

  Mayer bond orders larger than 0.100000
B(  0-C ,  1-O ) :   1.0527 B(  0-C ,  2-H ) :   0.9586 B(  0-C ,  3-H ) :   0.9586
B(  0-C ,  4-H ) :   0.9590

Dispersion correction           -0.000091274
FINAL SINGLE POINT ENERGY      -115.107474858872

DIPOLE MOMENT
-------------
                                X             Y             Z
Electronic contribution:      1.52410      -1.02160      -0.23937
Nuclear contribution   :     -2.37854       1.59406       0.37350
                        -----------------------------------------
Total Dipole Moment    :     -0.85444       0.57246       0.13414
                        -----------------------------------------
Magnitude (a.u.)       :      1.03720
Magnitude (Debye)      :      2.63634

Rotational constants in cm-1:     5.477743     0.935515     0.935515
Rotational constants in MHz : 164218.600605 28046.042741 28046.034116

                             ****ORCA TERMINATED NORMALLY****
TOTAL RUN TIME: 0 days 0 hours 0 minutes 5 seconds 125 msec
