                         Program Version 5.0.0 -  RELEASE  -
|  1> !wB97X-D3 RIJCOSX def2-TZVPD def2/J TightSCF
|  2> *xyz 1 1
|  3> C          1.63556       -1.67040       -5.29211
|  4> N          2.48451       -0.50741       -5.14039
|  5> C          3.45115       -0.14953       -5.95259
|  6> N          3.92267        1.08956       -5.85071
|  7> N          3.96616       -1.00618       -6.86788
|  8> H          3.52139       -1.90647       -6.99527
|  9> H          4.44482       -0.62347       -7.67035
| 10> H          2.25200        0.24080       -4.49879
| 11> H          3.46428        1.64078       -5.13639
| 12> H          4.83447        1.31375       -6.22465
| 13> H          2.06372       -2.33262       -6.01532
| 14> H          0.66479       -1.36293       -5.62068
| 15> H          1.55078       -2.17513       -4.35245
| 16> *
| 17>
| 18> %MaxCore 64000
| 19>
| 20> %pal nprocs 18
| 21> end
| 22>
| 23> %scf
| 24>   MaxIter 150
| 25> end
| 26>
| 27>
| 28>                          ****END OF INPUT****

CARTESIAN COORDINATES (ANGSTROEM)
---------------------------------
  C      1.635560   -1.670400   -5.292110
  N      2.484510   -0.507410   -5.140390
  C      3.451150   -0.149530   -5.952590
  N      3.922670    1.089560   -5.850710
  N      3.966160   -1.006180   -6.867880
  H      3.521390   -1.906470   -6.995270
  H      4.444820   -0.623470   -7.670350
  H      2.252000    0.240800   -4.498790
  H      3.464280    1.640780   -5.136390
  H      4.834470    1.313750   -6.224650
  H      2.063720   -2.332620   -6.015320
  H      0.664790   -1.362930   -5.620680
  H      1.550780   -2.175130   -4.352450

 Total Charge           Charge          ....    1
 Multiplicity           Mult            ....    1
 Number of Electrons    NEL             ....   40
 Basis Dimension        Dim             ....  257

ORBITAL ENERGIES
----------------

  NO   OCC          E(Eh)            E(eV)
   0   2.0000     -14.657740      -398.8574
   1   2.0000     -14.648615      -398.6091
   2   2.0000     -14.645554      -398.5258
   3   2.0000     -10.616954      -288.9020
   4   2.0000     -10.483386      -285.2674
   5   2.0000      -1.343241       -36.5514
   6   2.0000      -1.227250       -33.3952
   7   2.0000      -1.213032       -33.0083
   8   2.0000      -1.028114       -27.9764
   9   2.0000      -0.937915       -25.5220
  10   2.0000      -0.890046       -24.2194
  11   2.0000      -0.864688       -23.5293
  12   2.0000      -0.792924       -21.5766
  13   2.0000      -0.790554       -21.5121
  14   2.0000      -0.763773       -20.7833
  15   2.0000      -0.747271       -20.3343
  16   2.0000      -0.694856       -18.9080
  17   2.0000      -0.684899       -18.6371
  18   2.0000      -0.576302       -15.6820
  19   2.0000      -0.553608       -15.0645
  20   0.0000      -0.093961        -2.5568
  21   0.0000      -0.092687        -2.5221
  22   0.0000      -0.061741        -1.6800
  23   0.0000      -0.051138        -1.3915
  24   0.0000      -0.020652        -0.5620

MULLIKEN ATOMIC CHARGES
-----------------------
   0 C :   -0.872074
   1 N :   -0.198442
   2 C :    0.825222
   3 N :   -0.405438
   4 N :   -0.398948
   5 H :    0.186423
   6 H :    0.263612
   7 H :    0.175290
   8 H :    0.213010
   9 H :    0.244542
  10 H :    0.337200
  11 H :    0.319783
  12 H :    0.309819
Sum of atomic charges:    1.0000000

LOEWDIN ATOMIC CHARGES
----------------------
   0 C :   -0.005691
   1 N :    0.046398
   2 C :   -0.429969
   3 N :    0.200476
   4 N :    0.202625
   5 H :    0.114734
   6 H :    0.138643
   7 H :    0.166602
   8 H :    0.138148
   9 H :    0.145596
  10 H :    0.078270
  11 H :    0.102077
  12 H :    0.102092

  Mayer bond orders larger than 0.100000
B(  0-C ,  1-N ) :   0.8951 B(  0-C ,  2-C ) :  -0.1711 B(  0-C , 10-H ) :   0.8418
B(  0-C , 11-H ) :   0.9157 B(  0-C , 12-H ) :   0.9248 B(  1-N ,  2-C ) :   1.2470
B(  1-N ,  7-H ) :   1.0410 B(  2-C ,  3-N ) :   1.0821 B(  2-C ,  4-N ) :   1.1491
B(  3-N ,  8-H ) :   0.9798 B(  3-N ,  9-H ) :   0.9670 B(  4-N ,  5-H ) :   0.9632
B(  4-N ,  6-H ) :   0.9388

Dispersion correction           -0.002352595
FINAL SINGLE POINT ENERGY      -245.103867733180

DIPOLE MOMENT
-------------
                                X             Y             Z
Electronic contribution:      1.96446       1.92061      -0.26270
Nuclear contribution   :     -1.83770      -1.53167       0.12165
                        -----------------------------------------
Total Dipole Moment    :      0.12676       0.38895      -0.14104
                        -----------------------------------------
Magnitude (a.u.)       :      0.43271
Magnitude (Debye)      :      1.09987

Rotational constants in cm-1:     0.307545     0.135665     0.096412
Rotational constants in MHz :  9219.967860  4067.145400  2890.348280

                             ****ORCA TERMINATED NORMALLY****
TOTAL RUN TIME: 0 days 0 hours 0 minutes 22 seconds 821 msec
