                         Program Version 5.0.0 -  RELEASE  -
|  1> !wB97X-D3 RIJCOSX def2-TZVPD def2/J TightSCF
|  2> *xyz 0 1
|  3> C          1.22302        2.46987       -3.75691
|  4> F          2.35381        1.71203       -3.93448
|  5> H          1.26998        3.33359       -4.38673
|  6> H          1.15671        2.77738       -2.73420
|  7> H          0.36099        1.88932       -4.01140
|  8> *
|  9>
| 10> %MaxCore 64000
| 11>
| 12> %pal nprocs 18
| 13> end
| 14>
| 15> %scf
| 16>   MaxIter 150
| 17> end
| 18>
| 19>
| 20>                          ****END OF INPUT****

CARTESIAN COORDINATES (ANGSTROEM)
---------------------------------
  C      1.223020    2.469870   -3.756910
  F      2.353810    1.712030   -3.934480
  H      1.269980    3.333590   -4.386730
  H      1.156710    2.777380   -2.734200
  H      0.360990    1.889320   -4.011400

 Total Charge           Charge          ....    0
 Multiplicity           Mult            ....    1
 Number of Electrons    NEL             ....   18
 Basis Dimension        Dim             ....  104

ORBITAL ENERGIES
----------------

  NO   OCC          E(Eh)            E(eV)
   0   2.0000     -24.767834      -673.9670
   1   2.0000     -10.339948      -281.3643
   2   2.0000      -1.310730       -35.6668
   3   2.0000      -0.821410       -22.3517
   4   2.0000      -0.595002       -16.1908
   5   2.0000      -0.591730       -16.1018
   6   2.0000      -0.591724       -16.1016
   7   2.0000      -0.448228       -12.1969
   8   2.0000      -0.448219       -12.1967
   9   0.0000       0.074107         2.0166
  10   0.0000       0.116091         3.1590
  11   0.0000       0.134528         3.6607
  12   0.0000       0.134530         3.6608
  13   0.0000       0.161102         4.3838

MULLIKEN ATOMIC CHARGES
-----------------------
   0 C :   -0.335046
   1 F :   -0.287999
   2 H :    0.207644
   3 H :    0.207705
   4 H :    0.207696
Sum of atomic charges:    0.0000000

LOEWDIN ATOMIC CHARGES
----------------------
   0 C :   -0.112694
   1 F :   -0.101567
   2 H :    0.071416
   3 H :    0.071416
   4 H :    0.071429

  Mayer bond orders larger than 0.100000
B(  0-C ,  1-F ) :   0.8303 B(  0-C ,  2-H ) :   0.9497 B(  0-C ,  3-H ) :   0.9497
B(  0-C ,  4-H ) :   0.9499

Dispersion correction           -0.000131037
FINAL SINGLE POINT ENERGY      -139.766321786979

DIPOLE MOMENT
-------------
                                X             Y             Z
Electronic contribution:      2.42856      -1.62767      -0.38137
Nuclear contribution   :     -3.01708       2.02200       0.47377
                        -----------------------------------------
Total Dipole Moment    :     -0.58852       0.39433       0.09240
                        -----------------------------------------
Magnitude (a.u.)       :      0.71442
Magnitude (Debye)      :      1.81590

Rotational constants in cm-1:     5.477743     0.870792     0.870792
Rotational constants in MHz : 164218.600605 26105.683059 26105.675587

                             ****ORCA TERMINATED NORMALLY****
TOTAL RUN TIME: 0 days 0 hours 0 minutes 3 seconds 971 msec
