                         Program Version 5.0.0 -  RELEASE  -
|  1> !wB97X-D3 RIJCOSX def2-TZVPD def2/J TightSCF
|  2> *xyz 0 1
|  3> C          1.63556       -1.67040       -5.29211
|  4> C          2.48451       -0.50741       -5.14039
|  5> C          3.45115       -0.14953       -5.95259
|  6> N          3.92267        1.08956       -5.85071
|  7> N          3.96616       -1.00618       -6.86788
|  8> H          3.52139       -1.90647       -6.99527
|  9> H          4.44482       -0.62347       -7.67035
| 10> H          2.25200        0.24080       -4.49879
| 11> H          3.46428        1.64078       -5.13639
| 12> H          4.83447        1.31375       -6.22465
| 13> H          2.06372       -2.33262       -6.01532
| 14> H          0.66479       -1.36293       -5.62068
| 15> H          1.55078       -2.17513       -4.35245
| 16> *
| 17>
| 18> %MaxCore 64000
| 19>
| 20> %pal nprocs 18
| 21> end
| 22>
| 23> %scf
| 24>   MaxIter 150
| 25> end
| 26>
| 27>
| 28>                          ****END OF INPUT****

CARTESIAN COORDINATES (ANGSTROEM)
---------------------------------
  C      1.635560   -1.670400   -5.292110
  C      2.484510   -0.507410   -5.140390
  C      3.451150   -0.149530   -5.952590
  N      3.922670    1.089560   -5.850710
  N      3.966160   -1.006180   -6.867880
  H      3.521390   -1.906470   -6.995270
  H      4.444820   -0.623470   -7.670350
  H      2.252000    0.240800   -4.498790
  H      3.464280    1.640780   -5.136390
  H      4.834470    1.313750   -6.224650
  H      2.063720   -2.332620   -6.015320
  H      0.664790   -1.362930   -5.620680
  H      1.550780   -2.175130   -4.352450

 Total Charge           Charge          ....    0
 Multiplicity           Mult            ....    1
 Number of Electrons    NEL             ....   40
 Basis Dimension        Dim             ....  257

ORBITAL ENERGIES
----------------

  NO   OCC          E(Eh)            E(eV)
   0   2.0000     -14.418405      -392.3447
   1   2.0000     -14.415855      -392.2754
   2   2.0000     -10.313746      -280.6513
   3   2.0000     -10.240247      -278.6513
   4   2.0000     -10.197141      -277.4783
   5   2.0000      -1.073926       -29.2230
   6   2.0000      -0.983849       -26.7719
   7   2.0000      -0.872158       -23.7326
   8   2.0000      -0.770470       -20.9656
   9   2.0000      -0.687860       -18.7176
  10   2.0000      -0.639995       -17.4151
  11   2.0000      -0.612854       -16.6766
  12   2.0000      -0.563704       -15.3392
  13   2.0000      -0.524747       -14.2791
  14   2.0000      -0.509927       -13.8758
  15   2.0000      -0.479480       -13.0473
  16   2.0000      -0.456467       -12.4211
  17   2.0000      -0.441485       -12.0134
  18   2.0000      -0.357710        -9.7338
  19   2.0000      -0.247657        -6.7391
  20   0.0000       0.066720         1.8155
  21   0.0000       0.089183         2.4268
  22   0.0000       0.095437         2.5970
  23   0.0000       0.123663         3.3650
  24   0.0000       0.134051         3.6477

MULLIKEN ATOMIC CHARGES
-----------------------
   0 C :   -1.079422
   1 C :   -0.595343
   2 C :    0.695664
   3 N :   -0.457318
   4 N :   -0.429871
   5 H :    0.163104
   6 H :    0.210538
   7 H :    0.325272
   8 H :    0.196427
   9 H :    0.189425
  10 H :    0.267196
  11 H :    0.234028
  12 H :    0.280300
Sum of atomic charges:   -0.0000000

LOEWDIN ATOMIC CHARGES
----------------------
   0 C :   -0.112636
   1 C :   -0.185245
   2 C :   -0.552937
   3 N :    0.094329
   4 N :    0.110781
   5 H :    0.086231
   6 H :    0.097306
   7 H :    0.063934
   8 H :    0.107717
   9 H :    0.102329
  10 H :    0.050401
  11 H :    0.070065
  12 H :    0.067726

  Mayer bond orders larger than 0.100000
B(  0-C ,  1-C ) :   0.6803 B(  0-C , 10-H ) :   0.9838 B(  0-C , 11-H ) :   0.9857
B(  0-C , 12-H ) :   1.0062 B(  1-C ,  2-C ) :   1.1983 B(  1-C ,  7-H ) :   0.9484
B(  1-C , 10-H ) :  -0.1219 B(  2-C ,  3-N ) :   1.0923 B(  2-C ,  4-N ) :   1.0175
B(  2-C ,  7-H ) :  -0.2220 B(  3-N ,  8-H ) :   0.9617 B(  3-N ,  9-H ) :   1.0260
B(  4-N ,  5-H ) :   0.9684 B(  4-N ,  6-H ) :   0.9784

Dispersion correction           -0.002355291
FINAL SINGLE POINT ENERGY      -228.626012768329

DIPOLE MOMENT
-------------
                                X             Y             Z
Electronic contribution:      2.39803       1.86334      -0.77534
Nuclear contribution   :     -1.96139      -1.54412       0.26148
                        -----------------------------------------
Total Dipole Moment    :      0.43664       0.31922      -0.51387
                        -----------------------------------------
Magnitude (a.u.)       :      0.74607
Magnitude (Debye)      :      1.89635

Rotational constants in cm-1:     0.312277     0.136708     0.097371
Rotational constants in MHz :  9361.815989  4098.393303  2919.105491

                             ****ORCA TERMINATED NORMALLY****
TOTAL RUN TIME: 0 days 0 hours 0 minutes 20 seconds 484 msec
