                         Program Version 5.0.0 -  RELEASE  -
|  1> !wB97X-D3 RIJCOSX def2-TZVPD def2/J TightSCF
|  2> *xyz 0 1
|  3> C          1.63556       -1.67040       -5.29211
|  4> N          2.48451       -0.50741       -5.14039
|  5> C          3.45115       -0.14953       -5.95259
|  6> C          3.92267        1.08956       -5.85071
|  7> N          3.96616       -1.00618       -6.86788
|  8> H          3.52139       -1.90647       -6.99527
|  9> H          4.44482       -0.62347       -7.67035
| 10> H          2.25200        0.24080       -4.49879
| 11> H          3.46428        1.64078       -5.13639
| 12> H          4.83447        1.31375       -6.22465
| 13> H          2.06372       -2.33262       -6.01532
| 14> H          0.66479       -1.36293       -5.62068
| 15> H          1.55078       -2.17513       -4.35245
| 16> *
| 17>
| 18> %MaxCore 64000
| 19>
| 20> %pal nprocs 18
| 21> end
| 22>
| 23> %scf
| 24>   MaxIter 150
| 25> end
| 26>
| 27>
| 28>                          ****END OF INPUT****

CARTESIAN COORDINATES (ANGSTROEM)
---------------------------------
  C      1.635560   -1.670400   -5.292110
  N      2.484510   -0.507410   -5.140390
  C      3.451150   -0.149530   -5.952590
  C      3.922670    1.089560   -5.850710
  N      3.966160   -1.006180   -6.867880
  H      3.521390   -1.906470   -6.995270
  H      4.444820   -0.623470   -7.670350
  H      2.252000    0.240800   -4.498790
  H      3.464280    1.640780   -5.136390
  H      4.834470    1.313750   -6.224650
  H      2.063720   -2.332620   -6.015320
  H      0.664790   -1.362930   -5.620680
  H      1.550780   -2.175130   -4.352450

 Total Charge           Charge          ....    0
 Multiplicity           Mult            ....    1
 Number of Electrons    NEL             ....   40
 Basis Dimension        Dim             ....  257

ORBITAL ENERGIES
----------------

  NO   OCC          E(Eh)            E(eV)
   0   2.0000     -14.424948      -392.5228
   1   2.0000     -14.421464      -392.4280
   2   2.0000     -10.321821      -280.8710
   3   2.0000     -10.308462      -280.5075
   4   2.0000     -10.181421      -277.0506
   5   2.0000      -1.089192       -29.6384
   6   2.0000      -0.998447       -27.1691
   7   2.0000      -0.866329       -23.5740
   8   2.0000      -0.779592       -21.2138
   9   2.0000      -0.705735       -19.2040
  10   2.0000      -0.640753       -17.4358
  11   2.0000      -0.595561       -16.2060
  12   2.0000      -0.575730       -15.6664
  13   2.0000      -0.557638       -15.1741
  14   2.0000      -0.507319       -13.8049
  15   2.0000      -0.489282       -13.3140
  16   2.0000      -0.478284       -13.0148
  17   2.0000      -0.461302       -12.5527
  18   2.0000      -0.350803        -9.5458
  19   2.0000      -0.249770        -6.7966
  20   0.0000       0.061536         1.6745
  21   0.0000       0.091678         2.4947
  22   0.0000       0.096175         2.6171
  23   0.0000       0.123571         3.3625
  24   0.0000       0.132073         3.5939

MULLIKEN ATOMIC CHARGES
-----------------------
   0 C :   -0.863609
   1 N :   -0.202845
   2 C :    1.009871
   3 C :   -1.600278
   4 N :   -0.424952
   5 H :    0.137722
   6 H :    0.241687
   7 H :    0.146639
   8 H :    0.309277
   9 H :    0.377844
  10 H :    0.307723
  11 H :    0.277122
  12 H :    0.283799
Sum of atomic charges:    0.0000000

LOEWDIN ATOMIC CHARGES
----------------------
   0 C :   -0.062481
   1 N :   -0.028792
   2 C :   -0.568077
   3 C :   -0.014996
   4 N :    0.111639
   5 H :    0.078166
   6 H :    0.109564
   7 H :    0.142437
   8 H :    0.006570
   9 H :    0.009604
  10 H :    0.062235
  11 H :    0.076847
  12 H :    0.077284

  Mayer bond orders larger than 0.100000
B(  0-C ,  1-N ) :   0.8740 B(  0-C ,  2-C ) :  -0.1236 B(  0-C , 10-H ) :   0.8559
B(  0-C , 11-H ) :   0.9582 B(  0-C , 12-H ) :   0.9439 B(  1-N ,  2-C ) :   1.1684
B(  1-N ,  7-H ) :   0.9913 B(  2-C ,  3-C ) :   0.7920 B(  2-C ,  4-N ) :   1.0481
B(  2-C ,  8-H ) :  -0.1183 B(  3-C ,  4-N ) :   0.1165 B(  3-C ,  8-H ) :   1.0072
B(  3-C ,  9-H ) :   0.9297 B(  4-N ,  5-H ) :   1.0035 B(  4-N ,  6-H ) :   0.9400

Dispersion correction           -0.002365914
FINAL SINGLE POINT ENERGY      -228.611896147298

DIPOLE MOMENT
-------------
                                X             Y             Z
Electronic contribution:      0.99408       0.27292      -0.21378
Nuclear contribution   :     -1.67010      -1.22066       0.11760
                        -----------------------------------------
Total Dipole Moment    :     -0.67601      -0.94775      -0.09618
                        -----------------------------------------
Magnitude (a.u.)       :      1.16810
Magnitude (Debye)      :      2.96909

Rotational constants in cm-1:     0.314526     0.141398     0.099973
Rotational constants in MHz :  9429.255015  4239.015262  2997.111162

                             ****ORCA TERMINATED NORMALLY****
TOTAL RUN TIME: 0 days 0 hours 0 minutes 21 seconds 410 msec
