                         Program Version 5.0.0 -  RELEASE  -
|  1> !wB97X-D3 RIJCOSX def2-TZVPD def2/J TightSCF
|  2> *xyz 0 1
|  3> C          1.63556       -1.67040       -5.29211
|  4> N          2.48451       -0.50741       -5.14039
|  5> C          3.45115       -0.14953       -5.95259
|  6> N          3.92267        1.08956       -5.85071
|  7> C          3.96616       -1.00618       -6.86788
|  8> H          3.52139       -1.90647       -6.99527
|  9> H          4.44482       -0.62347       -7.67035
| 10> H          2.25200        0.24080       -4.49879
| 11> H          3.46428        1.64078       -5.13639
| 12> H          4.83447        1.31375       -6.22465
| 13> H          2.06372       -2.33262       -6.01532
| 14> H          0.66479       -1.36293       -5.62068
| 15> H          1.55078       -2.17513       -4.35245
| 16> *
| 17>
| 18> %MaxCore 64000
| 19>
| 20> %pal nprocs 18
| 21> end
| 22>
| 23> %scf
| 24>   MaxIter 150
| 25> end
| 26>
| 27>
| 28>                          ****END OF INPUT****

CARTESIAN COORDINATES (ANGSTROEM)
---------------------------------
  C      1.635560   -1.670400   -5.292110
  N      2.484510   -0.507410   -5.140390
  C      3.451150   -0.149530   -5.952590
  N      3.922670    1.089560   -5.850710
  C      3.966160   -1.006180   -6.867880
  H      3.521390   -1.906470   -6.995270
  H      4.444820   -0.623470   -7.670350
  H      2.252000    0.240800   -4.498790
  H      3.464280    1.640780   -5.136390
  H      4.834470    1.313750   -6.224650
  H      2.063720   -2.332620   -6.015320
  H      0.664790   -1.362930   -5.620680
  H      1.550780   -2.175130   -4.352450

 Total Charge           Charge          ....    0
 Multiplicity           Mult            ....    1
 Number of Electrons    NEL             ....   40
 Basis Dimension        Dim             ....  257

ORBITAL ENERGIES
----------------

  NO   OCC          E(Eh)            E(eV)
   0   2.0000     -14.430123      -392.6636
   1   2.0000     -14.424497      -392.5105
   2   2.0000     -10.324230      -280.9366
   3   2.0000     -10.299779      -280.2712
   4   2.0000     -10.181879      -277.0630
   5   2.0000      -1.097402       -29.8618
   6   2.0000      -1.003348       -27.3025
   7   2.0000      -0.834442       -22.7063
   8   2.0000      -0.814148       -22.1541
   9   2.0000      -0.672967       -18.3124
  10   2.0000      -0.647141       -17.6096
  11   2.0000      -0.633915       -17.2497
  12   2.0000      -0.559236       -15.2176
  13   2.0000      -0.551002       -14.9935
  14   2.0000      -0.515415       -14.0251
  15   2.0000      -0.482332       -13.1249
  16   2.0000      -0.470111       -12.7924
  17   2.0000      -0.457871       -12.4593
  18   2.0000      -0.348254        -9.4765
  19   2.0000      -0.251027        -6.8308
  20   0.0000       0.063500         1.7279
  21   0.0000       0.084325         2.2946
  22   0.0000       0.097977         2.6661
  23   0.0000       0.124655         3.3920
  24   0.0000       0.131860         3.5881

MULLIKEN ATOMIC CHARGES
-----------------------
   0 C :   -0.815617
   1 N :   -0.214787
   2 C :    0.937616
   3 N :   -0.442165
   4 C :   -1.488568
   5 H :    0.303446
   6 H :    0.333937
   7 H :    0.142403
   8 H :    0.153030
   9 H :    0.224656
  10 H :    0.310624
  11 H :    0.270575
  12 H :    0.284851
Sum of atomic charges:    0.0000000

LOEWDIN ATOMIC CHARGES
----------------------
   0 C :   -0.057434
   1 N :   -0.032306
   2 C :   -0.575546
   3 N :    0.109310
   4 C :   -0.006192
   5 H :   -0.016318
   6 H :    0.004009
   7 H :    0.135182
   8 H :    0.099854
   9 H :    0.116434
  10 H :    0.065203
  11 H :    0.079347
  12 H :    0.078457

  Mayer bond orders larger than 0.100000
B(  0-C ,  1-N ) :   0.8613 B(  0-C ,  2-C ) :  -0.1020 B(  0-C , 10-H ) :   0.8389
B(  0-C , 11-H ) :   0.9404 B(  0-C , 12-H ) :   0.9294 B(  1-N ,  2-C ) :   1.1166
B(  1-N ,  7-H ) :   1.0491 B(  2-C ,  3-N ) :   0.9782 B(  2-C ,  4-C ) :   1.0789
B(  3-N ,  4-C ) :   0.1318 B(  3-N ,  8-H ) :   1.0371 B(  3-N ,  9-H ) :   0.9651
B(  4-C ,  5-H ) :   0.9614 B(  4-C ,  6-H ) :   0.9928

Dispersion correction           -0.002354049
FINAL SINGLE POINT ENERGY      -228.611188855534

DIPOLE MOMENT
-------------
                                X             Y             Z
Electronic contribution:      1.03017       2.35198       0.87024
Nuclear contribution   :     -1.66129      -1.64514      -0.08842
                        -----------------------------------------
Total Dipole Moment    :     -0.63112       0.70684       0.78182
                        -----------------------------------------
Magnitude (a.u.)       :      1.22849
Magnitude (Debye)      :      3.12256

Rotational constants in cm-1:     0.330436     0.136339     0.098902
Rotational constants in MHz :  9906.231858  4087.333233  2964.994979

                             ****ORCA TERMINATED NORMALLY****
TOTAL RUN TIME: 0 days 0 hours 0 minutes 16 seconds 507 msec
