                         Program Version 5.0.0 -  RELEASE  -
|  1> !LC-PBE RIJCOSX def2-TZVPD def2/J TightSCF
|  2> *xyz -1 1
|  3> C         -7.33044       -2.67899       -3.20681
|  4> S         -6.01966       -2.92697       -4.41913
|  5> O         -5.64583       -1.58838       -4.91931
|  6> O         -4.88196       -3.50370       -3.66724
|  7> O         -6.54927       -3.80515       -5.42507
|  8> C         -7.46900       -1.24615       -2.71383
|  9> H         -7.11825       -3.37982       -2.39805
| 10> H         -8.24184       -3.00474       -3.70651
| 11> H         -7.67580       -0.60214       -3.54292
| 12> H         -6.55749       -0.94096       -2.24382
| 13> H         -8.27114       -1.18777       -2.00810
| 14> *
| 15> %MaxCore 64000
| 16>
| 17> %pal nprocs 4
| 18> end
| 19>
| 20> %scf
| 21>   MaxIter 150
| 22> end
| 23>
| 24>
| 25>                          ****END OF INPUT****

CARTESIAN COORDINATES (ANGSTROEM)
---------------------------------
  C     -7.330440   -2.678990   -3.206810
  S     -6.019660   -2.926970   -4.419130
  O     -5.645830   -1.588380   -4.919310
  O     -4.881960   -3.503700   -3.667240
  O     -6.549270   -3.805150   -5.425070
  C     -7.469000   -1.246150   -2.713830
  H     -7.118250   -3.379820   -2.398050
  H     -8.241840   -3.004740   -3.706510
  H     -7.675800   -0.602140   -3.542920
  H     -6.557490   -0.940960   -2.243820
  H     -8.271140   -1.187770   -2.008100

 Total Charge           Charge          ....   -1
 Multiplicity           Mult            ....    1
 Number of Electrons    NEL             ....   58
 Basis Dimension        Dim             ....  285

ORBITAL ENERGIES
----------------

  NO   OCC          E(Eh)            E(eV)
   0   2.0000     -88.272139     -2402.0070
   1   2.0000     -18.761272      -510.5202
   2   2.0000     -18.749708      -510.2055
   3   2.0000     -18.746308      -510.1130
   4   2.0000      -9.982171      -271.6287
   5   2.0000      -9.970912      -271.3223
   6   2.0000      -7.882879      -214.5040
   7   2.0000      -5.899693      -160.5388
   8   2.0000      -5.898335      -160.5019
   9   2.0000      -5.898027      -160.4935
  10   2.0000      -1.096561       -29.8389
  11   2.0000      -0.951773       -25.8991
  12   2.0000      -0.929142       -25.2832
  13   2.0000      -0.815158       -22.1816
  14   2.0000      -0.675567       -18.3831
  15   2.0000      -0.535732       -14.5780
  16   2.0000      -0.469222       -12.7682
  17   2.0000      -0.464941       -12.6517
  18   2.0000      -0.421462       -11.4686
  19   2.0000      -0.403313       -10.9747
  20   2.0000      -0.398131       -10.8337
  21   2.0000      -0.364924        -9.9301
  22   2.0000      -0.353810        -9.6277
  23   2.0000      -0.290374        -7.9015
  24   2.0000      -0.289522        -7.8783
  25   2.0000      -0.248923        -6.7735
  26   2.0000      -0.239578        -6.5193
  27   2.0000      -0.233984        -6.3670
  28   2.0000      -0.195437        -5.3181
  29   0.0000       0.169662         4.6167
  30   0.0000       0.180500         4.9116
  31   0.0000       0.182603         4.9689
  32   0.0000       0.191172         5.2021
  33   0.0000       0.216841         5.9005

MULLIKEN ATOMIC CHARGES
-----------------------
   0 C :   -0.659129
   1 S :    1.100474
   2 O :   -0.713662
   3 O :   -0.717019
   4 O :   -0.676626
   5 C :   -1.139707
   6 H :    0.378796
   7 H :    0.370204
   8 H :    0.355933
   9 H :    0.325875
  10 H :    0.374859
Sum of atomic charges:   -1.0000000

LOEWDIN ATOMIC CHARGES
----------------------
   0 C :   -0.335787
   1 S :    0.344995
   2 O :   -0.408785
   3 O :   -0.421642
   4 O :   -0.384940
   5 C :   -0.173827
   6 H :    0.091373
   7 H :    0.087027
   8 H :    0.067394
   9 H :    0.074673
  10 H :    0.059520

  Mayer bond orders larger than 0.100000
B(  0-C ,  1-S ) :   0.8974 B(  0-C ,  3-O ) :   0.1200 B(  0-C ,  4-O ) :   0.1147
B(  0-C ,  5-C ) :   0.5115 B(  0-C ,  6-H ) :   0.9187 B(  0-C ,  7-H ) :   0.9220
B(  1-S ,  2-O ) :   1.4775 B(  1-S ,  3-O ) :   1.4835 B(  1-S ,  4-O ) :   1.5166
B(  5-C ,  8-H ) :   0.9453 B(  5-C ,  9-H ) :   0.9639 B(  5-C , 10-H ) :   0.8915

FINAL SINGLE POINT ENERGY      -702.102767936149

DIPOLE MOMENT
-------------
                                X             Y             Z
Electronic contribution:      4.61046      -3.49603      -5.04181
Nuclear contribution   :     -6.18165       4.01759       6.33106
                        -----------------------------------------
Total Dipole Moment    :     -1.57119       0.52157       1.28925
                        -----------------------------------------
Magnitude (a.u.)       :      2.09829
Magnitude (Debye)      :      5.33344

Rotational constants in cm-1:     0.161711     0.082788     0.081165
Rotational constants in MHz :  4847.971521  2481.906910  2433.276832

                             ****ORCA TERMINATED NORMALLY****
TOTAL RUN TIME: 0 days 0 hours 0 minutes 49 seconds 923 msec
