                         Program Version 5.0.0 -  RELEASE  -
|  1> !LC-PBE RIJCOSX def2-TZVPD def2/J TightSCF
|  2> *xyz 1 1
|  3> C         -2.16038       -1.36949       -3.46710
|  4> N         -3.03011       -1.91086       -4.54107
|  5> C         -2.04772        0.14658       -3.51177
|  6> H         -3.47744       -2.79151       -4.25710
|  7> H         -2.53801       -2.01786       -5.43808
|  8> H         -3.89159       -1.37604       -4.71437
|  9> H         -1.18444       -1.84400       -3.56639
| 10> H         -2.59819       -1.70838       -2.52848
| 11> H         -1.61525        0.44478       -4.44395
| 12> H         -1.42718        0.48198       -2.70720
| 13> H         -3.02145        0.57958       -3.41560
| 14> *
| 15> %MaxCore 64000
| 16>
| 17> %pal nprocs 4
| 18> end
| 19>
| 20> %scf
| 21>   MaxIter 150
| 22> end
| 23>
| 24>
| 25>                          ****END OF INPUT****

CARTESIAN COORDINATES (ANGSTROEM)
---------------------------------
  C     -2.160380   -1.369490   -3.467100
  N     -3.030110   -1.910860   -4.541070
  C     -2.047720    0.146580   -3.511770
  H     -3.477440   -2.791510   -4.257100
  H     -2.538010   -2.017860   -5.438080
  H     -3.891590   -1.376040   -4.714370
  H     -1.184440   -1.844000   -3.566390
  H     -2.598190   -1.708380   -2.528480
  H     -1.615250    0.444780   -4.443950
  H     -1.427180    0.481980   -2.707200
  H     -3.021450    0.579580   -3.415600

 Total Charge           Charge          ....    1
 Multiplicity           Mult            ....    1
 Number of Electrons    NEL             ....   26
 Basis Dimension        Dim             ....  183

ORBITAL ENERGIES
----------------

  NO   OCC          E(Eh)            E(eV)
   0   2.0000     -14.549903      -395.9230
   1   2.0000     -10.369669      -282.1730
   2   2.0000     -10.285435      -279.8809
   3   2.0000      -1.391623       -37.8680
   4   2.0000      -1.141860       -31.0716
   5   2.0000      -1.009683       -27.4749
   6   2.0000      -0.957937       -26.0668
   7   2.0000      -0.916964       -24.9519
   8   2.0000      -0.843155       -22.9434
   9   2.0000      -0.784675       -21.3521
  10   2.0000      -0.716549       -19.4983
  11   2.0000      -0.700244       -19.0546
  12   2.0000      -0.679596       -18.4927
  13   0.0000      -0.122070        -3.3217
  14   0.0000      -0.069065        -1.8794
  15   0.0000      -0.065289        -1.7766
  16   0.0000      -0.059017        -1.6059
  17   0.0000      -0.028033        -0.7628

MULLIKEN ATOMIC CHARGES
-----------------------
   0 C :   -0.407781
   1 N :   -0.448290
   2 C :   -1.277972
   3 H :    0.398625
   4 H :    0.397814
   5 H :    0.397967
   6 H :    0.367111
   7 H :    0.365861
   8 H :    0.408596
   9 H :    0.375559
  10 H :    0.422509
Sum of atomic charges:    1.0000000

LOEWDIN ATOMIC CHARGES
----------------------
   0 C :   -0.219469
   1 N :    0.168171
   2 C :   -0.079780
   3 H :    0.186169
   4 H :    0.191526
   5 H :    0.186256
   6 H :    0.144448
   7 H :    0.142104
   8 H :    0.091080
   9 H :    0.099499
  10 H :    0.089997

  Mayer bond orders larger than 0.100000
B(  0-C ,  1-N ) :   0.8732 B(  0-C ,  2-C ) :   0.6210 B(  0-C ,  6-H ) :   0.9072
B(  0-C ,  7-H ) :   0.8756 B(  1-N ,  3-H ) :   0.8432 B(  1-N ,  4-H ) :   0.8363
B(  1-N ,  5-H ) :   0.8349 B(  2-C ,  8-H ) :   0.8930 B(  2-C ,  9-H ) :   0.9386
B(  2-C , 10-H ) :   0.8510

FINAL SINGLE POINT ENERGY      -135.128011990314

DIPOLE MOMENT
-------------
                                X             Y             Z
Electronic contribution:     -0.65866      -1.50011      -0.78085
Nuclear contribution   :     -0.15215       0.37393      -0.04773
                        -----------------------------------------
Total Dipole Moment    :     -0.81081      -1.12618      -0.82859
                        -----------------------------------------
Magnitude (a.u.)       :      1.61624
Magnitude (Debye)      :      4.10816

Rotational constants in cm-1:     1.020762     0.277172     0.247319
Rotational constants in MHz : 30601.664035  8309.399682  7414.438136

                             ****ORCA TERMINATED NORMALLY****
TOTAL RUN TIME: 0 days 0 hours 0 minutes 18 seconds 513 msec
