                         Program Version 5.0.0 -  RELEASE  -
|  1> !LC-PBE RIJCOSX def2-TZVPD def2/J TightSCF xyzfile
|  2>
|  3> *xyzfile 0 1 B.xyz
|  4>
|  5> %MaxCore 64000
|  6>
|  7> %pal nprocs 4
|  8> end
|  9>
| 10> %scf
| 11>   MaxIter 150
| 12> end
| 13>
| 14>
| 15>                          ****END OF INPUT****

CARTESIAN COORDINATES (ANGSTROEM)
---------------------------------
  C     -2.160376   -1.369486   -3.467104
  N     -3.030108   -1.910857   -4.541074
  C     -2.047717    0.146583   -3.511774
  C     -7.330440   -2.678991   -3.206811
  S     -6.019659   -2.926965   -4.419128
  H     -3.477443   -2.791513   -4.257096
  H     -2.538013   -2.017860   -5.438075
  H     -3.891589   -1.376039   -4.714365
  O     -5.645830   -1.588384   -4.919307
  O     -4.881961   -3.503697   -3.667235
  H     -1.184438   -1.843997   -3.566393
  H     -2.598195   -1.708376   -2.528477
  O     -6.549267   -3.805150   -5.425071
  C     -3.328755    0.875037   -3.103669
  H     -1.740034    0.452343   -4.517126
  H     -1.232611    0.434938   -2.842208
  C     -3.628487    0.771601   -1.609363
  H     -4.175106    0.490791   -3.682203
  H     -3.237812    1.928663   -3.381480
  C     -4.975718    1.361432   -1.190644
  H     -2.830700    1.276234   -1.054766
  H     -3.594312   -0.275838   -1.294603
  C     -6.184720    0.784347   -1.926464
  H     -4.956292    2.445725   -1.342200
  H     -5.097256    1.205252   -0.114136
  C     -6.286921   -0.735882   -1.893531
  H     -6.163994    1.100199   -2.974250
  H     -7.094530    1.223459   -1.504509
  C     -7.468999   -1.246153   -2.713833
  H     -6.360641   -1.090347   -0.859176
  H     -5.369848   -1.171853   -2.295982
  H     -7.601914   -0.601349   -3.585329
  H     -8.389791   -1.173436   -2.126922
  H     -7.118254   -3.379818   -2.398055
  H     -8.241838   -3.004745   -3.706513

 Total Charge           Charge          ....    0
 Multiplicity           Mult            ....    1
 Number of Electrons    NEL             ....  122
 Basis Dimension        Dim             ....  725

ORBITAL ENERGIES
----------------

  NO   OCC          E(Eh)            E(eV)
   0   2.0000     -88.440523     -2406.5890
   1   2.0000     -18.932404      -515.1769
   2   2.0000     -18.932202      -515.1714
   3   2.0000     -18.916664      -514.7486
   4   2.0000     -14.319067      -389.6416
   5   2.0000     -10.199962      -277.5551
   6   2.0000     -10.152126      -276.2534
   7   2.0000     -10.131649      -275.6962
   8   2.0000     -10.123362      -275.4707
   9   2.0000     -10.119256      -275.3589
  10   2.0000     -10.115567      -275.2586
  11   2.0000     -10.108070      -275.0546
  12   2.0000     -10.107909      -275.0502
  13   2.0000     -10.104273      -274.9513
  14   2.0000      -8.052232      -219.1124
  15   2.0000      -6.068872      -165.1424
  16   2.0000      -6.068052      -165.1201
  17   2.0000      -6.066899      -165.0887
  18   2.0000      -1.272685       -34.6315
  19   2.0000      -1.181549       -32.1516
  20   2.0000      -1.120038       -30.4778
  21   2.0000      -1.117902       -30.4197
  22   2.0000      -1.020440       -27.7676
  23   2.0000      -0.989731       -26.9319
  24   2.0000      -0.961534       -26.1647
  25   2.0000      -0.912179       -24.8216
  26   2.0000      -0.877028       -23.8652
  27   2.0000      -0.828853       -22.5542
  28   2.0000      -0.787525       -21.4296
  29   2.0000      -0.766943       -20.8696
  30   2.0000      -0.750945       -20.4343
  31   2.0000      -0.724884       -19.7251
  32   2.0000      -0.716380       -19.4937
  33   2.0000      -0.690371       -18.7859
  34   2.0000      -0.659324       -17.9411
  35   2.0000      -0.641175       -17.4473
  36   2.0000      -0.636929       -17.3317
  37   2.0000      -0.624392       -16.9906
  38   2.0000      -0.604465       -16.4483
  39   2.0000      -0.593792       -16.1579
  40   2.0000      -0.583262       -15.8714
  41   2.0000      -0.579731       -15.7753
  42   2.0000      -0.570567       -15.5259
  43   2.0000      -0.554029       -15.0759
  44   2.0000      -0.551444       -15.0056
  45   2.0000      -0.537589       -14.6285
  46   2.0000      -0.522952       -14.2302
  47   2.0000      -0.507189       -13.8013
  48   2.0000      -0.501419       -13.6443
  49   2.0000      -0.484985       -13.1971
  50   2.0000      -0.476469       -12.9654
  51   2.0000      -0.472054       -12.8452
  52   2.0000      -0.461669       -12.5626
  53   2.0000      -0.457642       -12.4531
  54   2.0000      -0.448766       -12.2115
  55   2.0000      -0.442055       -12.0289
  56   2.0000      -0.438139       -11.9224
  57   2.0000      -0.419476       -11.4145
  58   2.0000      -0.409579       -11.1452
  59   2.0000      -0.397096       -10.8055
  60   2.0000      -0.375831       -10.2269
  61   0.0000       0.037102         1.0096
  62   0.0000       0.057658         1.5689
  63   0.0000       0.061850         1.6830
  64   0.0000       0.070313         1.9133
  65   0.0000       0.075317         2.0495

MULLIKEN ATOMIC CHARGES
-----------------------
   0 C :   -0.662296
   1 N :   -0.301676
   2 C :   -0.798527
   3 C :   -1.064124
   4 S :    1.233634
   5 H :    0.468156
   6 H :    0.329942
   7 H :    0.385739
   8 O :   -0.831872
   9 O :   -0.849678
  10 H :    0.425560
  11 H :    0.356065
  12 O :   -0.657481
  13 C :   -0.417807
  14 H :    0.365011
  15 H :    0.406021
  16 C :   -0.765786
  17 H :    0.235091
  18 H :    0.352265
  19 C :   -0.899059
  20 H :    0.377594
  21 H :    0.373559
  22 C :   -0.985147
  23 H :    0.363940
  24 H :    0.374445
  25 C :   -0.007425
  26 H :    0.440527
  27 H :    0.385031
  28 C :   -0.890112
  29 H :    0.356433
  30 H :    0.114871
  31 H :    0.455415
  32 H :    0.458413
  33 H :    0.424861
  34 H :    0.448417
Sum of atomic charges:   -0.0000000

LOEWDIN ATOMIC CHARGES
----------------------
   0 C :   -0.175336
   1 N :    0.142371
   2 C :   -0.205137
   3 C :   -0.246685
   4 S :    0.443020
   5 H :    0.078987
   6 H :    0.182490
   7 H :    0.086402
   8 O :   -0.372451
   9 O :   -0.378853
  10 H :    0.134895
  11 H :    0.132275
  12 O :   -0.317376
  13 C :   -0.219870
  14 H :    0.125098
  15 H :    0.127600
  16 C :   -0.234857
  17 H :    0.105964
  18 H :    0.130974
  19 C :   -0.226524
  20 H :    0.124309
  21 H :    0.109296
  22 C :   -0.234219
  23 H :    0.120029
  24 H :    0.120539
  25 C :   -0.234512
  26 H :    0.119780
  27 H :    0.125789
  28 C :   -0.254548
  29 H :    0.135186
  30 H :    0.092601
  31 H :    0.117874
  32 H :    0.125506
  33 H :    0.112799
  34 H :    0.106585

  Mayer bond orders larger than 0.100000
B(  0-C ,  1-N ) :   0.8445 B(  0-C ,  2-C ) :   0.8113 B(  0-C , 10-H ) :   0.8329
B(  0-C , 11-H ) :   0.8782 B(  1-N ,  5-H ) :   0.7372 B(  1-N ,  6-H ) :   0.8671
B(  1-N ,  7-H ) :   0.8469 B(  2-C , 13-C ) :   0.7542 B(  2-C , 14-H ) :   0.9237
B(  2-C , 15-H ) :   0.8688 B(  3-C ,  4-S ) :   0.9907 B(  3-C ,  9-O ) :   0.1155
B(  3-C , 12-O ) :   0.1580 B(  3-C , 28-C ) :   0.6813 B(  3-C , 33-H ) :   0.8486
B(  3-C , 34-H ) :   0.9475 B(  4-S ,  8-O ) :   1.3584 B(  4-S ,  9-O ) :   1.3172
B(  4-S , 12-O ) :   1.3899 B(  8-O ,  9-O ) :   0.1027 B(  8-O , 28-C ) :   0.1144
B( 13-C , 16-C ) :   0.4282 B( 13-C , 17-H ) :   0.9869 B( 13-C , 18-H ) :   0.9154
B( 13-C , 21-H ) :  -0.1202 B( 16-C , 19-C ) :   0.8764 B( 16-C , 20-H ) :   0.9033
B( 16-C , 21-H ) :   0.9874 B( 17-H , 18-H ) :   0.1121 B( 19-C , 22-C ) :   0.7991
B( 19-C , 23-H ) :   0.9608 B( 19-C , 24-H ) :   0.9409 B( 22-C , 25-C ) :   0.4238
B( 22-C , 26-H ) :   0.9246 B( 22-C , 27-H ) :   0.8622 B( 22-C , 28-C ) :   0.2868
B( 25-C , 28-C ) :   0.5384 B( 25-C , 29-H ) :   0.8255 B( 25-C , 30-H ) :   1.0178
B( 28-C , 31-H ) :   0.8017 B( 28-C , 32-H ) :   0.8511 B( 29-H , 30-H ) :   0.1901

FINAL SINGLE POINT ENERGY     -1032.173558793038

DIPOLE MOMENT
-------------
                                X             Y             Z
Electronic contribution:     -5.95669     -15.17971     -11.38424
Nuclear contribution   :      8.59301      16.99497      12.41069
                        -----------------------------------------
Total Dipole Moment    :      2.63632       1.81526       1.02645
                        -----------------------------------------
Magnitude (a.u.)       :      3.36139
Magnitude (Debye)      :      8.54397

Rotational constants in cm-1:     0.025617     0.015295     0.010641
Rotational constants in MHz :   767.991150   458.522408   319.013093

                             ****ORCA TERMINATED NORMALLY****
TOTAL RUN TIME: 0 days 0 hours 7 minutes 19 seconds 289 msec
