                         Program Version 5.0.0 -  RELEASE  -
|  1> !LC-PBE RIJCOSX def2-TZVPD def2/J TightSCF
|  2> *xyz 0 1
|  3> C         -7.33044       -2.67899       -3.20681
|  4> S         -6.01966       -2.92697       -4.41913
|  5> F         -5.64583       -1.58838       -4.91931
|  6> O         -4.88196       -3.50370       -3.66724
|  7> O         -6.54927       -3.80515       -5.42507
|  8> C         -7.46900       -1.24615       -2.71383
|  9> H         -7.11825       -3.37982       -2.39805
| 10> H         -8.24184       -3.00474       -3.70651
| 11> H         -7.67580       -0.60214       -3.54292
| 12> H         -6.55749       -0.94096       -2.24382
| 13> H         -8.27114       -1.18777       -2.00810
| 14> *
| 15> %MaxCore 64000
| 16>
| 17> %pal nprocs 4
| 18> end
| 19>
| 20> %scf
| 21>   MaxIter 150
| 22> end
| 23>
| 24>
| 25>                          ****END OF INPUT****

CARTESIAN COORDINATES (ANGSTROEM)
---------------------------------
  C     -7.330440   -2.678990   -3.206810
  S     -6.019660   -2.926970   -4.419130
  F     -5.645830   -1.588380   -4.919310
  O     -4.881960   -3.503700   -3.667240
  O     -6.549270   -3.805150   -5.425070
  C     -7.469000   -1.246150   -2.713830
  H     -7.118250   -3.379820   -2.398050
  H     -8.241840   -3.004740   -3.706510
  H     -7.675800   -0.602140   -3.542920
  H     -6.557490   -0.940960   -2.243820
  H     -8.271140   -1.187770   -2.008100

 Total Charge           Charge          ....    0
 Multiplicity           Mult            ....    1
 Number of Electrons    NEL             ....   58
 Basis Dimension        Dim             ....  285

ORBITAL ENERGIES
----------------

  NO   OCC          E(Eh)            E(eV)
   0   2.0000     -88.534594     -2409.1488
   1   2.0000     -24.600490      -669.4134
   2   2.0000     -18.997150      -516.9387
   3   2.0000     -18.981875      -516.5231
   4   2.0000     -10.184281      -277.1284
   5   2.0000     -10.142528      -275.9922
   6   2.0000      -8.145834      -221.6594
   7   2.0000      -6.166449      -167.7976
   8   2.0000      -6.159136      -167.5986
   9   2.0000      -6.158677      -167.5861
  10   2.0000      -1.520274       -41.3688
  11   2.0000      -1.281116       -34.8609
  12   2.0000      -1.174611       -31.9628
  13   2.0000      -1.011326       -27.5196
  14   2.0000      -0.889257       -24.1979
  15   2.0000      -0.841157       -22.8891
  16   2.0000      -0.746431       -20.3114
  17   2.0000      -0.725867       -19.7519
  18   2.0000      -0.694621       -18.9016
  19   2.0000      -0.649384       -17.6706
  20   2.0000      -0.621523       -16.9125
  21   2.0000      -0.596023       -16.2186
  22   2.0000      -0.587355       -15.9827
  23   2.0000      -0.555028       -15.1031
  24   2.0000      -0.534534       -14.5454
  25   2.0000      -0.529203       -14.4004
  26   2.0000      -0.472632       -12.8610
  27   2.0000      -0.459511       -12.5039
  28   2.0000      -0.448852       -12.2139
  29   0.0000       0.047625         1.2959
  30   0.0000       0.058645         1.5958
  31   0.0000       0.065198         1.7741
  32   0.0000       0.068914         1.8753
  33   0.0000       0.096907         2.6370

MULLIKEN ATOMIC CHARGES
-----------------------
   0 C :   -0.553085
   1 S :    1.090994
   2 F :   -0.138194
   3 O :   -0.584598
   4 O :   -0.547254
   5 C :   -1.264181
   6 H :    0.414815
   7 H :    0.414911
   8 H :    0.412888
   9 H :    0.382295
  10 H :    0.371410
Sum of atomic charges:    0.0000000

LOEWDIN ATOMIC CHARGES
----------------------
   0 C :   -0.283801
   1 S :    0.588022
   2 F :   -0.065558
   3 O :   -0.304632
   4 O :   -0.269605
   5 C :   -0.138499
   6 H :    0.116891
   7 H :    0.108647
   8 H :    0.078864
   9 H :    0.085588
  10 H :    0.084084

  Mayer bond orders larger than 0.100000
B(  0-C ,  1-S ) :   0.8744 B(  0-C ,  5-C ) :   0.5240 B(  0-C ,  6-H ) :   0.8726
B(  0-C ,  7-H ) :   0.8747 B(  1-S ,  2-F ) :   1.0060 B(  1-S ,  3-O ) :   1.6709
B(  1-S ,  4-O ) :   1.7119 B(  5-C ,  8-H ) :   0.8701 B(  5-C ,  9-H ) :   0.9199
B(  5-C , 10-H ) :   0.9159

FINAL SINGLE POINT ENERGY      -726.602324118907

DIPOLE MOMENT
-------------
                                X             Y             Z
Electronic contribution:      5.60249      -1.67650      -6.35246
Nuclear contribution   :     -6.81251       2.87933       7.15058
                        -----------------------------------------
Total Dipole Moment    :     -1.21002       1.20283       0.79812
                        -----------------------------------------
Magnitude (a.u.)       :      1.88360
Magnitude (Debye)      :      4.78772

Rotational constants in cm-1:     0.152543     0.082494     0.078987
Rotational constants in MHz :  4573.135887  2473.116216  2367.980829

                             ****ORCA TERMINATED NORMALLY****
TOTAL RUN TIME: 0 days 0 hours 0 minutes 42 seconds 603 msec
