                         Program Version 5.0.0 -  RELEASE  -
|  1> !LC-PBE RIJCOSX def2-TZVPD def2/J TightSCF
|  2> *xyz 0 1
|  3> C         -2.16038       -1.36949       -3.46710
|  4> C         -3.03011       -1.91086       -4.54107
|  5> C         -2.04772        0.14658       -3.51177
|  6> H         -3.47744       -2.79151       -4.25710
|  7> H         -2.53801       -2.01786       -5.43808
|  8> H         -3.89159       -1.37604       -4.71437
|  9> H         -1.18444       -1.84400       -3.56639
| 10> H         -2.59819       -1.70838       -2.52848
| 11> H         -1.61525        0.44478       -4.44395
| 12> H         -1.42718        0.48198       -2.70720
| 13> H         -3.02145        0.57958       -3.41560
| 14> *
| 15> %MaxCore 64000
| 16>
| 17> %pal nprocs 4
| 18> end
| 19>
| 20> %scf
| 21>   MaxIter 150
| 22> end
| 23>
| 24>
| 25>                          ****END OF INPUT****

CARTESIAN COORDINATES (ANGSTROEM)
---------------------------------
  C     -2.160380   -1.369490   -3.467100
  C     -3.030110   -1.910860   -4.541070
  C     -2.047720    0.146580   -3.511770
  H     -3.477440   -2.791510   -4.257100
  H     -2.538010   -2.017860   -5.438080
  H     -3.891590   -1.376040   -4.714370
  H     -1.184440   -1.844000   -3.566390
  H     -2.598190   -1.708380   -2.528480
  H     -1.615250    0.444780   -4.443950
  H     -1.427180    0.481980   -2.707200
  H     -3.021450    0.579580   -3.415600

 Total Charge           Charge          ....    0
 Multiplicity           Mult            ....    1
 Number of Electrons    NEL             ....   26
 Basis Dimension        Dim             ....  183

ORBITAL ENERGIES
----------------

  NO   OCC          E(Eh)            E(eV)
   0   2.0000     -10.100585      -274.8509
   1   2.0000     -10.088990      -274.5354
   2   2.0000     -10.070377      -274.0289
   3   2.0000      -0.970730       -26.4149
   4   2.0000      -0.861507       -23.4428
   5   2.0000      -0.748168       -20.3587
   6   2.0000      -0.617348       -16.7989
   7   2.0000      -0.584102       -15.8942
   8   2.0000      -0.540263       -14.7013
   9   2.0000      -0.529561       -14.4101
  10   2.0000      -0.468865       -12.7585
  11   2.0000      -0.455986       -12.4080
  12   2.0000      -0.453367       -12.3367
  13   0.0000       0.074155         2.0179
  14   0.0000       0.091764         2.4970
  15   0.0000       0.094734         2.5778
  16   0.0000       0.125012         3.4017
  17   0.0000       0.148442         4.0393

MULLIKEN ATOMIC CHARGES
-----------------------
   0 C :   -0.342691
   1 C :   -1.305961
   2 C :   -1.177587
   3 H :    0.384574
   4 H :    0.362112
   5 H :    0.391563
   6 H :    0.310841
   7 H :    0.329528
   8 H :    0.346984
   9 H :    0.339988
  10 H :    0.360649
Sum of atomic charges:   -0.0000000

LOEWDIN ATOMIC CHARGES
----------------------
   0 C :   -0.335417
   1 C :   -0.156060
   2 C :   -0.139139
   3 H :    0.059199
   4 H :    0.065617
   5 H :    0.062377
   6 H :    0.112467
   7 H :    0.110964
   8 H :    0.076138
   9 H :    0.069026
  10 H :    0.074827

  Mayer bond orders larger than 0.100000
B(  0-C ,  1-C ) :   0.5866 B(  0-C ,  2-C ) :   0.6031 B(  0-C ,  6-H ) :   0.9389
B(  0-C ,  7-H ) :   0.9357 B(  1-C ,  3-H ) :   0.9340 B(  1-C ,  4-H ) :   0.9252
B(  1-C ,  5-H ) :   0.9112 B(  2-C ,  8-H ) :   0.9407 B(  2-C ,  9-H ) :   0.9706
B(  2-C , 10-H ) :   0.9252

FINAL SINGLE POINT ENERGY      -118.734117463798

DIPOLE MOMENT
-------------
                                X             Y             Z
Electronic contribution:      0.31224      -0.13277       0.27450
Nuclear contribution   :     -0.34625       0.09603      -0.26933
                        -----------------------------------------
Total Dipole Moment    :     -0.03400      -0.03674       0.00516
                        -----------------------------------------
Magnitude (a.u.)       :      0.05033
Magnitude (Debye)      :      0.12792

Rotational constants in cm-1:     1.028617     0.291238     0.258956
Rotational constants in MHz : 30837.159054  8731.095379  7763.318586

                             ****ORCA TERMINATED NORMALLY****
TOTAL RUN TIME: 0 days 0 hours 0 minutes 17 seconds 501 msec
