                         Program Version 5.0.0 -  RELEASE  -
|  1> !LC-PBE RIJCOSX def2-TZVPD def2/J TightSCF
|  2> *xyz 0 1
|  3> C         -7.33044       -2.67899       -3.20681
|  4> S         -6.01966       -2.92697       -4.41913
|  5> O         -5.64583       -1.58838       -4.91931
|  6> F         -4.88196       -3.50370       -3.66724
|  7> O         -6.54927       -3.80515       -5.42507
|  8> C         -7.46900       -1.24615       -2.71383
|  9> H         -7.11825       -3.37982       -2.39805
| 10> H         -8.24184       -3.00474       -3.70651
| 11> H         -7.67580       -0.60214       -3.54292
| 12> H         -6.55749       -0.94096       -2.24382
| 13> H         -8.27114       -1.18777       -2.00810
| 14> *
| 15> %MaxCore 64000
| 16>
| 17> %pal nprocs 4
| 18> end
| 19>
| 20> %scf
| 21>   MaxIter 150
| 22> end
| 23>
| 24>
| 25>                          ****END OF INPUT****

CARTESIAN COORDINATES (ANGSTROEM)
---------------------------------
  C     -7.330440   -2.678990   -3.206810
  S     -6.019660   -2.926970   -4.419130
  O     -5.645830   -1.588380   -4.919310
  F     -4.881960   -3.503700   -3.667240
  O     -6.549270   -3.805150   -5.425070
  C     -7.469000   -1.246150   -2.713830
  H     -7.118250   -3.379820   -2.398050
  H     -8.241840   -3.004740   -3.706510
  H     -7.675800   -0.602140   -3.542920
  H     -6.557490   -0.940960   -2.243820
  H     -8.271140   -1.187770   -2.008100

 Total Charge           Charge          ....    0
 Multiplicity           Mult            ....    1
 Number of Electrons    NEL             ....   58
 Basis Dimension        Dim             ....  285

ORBITAL ENERGIES
----------------

  NO   OCC          E(Eh)            E(eV)
   0   2.0000     -88.534709     -2409.1519
   1   2.0000     -24.597770      -669.3393
   2   2.0000     -18.997204      -516.9402
   3   2.0000     -18.985142      -516.6120
   4   2.0000     -10.184622      -277.1377
   5   2.0000     -10.133235      -275.7393
   6   2.0000      -8.145936      -221.6622
   7   2.0000      -6.166467      -167.7981
   8   2.0000      -6.159430      -167.6066
   9   2.0000      -6.158674      -167.5861
  10   2.0000      -1.516917       -41.2774
  11   2.0000      -1.282093       -34.8875
  12   2.0000      -1.177922       -32.0529
  13   2.0000      -1.006534       -27.3892
  14   2.0000      -0.891124       -24.2487
  15   2.0000      -0.833543       -22.6819
  16   2.0000      -0.736024       -20.0282
  17   2.0000      -0.722109       -19.6496
  18   2.0000      -0.704200       -19.1622
  19   2.0000      -0.643513       -17.5109
  20   2.0000      -0.630714       -17.1626
  21   2.0000      -0.600191       -16.3320
  22   2.0000      -0.570734       -15.5305
  23   2.0000      -0.541555       -14.7365
  24   2.0000      -0.540813       -14.7163
  25   2.0000      -0.521475       -14.1900
  26   2.0000      -0.472497       -12.8573
  27   2.0000      -0.465370       -12.6634
  28   2.0000      -0.451918       -12.2973
  29   0.0000       0.047656         1.2968
  30   0.0000       0.059714         1.6249
  31   0.0000       0.063630         1.7315
  32   0.0000       0.068943         1.8760
  33   0.0000       0.096596         2.6285

MULLIKEN ATOMIC CHARGES
-----------------------
   0 C :   -0.641205
   1 S :    1.094924
   2 O :   -0.583502
   3 F :   -0.132615
   4 O :   -0.550741
   5 C :   -1.186462
   6 H :    0.448943
   7 H :    0.403740
   8 H :    0.390980
   9 H :    0.367228
  10 H :    0.388710
Sum of atomic charges:    0.0000000

LOEWDIN ATOMIC CHARGES
----------------------
   0 C :   -0.287388
   1 S :    0.591253
   2 O :   -0.295488
   3 F :   -0.071045
   4 O :   -0.270093
   5 C :   -0.137263
   6 H :    0.107927
   7 H :    0.112015
   8 H :    0.082489
   9 H :    0.084561
  10 H :    0.083033

  Mayer bond orders larger than 0.100000
B(  0-C ,  1-S ) :   0.8824 B(  0-C ,  5-C ) :   0.5683 B(  0-C ,  6-H ) :   0.8108
B(  0-C ,  7-H ) :   0.8868 B(  1-S ,  2-O ) :   1.6589 B(  1-S ,  3-F ) :   1.0058
B(  1-S ,  4-O ) :   1.7064 B(  5-C ,  8-H ) :   0.9194 B(  5-C ,  9-H ) :   0.9134
B(  5-C , 10-H ) :   0.8956

FINAL SINGLE POINT ENERGY      -726.605424778259

DIPOLE MOMENT
-------------
                                X             Y             Z
Electronic contribution:      6.96009      -4.98320      -4.21719
Nuclear contribution   :     -7.60849       4.87515       5.84588
                        -----------------------------------------
Total Dipole Moment    :     -0.64840      -0.10805       1.62869
                        -----------------------------------------
Magnitude (a.u.)       :      1.75634
Magnitude (Debye)      :      4.46425

Rotational constants in cm-1:     0.153704     0.080342     0.079431
Rotational constants in MHz :  4607.928650  2408.599360  2381.267225

                             ****ORCA TERMINATED NORMALLY****
TOTAL RUN TIME: 0 days 0 hours 0 minutes 42 seconds 564 msec
