                         Program Version 5.0.0 -  RELEASE  -
|  1> !LC-PBE RIJCOSX def2-TZVPD def2/J TightSCF
|  2> *xyz 0 1
|  3> C         -7.33044       -2.67899       -3.20681
|  4> S         -6.01966       -2.92697       -4.41913
|  5> O         -5.64583       -1.58838       -4.91931
|  6> O         -4.88196       -3.50370       -3.66724
|  7> F         -6.54927       -3.80515       -5.42507
|  8> C         -7.46900       -1.24615       -2.71383
|  9> H         -7.11825       -3.37982       -2.39805
| 10> H         -8.24184       -3.00474       -3.70651
| 11> H         -7.67580       -0.60214       -3.54292
| 12> H         -6.55749       -0.94096       -2.24382
| 13> H         -8.27114       -1.18777       -2.00810
| 14> *
| 15> %MaxCore 64000
| 16>
| 17> %pal nprocs 4
| 18> end
| 19>
| 20> %scf
| 21>   MaxIter 150
| 22> end
| 23>
| 24>
| 25>                          ****END OF INPUT****

CARTESIAN COORDINATES (ANGSTROEM)
---------------------------------
  C     -7.330440   -2.678990   -3.206810
  S     -6.019660   -2.926970   -4.419130
  O     -5.645830   -1.588380   -4.919310
  O     -4.881960   -3.503700   -3.667240
  F     -6.549270   -3.805150   -5.425070
  C     -7.469000   -1.246150   -2.713830
  H     -7.118250   -3.379820   -2.398050
  H     -8.241840   -3.004740   -3.706510
  H     -7.675800   -0.602140   -3.542920
  H     -6.557490   -0.940960   -2.243820
  H     -8.271140   -1.187770   -2.008100

 Total Charge           Charge          ....    0
 Multiplicity           Mult            ....    1
 Number of Electrons    NEL             ....   58
 Basis Dimension        Dim             ....  285

ORBITAL ENERGIES
----------------

  NO   OCC          E(Eh)            E(eV)
   0   2.0000     -88.537168     -2409.2188
   1   2.0000     -24.620834      -669.9670
   2   2.0000     -18.985571      -516.6236
   3   2.0000     -18.982587      -516.5424
   4   2.0000     -10.185457      -277.1604
   5   2.0000     -10.133294      -275.7409
   6   2.0000      -8.148408      -221.7295
   7   2.0000      -6.168787      -167.8612
   8   2.0000      -6.161744      -167.6696
   9   2.0000      -6.161295      -167.6574
  10   2.0000      -1.553623       -42.2762
  11   2.0000      -1.267161       -34.4812
  12   2.0000      -1.160891       -31.5894
  13   2.0000      -1.006646       -27.3922
  14   2.0000      -0.904623       -24.6160
  15   2.0000      -0.842312       -22.9205
  16   2.0000      -0.751370       -20.4458
  17   2.0000      -0.748858       -20.3775
  18   2.0000      -0.709141       -19.2967
  19   2.0000      -0.644880       -17.5481
  20   2.0000      -0.630346       -17.1526
  21   2.0000      -0.587353       -15.9827
  22   2.0000      -0.567621       -15.4457
  23   2.0000      -0.544625       -14.8200
  24   2.0000      -0.527103       -14.3432
  25   2.0000      -0.521512       -14.1911
  26   2.0000      -0.464772       -12.6471
  27   2.0000      -0.457362       -12.4455
  28   2.0000      -0.437879       -11.9153
  29   0.0000       0.044249         1.2041
  30   0.0000       0.058211         1.5840
  31   0.0000       0.063204         1.7199
  32   0.0000       0.070201         1.9103
  33   0.0000       0.096946         2.6380

MULLIKEN ATOMIC CHARGES
-----------------------
   0 C :   -0.636910
   1 S :    1.078450
   2 O :   -0.579265
   3 O :   -0.575965
   4 F :   -0.085567
   5 C :   -1.210996
   6 H :    0.420096
   7 H :    0.437357
   8 H :    0.394087
   9 H :    0.370016
  10 H :    0.388697
Sum of atomic charges:    0.0000000

LOEWDIN ATOMIC CHARGES
----------------------
   0 C :   -0.292207
   1 S :    0.590705
   2 O :   -0.296407
   3 O :   -0.303342
   4 F :   -0.035769
   5 C :   -0.132092
   6 H :    0.111488
   7 H :    0.103248
   8 H :    0.080986
   9 H :    0.089349
  10 H :    0.084042

  Mayer bond orders larger than 0.100000
B(  0-C ,  1-S ) :   0.8836 B(  0-C ,  5-C ) :   0.5974 B(  0-C ,  6-H ) :   0.8809
B(  0-C ,  7-H ) :   0.8157 B(  1-S ,  2-O ) :   1.6677 B(  1-S ,  3-O ) :   1.6742
B(  1-S ,  4-F ) :   1.0501 B(  5-C ,  8-H ) :   0.8991 B(  5-C ,  9-H ) :   0.9294
B(  5-C , 10-H ) :   0.8875

FINAL SINGLE POINT ENERGY      -726.586468005242

DIPOLE MOMENT
-------------
                                X             Y             Z
Electronic contribution:      4.08273      -5.48361      -7.25178
Nuclear contribution   :     -5.87110       5.18927       7.67759
                        -----------------------------------------
Total Dipole Moment    :     -1.78837      -0.29433       0.42582
                        -----------------------------------------
Magnitude (a.u.)       :      1.86178
Magnitude (Debye)      :      4.73226

Rotational constants in cm-1:     0.155988     0.080452     0.078187
Rotational constants in MHz :  4676.405251  2411.902056  2343.983816

                             ****ORCA TERMINATED NORMALLY****
TOTAL RUN TIME: 0 days 0 hours 0 minutes 46 seconds 751 msec
