                         Program Version 5.0.0 -  RELEASE  -
|  1> !LC-PBE RIJCOSX def2-TZVPD def2/J TightSCF xyzfile
|  2>
|  3> *xyzfile 0 1 D1.xyz
|  4>
|  5> %MaxCore 64000
|  6>
|  7> %pal nprocs 4
|  8> end
|  9>
| 10> %scf
| 11>   MaxIter 150
| 12> end
| 13>
| 14>
| 15>                          ****END OF INPUT****

CARTESIAN COORDINATES (ANGSTROEM)
---------------------------------
  C     -2.160376   -1.369486   -3.467104
  C     -3.030108   -1.910857   -4.541074
  C     -2.047717    0.146583   -3.511774
  C     -7.330440   -2.678991   -3.206811
  S     -6.019659   -2.926965   -4.419128
  H     -3.477443   -2.791513   -4.257096
  H     -2.538013   -2.017860   -5.438075
  H     -3.891589   -1.376039   -4.714365
  F     -5.645830   -1.588384   -4.919307
  O     -4.881961   -3.503697   -3.667235
  H     -1.184438   -1.843997   -3.566393
  H     -2.598195   -1.708376   -2.528477
  O     -6.549267   -3.805150   -5.425071
  C     -3.328755    0.875037   -3.103669
  H     -1.740034    0.452343   -4.517126
  H     -1.232611    0.434938   -2.842208
  C     -3.628487    0.771601   -1.609363
  H     -4.175106    0.490791   -3.682203
  H     -3.237812    1.928663   -3.381480
  C     -4.975718    1.361432   -1.190644
  H     -2.830700    1.276234   -1.054766
  H     -3.594312   -0.275838   -1.294603
  C     -6.184720    0.784347   -1.926464
  H     -4.956292    2.445725   -1.342200
  H     -5.097256    1.205252   -0.114136
  C     -6.286921   -0.735882   -1.893531
  H     -6.163994    1.100199   -2.974250
  H     -7.094530    1.223459   -1.504509
  C     -7.468999   -1.246153   -2.713833
  H     -6.360641   -1.090347   -0.859176
  H     -5.369848   -1.171853   -2.295982
  H     -7.601914   -0.601349   -3.585329
  H     -8.389791   -1.173436   -2.126922
  H     -7.118254   -3.379818   -2.398055
  H     -8.241838   -3.004745   -3.706513

 Total Charge           Charge          ....    0
 Multiplicity           Mult            ....    1
 Number of Electrons    NEL             ....  122
 Basis Dimension        Dim             ....  725

ORBITAL ENERGIES
----------------

  NO   OCC          E(Eh)            E(eV)
   0   2.0000     -88.539424     -2409.2802
   1   2.0000     -24.604746      -669.5292
   2   2.0000     -19.001552      -517.0585
   3   2.0000     -18.986056      -516.6369
   4   2.0000     -10.183426      -277.1051
   5   2.0000     -10.150701      -276.2146
   6   2.0000     -10.128219      -275.6028
   7   2.0000     -10.120400      -275.3901
   8   2.0000     -10.113304      -275.1970
   9   2.0000     -10.106089      -275.0007
  10   2.0000     -10.103605      -274.9331
  11   2.0000     -10.095954      -274.7249
  12   2.0000     -10.085771      -274.4478
  13   2.0000     -10.035996      -273.0933
  14   2.0000      -8.150932      -221.7981
  15   2.0000      -6.171526      -167.9358
  16   2.0000      -6.164077      -167.7331
  17   2.0000      -6.163859      -167.7271
  18   2.0000      -1.528178       -41.5838
  19   2.0000      -1.287510       -35.0349
  20   2.0000      -1.184287       -32.2261
  21   2.0000      -1.031884       -28.0790
  22   2.0000      -0.999731       -27.2041
  23   2.0000      -0.968286       -26.3484
  24   2.0000      -0.936398       -25.4807
  25   2.0000      -0.890570       -24.2337
  26   2.0000      -0.874348       -23.7922
  27   2.0000      -0.838453       -22.8155
  28   2.0000      -0.802586       -21.8395
  29   2.0000      -0.785693       -21.3798
  30   2.0000      -0.752211       -20.4687
  31   2.0000      -0.741872       -20.1874
  32   2.0000      -0.725646       -19.7458
  33   2.0000      -0.704746       -19.1771
  34   2.0000      -0.701747       -19.0955
  35   2.0000      -0.648483       -17.6461
  36   2.0000      -0.640131       -17.4189
  37   2.0000      -0.627282       -17.0692
  38   2.0000      -0.617577       -16.8051
  39   2.0000      -0.610833       -16.6216
  40   2.0000      -0.595228       -16.1970
  41   2.0000      -0.581271       -15.8172
  42   2.0000      -0.574794       -15.6409
  43   2.0000      -0.569426       -15.4949
  44   2.0000      -0.553825       -15.0703
  45   2.0000      -0.536918       -14.6103
  46   2.0000      -0.529242       -14.4014
  47   2.0000      -0.528296       -14.3757
  48   2.0000      -0.509666       -13.8687
  49   2.0000      -0.500427       -13.6173
  50   2.0000      -0.489486       -13.3196
  51   2.0000      -0.485822       -13.2199
  52   2.0000      -0.471732       -12.8365
  53   2.0000      -0.466514       -12.6945
  54   2.0000      -0.459129       -12.4935
  55   2.0000      -0.453563       -12.3421
  56   2.0000      -0.448232       -12.1970
  57   2.0000      -0.439857       -11.9691
  58   2.0000      -0.429217       -11.6796
  59   2.0000      -0.425714       -11.5843
  60   2.0000      -0.404043       -10.9946
  61   0.0000       0.043823         1.1925
  62   0.0000       0.054486         1.4826
  63   0.0000       0.064608         1.7581
  64   0.0000       0.068924         1.8755
  65   0.0000       0.079788         2.1711

MULLIKEN ATOMIC CHARGES
-----------------------
   0 C :   -0.367920
   1 C :   -1.978018
   2 C :   -0.799212
   3 C :   -0.899007
   4 S :    1.198612
   5 H :    0.807179
   6 H :    0.527103
   7 H :    0.479344
   8 F :   -0.181500
   9 O :   -0.632101
  10 H :    0.362282
  11 H :    0.283456
  12 O :   -0.589773
  13 C :   -0.385161
  14 H :    0.359032
  15 H :    0.353396
  16 C :   -0.728369
  17 H :    0.151189
  18 H :    0.345521
  19 C :   -0.906993
  20 H :    0.390239
  21 H :    0.322791
  22 C :   -0.967270
  23 H :    0.366878
  24 H :    0.371843
  25 C :   -0.093032
  26 H :    0.466249
  27 H :    0.376097
  28 C :   -0.967091
  29 H :    0.362466
  30 H :    0.191002
  31 H :    0.435179
  32 H :    0.464488
  33 H :    0.427586
  34 H :    0.453517
Sum of atomic charges:    0.0000000

LOEWDIN ATOMIC CHARGES
----------------------
   0 C :   -0.254984
   1 C :   -0.153720
   2 C :   -0.228768
   3 C :   -0.220447
   4 S :    0.628364
   5 H :    0.005964
   6 H :    0.081523
   7 H :    0.024215
   8 F :   -0.079487
   9 O :   -0.298656
  10 H :    0.120349
  11 H :    0.111785
  12 O :   -0.249390
  13 C :   -0.226231
  14 H :    0.122941
  15 H :    0.116848
  16 C :   -0.234742
  17 H :    0.099943
  18 H :    0.125522
  19 C :   -0.227622
  20 H :    0.124807
  21 H :    0.109234
  22 C :   -0.235589
  23 H :    0.120379
  24 H :    0.119534
  25 C :   -0.229403
  26 H :    0.117542
  27 H :    0.125399
  28 C :   -0.248473
  29 H :    0.139732
  30 H :    0.100004
  31 H :    0.120415
  32 H :    0.132567
  33 H :    0.126523
  34 H :    0.113924

  Mayer bond orders larger than 0.100000
B(  0-C ,  1-C ) :   0.3212 B(  0-C ,  2-C ) :   0.7264 B(  0-C ,  7-H ) :  -0.1271
B(  0-C , 10-H ) :   0.9192 B(  0-C , 11-H ) :   0.9893 B(  1-C ,  5-H ) :   0.5079
B(  1-C ,  6-H ) :   0.6960 B(  1-C ,  7-H ) :   0.9121 B(  1-C ,  8-F ) :   0.2339
B(  1-C ,  9-O ) :   0.1826 B(  2-C , 13-C ) :   0.8345 B(  2-C , 14-H ) :   0.9299
B(  2-C , 15-H ) :   0.9036 B(  3-C ,  4-S ) :   0.9361 B(  3-C , 12-O ) :   0.1465
B(  3-C , 28-C ) :   0.7134 B(  3-C , 33-H ) :   0.8452 B(  3-C , 34-H ) :   0.9513
B(  4-S ,  8-F ) :   1.0441 B(  4-S ,  9-O ) :   1.5826 B(  4-S , 12-O ) :   1.4629
B(  5-H ,  6-H ) :   0.1142 B(  5-H ,  9-O ) :  -0.2955 B(  7-H ,  8-F ) :  -0.2572
B( 13-C , 16-C ) :   0.4534 B( 13-C , 17-H ) :   1.0500 B( 13-C , 18-H ) :   0.9111
B( 13-C , 21-H ) :  -0.1183 B( 13-C , 22-C ) :   0.1036 B( 16-C , 19-C ) :   0.8224
B( 16-C , 20-H ) :   0.8754 B( 16-C , 21-H ) :   1.0436 B( 19-C , 22-C ) :   0.8453
B( 19-C , 23-H ) :   0.9631 B( 19-C , 24-H ) :   0.9457 B( 22-C , 25-C ) :   0.4350
B( 22-C , 26-H ) :   0.8976 B( 22-C , 27-H ) :   0.8704 B( 22-C , 28-C ) :   0.2397
B( 25-C , 28-C ) :   0.3688 B( 25-C , 29-H ) :   0.8399 B( 25-C , 30-H ) :   1.0016
B( 28-C , 31-H ) :   0.8675 B( 28-C , 32-H ) :   0.8379 B( 29-H , 30-H ) :   0.2025

FINAL SINGLE POINT ENERGY     -1040.053867688388

DIPOLE MOMENT
-------------
                                X             Y             Z
Electronic contribution:    -10.89339     -16.14988     -13.14452
Nuclear contribution   :      9.63012      17.20461      14.03552
                        -----------------------------------------
Total Dipole Moment    :     -1.26327       1.05473       0.89100
                        -----------------------------------------
Magnitude (a.u.)       :      1.87141
Magnitude (Debye)      :      4.75675

Rotational constants in cm-1:     0.025899     0.015189     0.010690
Rotational constants in MHz :   776.424978   455.369614   320.488876

                             ****ORCA TERMINATED NORMALLY****
TOTAL RUN TIME: 0 days 0 hours 7 minutes 32 seconds 131 msec
