                         Program Version 5.0.0 -  RELEASE  -
|  1> !LC-PBE RIJCOSX def2-TZVPD def2/J TightSCF xyzfile
|  2>
|  3> *xyzfile 0 1 D2.xyz
|  4>
|  5> %MaxCore 64000
|  6>
|  7> %pal nprocs 4
|  8> end
|  9>
| 10> %scf
| 11>   MaxIter 150
| 12> end
| 13>
| 14>
| 15>                          ****END OF INPUT****

CARTESIAN COORDINATES (ANGSTROEM)
---------------------------------
  C     -2.160376   -1.369486   -3.467104
  C     -3.030108   -1.910857   -4.541074
  C     -2.047717    0.146583   -3.511774
  C     -7.330440   -2.678991   -3.206811
  S     -6.019659   -2.926965   -4.419128
  H     -3.477443   -2.791513   -4.257096
  H     -2.538013   -2.017860   -5.438075
  H     -3.891589   -1.376039   -4.714365
  O     -5.645830   -1.588384   -4.919307
  F     -4.881961   -3.503697   -3.667235
  H     -1.184438   -1.843997   -3.566393
  H     -2.598195   -1.708376   -2.528477
  O     -6.549267   -3.805150   -5.425071
  C     -3.328755    0.875037   -3.103669
  H     -1.740034    0.452343   -4.517126
  H     -1.232611    0.434938   -2.842208
  C     -3.628487    0.771601   -1.609363
  H     -4.175106    0.490791   -3.682203
  H     -3.237812    1.928663   -3.381480
  C     -4.975718    1.361432   -1.190644
  H     -2.830700    1.276234   -1.054766
  H     -3.594312   -0.275838   -1.294603
  C     -6.184720    0.784347   -1.926464
  H     -4.956292    2.445725   -1.342200
  H     -5.097256    1.205252   -0.114136
  C     -6.286921   -0.735882   -1.893531
  H     -6.163994    1.100199   -2.974250
  H     -7.094530    1.223459   -1.504509
  C     -7.468999   -1.246153   -2.713833
  H     -6.360641   -1.090347   -0.859176
  H     -5.369848   -1.171853   -2.295982
  H     -7.601914   -0.601349   -3.585329
  H     -8.389791   -1.173436   -2.126922
  H     -7.118254   -3.379818   -2.398055
  H     -8.241838   -3.004745   -3.706513

 Total Charge           Charge          ....    0
 Multiplicity           Mult            ....    1
 Number of Electrons    NEL             ....  122
 Basis Dimension        Dim             ....  725

ORBITAL ENERGIES
----------------

  NO   OCC          E(Eh)            E(eV)
   0   2.0000     -88.539743     -2409.2889
   1   2.0000     -24.602544      -669.4693
   2   2.0000     -19.001791      -517.0650
   3   2.0000     -18.989632      -516.7342
   4   2.0000     -10.184265      -277.1279
   5   2.0000     -10.143264      -276.0122
   6   2.0000     -10.124760      -275.5087
   7   2.0000     -10.114452      -275.2282
   8   2.0000     -10.109440      -275.0918
   9   2.0000     -10.103283      -274.9243
  10   2.0000     -10.097523      -274.7676
  11   2.0000     -10.094777      -274.6929
  12   2.0000     -10.088591      -274.5245
  13   2.0000     -10.039290      -273.1830
  14   2.0000      -8.151219      -221.8060
  15   2.0000      -6.171753      -167.9419
  16   2.0000      -6.164560      -167.7462
  17   2.0000      -6.164018      -167.7314
  18   2.0000      -1.526550       -41.5395
  19   2.0000      -1.288475       -35.0612
  20   2.0000      -1.186608       -32.2892
  21   2.0000      -1.026469       -27.9316
  22   2.0000      -0.996854       -27.1258
  23   2.0000      -0.967096       -26.3160
  24   2.0000      -0.936584       -25.4858
  25   2.0000      -0.890323       -24.2269
  26   2.0000      -0.874609       -23.7993
  27   2.0000      -0.834365       -22.7042
  28   2.0000      -0.798802       -21.7365
  29   2.0000      -0.784292       -21.3417
  30   2.0000      -0.741232       -20.1700
  31   2.0000      -0.735233       -20.0067
  32   2.0000      -0.730252       -19.8712
  33   2.0000      -0.711940       -19.3729
  34   2.0000      -0.699204       -19.0263
  35   2.0000      -0.655172       -17.8281
  36   2.0000      -0.634041       -17.2531
  37   2.0000      -0.625853       -17.0303
  38   2.0000      -0.618590       -16.8327
  39   2.0000      -0.609528       -16.5861
  40   2.0000      -0.588939       -16.0258
  41   2.0000      -0.576119       -15.6770
  42   2.0000      -0.573047       -15.5934
  43   2.0000      -0.568519       -15.4702
  44   2.0000      -0.547612       -14.9013
  45   2.0000      -0.540745       -14.7144
  46   2.0000      -0.526821       -14.3355
  47   2.0000      -0.518805       -14.1174
  48   2.0000      -0.508545       -13.8382
  49   2.0000      -0.497723       -13.5437
  50   2.0000      -0.490285       -13.3413
  51   2.0000      -0.476827       -12.9751
  52   2.0000      -0.468462       -12.7475
  53   2.0000      -0.466139       -12.6843
  54   2.0000      -0.458976       -12.4894
  55   2.0000      -0.456136       -12.4121
  56   2.0000      -0.446102       -12.1390
  57   2.0000      -0.439292       -11.9537
  58   2.0000      -0.426224       -11.5981
  59   2.0000      -0.422955       -11.5092
  60   2.0000      -0.412863       -11.2346
  61   0.0000       0.043201         1.1756
  62   0.0000       0.056025         1.5245
  63   0.0000       0.063816         1.7365
  64   0.0000       0.069671         1.8959
  65   0.0000       0.080795         2.1985

MULLIKEN ATOMIC CHARGES
-----------------------
   0 C :   -0.336268
   1 C :   -2.010136
   2 C :   -0.812841
   3 C :   -1.045767
   4 S :    1.213216
   5 H :    0.658864
   6 H :    0.504996
   7 H :    0.651814
   8 O :   -0.640384
   9 F :   -0.162991
  10 H :    0.351354
  11 H :    0.293340
  12 O :   -0.585252
  13 C :   -0.427384
  14 H :    0.362240
  15 H :    0.357192
  16 C :   -0.733187
  17 H :    0.212335
  18 H :    0.337214
  19 C :   -0.891656
  20 H :    0.390520
  21 H :    0.314433
  22 C :   -1.049620
  23 H :    0.364500
  24 H :    0.369668
  25 C :    0.000416
  26 H :    0.480348
  27 H :    0.386793
  28 C :   -0.853716
  29 H :    0.379186
  30 H :    0.054772
  31 H :    0.465242
  32 H :    0.478547
  33 H :    0.476848
  34 H :    0.445366
Sum of atomic charges:    0.0000000

LOEWDIN ATOMIC CHARGES
----------------------
   0 C :   -0.259289
   1 C :   -0.148736
   2 C :   -0.226410
   3 C :   -0.224038
   4 S :    0.629078
   5 H :    0.025096
   6 H :    0.083309
   7 H :    0.010635
   8 O :   -0.290035
   9 F :   -0.091036
  10 H :    0.118063
  11 H :    0.108265
  12 O :   -0.250085
  13 C :   -0.222886
  14 H :    0.124129
  15 H :    0.116410
  16 C :   -0.236391
  17 H :    0.104482
  18 H :    0.125867
  19 C :   -0.228116
  20 H :    0.123848
  21 H :    0.106657
  22 C :   -0.231862
  23 H :    0.120334
  24 H :    0.118436
  25 C :   -0.231767
  26 H :    0.121405
  27 H :    0.125386
  28 C :   -0.246026
  29 H :    0.136305
  30 H :    0.097719
  31 H :    0.123390
  32 H :    0.132517
  33 H :    0.118216
  34 H :    0.117130

  Mayer bond orders larger than 0.100000
B(  0-C ,  1-C ) :   0.2152 B(  0-C ,  2-C ) :   0.7706 B(  0-C ,  7-H ) :  -0.1254
B(  0-C , 10-H ) :   0.9447 B(  0-C , 11-H ) :   0.9703 B(  1-C ,  5-H ) :   0.6340
B(  1-C ,  6-H ) :   0.7348 B(  1-C ,  7-H ) :   0.7112 B(  1-C ,  8-O ) :   0.2718
B(  1-C ,  9-F ) :   0.1584 B(  2-C , 13-C ) :   0.8220 B(  2-C , 14-H ) :   0.9188
B(  2-C , 15-H ) :   0.9094 B(  3-C ,  4-S ) :   0.9527 B(  3-C , 12-O ) :   0.1482
B(  3-C , 28-C ) :   0.6379 B(  3-C , 33-H ) :   0.7952 B(  3-C , 34-H ) :   0.9465
B(  4-S ,  8-O ) :   1.6657 B(  4-S ,  9-F ) :   0.9254 B(  4-S , 12-O ) :   1.4913
B(  5-H ,  6-H ) :   0.1069 B(  5-H ,  9-F ) :  -0.1556 B(  7-H ,  8-O ) :  -0.2916
B(  8-O , 28-C ) :   0.1060 B( 13-C , 16-C ) :   0.4345 B( 13-C , 17-H ) :   1.0320
B( 13-C , 18-H ) :   0.9230 B( 13-C , 21-H ) :  -0.1219 B( 13-C , 22-C ) :   0.1075
B( 16-C , 19-C ) :   0.8203 B( 16-C , 20-H ) :   0.8791 B( 16-C , 21-H ) :   1.0496
B( 19-C , 22-C ) :   0.8340 B( 19-C , 23-H ) :   0.9605 B( 19-C , 24-H ) :   0.9473
B( 22-C , 25-C ) :   0.4635 B( 22-C , 26-H ) :   0.8746 B( 22-C , 27-H ) :   0.8606
B( 22-C , 28-C ) :   0.2801 B( 22-C , 30-H ) :   0.1248 B( 25-C , 28-C ) :   0.5115
B( 25-C , 29-H ) :   0.8428 B( 25-C , 30-H ) :   0.9704 B( 28-C , 31-H ) :   0.8092
B( 28-C , 32-H ) :   0.8256 B( 29-H , 30-H ) :   0.1624

FINAL SINGLE POINT ENERGY     -1040.057223147080

DIPOLE MOMENT
-------------
                                X             Y             Z
Electronic contribution:     -9.54518     -19.50924     -11.03904
Nuclear contribution   :      8.71934      19.48829      12.54264
                        -----------------------------------------
Total Dipole Moment    :     -0.82584      -0.02095       1.50360
                        -----------------------------------------
Magnitude (a.u.)       :      1.71559
Magnitude (Debye)      :      4.36069

Rotational constants in cm-1:     0.025810     0.015137     0.010647
Rotational constants in MHz :   773.773140   453.802427   319.195213

                             ****ORCA TERMINATED NORMALLY****
TOTAL RUN TIME: 0 days 0 hours 7 minutes 26 seconds 153 msec
