                         Program Version 5.0.0 -  RELEASE  -
|  1> !LC-PBE RIJCOSX def2-TZVPD def2/J TightSCF xyzfile
|  2>
|  3> *xyzfile 0 1 D3.xyz
|  4>
|  5> %MaxCore 64000
|  6>
|  7> %pal nprocs 4
|  8> end
|  9>
| 10> %scf
| 11>   MaxIter 150
| 12> end
| 13>
| 14>
| 15>                          ****END OF INPUT****

CARTESIAN COORDINATES (ANGSTROEM)
---------------------------------
  C     -2.160376   -1.369486   -3.467104
  C     -3.030108   -1.910857   -4.541074
  C     -2.047717    0.146583   -3.511774
  C     -7.330440   -2.678991   -3.206811
  S     -6.019659   -2.926965   -4.419128
  H     -3.477443   -2.791513   -4.257096
  H     -2.538013   -2.017860   -5.438075
  H     -3.891589   -1.376039   -4.714365
  O     -5.645830   -1.588384   -4.919307
  O     -4.881961   -3.503697   -3.667235
  H     -1.184438   -1.843997   -3.566393
  H     -2.598195   -1.708376   -2.528477
  F     -6.549267   -3.805150   -5.425071
  C     -3.328755    0.875037   -3.103669
  H     -1.740034    0.452343   -4.517126
  H     -1.232611    0.434938   -2.842208
  C     -3.628487    0.771601   -1.609363
  H     -4.175106    0.490791   -3.682203
  H     -3.237812    1.928663   -3.381480
  C     -4.975718    1.361432   -1.190644
  H     -2.830700    1.276234   -1.054766
  H     -3.594312   -0.275838   -1.294603
  C     -6.184720    0.784347   -1.926464
  H     -4.956292    2.445725   -1.342200
  H     -5.097256    1.205252   -0.114136
  C     -6.286921   -0.735882   -1.893531
  H     -6.163994    1.100199   -2.974250
  H     -7.094530    1.223459   -1.504509
  C     -7.468999   -1.246153   -2.713833
  H     -6.360641   -1.090347   -0.859176
  H     -5.369848   -1.171853   -2.295982
  H     -7.601914   -0.601349   -3.585329
  H     -8.389791   -1.173436   -2.126922
  H     -7.118254   -3.379818   -2.398055
  H     -8.241838   -3.004745   -3.706513

 Total Charge           Charge          ....    0
 Multiplicity           Mult            ....    1
 Number of Electrons    NEL             ....  122
 Basis Dimension        Dim             ....  725

ORBITAL ENERGIES
----------------

  NO   OCC          E(Eh)            E(eV)
   0   2.0000     -88.546264     -2409.4663
   1   2.0000     -24.628025      -670.1626
   2   2.0000     -18.994448      -516.8652
   3   2.0000     -18.991295      -516.7794
   4   2.0000     -10.186600      -277.1915
   5   2.0000     -10.143951      -276.0310
   6   2.0000     -10.116685      -275.2890
   7   2.0000     -10.108888      -275.0768
   8   2.0000     -10.103054      -274.9181
   9   2.0000     -10.094653      -274.6895
  10   2.0000     -10.088498      -274.5220
  11   2.0000     -10.082713      -274.3646
  12   2.0000     -10.071210      -274.0516
  13   2.0000     -10.013039      -272.4687
  14   2.0000      -8.157715      -221.9827
  15   2.0000      -6.178128      -168.1154
  16   2.0000      -6.170909      -167.9190
  17   2.0000      -6.170681      -167.9128
  18   2.0000      -1.560961       -42.4759
  19   2.0000      -1.281511       -34.8717
  20   2.0000      -1.175210       -31.9791
  21   2.0000      -1.025019       -27.8922
  22   2.0000      -0.989942       -26.9377
  23   2.0000      -0.957482       -26.0544
  24   2.0000      -0.932438       -25.3729
  25   2.0000      -0.892339       -24.2818
  26   2.0000      -0.869621       -23.6636
  27   2.0000      -0.830469       -22.5982
  28   2.0000      -0.793703       -21.5977
  29   2.0000      -0.773275       -21.0419
  30   2.0000      -0.759302       -20.6617
  31   2.0000      -0.749674       -20.3997
  32   2.0000      -0.723242       -19.6804
  33   2.0000      -0.714966       -19.4552
  34   2.0000      -0.688293       -18.7294
  35   2.0000      -0.651079       -17.7168
  36   2.0000      -0.637325       -17.3425
  37   2.0000      -0.622324       -16.9343
  38   2.0000      -0.616201       -16.7677
  39   2.0000      -0.607170       -16.5219
  40   2.0000      -0.591655       -16.0998
  41   2.0000      -0.573081       -15.5943
  42   2.0000      -0.561347       -15.2750
  43   2.0000      -0.558182       -15.1889
  44   2.0000      -0.547033       -14.8855
  45   2.0000      -0.525434       -14.2978
  46   2.0000      -0.521615       -14.1939
  47   2.0000      -0.512551       -13.9472
  48   2.0000      -0.497480       -13.5371
  49   2.0000      -0.489304       -13.3146
  50   2.0000      -0.479504       -13.0480
  51   2.0000      -0.469302       -12.7704
  52   2.0000      -0.468135       -12.7386
  53   2.0000      -0.460730       -12.5371
  54   2.0000      -0.452636       -12.3169
  55   2.0000      -0.441691       -12.0190
  56   2.0000      -0.433805       -11.8044
  57   2.0000      -0.428076       -11.6485
  58   2.0000      -0.412404       -11.2221
  59   2.0000      -0.404447       -11.0056
  60   2.0000      -0.390873       -10.6362
  61   0.0000       0.033740         0.9181
  62   0.0000       0.054720         1.4890
  63   0.0000       0.056713         1.5432
  64   0.0000       0.071688         1.9507
  65   0.0000       0.082191         2.2365

MULLIKEN ATOMIC CHARGES
-----------------------
   0 C :   -0.348683
   1 C :   -2.013820
   2 C :   -0.795428
   3 C :   -1.062061
   4 S :    1.188680
   5 H :    0.702693
   6 H :    0.507356
   7 H :    0.609934
   8 O :   -0.644660
   9 O :   -0.624916
  10 H :    0.357012
  11 H :    0.278907
  12 F :   -0.069664
  13 C :   -0.417203
  14 H :    0.356577
  15 H :    0.354378
  16 C :   -0.733605
  17 H :    0.194464
  18 H :    0.338650
  19 C :   -0.895562
  20 H :    0.390139
  21 H :    0.319269
  22 C :   -1.009766
  23 H :    0.362956
  24 H :    0.368430
  25 C :   -0.073465
  26 H :    0.477835
  27 H :    0.382097
  28 C :   -0.888431
  29 H :    0.369465
  30 H :    0.138912
  31 H :    0.449125
  32 H :    0.468174
  33 H :    0.431666
  34 H :    0.530544
Sum of atomic charges:   -0.0000000

LOEWDIN ATOMIC CHARGES
----------------------
   0 C :   -0.258942
   1 C :   -0.159854
   2 C :   -0.229450
   3 C :   -0.227985
   4 S :    0.650582
   5 H :    0.004489
   6 H :    0.078581
   7 H :    0.010671
   8 O :   -0.289220
   9 O :   -0.296038
  10 H :    0.116856
  11 H :    0.110007
  12 F :   -0.018895
  13 C :   -0.224094
  14 H :    0.122285
  15 H :    0.114742
  16 C :   -0.235838
  17 H :    0.103846
  18 H :    0.124343
  19 C :   -0.228894
  20 H :    0.123284
  21 H :    0.108494
  22 C :   -0.233618
  23 H :    0.119483
  24 H :    0.117989
  25 C :   -0.227536
  26 H :    0.120357
  27 H :    0.123809
  28 C :   -0.243445
  29 H :    0.137200
  30 H :    0.102361
  31 H :    0.121581
  32 H :    0.132593
  33 H :    0.121437
  34 H :    0.108817

  Mayer bond orders larger than 0.100000
B(  0-C ,  1-C ) :   0.2562 B(  0-C ,  2-C ) :   0.7401 B(  0-C ,  7-H ) :  -0.1207
B(  0-C , 10-H ) :   0.9287 B(  0-C , 11-H ) :   0.9828 B(  1-C ,  5-H ) :   0.6464
B(  1-C ,  6-H ) :   0.7522 B(  1-C ,  7-H ) :   0.7745 B(  1-C ,  8-O ) :   0.2339
B(  1-C ,  9-O ) :   0.1428 B(  2-C , 13-C ) :   0.8199 B(  2-C , 14-H ) :   0.9265
B(  2-C , 15-H ) :   0.9049 B(  3-C ,  4-S ) :   0.9244 B(  3-C ,  9-O ) :   0.1083
B(  3-C , 28-C ) :   0.7176 B(  3-C , 33-H ) :   0.8612 B(  3-C , 34-H ) :   0.7983
B(  4-S ,  8-O ) :   1.6678 B(  4-S ,  9-O ) :   1.6168 B(  4-S , 12-F ) :   0.9275
B(  5-H ,  6-H ) :   0.1115 B(  5-H ,  9-O ) :  -0.2763 B(  7-H ,  8-O ) :  -0.3310
B(  8-O ,  9-O ) :   0.1428 B( 13-C , 16-C ) :   0.4470 B( 13-C , 17-H ) :   1.0371
B( 13-C , 18-H ) :   0.9173 B( 13-C , 21-H ) :  -0.1152 B( 13-C , 22-C ) :   0.1116
B( 16-C , 19-C ) :   0.8140 B( 16-C , 20-H ) :   0.8781 B( 16-C , 21-H ) :   1.0459
B( 19-C , 22-C ) :   0.8389 B( 19-C , 23-H ) :   0.9636 B( 19-C , 24-H ) :   0.9465
B( 22-C , 25-C ) :   0.4402 B( 22-C , 26-H ) :   0.8836 B( 22-C , 27-H ) :   0.8624
B( 22-C , 28-C ) :   0.2727 B( 25-C , 28-C ) :   0.5225 B( 25-C , 29-H ) :   0.8322
B( 25-C , 30-H ) :   0.9877 B( 28-C , 31-H ) :   0.8125 B( 28-C , 32-H ) :   0.8334
B( 29-H , 30-H ) :   0.1910

FINAL SINGLE POINT ENERGY     -1040.038563164189

DIPOLE MOMENT
-------------
                                X             Y             Z
Electronic contribution:    -12.72158     -20.29409     -14.29145
Nuclear contribution   :     10.70731      19.84772      14.63855
                        -----------------------------------------
Total Dipole Moment    :     -2.01427      -0.44637       0.34710
                        -----------------------------------------
Magnitude (a.u.)       :      2.09213
Magnitude (Debye)      :      5.31776

Rotational constants in cm-1:     0.026014     0.014812     0.010477
Rotational constants in MHz :   779.874765   444.063394   314.081855

                             ****ORCA TERMINATED NORMALLY****
TOTAL RUN TIME: 0 days 0 hours 7 minutes 30 seconds 333 msec
