                         Program Version 5.0.0 -  RELEASE  -
|  1> !wB97X-D3 RIJCOSX def2-TZVPD def2/J TightSCF
|  2> *xyz -1 1
|  3> C         -0.98480        1.28474       -2.92869
|  4> C         -0.10608        1.76991       -4.08984
|  5> H         -0.34774        2.82220       -4.26294
|  6> H          0.94968        1.74588       -3.80878
|  7> C         -0.25875        1.00432       -5.40983
|  8> C          0.39596       -0.37070       -5.33994
|  9> H          0.23915        1.56939       -6.20125
| 10> H         -1.30936        0.88869       -5.68245
| 11> O         -0.32633       -1.39040       -5.49128
| 12> O          1.61941       -0.40073       -5.03683
| 13> H         -2.01317        1.31546       -3.22263
| 14> H         -0.83724        1.91975       -2.08023
| 15> H         -0.71656        0.28077       -2.67373
| 16> *
| 17> %MaxCore 64000
| 18>
| 19> %pal nprocs 18
| 20> end
| 21>
| 22> %scf
| 23>   MaxIter 150
| 24> end
| 25>
| 26>
| 27>                          ****END OF INPUT****

CARTESIAN COORDINATES (ANGSTROEM)
---------------------------------
  C     -0.984800    1.284740   -2.928690
  C     -0.106080    1.769910   -4.089840
  H     -0.347740    2.822200   -4.262940
  H      0.949680    1.745880   -3.808780
  C     -0.258750    1.004320   -5.409830
  C      0.395960   -0.370700   -5.339940
  H      0.239150    1.569390   -6.201250
  H     -1.309360    0.888690   -5.682450
  O     -0.326330   -1.390400   -5.491280
  O      1.619410   -0.400730   -5.036830
  H     -2.013170    1.315460   -3.222630
  H     -0.837240    1.919750   -2.080230
  H     -0.716560    0.280770   -2.673730

 Total Charge           Charge          ....   -1
 Multiplicity           Mult            ....    1
 Number of Electrons    NEL             ....   48
 Basis Dimension        Dim             ....  291

ORBITAL ENERGIES
----------------

  NO   OCC          E(Eh)            E(eV)
   0   2.0000     -18.966107      -516.0940
   1   2.0000     -18.964800      -516.0584
   2   2.0000     -10.160099      -276.4703
   3   2.0000     -10.126105      -275.5453
   4   2.0000     -10.123535      -275.4754
   5   2.0000     -10.102816      -274.9116
   6   2.0000      -0.936179       -25.4747
   7   2.0000      -0.840144       -22.8615
   8   2.0000      -0.755511       -20.5585
   9   2.0000      -0.660652       -17.9773
  10   2.0000      -0.557308       -15.1651
  11   2.0000      -0.435505       -11.8507
  12   2.0000      -0.406392       -11.0585
  13   2.0000      -0.391162       -10.6440
  14   2.0000      -0.359341        -9.7782
  15   2.0000      -0.336161        -9.1474
  16   2.0000      -0.315503        -8.5853
  17   2.0000      -0.304973        -8.2987
  18   2.0000      -0.287158        -7.8140
  19   2.0000      -0.270126        -7.3505
  20   2.0000      -0.257374        -7.0035
  21   2.0000      -0.141619        -3.8536
  22   2.0000      -0.137472        -3.7408
  23   2.0000      -0.123460        -3.3595
  24   0.0000       0.185090         5.0365
  25   0.0000       0.201864         5.4930
  26   0.0000       0.210235         5.7208
  27   0.0000       0.217304         5.9131
  28   0.0000       0.241600         6.5743

MULLIKEN ATOMIC CHARGES
-----------------------
   0 C :   -1.190062
   1 C :   -0.309103
   2 H :    0.233931
   3 H :    0.273702
   4 C :   -0.151785
   5 C :    0.316058
   6 H :    0.207114
   7 H :    0.206598
   8 O :   -0.767684
   9 O :   -0.767099
  10 H :    0.306851
  11 H :    0.304432
  12 H :    0.337047
Sum of atomic charges:   -1.0000000

LOEWDIN ATOMIC CHARGES
----------------------
   0 C :   -0.115741
   1 C :   -0.277120
   2 H :    0.085204
   3 H :    0.096642
   4 C :   -0.170149
   5 C :   -0.761317
   6 H :    0.098689
   7 H :    0.095636
   8 O :   -0.113412
   9 O :   -0.112998
  10 H :    0.057941
  11 H :    0.048892
  12 H :    0.067733

  Mayer bond orders larger than 0.100000
B(  0-C ,  1-C ) :   0.5995 B(  0-C ,  4-C ) :   0.1125 B(  0-C ,  5-C ) :   0.1001
B(  0-C , 10-H ) :   0.9684 B(  0-C , 11-H ) :   0.9376 B(  0-C , 12-H ) :   0.9612
B(  1-C ,  2-H ) :   0.9643 B(  1-C ,  3-H ) :   0.9723 B(  1-C ,  4-C ) :   0.7494
B(  1-C ,  5-C ) :   0.1848 B(  4-C ,  5-C ) :   0.8972 B(  4-C ,  6-H ) :   0.9598
B(  4-C ,  7-H ) :   0.9838 B(  5-C ,  8-O ) :   1.4464 B(  5-C ,  9-O ) :   1.4570

Dispersion correction           -0.003300744
FINAL SINGLE POINT ENERGY      -307.188958428238

DIPOLE MOMENT
-------------
                                X             Y             Z
Electronic contribution:      3.12378      -5.65142      -3.87518
Nuclear contribution   :     -4.15791       7.87420       4.69333
                        -----------------------------------------
Total Dipole Moment    :     -1.03414       2.22278       0.81816
                        -----------------------------------------
Magnitude (a.u.)       :      2.58449
Magnitude (Debye)      :      6.56925

Rotational constants in cm-1:     0.200385     0.078723     0.072676
Rotational constants in MHz :  6007.394681  2360.059351  2178.761275

                             ****ORCA TERMINATED NORMALLY****
TOTAL RUN TIME: 0 days 0 hours 0 minutes 30 seconds 180 msec
