                         Program Version 5.0.0 -  RELEASE  -
|  1> !wB97X-D3 RIJCOSX def2-TZVPD def2/J TightSCF
|  2> *xyz 1 1
|  3> C          0.81607       -2.10149       -2.18655
|  4> H          1.69623       -2.36869       -1.60046
|  5> N          1.10055       -2.46749       -3.59927
|  6> C          0.51624       -0.61363       -2.03937
|  7> H         -0.02007       -2.71285       -1.84084
|  8> C         -0.86862       -0.19392       -2.54630
|  9> H          1.70061       -1.75723       -4.07838
| 10> H          0.29386       -2.35977       -4.25632
| 11> H          1.50132       -3.42848       -3.69491
| 12> H          1.29904       -0.05680       -2.55898
| 13> H          0.61239       -0.36558       -0.97917
| 14> H         -0.95781       -0.43872       -3.58410
| 15> H         -0.99113        0.86113       -2.41690
| 16> H         -1.62334       -0.71130       -1.99167
| 17> *
| 18> %MaxCore 64000
| 19>
| 20> %pal nprocs 18
| 21> end
| 22>
| 23> %scf
| 24>   MaxIter 150
| 25> end
| 26>
| 27>
| 28>                          ****END OF INPUT****

CARTESIAN COORDINATES (ANGSTROEM)
---------------------------------
  C      0.816070   -2.101490   -2.186550
  H      1.696230   -2.368690   -1.600460
  N      1.100550   -2.467490   -3.599270
  C      0.516240   -0.613630   -2.039370
  H     -0.020070   -2.712850   -1.840840
  C     -0.868620   -0.193920   -2.546300
  H      1.700610   -1.757230   -4.078380
  H      0.293860   -2.359770   -4.256320
  H      1.501320   -3.428480   -3.694910
  H      1.299040   -0.056800   -2.558980
  H      0.612390   -0.365580   -0.979170
  H     -0.957810   -0.438720   -3.584100
  H     -0.991130    0.861130   -2.416900
  H     -1.623340   -0.711300   -1.991670

 Total Charge           Charge          ....    1
 Multiplicity           Mult            ....    1
 Number of Electrons    NEL             ....   34
 Basis Dimension        Dim             ....  238

ORBITAL ENERGIES
----------------

  NO   OCC          E(Eh)            E(eV)
   0   2.0000     -14.755605      -401.5204
   1   2.0000     -10.521858      -286.3143
   2   2.0000     -10.453407      -284.4517
   3   2.0000     -10.416138      -283.4375
   4   2.0000      -1.321799       -35.9680
   5   2.0000      -1.088742       -29.6262
   6   2.0000      -0.997034       -27.1307
   7   2.0000      -0.911226       -24.7957
   8   2.0000      -0.880673       -23.9643
   9   2.0000      -0.861880       -23.4530
  10   2.0000      -0.794180       -21.6107
  11   2.0000      -0.725056       -19.7298
  12   2.0000      -0.707054       -19.2399
  13   2.0000      -0.681838       -18.5538
  14   2.0000      -0.618270       -16.8240
  15   2.0000      -0.612074       -16.6554
  16   2.0000      -0.608770       -16.5655
  17   0.0000      -0.120135        -3.2690
  18   0.0000      -0.067995        -1.8502
  19   0.0000      -0.065179        -1.7736
  20   0.0000      -0.052863        -1.4385
  21   0.0000      -0.024186        -0.6581

MULLIKEN ATOMIC CHARGES
-----------------------
   0 C :   -0.533759
   1 H :    0.307541
   2 N :   -0.355053
   3 C :   -0.279359
   4 H :    0.339881
   5 C :   -1.250332
   6 H :    0.376352
   7 H :    0.370749
   8 H :    0.375106
   9 H :    0.327726
  10 H :    0.279101
  11 H :    0.361341
  12 H :    0.328686
  13 H :    0.352019
Sum of atomic charges:    1.0000000

LOEWDIN ATOMIC CHARGES
----------------------
   0 C :   -0.169269
   1 H :    0.137081
   2 N :    0.166926
   3 C :   -0.230795
   4 H :    0.140847
   5 C :   -0.080791
   6 H :    0.188171
   7 H :    0.183822
   8 H :    0.194457
   9 H :    0.115394
  10 H :    0.127006
  11 H :    0.062511
  12 H :    0.083399
  13 H :    0.081242

  Mayer bond orders larger than 0.100000
B(  0-C ,  1-H ) :   0.9361 B(  0-C ,  2-N ) :   0.9749 B(  0-C ,  3-C ) :   0.7546
B(  0-C ,  4-H ) :   0.9137 B(  0-C ,  5-C ) :   0.1222 B(  2-N ,  6-H ) :   0.8405
B(  2-N ,  7-H ) :   0.8445 B(  2-N ,  8-H ) :   0.8428 B(  3-C ,  5-C ) :   0.6899
B(  3-C ,  9-H ) :   0.9007 B(  3-C , 10-H ) :   0.9844 B(  5-C , 11-H ) :   0.8665
B(  5-C , 12-H ) :   0.9896 B(  5-C , 13-H ) :   0.9857

Dispersion correction           -0.002840577
FINAL SINGLE POINT ENERGY      -174.865975497495

DIPOLE MOMENT
-------------
                                X             Y             Z
Electronic contribution:      1.48578      -1.84070      -0.70210
Nuclear contribution   :     -0.52914       0.42437      -0.52967
                        -----------------------------------------
Total Dipole Moment    :      0.95664      -1.41633      -1.23178
                        -----------------------------------------
Magnitude (a.u.)       :      2.10676
Magnitude (Debye)      :      5.35496

Rotational constants in cm-1:     0.462856     0.150885     0.132529
Rotational constants in MHz : 13876.083919  4523.416930  3973.119974

                             ****ORCA TERMINATED NORMALLY****
TOTAL RUN TIME: 0 days 0 hours 0 minutes 19 seconds 160 msec
