                         Program Version 5.0.0 -  RELEASE  -
|  1> !wB97X-D3 RIJCOSX def2-TZVPD def2/J TightSCF
|  2> *xyz 0 1
|  3> C         -0.98480        1.28474       -2.92869
|  4> C         -0.10608        1.76991       -4.08984
|  5> H         -0.34774        2.82220       -4.26294
|  6> H          0.94968        1.74588       -3.80878
|  7> C         -0.25875        1.00432       -5.40983
|  8> C          0.39596       -0.37070       -5.33994
|  9> H          0.23915        1.56939       -6.20125
| 10> H         -1.30936        0.88869       -5.68245
| 11> F         -0.32633       -1.39040       -5.49128
| 12> O          1.61941       -0.40073       -5.03683
| 13> H         -2.01317        1.31546       -3.22263
| 14> H         -0.83724        1.91975       -2.08023
| 15> H         -0.71656        0.28077       -2.67373
| 16> *
| 17> %MaxCore 64000
| 18>
| 19> %pal nprocs 18
| 20> end
| 21>
| 22> %scf
| 23>   MaxIter 150
| 24> end
| 25>
| 26>
| 27>                          ****END OF INPUT****

CARTESIAN COORDINATES (ANGSTROEM)
---------------------------------
  C     -0.984800    1.284740   -2.928690
  C     -0.106080    1.769910   -4.089840
  H     -0.347740    2.822200   -4.262940
  H      0.949680    1.745880   -3.808780
  C     -0.258750    1.004320   -5.409830
  C      0.395960   -0.370700   -5.339940
  H      0.239150    1.569390   -6.201250
  H     -1.309360    0.888690   -5.682450
  F     -0.326330   -1.390400   -5.491280
  O      1.619410   -0.400730   -5.036830
  H     -2.013170    1.315460   -3.222630
  H     -0.837240    1.919750   -2.080230
  H     -0.716560    0.280770   -2.673730

 Total Charge           Charge          ....    0
 Multiplicity           Mult            ....    1
 Number of Electrons    NEL             ....   48
 Basis Dimension        Dim             ....  291

ORBITAL ENERGIES
----------------

  NO   OCC          E(Eh)            E(eV)
   0   2.0000     -24.855016      -676.3394
   1   2.0000     -19.235032      -523.4118
   2   2.0000     -10.455601      -284.5114
   3   2.0000     -10.306743      -280.4607
   4   2.0000     -10.289513      -279.9919
   5   2.0000     -10.268200      -279.4119
   6   2.0000      -1.433596       -39.0101
   7   2.0000      -1.146021       -31.1848
   8   2.0000      -0.931110       -25.3368
   9   2.0000      -0.846458       -23.0333
  10   2.0000      -0.772309       -21.0156
  11   2.0000      -0.720179       -19.5971
  12   2.0000      -0.652679       -17.7603
  13   2.0000      -0.637619       -17.3505
  14   2.0000      -0.615084       -16.7373
  15   2.0000      -0.564133       -15.3508
  16   2.0000      -0.556278       -15.1371
  17   2.0000      -0.520751       -14.1704
  18   2.0000      -0.499991       -13.6055
  19   2.0000      -0.473783       -12.8923
  20   2.0000      -0.448161       -12.1951
  21   2.0000      -0.442745       -12.0477
  22   2.0000      -0.435550       -11.8519
  23   2.0000      -0.389599       -10.6015
  24   0.0000       0.049757         1.3540
  25   0.0000       0.065564         1.7841
  26   0.0000       0.086011         2.3405
  27   0.0000       0.089577         2.4375
  28   0.0000       0.093422         2.5421

MULLIKEN ATOMIC CHARGES
-----------------------
   0 C :   -1.247432
   1 C :   -0.321267
   2 H :    0.270138
   3 H :    0.312095
   4 C :   -0.265676
   5 C :    0.536117
   6 H :    0.253017
   7 H :    0.276003
   8 F :   -0.238566
   9 O :   -0.573011
  10 H :    0.332826
  11 H :    0.312923
  12 H :    0.352831
Sum of atomic charges:    0.0000000

LOEWDIN ATOMIC CHARGES
----------------------
   0 C :   -0.095945
   1 C :   -0.249967
   2 H :    0.107555
   3 H :    0.109342
   4 C :   -0.118014
   5 C :   -0.467794
   6 H :    0.124992
   7 H :    0.115037
   8 F :    0.202241
   9 O :    0.067938
  10 H :    0.068235
  11 H :    0.067378
  12 H :    0.069003

  Mayer bond orders larger than 0.100000
B(  0-C ,  1-C ) :   0.5919 B(  0-C ,  4-C ) :   0.1222 B(  0-C , 10-H ) :   0.9534
B(  0-C , 11-H ) :   0.9618 B(  0-C , 12-H ) :   0.9290 B(  1-C ,  2-H ) :   0.9500
B(  1-C ,  3-H ) :   0.9485 B(  1-C ,  4-C ) :   0.7835 B(  1-C ,  5-C ) :   0.1731
B(  4-C ,  5-C ) :   0.9034 B(  4-C ,  6-H ) :   0.9504 B(  4-C ,  7-H ) :   0.9471
B(  5-C ,  8-F ) :   0.9241 B(  5-C ,  9-O ) :   1.6607

Dispersion correction           -0.003212515
FINAL SINGLE POINT ENERGY      -331.755361126857

DIPOLE MOMENT
-------------
                                X             Y             Z
Electronic contribution:      2.75245      -9.09601      -5.67851
Nuclear contribution   :     -3.72230       9.78546       5.57872
                        -----------------------------------------
Total Dipole Moment    :     -0.96985       0.68944      -0.09978
                        -----------------------------------------
Magnitude (a.u.)       :      1.19411
Magnitude (Debye)      :      3.03518

Rotational constants in cm-1:     0.192703     0.076176     0.069525
Rotational constants in MHz :  5777.081080  2283.698999  2084.312921

                             ****ORCA TERMINATED NORMALLY****
TOTAL RUN TIME: 0 days 0 hours 0 minutes 25 seconds 55 msec
