                         Program Version 5.0.0 -  RELEASE  -
|  1> !wB97X-D3 RIJCOSX def2-TZVPD def2/J TightSCF
|  2> *xyz 0 1
|  3> C          0.81607       -2.10149       -2.18655
|  4> H          1.69623       -2.36869       -1.60046
|  5> C          1.10055       -2.46749       -3.59927
|  6> C          0.51624       -0.61363       -2.03937
|  7> H         -0.02007       -2.71285       -1.84084
|  8> C         -0.86862       -0.19392       -2.54630
|  9> H          1.70061       -1.75723       -4.07838
| 10> H          0.29386       -2.35977       -4.25632
| 11> H          1.50132       -3.42848       -3.69491
| 12> H          1.29904       -0.05680       -2.55898
| 13> H          0.61239       -0.36558       -0.97917
| 14> H         -0.95781       -0.43872       -3.58410
| 15> H         -0.99113        0.86113       -2.41690
| 16> H         -1.62334       -0.71130       -1.99167
| 17> *
| 18> %MaxCore 64000
| 19>
| 20> %pal nprocs 18
| 21> end
| 22>
| 23> %scf
| 24>   MaxIter 150
| 25> end
| 26>
| 27>
| 28>                          ****END OF INPUT****

CARTESIAN COORDINATES (ANGSTROEM)
---------------------------------
  C      0.816070   -2.101490   -2.186550
  H      1.696230   -2.368690   -1.600460
  C      1.100550   -2.467490   -3.599270
  C      0.516240   -0.613630   -2.039370
  H     -0.020070   -2.712850   -1.840840
  C     -0.868620   -0.193920   -2.546300
  H      1.700610   -1.757230   -4.078380
  H      0.293860   -2.359770   -4.256320
  H      1.501320   -3.428480   -3.694910
  H      1.299040   -0.056800   -2.558980
  H      0.612390   -0.365580   -0.979170
  H     -0.957810   -0.438720   -3.584100
  H     -0.991130    0.861130   -2.416900
  H     -1.623340   -0.711300   -1.991670

 Total Charge           Charge          ....    0
 Multiplicity           Mult            ....    1
 Number of Electrons    NEL             ....   34
 Basis Dimension        Dim             ....  238

ORBITAL ENERGIES
----------------

  NO   OCC          E(Eh)            E(eV)
   0   2.0000     -10.263609      -279.2870
   1   2.0000     -10.260436      -279.2006
   2   2.0000     -10.252499      -278.9847
   3   2.0000     -10.237447      -278.5751
   4   2.0000      -0.918062       -24.9817
   5   2.0000      -0.842405       -22.9230
   6   2.0000      -0.755943       -20.5702
   7   2.0000      -0.680491       -18.5171
   8   2.0000      -0.564740       -15.3673
   9   2.0000      -0.558719       -15.2035
  10   2.0000      -0.521458       -14.1896
  11   2.0000      -0.491912       -13.3856
  12   2.0000      -0.480921       -13.0865
  13   2.0000      -0.449333       -12.2270
  14   2.0000      -0.420015       -11.4292
  15   2.0000      -0.413726       -11.2581
  16   2.0000      -0.406828       -11.0704
  17   0.0000       0.076202         2.0736
  18   0.0000       0.093732         2.5506
  19   0.0000       0.094357         2.5676
  20   0.0000       0.097928         2.6648
  21   0.0000       0.143746         3.9115

MULLIKEN ATOMIC CHARGES
-----------------------
   0 C :   -0.050145
   1 H :    0.236251
   2 C :   -1.482363
   3 C :   -0.284224
   4 H :    0.244340
   5 C :   -1.235267
   6 H :    0.378837
   7 H :    0.375076
   8 H :    0.333314
   9 H :    0.287283
  10 H :    0.228227
  11 H :    0.331791
  12 H :    0.316651
  13 H :    0.320231
Sum of atomic charges:   -0.0000000

LOEWDIN ATOMIC CHARGES
----------------------
   0 C :   -0.278847
   1 H :    0.105835
   2 C :   -0.132145
   3 C :   -0.272811
   4 H :    0.109729
   5 C :   -0.105569
   6 H :    0.061706
   7 H :    0.055921
   8 H :    0.061412
   9 H :    0.103926
  10 H :    0.100598
  11 H :    0.060505
  12 H :    0.062477
  13 H :    0.067263

  Mayer bond orders larger than 0.100000
B(  0-C ,  1-H ) :   0.9725 B(  0-C ,  2-C ) :   0.5341 B(  0-C ,  3-C ) :   0.7472
B(  0-C ,  4-H ) :   0.9586 B(  0-C ,  5-C ) :   0.1178 B(  2-C ,  3-C ) :   0.1931
B(  2-C ,  5-C ) :   0.1444 B(  2-C ,  6-H ) :   0.9471 B(  2-C ,  7-H ) :   0.9241
B(  2-C ,  8-H ) :   0.9462 B(  3-C ,  5-C ) :   0.6466 B(  3-C ,  9-H ) :   0.9637
B(  3-C , 10-H ) :   0.9983 B(  5-C , 11-H ) :   0.9376 B(  5-C , 12-H ) :   0.9633
B(  5-C , 13-H ) :   0.9844

Dispersion correction           -0.002742926
FINAL SINGLE POINT ENERGY      -158.457375992533

DIPOLE MOMENT
-------------
                                X             Y             Z
Electronic contribution:      0.31955      -0.06679       0.83084
Nuclear contribution   :     -0.30980       0.07990      -0.83209
                        -----------------------------------------
Total Dipole Moment    :      0.00975       0.01311      -0.00125
                        -----------------------------------------
Magnitude (a.u.)       :      0.01638
Magnitude (Debye)      :      0.04164

Rotational constants in cm-1:     0.470198     0.157622     0.138278
Rotational constants in MHz : 14096.185772  4725.380109  4145.481686

                             ****ORCA TERMINATED NORMALLY****
TOTAL RUN TIME: 0 days 0 hours 0 minutes 15 seconds 217 msec
