                         Program Version 5.0.0 -  RELEASE  -
|  1> !wB97X-D3 RIJCOSX def2-TZVPD def2/J TightSCF
|  2> *xyz 0 1
|  3> C         -0.98480        1.28474       -2.92869
|  4> C         -0.10608        1.76991       -4.08984
|  5> H         -0.34774        2.82220       -4.26294
|  6> H          0.94968        1.74588       -3.80878
|  7> C         -0.25875        1.00432       -5.40983
|  8> C          0.39596       -0.37070       -5.33994
|  9> H          0.23915        1.56939       -6.20125
| 10> H         -1.30936        0.88869       -5.68245
| 11> O         -0.32633       -1.39040       -5.49128
| 12> F          1.61941       -0.40073       -5.03683
| 13> H         -2.01317        1.31546       -3.22263
| 14> H         -0.83724        1.91975       -2.08023
| 15> H         -0.71656        0.28077       -2.67373
| 16> *
| 17> %MaxCore 64000
| 18>
| 19> %pal nprocs 18
| 20> end
| 21>
| 22> %scf
| 23>   MaxIter 150
| 24> end
| 25>
| 26>
| 27>                          ****END OF INPUT****

CARTESIAN COORDINATES (ANGSTROEM)
---------------------------------
  C     -0.984800    1.284740   -2.928690
  C     -0.106080    1.769910   -4.089840
  H     -0.347740    2.822200   -4.262940
  H      0.949680    1.745880   -3.808780
  C     -0.258750    1.004320   -5.409830
  C      0.395960   -0.370700   -5.339940
  H      0.239150    1.569390   -6.201250
  H     -1.309360    0.888690   -5.682450
  O     -0.326330   -1.390400   -5.491280
  F      1.619410   -0.400730   -5.036830
  H     -2.013170    1.315460   -3.222630
  H     -0.837240    1.919750   -2.080230
  H     -0.716560    0.280770   -2.673730

 Total Charge           Charge          ....    0
 Multiplicity           Mult            ....    1
 Number of Electrons    NEL             ....   48
 Basis Dimension        Dim             ....  291

ORBITAL ENERGIES
----------------

  NO   OCC          E(Eh)            E(eV)
   0   2.0000     -24.853881      -676.3085
   1   2.0000     -19.235660      -523.4289
   2   2.0000     -10.454590      -284.4838
   3   2.0000     -10.306403      -280.4515
   4   2.0000     -10.294620      -280.1308
   5   2.0000     -10.268962      -279.4327
   6   2.0000      -1.432370       -38.9768
   7   2.0000      -1.145786       -31.1784
   8   2.0000      -0.935332       -25.4517
   9   2.0000      -0.846833       -23.0435
  10   2.0000      -0.768598       -20.9146
  11   2.0000      -0.725331       -19.7373
  12   2.0000      -0.655509       -17.8373
  13   2.0000      -0.643718       -17.5165
  14   2.0000      -0.600610       -16.3434
  15   2.0000      -0.566570       -15.4171
  16   2.0000      -0.560447       -15.2505
  17   2.0000      -0.520928       -14.1752
  18   2.0000      -0.497127       -13.5275
  19   2.0000      -0.473449       -12.8832
  20   2.0000      -0.456770       -12.4293
  21   2.0000      -0.451228       -12.2785
  22   2.0000      -0.438788       -11.9400
  23   2.0000      -0.383976       -10.4485
  24   0.0000       0.052684         1.4336
  25   0.0000       0.065320         1.7774
  26   0.0000       0.086022         2.3408
  27   0.0000       0.087896         2.3918
  28   0.0000       0.093262         2.5378

MULLIKEN ATOMIC CHARGES
-----------------------
   0 C :   -1.217967
   1 C :   -0.367779
   2 H :    0.261417
   3 H :    0.307405
   4 C :   -0.211821
   5 C :    0.529589
   6 H :    0.274483
   7 H :    0.237354
   8 O :   -0.577527
   9 F :   -0.235854
  10 H :    0.333599
  11 H :    0.319509
  12 H :    0.347592
Sum of atomic charges:    0.0000000

LOEWDIN ATOMIC CHARGES
----------------------
   0 C :   -0.093905
   1 C :   -0.253228
   2 H :    0.107129
   3 H :    0.106136
   4 C :   -0.114643
   5 C :   -0.474659
   6 H :    0.121435
   7 H :    0.123898
   8 O :    0.070692
   9 F :    0.199131
  10 H :    0.071344
  11 H :    0.066836
  12 H :    0.069834

  Mayer bond orders larger than 0.100000
B(  0-C ,  1-C ) :   0.6641 B(  0-C , 10-H ) :   0.9559 B(  0-C , 11-H ) :   0.9596
B(  0-C , 12-H ) :   0.9296 B(  1-C ,  2-H ) :   0.9703 B(  1-C ,  3-H ) :   0.9318
B(  1-C ,  4-C ) :   0.7609 B(  1-C ,  5-C ) :   0.1533 B(  4-C ,  5-C ) :   0.9101
B(  4-C ,  6-H ) :   0.9483 B(  4-C ,  7-H ) :   0.9707 B(  5-C ,  8-O ) :   1.6485
B(  5-C ,  9-F ) :   0.9342

Dispersion correction           -0.003240728
FINAL SINGLE POINT ENERGY      -331.756483287141

DIPOLE MOMENT
-------------
                                X             Y             Z
Electronic contribution:      6.05358      -7.38614      -4.89381
Nuclear contribution   :     -5.92016       8.66755       5.06539
                        -----------------------------------------
Total Dipole Moment    :      0.13342       1.28141       0.17158
                        -----------------------------------------
Magnitude (a.u.)       :      1.29971
Magnitude (Debye)      :      3.30361

Rotational constants in cm-1:     0.191324     0.076691     0.070269
Rotational constants in MHz :  5735.753800  2299.148675  2106.608556

                             ****ORCA TERMINATED NORMALLY****
TOTAL RUN TIME: 0 days 0 hours 0 minutes 22 seconds 242 msec
