                         Program Version 5.0.0 -  RELEASE  -
|  1> !wB97X-D3 RIJCOSX def2-TZVPD def2/J TightSCF xyzfile
|  2>
|  3> *xyzfile 0 1 D1.xyz
|  4>
|  5> %MaxCore 64000
|  6>
|  7> %pal nprocs 18
|  8> end
|  9>
| 10> %scf
| 11>   MaxIter 150
| 12> end
| 13>
| 14>
| 15>                          ****END OF INPUT****

CARTESIAN COORDINATES (ANGSTROEM)
---------------------------------
  C      0.816067   -2.101491   -2.186546
  H      1.696232   -2.368691   -1.600457
  C      1.100552   -2.467492   -3.599269
  C      0.516243   -0.613634   -2.039373
  H     -0.020066   -2.712849   -1.840844
  C     -0.868621   -0.193925   -2.546303
  C     -0.984801    1.284739   -2.928686
  H     -0.764939    1.904116   -2.051568
  H     -2.032613    1.478953   -3.178952
  C     -0.106085    1.769914   -4.089836
  H     -0.347744    2.822196   -4.262942
  H      0.949683    1.745875   -3.808781
  C     -0.258747    1.004323   -5.409829
  C      0.395958   -0.370696   -5.339939
  H      0.239150    1.569393   -6.201253
  H     -1.309360    0.888694   -5.682455
  H      1.700606   -1.757225   -4.078378
  H      0.293855   -2.359766   -4.256324
  H      1.501324   -3.428479   -3.694915
  F     -0.326329   -1.390398   -5.491279
  O      1.619412   -0.400726   -5.036827
  H     -1.607271   -0.412651   -1.768955
  H     -1.157234   -0.796164   -3.409254
  H      1.299044   -0.056805   -2.558982
  H      0.612393   -0.365579   -0.979171

 Total Charge           Charge          ....    0
 Multiplicity           Mult            ....    1
 Number of Electrons    NEL             ....   80
 Basis Dimension        Dim             ....  511

ORBITAL ENERGIES
----------------

  NO   OCC          E(Eh)            E(eV)
   0   2.0000     -24.864026      -676.5845
   1   2.0000     -19.242094      -523.6040
   2   2.0000     -10.464649      -284.7576
   3   2.0000     -10.310370      -280.5594
   4   2.0000     -10.289871      -280.0016
   5   2.0000     -10.278039      -279.6796
   6   2.0000     -10.270370      -279.4710
   7   2.0000     -10.256459      -279.0924
   8   2.0000     -10.246834      -278.8305
   9   2.0000     -10.195659      -277.4380
  10   2.0000      -1.448328       -39.4110
  11   2.0000      -1.161630       -31.6095
  12   2.0000      -0.944249       -25.6943
  13   2.0000      -0.910830       -24.7849
  14   2.0000      -0.861526       -23.4433
  15   2.0000      -0.821196       -22.3459
  16   2.0000      -0.776537       -21.1306
  17   2.0000      -0.749961       -20.4075
  18   2.0000      -0.709739       -19.3130
  19   2.0000      -0.665883       -18.1196
  20   2.0000      -0.664636       -18.0857
  21   2.0000      -0.647498       -17.6193
  22   2.0000      -0.631358       -17.1801
  23   2.0000      -0.580849       -15.8057
  24   2.0000      -0.560222       -15.2444
  25   2.0000      -0.544432       -14.8147
  26   2.0000      -0.538903       -14.6643
  27   2.0000      -0.524089       -14.2612
  28   2.0000      -0.510817       -13.9000
  29   2.0000      -0.497521       -13.5382
  30   2.0000      -0.479379       -13.0446
  31   2.0000      -0.463521       -12.6131
  32   2.0000      -0.458357       -12.4725
  33   2.0000      -0.444969       -12.1082
  34   2.0000      -0.430590       -11.7169
  35   2.0000      -0.419298       -11.4097
  36   2.0000      -0.409993       -11.1565
  37   2.0000      -0.398577       -10.8458
  38   2.0000      -0.389210       -10.5910
  39   2.0000      -0.357171        -9.7191
  40   0.0000       0.039706         1.0805
  41   0.0000       0.063394         1.7250
  42   0.0000       0.079373         2.1599
  43   0.0000       0.080733         2.1968
  44   0.0000       0.085606         2.3295

MULLIKEN ATOMIC CHARGES
-----------------------
   0 C :   -0.198990
   1 H :    0.260065
   2 C :   -1.683625
   3 C :   -0.394802
   4 H :    0.225964
   5 C :   -0.482725
   6 C :   -0.728581
   7 H :    0.261357
   8 H :    0.301541
   9 C :   -0.539504
  10 H :    0.274274
  11 H :    0.300963
  12 C :   -0.429748
  13 C :    0.593505
  14 H :    0.330910
  15 H :    0.277483
  16 H :    0.528338
  17 H :    0.464149
  18 H :    0.412666
  19 F :   -0.304667
  20 O :   -0.627692
  21 H :    0.333059
  22 H :    0.266268
  23 H :    0.211934
  24 H :    0.347859
Sum of atomic charges:    0.0000000

LOEWDIN ATOMIC CHARGES
----------------------
   0 C :   -0.241730
   1 H :    0.107613
   2 C :   -0.126235
   3 C :   -0.207057
   4 H :    0.110197
   5 C :   -0.199821
   6 C :   -0.201804
   7 H :    0.115003
   8 H :    0.109843
   9 C :   -0.194755
  10 H :    0.112963
  11 H :    0.109374
  12 C :   -0.087463
  13 C :   -0.449509
  14 H :    0.127771
  15 H :    0.121764
  16 H :    0.023499
  17 H :    0.037513
  18 H :    0.073305
  19 F :    0.171962
  20 O :    0.057527
  21 H :    0.117015
  22 H :    0.099283
  23 H :    0.102315
  24 H :    0.111428

  Mayer bond orders larger than 0.100000
B(  0-C ,  1-H ) :   0.9269 B(  0-C ,  2-C ) :   0.4502 B(  0-C ,  3-C ) :   0.9132
B(  0-C ,  4-H ) :   0.9469 B(  0-C ,  5-C ) :   0.4193 B(  2-C , 13-C ) :   0.1061
B(  2-C , 16-H ) :   0.9006 B(  2-C , 17-H ) :   0.9139 B(  2-C , 18-H ) :   0.8191
B(  3-C ,  5-C ) :   0.4268 B(  3-C ,  6-C ) :   0.3364 B(  3-C ,  9-C ) :   0.1004
B(  3-C , 23-H ) :   1.0338 B(  3-C , 24-H ) :   0.8575 B(  5-C ,  6-C ) :   0.9815
B(  5-C , 13-C ) :   0.1170 B(  5-C , 21-H ) :   0.9314 B(  5-C , 22-H ) :   0.9486
B(  6-C ,  7-H ) :   0.9680 B(  6-C ,  8-H ) :   0.9266 B(  6-C ,  9-C ) :   0.9200
B(  6-C , 12-C ) :   0.1465 B(  9-C , 10-H ) :   0.9445 B(  9-C , 11-H ) :   0.9102
B(  9-C , 12-C ) :   0.8796 B(  9-C , 13-C ) :   0.1624 B( 12-C , 13-C ) :   0.9269
B( 12-C , 14-H ) :   0.8450 B( 12-C , 15-H ) :   1.0025 B( 13-C , 19-F ) :   0.8200
B( 13-C , 20-O ) :   1.6404 B( 16-H , 20-O ) :  -0.1557

Dispersion correction           -0.010976484
FINAL SINGLE POINT ENERGY      -488.970940525488

DIPOLE MOMENT
-------------
                                X             Y             Z
Electronic contribution:      0.33151      -1.97914     -10.58667
Nuclear contribution   :     -1.21560       2.80077      10.24180
                        -----------------------------------------
Total Dipole Moment    :     -0.88409       0.82163      -0.34487
                        -----------------------------------------
Magnitude (a.u.)       :      1.25524
Magnitude (Debye)      :      3.19057

Rotational constants in cm-1:     0.051255     0.042531     0.028894
Rotational constants in MHz :  1536.587743  1275.050721   866.218876

                             ****ORCA TERMINATED NORMALLY****
TOTAL RUN TIME: 0 days 0 hours 1 minutes 24 seconds 141 msec
