                         Program Version 5.0.0 -  RELEASE  -
|  1> !TPSS D3BJ RIJCOSX def2-SVPD def2/J TightSCF
|  2> *xyz -1 1
|  3> C         -1.91658       -2.48508       -3.64367
|  4> C         -1.36353       -1.98134       -2.29361
|  5> O         -0.35039       -2.74969       -1.79601
|  6> H         -2.22622       -1.90839       -1.60204
|  7> H         -1.05135       -0.91567       -2.44333
|  8> H         -1.11522       -2.57167       -4.34739
|  9> H         -2.64227       -1.79099       -4.01314
| 10> H         -2.37564       -3.44180       -3.50640
| 11> *
| 12>
| 13> %MaxCore 64000
| 14> %pal nprocs 4
| 15> end
| 16>
| 17> %scf
| 18>   MaxIter 150
| 19> end
| 20>
| 21>
| 22>                          ****END OF INPUT****

CARTESIAN COORDINATES (ANGSTROEM)
---------------------------------
  C     -1.916580   -2.485080   -3.643670
  C     -1.363530   -1.981340   -2.293610
  O     -0.350390   -2.749690   -1.796010
  H     -2.226220   -1.908390   -1.602040
  H     -1.051350   -0.915670   -2.443330
  H     -1.115220   -2.571670   -4.347390
  H     -2.642270   -1.790990   -4.013140
  H     -2.375640   -3.441800   -3.506400

 Total Charge           Charge          ....   -1
 Multiplicity           Mult            ....    1
 Number of Electrons    NEL             ....   26
 Basis Dimension        Dim             ....  103

ORBITAL ENERGIES
----------------

  NO   OCC          E(Eh)            E(eV)
   0   2.0000     -18.574060      -505.4259
   1   2.0000      -9.816945      -267.1327
   2   2.0000      -9.794520      -266.5224
   3   2.0000      -0.607579       -16.5331
   4   2.0000      -0.465292       -12.6612
   5   2.0000      -0.319699        -8.6995
   6   2.0000      -0.208620        -5.6768
   7   2.0000      -0.187931        -5.1139
   8   2.0000      -0.134700        -3.6654
   9   2.0000      -0.120397        -3.2762
  10   2.0000      -0.072792        -1.9808
  11   2.0000       0.066540         1.8106
  12   2.0000       0.069692         1.8964
  13   0.0000       0.171061         4.6548
  14   0.0000       0.201034         5.4704
  15   0.0000       0.232623         6.3300
  16   0.0000       0.245841         6.6897
  17   0.0000       0.262811         7.1515

MULLIKEN ATOMIC CHARGES
-----------------------
   0 C :    0.163137
   1 C :    0.139106
   2 O :   -0.892111
   3 H :   -0.161078
   4 H :   -0.131647
   5 H :   -0.054098
   6 H :   -0.016214
   7 H :   -0.047095
Sum of atomic charges:   -1.0000000

LOEWDIN ATOMIC CHARGES
----------------------
   0 C :    0.068359
   1 C :   -0.254915
   2 O :   -0.561157
   3 H :   -0.044536
   4 H :   -0.040447
   5 H :   -0.048505
   6 H :   -0.068746
   7 H :   -0.050052

  Mayer bond orders larger than 0.100000
B(  0-C ,  1-C ) :   1.1686 B(  0-C ,  2-O ) :   0.2790 B(  0-C ,  3-H ) :   0.1396
B(  0-C ,  4-H ) :   0.1350 B(  0-C ,  5-H ) :   0.9358 B(  0-C ,  6-H ) :   0.9361
B(  0-C ,  7-H ) :   0.9319 B(  1-C ,  2-O ) :   1.0970 B(  1-C ,  3-H ) :   0.9957
B(  1-C ,  4-H ) :   0.9899 B(  1-C ,  5-H ) :   0.1755 B(  1-C ,  6-H ) :   0.1234
B(  1-C ,  7-H ) :   0.1623

Dispersion correction           -0.004550127
FINAL SINGLE POINT ENERGY      -154.348808099595

DIPOLE MOMENT
-------------
                                X             Y             Z
Electronic contribution:      2.11050      -0.90196       1.89559
Nuclear contribution   :     -3.14382       1.30299      -2.83231
                        -----------------------------------------
Total Dipole Moment    :     -1.03333       0.40103      -0.93672
                        -----------------------------------------
Magnitude (a.u.)       :      1.45122
Magnitude (Debye)      :      3.68870

Rotational constants in cm-1:     1.288206     0.322942     0.285188
Rotational constants in MHz : 38619.437223  9681.562038  8549.712012

                             ****ORCA TERMINATED NORMALLY****
TOTAL RUN TIME: 0 days 0 hours 0 minutes 8 seconds 693 msec
