                         Program Version 5.0.0 -  RELEASE  -
|  1> !TPSS D3BJ RIJCOSX def2-SVPD def2/J TightSCF
|  2> *xyz 1 1
|  3> C          1.64703       -2.34528       -5.02041
|  4> C          2.20996       -2.81239       -3.66571
|  5> C          2.48901       -1.66851       -2.73754
|  6> N          3.59631       -0.94761       -2.95225
|  7> N          1.66394       -1.41369       -1.77781
|  8> H          0.81164       -1.96318       -1.70275
|  9> H          1.84550       -0.63508       -1.15875
| 10> H          4.20535       -1.17600       -3.73383
| 11> H          3.81723       -0.12585       -2.40604
| 12> H          3.14311       -3.36280       -3.81152
| 13> H          1.48768       -3.45893       -3.16521
| 14> H          1.46566       -3.19589       -5.64368
| 15> H          2.35406       -1.69850       -5.49654
| 16> H          0.73014       -1.81680       -4.86253
| 17> *
| 18>
| 19> %MaxCore 64000
| 20> %pal nprocs 4
| 21> end
| 22>
| 23> %scf
| 24>   MaxIter 150
| 25> end
| 26>
| 27>
| 28>                          ****END OF INPUT****

CARTESIAN COORDINATES (ANGSTROEM)
---------------------------------
  C      1.647030   -2.345280   -5.020410
  C      2.209960   -2.812390   -3.665710
  C      2.489010   -1.668510   -2.737540
  N      3.596310   -0.947610   -2.952250
  N      1.663940   -1.413690   -1.777810
  H      0.811640   -1.963180   -1.702750
  H      1.845500   -0.635080   -1.158750
  H      4.205350   -1.176000   -3.733830
  H      3.817230   -0.125850   -2.406040
  H      3.143110   -3.362800   -3.811520
  H      1.487680   -3.458930   -3.165210
  H      1.465660   -3.195890   -5.643680
  H      2.354060   -1.698500   -5.496540
  H      0.730140   -1.816800   -4.862530

 Total Charge           Charge          ....    1
 Multiplicity           Mult            ....    1
 Number of Electrons    NEL             ....   40
 Basis Dimension        Dim             ....  172

ORBITAL ENERGIES
----------------

  NO   OCC          E(Eh)            E(eV)
   0   2.0000     -14.369561      -391.0156
   1   2.0000     -14.361008      -390.7829
   2   2.0000     -10.312141      -280.6076
   3   2.0000     -10.200343      -277.5655
   4   2.0000     -10.159336      -276.4496
   5   2.0000      -1.131534       -30.7906
   6   2.0000      -1.041760       -28.3477
   7   2.0000      -0.906067       -24.6553
   8   2.0000      -0.806067       -21.9342
   9   2.0000      -0.766903       -20.8685
  10   2.0000      -0.729929       -19.8624
  11   2.0000      -0.705145       -19.1880
  12   2.0000      -0.663451       -18.0534
  13   2.0000      -0.606035       -16.4911
  14   2.0000      -0.583000       -15.8642
  15   2.0000      -0.572637       -15.5823
  16   2.0000      -0.507415       -13.8075
  17   2.0000      -0.499697       -13.5974
  18   2.0000      -0.495440       -13.4816
  19   2.0000      -0.456998       -12.4356
  20   0.0000      -0.237666        -6.4672
  21   0.0000      -0.174716        -4.7543
  22   0.0000      -0.130875        -3.5613
  23   0.0000      -0.130022        -3.5381
  24   0.0000      -0.100001        -2.7212

MULLIKEN ATOMIC CHARGES
-----------------------
   0 C :    0.578197
   1 C :   -0.340742
   2 C :    0.772028
   3 N :    0.000627
   4 N :    0.038188
   5 H :    0.060519
   6 H :   -0.093185
   7 H :    0.047192
   8 H :   -0.129314
   9 H :    0.037611
  10 H :    0.022616
  11 H :    0.038605
  12 H :   -0.010068
  13 H :   -0.022274
Sum of atomic charges:    1.0000000

LOEWDIN ATOMIC CHARGES
----------------------
   0 C :    0.183249
   1 C :    0.020589
   2 C :   -0.050506
   3 N :    0.285660
   4 N :    0.288514
   5 H :    0.062067
   6 H :    0.053611
   7 H :    0.051726
   8 H :    0.041763
   9 H :    0.044438
  10 H :    0.032032
  11 H :    0.004642
  12 H :   -0.012660
  13 H :   -0.005126

  Mayer bond orders larger than 0.100000
B(  0-C ,  1-C ) :   1.2712 B(  0-C , 11-H ) :   0.8482 B(  0-C , 12-H ) :   0.8117
B(  0-C , 13-H ) :   0.8634 B(  1-C ,  2-C ) :   1.1154 B(  1-C ,  9-H ) :   0.9092
B(  1-C , 10-H ) :   0.9111 B(  1-C , 11-H ) :   0.1398 B(  1-C , 12-H ) :   0.1780
B(  1-C , 13-H ) :   0.1516 B(  2-C ,  3-N ) :   1.0556 B(  2-C ,  4-N ) :   1.0915
B(  2-C ,  6-H ) :  -0.1725 B(  2-C ,  8-H ) :  -0.1760 B(  2-C , 10-H ) :   0.1145
B(  3-N ,  4-N ) :   0.1796 B(  3-N ,  7-H ) :   1.0896 B(  3-N ,  8-H ) :   1.3006
B(  4-N ,  5-H ) :   1.0819 B(  4-N ,  6-H ) :   1.3029 B(  5-H ,  6-H ) :  -0.1565
B(  7-H ,  8-H ) :  -0.1647

Dispersion correction           -0.012451825
FINAL SINGLE POINT ENERGY      -228.927375869076

DIPOLE MOMENT
-------------
                                X             Y             Z
Electronic contribution:      1.19977       1.66674       3.62736
Nuclear contribution   :     -0.98617      -1.03178      -2.77619
                        -----------------------------------------
Total Dipole Moment    :      0.21360       0.63497       0.85117
                        -----------------------------------------
Magnitude (a.u.)       :      1.08319
Magnitude (Debye)      :      2.75324

Rotational constants in cm-1:     0.257311     0.127495     0.099037
Rotational constants in MHz :  7713.982239  3822.189706  2969.039713

                             ****ORCA TERMINATED NORMALLY****
TOTAL RUN TIME: 0 days 0 hours 0 minutes 13 seconds 902 msec
