                         Program Version 5.0.0 -  RELEASE  -
|  1> !TPSS D3BJ RIJCOSX def2-SVPD def2/J TightSCF
|  2> *xyz 0 1
|  3> C         -1.91658       -2.48508       -3.64367
|  4> C         -1.36353       -1.98134       -2.29361
|  5> F         -0.35039       -2.74969       -1.79601
|  6> H         -2.22622       -1.90839       -1.60204
|  7> H         -1.05135       -0.91567       -2.44333
|  8> H         -1.11522       -2.57167       -4.34739
|  9> H         -2.64227       -1.79099       -4.01314
| 10> H         -2.37564       -3.44180       -3.50640
| 11> *
| 12>
| 13> %MaxCore 64000
| 14> %pal nprocs 4
| 15> end
| 16>
| 17> %scf
| 18>   MaxIter 150
| 19> end
| 20>
| 21>
| 22>                          ****END OF INPUT****

CARTESIAN COORDINATES (ANGSTROEM)
---------------------------------
  C     -1.916580   -2.485080   -3.643670
  C     -1.363530   -1.981340   -2.293610
  F     -0.350390   -2.749690   -1.796010
  H     -2.226220   -1.908390   -1.602040
  H     -1.051350   -0.915670   -2.443330
  H     -1.115220   -2.571670   -4.347390
  H     -2.642270   -1.790990   -4.013140
  H     -2.375640   -3.441800   -3.506400

 Total Charge           Charge          ....    0
 Multiplicity           Mult            ....    1
 Number of Electrons    NEL             ....   26
 Basis Dimension        Dim             ....  103

ORBITAL ENERGIES
----------------

  NO   OCC          E(Eh)            E(eV)
   0   2.0000     -24.417831      -664.4430
   1   2.0000     -10.081491      -274.3313
   2   2.0000     -10.000253      -272.1207
   3   2.0000      -1.109601       -30.1938
   4   2.0000      -0.702128       -19.1059
   5   2.0000      -0.577037       -15.7020
   6   2.0000      -0.463422       -12.6104
   7   2.0000      -0.447658       -12.1814
   8   2.0000      -0.410388       -11.1672
   9   2.0000      -0.364655        -9.9228
  10   2.0000      -0.362926        -9.8757
  11   2.0000      -0.293424        -7.9845
  12   2.0000      -0.290173        -7.8960
  13   0.0000       0.012519         0.3406
  14   0.0000       0.044185         1.2023
  15   0.0000       0.059746         1.6258
  16   0.0000       0.068974         1.8769
  17   0.0000       0.093364         2.5406

MULLIKEN ATOMIC CHARGES
-----------------------
   0 C :    0.257681
   1 C :    0.381447
   2 F :   -0.453062
   3 H :   -0.056373
   4 H :   -0.025631
   5 H :   -0.048466
   6 H :   -0.015034
   7 H :   -0.040562
Sum of atomic charges:   -0.0000000

LOEWDIN ATOMIC CHARGES
----------------------
   0 C :    0.146015
   1 C :    0.066123
   2 F :   -0.207643
   3 H :    0.023104
   4 H :    0.029267
   5 H :   -0.019244
   6 H :   -0.017465
   7 H :   -0.020158

  Mayer bond orders larger than 0.100000
B(  0-C ,  1-C ) :   1.3290 B(  0-C ,  5-H ) :   0.9084 B(  0-C ,  6-H ) :   0.8712
B(  0-C ,  7-H ) :   0.9058 B(  1-C ,  2-F ) :   0.7291 B(  1-C ,  3-H ) :   0.9546
B(  1-C ,  4-H ) :   0.9474 B(  1-C ,  5-H ) :   0.1359 B(  1-C ,  6-H ) :   0.1114
B(  1-C ,  7-H ) :   0.1273

Dispersion correction           -0.004197165
FINAL SINGLE POINT ENERGY      -178.960721313803

DIPOLE MOMENT
-------------
                                X             Y             Z
Electronic contribution:      3.62799      -1.36617       3.43001
Nuclear contribution   :     -4.15401       1.70894      -3.75000
                        -----------------------------------------
Total Dipole Moment    :     -0.52603       0.34277      -0.31998
                        -----------------------------------------
Magnitude (a.u.)       :      0.70468
Magnitude (Debye)      :      1.79117

Rotational constants in cm-1:     1.266842     0.300492     0.266603
Rotational constants in MHz : 37978.968232  9008.526876  7992.551454

                             ****ORCA TERMINATED NORMALLY****
TOTAL RUN TIME: 0 days 0 hours 0 minutes 7 seconds 914 msec
