                         Program Version 5.0.0 -  RELEASE  -
|  1> !TPSS D3BJ RIJCOSX def2-SVPD def2/J TightSCF
|  2> *xyz 0 1
|  3> C          1.64703       -2.34528       -5.02041
|  4> C          2.20996       -2.81239       -3.66571
|  5> C          2.48901       -1.66851       -2.73754
|  6> C          3.59631       -0.94761       -2.95225
|  7> N          1.66394       -1.41369       -1.77781
|  8> H          0.81164       -1.96318       -1.70275
|  9> H          1.84550       -0.63508       -1.15875
| 10> H          4.20535       -1.17600       -3.73383
| 11> H          3.81723       -0.12585       -2.40604
| 12> H          3.14311       -3.36280       -3.81152
| 13> H          1.48768       -3.45893       -3.16521
| 14> H          1.46566       -3.19589       -5.64368
| 15> H          2.35406       -1.69850       -5.49654
| 16> H          0.73014       -1.81680       -4.86253
| 17> *
| 18>
| 19> %MaxCore 64000
| 20> %pal nprocs 4
| 21> end
| 22>
| 23> %scf
| 24>   MaxIter 150
| 25> end
| 26>
| 27>
| 28>                          ****END OF INPUT****

CARTESIAN COORDINATES (ANGSTROEM)
---------------------------------
  C      1.647030   -2.345280   -5.020410
  C      2.209960   -2.812390   -3.665710
  C      2.489010   -1.668510   -2.737540
  C      3.596310   -0.947610   -2.952250
  N      1.663940   -1.413690   -1.777810
  H      0.811640   -1.963180   -1.702750
  H      1.845500   -0.635080   -1.158750
  H      4.205350   -1.176000   -3.733830
  H      3.817230   -0.125850   -2.406040
  H      3.143110   -3.362800   -3.811520
  H      1.487680   -3.458930   -3.165210
  H      1.465660   -3.195890   -5.643680
  H      2.354060   -1.698500   -5.496540
  H      0.730140   -1.816800   -4.862530

 Total Charge           Charge          ....    0
 Multiplicity           Mult            ....    1
 Number of Electrons    NEL             ....   40
 Basis Dimension        Dim             ....  172

ORBITAL ENERGIES
----------------

  NO   OCC          E(Eh)            E(eV)
   0   2.0000     -14.124696      -384.3525
   1   2.0000     -10.012386      -272.4509
   2   2.0000     -10.000623      -272.1308
   3   2.0000      -9.987208      -271.7657
   4   2.0000      -9.930187      -270.2141
   5   2.0000      -0.867219       -23.5982
   6   2.0000      -0.714880       -19.4529
   7   2.0000      -0.646866       -17.6021
   8   2.0000      -0.583492       -15.8776
   9   2.0000      -0.518785       -14.1169
  10   2.0000      -0.488277       -13.2867
  11   2.0000      -0.435457       -11.8494
  12   2.0000      -0.400753       -10.9050
  13   2.0000      -0.370306       -10.0765
  14   2.0000      -0.353283        -9.6133
  15   2.0000      -0.342498        -9.3198
  16   2.0000      -0.315916        -8.5965
  17   2.0000      -0.297590        -8.0978
  18   2.0000      -0.295306        -8.0357
  19   2.0000      -0.153530        -4.1778
  20   0.0000       0.003553         0.0967
  21   0.0000       0.022171         0.6033
  22   0.0000       0.039794         1.0829
  23   0.0000       0.046184         1.2567
  24   0.0000       0.057574         1.5667

MULLIKEN ATOMIC CHARGES
-----------------------
   0 C :    0.547223
   1 C :   -0.146829
   2 C :    0.004190
   3 C :    0.370958
   4 N :    0.149253
   5 H :   -0.088104
   6 H :   -0.143329
   7 H :   -0.130436
   8 H :   -0.460924
   9 H :    0.063828
  10 H :   -0.077040
  11 H :    0.009314
  12 H :   -0.043614
  13 H :   -0.054489
Sum of atomic charges:   -0.0000000

LOEWDIN ATOMIC CHARGES
----------------------
   0 C :    0.145146
   1 C :   -0.022269
   2 C :   -0.267602
   3 C :    0.177742
   4 N :    0.170441
   5 H :    0.007113
   6 H :    0.014226
   7 H :   -0.085076
   8 H :   -0.097000
   9 H :    0.023020
  10 H :    0.004609
  11 H :   -0.025452
  12 H :   -0.023705
  13 H :   -0.021192

  Mayer bond orders larger than 0.100000
B(  0-C ,  1-C ) :   1.2759 B(  0-C , 11-H ) :   0.8271 B(  0-C , 12-H ) :   0.8605
B(  0-C , 13-H ) :   0.8623 B(  1-C ,  2-C ) :   1.0794 B(  1-C ,  3-C ) :   0.1771
B(  1-C ,  4-N ) :   0.1160 B(  1-C ,  9-H ) :   0.8542 B(  1-C , 10-H ) :   0.8605
B(  1-C , 11-H ) :   0.1469 B(  1-C , 12-H ) :   0.1829 B(  1-C , 13-H ) :   0.1807
B(  2-C ,  3-C ) :   1.6687 B(  2-C ,  4-N ) :   1.2156 B(  2-C ,  8-H ) :   0.1624
B(  2-C ,  9-H ) :   0.1081 B(  2-C , 10-H ) :   0.1540 B(  3-C ,  4-N ) :   0.2639
B(  3-C ,  7-H ) :   0.8574 B(  3-C ,  8-H ) :   0.8340 B(  4-N ,  5-H ) :   1.1011
B(  4-N ,  6-H ) :   1.2663 B(  5-H ,  6-H ) :  -0.1339

Dispersion correction           -0.012969366
FINAL SINGLE POINT ENERGY      -212.464406537008

DIPOLE MOMENT
-------------
                                X             Y             Z
Electronic contribution:     -0.03480       0.67606       3.04112
Nuclear contribution   :     -0.69146      -0.83112      -2.71336
                        -----------------------------------------
Total Dipole Moment    :     -0.72626      -0.15506       0.32776
                        -----------------------------------------
Magnitude (a.u.)       :      0.81174
Magnitude (Debye)      :      2.06329

Rotational constants in cm-1:     0.270661     0.129240     0.102040
Rotational constants in MHz :  8114.202941  3874.518141  3059.074383

                             ****ORCA TERMINATED NORMALLY****
TOTAL RUN TIME: 0 days 0 hours 0 minutes 14 seconds 696 msec
