                         Program Version 5.0.0 -  RELEASE  -
|  1> !TPSS D3BJ RIJCOSX def2-SVPD def2/J TightSCF
|  2> *xyz 0 1
|  3> C          1.64703       -2.34528       -5.02041
|  4> C          2.20996       -2.81239       -3.66571
|  5> C          2.48901       -1.66851       -2.73754
|  6> N          3.59631       -0.94761       -2.95225
|  7> C          1.66394       -1.41369       -1.77781
|  8> H          0.81164       -1.96318       -1.70275
|  9> H          1.84550       -0.63508       -1.15875
| 10> H          4.20535       -1.17600       -3.73383
| 11> H          3.81723       -0.12585       -2.40604
| 12> H          3.14311       -3.36280       -3.81152
| 13> H          1.48768       -3.45893       -3.16521
| 14> H          1.46566       -3.19589       -5.64368
| 15> H          2.35406       -1.69850       -5.49654
| 16> H          0.73014       -1.81680       -4.86253
| 17> *
| 18>
| 19> %MaxCore 64000
| 20> %pal nprocs 4
| 21> end
| 22>
| 23> %scf
| 24>   MaxIter 150
| 25> end
| 26>
| 27>
| 28>                          ****END OF INPUT****

CARTESIAN COORDINATES (ANGSTROEM)
---------------------------------
  C      1.647030   -2.345280   -5.020410
  C      2.209960   -2.812390   -3.665710
  C      2.489010   -1.668510   -2.737540
  N      3.596310   -0.947610   -2.952250
  C      1.663940   -1.413690   -1.777810
  H      0.811640   -1.963180   -1.702750
  H      1.845500   -0.635080   -1.158750
  H      4.205350   -1.176000   -3.733830
  H      3.817230   -0.125850   -2.406040
  H      3.143110   -3.362800   -3.811520
  H      1.487680   -3.458930   -3.165210
  H      1.465660   -3.195890   -5.643680
  H      2.354060   -1.698500   -5.496540
  H      0.730140   -1.816800   -4.862530

 Total Charge           Charge          ....    0
 Multiplicity           Mult            ....    1
 Number of Electrons    NEL             ....   40
 Basis Dimension        Dim             ....  172

ORBITAL ENERGIES
----------------

  NO   OCC          E(Eh)            E(eV)
   0   2.0000     -14.118347      -384.1798
   1   2.0000     -10.010003      -272.3860
   2   2.0000      -9.999111      -272.0896
   3   2.0000      -9.988375      -271.7975
   4   2.0000      -9.932984      -270.2902
   5   2.0000      -0.849480       -23.1155
   6   2.0000      -0.715238       -19.4626
   7   2.0000      -0.660085       -17.9618
   8   2.0000      -0.579029       -15.7562
   9   2.0000      -0.515448       -14.0260
  10   2.0000      -0.476715       -12.9721
  11   2.0000      -0.435717       -11.8565
  12   2.0000      -0.394500       -10.7349
  13   2.0000      -0.380846       -10.3633
  14   2.0000      -0.357099        -9.7172
  15   2.0000      -0.344266        -9.3680
  16   2.0000      -0.315934        -8.5970
  17   2.0000      -0.296815        -8.0767
  18   2.0000      -0.286886        -7.8066
  19   2.0000      -0.163771        -4.4564
  20   0.0000       0.004650         0.1265
  21   0.0000       0.025227         0.6865
  22   0.0000       0.042088         1.1453
  23   0.0000       0.048615         1.3229
  24   0.0000       0.056855         1.5471

MULLIKEN ATOMIC CHARGES
-----------------------
   0 C :    0.580270
   1 C :   -0.200779
   2 C :    0.052354
   3 N :    0.105426
   4 C :    0.262834
   5 H :   -0.067410
   6 H :   -0.352016
   7 H :   -0.116491
   8 H :   -0.195374
   9 H :   -0.054829
  10 H :    0.073399
  11 H :   -0.003621
  12 H :   -0.038540
  13 H :   -0.045221
Sum of atomic charges:   -0.0000000

LOEWDIN ATOMIC CHARGES
----------------------
   0 C :    0.143449
   1 C :   -0.022861
   2 C :   -0.266744
   3 N :    0.174300
   4 C :    0.171790
   5 H :   -0.074110
   6 H :   -0.080815
   7 H :   -0.003255
   8 H :    0.000173
   9 H :    0.015404
  10 H :    0.015641
  11 H :   -0.025087
  12 H :   -0.029803
  13 H :   -0.018082

  Mayer bond orders larger than 0.100000
B(  0-C ,  1-C ) :   1.2367 B(  0-C , 11-H ) :   0.8362 B(  0-C , 12-H ) :   0.8157
B(  0-C , 13-H ) :   0.8753 B(  1-C ,  2-C ) :   1.1647 B(  1-C ,  3-N ) :   0.1121
B(  1-C ,  4-C ) :   0.1562 B(  1-C ,  9-H ) :   0.8919 B(  1-C , 10-H ) :   0.8696
B(  1-C , 11-H ) :   0.1580 B(  1-C , 12-H ) :   0.2038 B(  1-C , 13-H ) :   0.1630
B(  2-C ,  3-N ) :   1.1661 B(  2-C ,  4-C ) :   1.6414 B(  2-C ,  6-H ) :   0.2435
B(  2-C ,  9-H ) :   0.1427 B(  2-C , 10-H ) :   0.1335 B(  3-N ,  4-C ) :   0.2677
B(  3-N ,  7-H ) :   1.1472 B(  3-N ,  8-H ) :   1.2711 B(  4-C ,  5-H ) :   0.9505
B(  4-C ,  6-H ) :   0.7089 B(  7-H ,  8-H ) :  -0.1380

Dispersion correction           -0.012955130
FINAL SINGLE POINT ENERGY      -212.467909222556

DIPOLE MOMENT
-------------
                                X             Y             Z
Electronic contribution:      1.64852       1.08710       2.01741
Nuclear contribution   :     -1.13902      -0.93906      -2.44135
                        -----------------------------------------
Total Dipole Moment    :      0.50950       0.14804      -0.42394
                        -----------------------------------------
Magnitude (a.u.)       :      0.67914
Magnitude (Debye)      :      1.72624

Rotational constants in cm-1:     0.267243     0.130607     0.102304
Rotational constants in MHz :  8011.748167  3915.504600  3066.999841

                             ****ORCA TERMINATED NORMALLY****
TOTAL RUN TIME: 0 days 0 hours 0 minutes 14 seconds 565 msec
