                         Program Version 5.0.0 -  RELEASE  -
|  1> !TPSS D3BJ RIJCOSX def2-SVPD def2/J TightSCF xyzfile
|  2>
|  3> *xyzfile 0 1 D1.xyz
|  4>
|  5> %MaxCore 64000
|  6>
|  7> %pal nprocs 4
|  8> end
|  9>
| 10> %scf
| 11>   MaxIter 150
| 12> end
| 13>
| 14>
| 15>                          ****END OF INPUT****

CARTESIAN COORDINATES (ANGSTROEM)
---------------------------------
  C      1.647032   -2.345276   -5.020411
  C      0.217628   -1.814022   -4.924389
  C      2.209964   -2.812388   -3.665708
  C     -0.811356   -2.908780   -4.607625
  C     -1.916579   -2.485081   -3.643665
  H     -2.554525   -1.712428   -4.091993
  C     -1.363531   -1.981337   -2.293608
  H     -2.553448   -3.355667   -3.458815
  F     -0.350395   -2.749689   -1.796006
  H      2.308385   -1.588704   -5.457128
  H      1.674286   -3.203478   -5.697392
  C      2.489007   -1.668510   -2.737538
  C      3.596314   -0.947608   -2.952247
  N      1.663936   -1.413685   -1.777806
  H      0.811642   -1.963178   -1.702755
  H      1.845503   -0.635078   -1.158749
  H      4.205351   -1.176003   -3.733825
  H      3.817230   -0.125845   -2.406041
  H     -1.244829   -3.280884   -5.541040
  H     -0.306331   -3.757746   -4.142734
  H     -0.036244   -1.318555   -5.865303
  H      0.175004   -1.035382   -4.158095
  H      3.143106   -3.362803   -3.811524
  H      1.487683   -3.458935   -3.165211
  H     -2.226220   -1.908386   -1.602039
  H     -1.051353   -0.915671   -2.443331

 Total Charge           Charge          ....    0
 Multiplicity           Mult            ....    1
 Number of Electrons    NEL             ....   80
 Basis Dimension        Dim             ....  331

ORBITAL ENERGIES
----------------

  NO   OCC          E(Eh)            E(eV)
   0   2.0000     -24.463837      -665.6949
   1   2.0000     -14.088797      -383.3757
   2   2.0000     -10.100044      -274.8362
   3   2.0000     -10.019512      -272.6448
   4   2.0000     -10.003502      -272.2091
   5   2.0000      -9.996598      -272.0213
   6   2.0000      -9.995116      -271.9809
   7   2.0000      -9.991379      -271.8792
   8   2.0000      -9.987419      -271.7715
   9   2.0000      -9.914890      -269.7979
  10   2.0000      -1.163933       -31.6722
  11   2.0000      -0.845107       -22.9965
  12   2.0000      -0.756359       -20.5816
  13   2.0000      -0.716254       -19.4903
  14   2.0000      -0.673959       -18.3394
  15   2.0000      -0.631980       -17.1970
  16   2.0000      -0.608881       -16.5685
  17   2.0000      -0.559091       -15.2136
  18   2.0000      -0.538612       -14.6564
  19   2.0000      -0.523588       -14.2476
  20   2.0000      -0.486545       -13.2396
  21   2.0000      -0.483023       -13.1437
  22   2.0000      -0.463389       -12.6095
  23   2.0000      -0.443173       -12.0594
  24   2.0000      -0.422633       -11.5004
  25   2.0000      -0.414523       -11.2797
  26   2.0000      -0.395110       -10.7515
  27   2.0000      -0.379782       -10.3344
  28   2.0000      -0.376333       -10.2405
  29   2.0000      -0.348671        -9.4878
  30   2.0000      -0.332269        -9.0415
  31   2.0000      -0.326661        -8.8889
  32   2.0000      -0.320417        -8.7190
  33   2.0000      -0.316324        -8.6076
  34   2.0000      -0.302601        -8.2342
  35   2.0000      -0.295464        -8.0400
  36   2.0000      -0.285863        -7.7787
  37   2.0000      -0.273403        -7.4397
  38   2.0000      -0.272981        -7.4282
  39   2.0000      -0.136935        -3.7262
  40   0.0000       0.002641         0.0719
  41   0.0000       0.014739         0.4011
  42   0.0000       0.024878         0.6770
  43   0.0000       0.030376         0.8266
  44   0.0000       0.034981         0.9519

MULLIKEN ATOMIC CHARGES
-----------------------
   0 C :    0.149207
   1 C :    0.088408
   2 C :    0.512896
   3 C :    0.005440
   4 C :    0.129842
   5 H :   -0.072016
   6 C :    0.614721
   7 H :    0.033451
   8 F :   -0.505390
   9 H :   -0.015014
  10 H :   -0.092817
  11 C :   -0.098951
  12 C :    0.204304
  13 N :    0.561941
  14 H :   -0.409206
  15 H :   -0.152780
  16 H :   -0.089168
  17 H :   -0.336159
  18 H :   -0.197255
  19 H :    0.062676
  20 H :   -0.139551
  21 H :   -0.045767
  22 H :    0.020175
  23 H :   -0.217644
  24 H :   -0.260196
  25 H :    0.248852
Sum of atomic charges:   -0.0000000

LOEWDIN ATOMIC CHARGES
----------------------
   0 C :   -0.007598
   1 C :   -0.007525
   2 C :    0.030564
   3 C :   -0.018046
   4 C :   -0.002451
   5 H :    0.031322
   6 C :    0.148867
   7 H :    0.019531
   8 F :   -0.162153
   9 H :    0.017304
  10 H :    0.015976
  11 C :   -0.246749
  12 C :    0.169942
  13 N :    0.207476
  14 H :   -0.134830
  15 H :    0.016179
  16 H :   -0.090349
  17 H :   -0.099641
  18 H :    0.020356
  19 H :    0.002431
  20 H :    0.016489
  21 H :   -0.003837
  22 H :    0.024404
  23 H :   -0.011369
  24 H :    0.032488
  25 H :    0.031220

  Mayer bond orders larger than 0.100000
B(  0-C ,  1-C ) :   1.2552 B(  0-C ,  2-C ) :   1.1588 B(  0-C ,  9-H ) :   0.7784
B(  0-C , 10-H ) :   0.8993 B(  0-C , 20-H ) :   0.1003 B(  0-C , 21-H ) :   0.1723
B(  0-C , 22-H ) :   0.1101 B(  0-C , 23-H ) :   0.1625 B(  1-C ,  3-C ) :   1.1811
B(  1-C ,  9-H ) :   0.1767 B(  1-C , 10-H ) :   0.1297 B(  1-C , 18-H ) :   0.1948
B(  1-C , 20-H ) :   0.8621 B(  1-C , 21-H ) :   0.8097 B(  2-C ,  9-H ) :   0.1533
B(  2-C , 11-C ) :   0.9647 B(  2-C , 13-N ) :   0.1430 B(  2-C , 22-H ) :   0.7765
B(  2-C , 23-H ) :   0.6718 B(  3-C ,  4-C ) :   1.2380 B(  3-C ,  5-H ) :   0.1324
B(  3-C ,  7-H ) :   0.1886 B(  3-C , 18-H ) :   0.9142 B(  3-C , 19-H ) :   0.8268
B(  3-C , 20-H ) :   0.1111 B(  3-C , 21-H ) :   0.1467 B(  4-C ,  5-H ) :   0.9017
B(  4-C ,  6-C ) :   1.2516 B(  4-C ,  7-H ) :   0.7206 B(  4-C ,  8-F ) :   0.1059
B(  4-C , 24-H ) :   0.1437 B(  5-H ,  6-C ) :   0.1025 B(  6-C ,  8-F ) :   0.5766
B(  6-C , 24-H ) :   1.0119 B(  6-C , 25-H ) :   0.7600 B(  8-F , 14-H ) :   0.1741
B(  9-H , 10-H ) :  -0.1112 B( 11-C , 12-C ) :   1.6551 B( 11-C , 13-N ) :   1.2034
B( 11-C , 14-H ) :   0.1142 B( 11-C , 15-H ) :  -0.1283 B( 11-C , 17-H ) :   0.1731
B( 11-C , 22-H ) :   0.1603 B( 11-C , 23-H ) :   0.2097 B( 12-C , 13-N ) :   0.2254
B( 12-C , 16-H ) :   0.8766 B( 12-C , 17-H ) :   0.7219 B( 13-N , 14-H ) :   0.7936
B( 13-N , 15-H ) :   1.2535 B( 14-H , 15-H ) :  -0.2027 B( 14-H , 23-H ) :   0.1026
B( 16-H , 17-H ) :   0.1149 B( 19-H , 23-H ) :   0.1120

Dispersion correction           -0.032979577
FINAL SINGLE POINT ENERGY      -468.807935984341

DIPOLE MOMENT
-------------
                                X             Y             Z
Electronic contribution:     -1.26847      -1.74228       6.94536
Nuclear contribution   :     -0.37390       1.73388      -6.94752
                        -----------------------------------------
Total Dipole Moment    :     -1.64238      -0.00840      -0.00216
                        -----------------------------------------
Magnitude (a.u.)       :      1.64240
Magnitude (Debye)      :      4.17465

Rotational constants in cm-1:     0.062220     0.032742     0.024374
Rotational constants in MHz :  1865.297979   981.573941   730.711364

                             ****ORCA TERMINATED NORMALLY****
TOTAL RUN TIME: 0 days 0 hours 0 minutes 42 seconds 588 msec
