                         Program Version 5.0.0 -  RELEASE  -
|  1> !TPSS D3BJ RIJCOSX def2-SVPD def2/J TightSCF xyzfile
|  2>
|  3> *xyzfile 0 1 D2.xyz
|  4>
|  5> %MaxCore 64000
|  6>
|  7> %pal nprocs 4
|  8> end
|  9>
| 10> %scf
| 11>   MaxIter 150
| 12> end
| 13>
| 14>
| 15>                          ****END OF INPUT****

CARTESIAN COORDINATES (ANGSTROEM)
---------------------------------
  C      1.647032   -2.345276   -5.020411
  C      0.217628   -1.814022   -4.924389
  C      2.209964   -2.812388   -3.665708
  C     -0.811356   -2.908780   -4.607625
  C     -1.916579   -2.485081   -3.643665
  H     -2.554525   -1.712428   -4.091993
  C     -1.363531   -1.981337   -2.293608
  H     -2.553448   -3.355667   -3.458815
  F     -0.350395   -2.749689   -1.796006
  H      2.308385   -1.588704   -5.457128
  H      1.674286   -3.203478   -5.697392
  C      2.489007   -1.668510   -2.737538
  N      3.596314   -0.947608   -2.952247
  C      1.663936   -1.413685   -1.777806
  H      0.811642   -1.963178   -1.702755
  H      1.845503   -0.635078   -1.158749
  H      4.205351   -1.176003   -3.733825
  H      3.817230   -0.125845   -2.406041
  H     -1.244829   -3.280884   -5.541040
  H     -0.306331   -3.757746   -4.142734
  H     -0.036244   -1.318555   -5.865303
  H      0.175004   -1.035382   -4.158095
  H      3.143106   -3.362803   -3.811524
  H      1.487683   -3.458935   -3.165211
  H     -2.226220   -1.908386   -1.602039
  H     -1.051353   -0.915671   -2.443331

 Total Charge           Charge          ....    0
 Multiplicity           Mult            ....    1
 Number of Electrons    NEL             ....   80
 Basis Dimension        Dim             ....  331

ORBITAL ENERGIES
----------------

  NO   OCC          E(Eh)            E(eV)
   0   2.0000     -24.430474      -664.7870
   1   2.0000     -14.105819      -383.8388
   2   2.0000     -10.080800      -274.3125
   3   2.0000     -10.007316      -272.3129
   4   2.0000      -9.995712      -271.9972
   5   2.0000      -9.994088      -271.9530
   6   2.0000      -9.992425      -271.9077
   7   2.0000      -9.988954      -271.8133
   8   2.0000      -9.987236      -271.7665
   9   2.0000      -9.900909      -269.4174
  10   2.0000      -1.132632       -30.8205
  11   2.0000      -0.836518       -22.7628
  12   2.0000      -0.746983       -20.3264
  13   2.0000      -0.713337       -19.4109
  14   2.0000      -0.665202       -18.1011
  15   2.0000      -0.640357       -17.4250
  16   2.0000      -0.599570       -16.3151
  17   2.0000      -0.550267       -14.9735
  18   2.0000      -0.519277       -14.1303
  19   2.0000      -0.515642       -14.0313
  20   2.0000      -0.479297       -13.0423
  21   2.0000      -0.464618       -12.6429
  22   2.0000      -0.452068       -12.3014
  23   2.0000      -0.441299       -12.0083
  24   2.0000      -0.418133       -11.3780
  25   2.0000      -0.401209       -10.9174
  26   2.0000      -0.397924       -10.8281
  27   2.0000      -0.390408       -10.6235
  28   2.0000      -0.359211        -9.7746
  29   2.0000      -0.344031        -9.3616
  30   2.0000      -0.330753        -9.0002
  31   2.0000      -0.320501        -8.7213
  32   2.0000      -0.312334        -8.4990
  33   2.0000      -0.299502        -8.1499
  34   2.0000      -0.288358        -7.8466
  35   2.0000      -0.286189        -7.7876
  36   2.0000      -0.277135        -7.5412
  37   2.0000      -0.269617        -7.3366
  38   2.0000      -0.255789        -6.9604
  39   2.0000      -0.148924        -4.0524
  40   0.0000       0.009990         0.2718
  41   0.0000       0.016248         0.4421
  42   0.0000       0.023369         0.6359
  43   0.0000       0.035921         0.9775
  44   0.0000       0.044185         1.2023

MULLIKEN ATOMIC CHARGES
-----------------------
   0 C :    0.250706
   1 C :    0.116333
   2 C :    0.252819
   3 C :    0.020989
   4 C :    0.135925
   5 H :   -0.087340
   6 C :    0.558376
   7 H :    0.025927
   8 F :   -0.560674
   9 H :   -0.019451
  10 H :   -0.085596
  11 C :    0.163746
  12 N :    0.006274
  13 C :    0.871885
  14 H :   -0.217903
  15 H :   -0.728344
  16 H :   -0.118800
  17 H :   -0.187717
  18 H :   -0.188430
  19 H :    0.044310
  20 H :   -0.147316
  21 H :   -0.027792
  22 H :   -0.167606
  23 H :    0.026230
  24 H :   -0.272739
  25 H :    0.336187
Sum of atomic charges:   -0.0000000

LOEWDIN ATOMIC CHARGES
----------------------
   0 C :   -0.012636
   1 C :   -0.007257
   2 C :    0.029686
   3 C :   -0.017667
   4 C :   -0.004675
   5 H :    0.028614
   6 C :    0.147743
   7 H :    0.017887
   8 F :   -0.185908
   9 H :    0.011256
  10 H :    0.015156
  11 C :   -0.237223
  12 N :    0.171237
  13 C :    0.204794
  14 H :   -0.183040
  15 H :   -0.075126
  16 H :   -0.007666
  17 H :   -0.002748
  18 H :    0.018300
  19 H :    0.002975
  20 H :    0.015018
  21 H :   -0.004811
  22 H :    0.016397
  23 H :   -0.001392
  24 H :    0.029712
  25 H :    0.031374

  Mayer bond orders larger than 0.100000
B(  0-C ,  1-C ) :   1.2353 B(  0-C ,  2-C ) :   1.0970 B(  0-C ,  9-H ) :   0.7601
B(  0-C , 10-H ) :   0.8465 B(  0-C , 21-H ) :   0.1808 B(  0-C , 22-H ) :   0.1073
B(  1-C ,  2-C ) :   0.1149 B(  1-C ,  3-C ) :   1.1729 B(  1-C ,  9-H ) :   0.1708
B(  1-C , 18-H ) :   0.1863 B(  1-C , 20-H ) :   0.8669 B(  1-C , 21-H ) :   0.8194
B(  2-C ,  9-H ) :   0.1335 B(  2-C , 10-H ) :   0.1547 B(  2-C , 11-C ) :   1.1438
B(  2-C , 12-N ) :   0.1633 B(  2-C , 13-C ) :   0.1461 B(  2-C , 21-H ) :  -0.1018
B(  2-C , 22-H ) :   0.8598 B(  2-C , 23-H ) :   0.8350 B(  3-C ,  4-C ) :   1.2482
B(  3-C ,  5-H ) :   0.1313 B(  3-C ,  7-H ) :   0.1904 B(  3-C , 18-H ) :   0.9044
B(  3-C , 19-H ) :   0.8126 B(  3-C , 20-H ) :   0.1163 B(  3-C , 21-H ) :   0.1401
B(  4-C ,  5-H ) :   0.8910 B(  4-C ,  6-C ) :   1.2508 B(  4-C ,  7-H ) :   0.7147
B(  4-C ,  8-F ) :   0.1020 B(  4-C , 24-H ) :   0.1423 B(  5-H ,  6-C ) :   0.1176
B(  6-C ,  8-F ) :   0.5981 B(  6-C , 14-H ) :   0.1188 B(  6-C , 24-H ) :   1.0366
B(  6-C , 25-H ) :   0.7106 B(  8-F , 14-H ) :   0.1817 B( 11-C , 12-N ) :   0.9750
B( 11-C , 13-C ) :   1.7566 B( 11-C , 14-H ) :   0.1599 B( 11-C , 15-H ) :   0.1990
B( 11-C , 22-H ) :   0.2063 B( 11-C , 23-H ) :   0.1130 B( 12-N , 13-C ) :   0.3632
B( 12-N , 16-H ) :   1.1886 B( 12-N , 17-H ) :   1.3126 B( 13-C , 14-H ) :   0.5930
B( 13-C , 15-H ) :   0.7111 B( 14-H , 15-H ) :  -0.3540 B( 15-H , 21-H ) :  -0.1238
B( 16-H , 17-H ) :  -0.1423 B( 19-H , 23-H ) :   0.1262

Dispersion correction           -0.033160266
FINAL SINGLE POINT ENERGY      -468.790552025701

DIPOLE MOMENT
-------------
                                X             Y             Z
Electronic contribution:      0.44932      -1.31759       6.09761
Nuclear contribution   :     -0.73748       1.64619      -6.72655
                        -----------------------------------------
Total Dipole Moment    :     -0.28816       0.32860      -0.62894
                        -----------------------------------------
Magnitude (a.u.)       :      0.76588
Magnitude (Debye)      :      1.94672

Rotational constants in cm-1:     0.063169     0.031711     0.023958
Rotational constants in MHz :  1893.751676   950.657187   718.229932

                             ****ORCA TERMINATED NORMALLY****
TOTAL RUN TIME: 0 days 0 hours 0 minutes 42 seconds 310 msec
