                         Program Version 5.0.0 -  RELEASE  -
|  1> !PBE0 D3BJ RIJCOSX def2-SVPD def2/J TightSCF
|  2> *xyz -1 1
|  3> C         -0.05915        1.50352        3.41058
|  4> C          1.08303        0.74964        4.08571
|  5> O          2.22817        1.26348        4.01983
|  6> O          0.81003       -0.34541        4.63627
|  7> H          0.31461        2.41205        2.98658
|  8> H         -0.81316        1.73160        4.13470
|  9> H         -0.47977        0.89552        2.63708
| 10> *
| 11>
| 12> %MaxCore 64000
| 13>
| 14> %pal nprocs 4
| 15> end
| 16>
| 17> %scf
| 18>   MaxIter 150
| 19> end
| 20>
| 21>
| 22>                          ****END OF INPUT****

CARTESIAN COORDINATES (ANGSTROEM)
---------------------------------
  C     -0.059150    1.503520    3.410580
  C      1.083030    0.749640    4.085710
  O      2.228170    1.263480    4.019830
  O      0.810030   -0.345410    4.636270
  H      0.314610    2.412050    2.986580
  H     -0.813160    1.731600    4.134700
  H     -0.479770    0.895520    2.637080

 Total Charge           Charge          ....   -1
 Multiplicity           Mult            ....    1
 Number of Electrons    NEL             ....   32
 Basis Dimension        Dim             ....  110

ORBITAL ENERGIES
----------------

  NO   OCC          E(Eh)            E(eV)
   0   2.0000     -18.950264      -515.6629
   1   2.0000     -18.949640      -515.6459
   2   2.0000     -10.114539      -275.2306
   3   2.0000     -10.043676      -273.3023
   4   2.0000      -0.835896       -22.7459
   5   2.0000      -0.741197       -20.1690
   6   2.0000      -0.558944       -15.2096
   7   2.0000      -0.317369        -8.6360
   8   2.0000      -0.273129        -7.4322
   9   2.0000      -0.258830        -7.0431
  10   2.0000      -0.239816        -6.5257
  11   2.0000      -0.198196        -5.3932
  12   2.0000      -0.178256        -4.8506
  13   2.0000      -0.059393        -1.6162
  14   2.0000      -0.053338        -1.4514
  15   2.0000      -0.038093        -1.0366
  16   0.0000       0.179107         4.8737
  17   0.0000       0.219937         5.9848
  18   0.0000       0.230391         6.2693
  19   0.0000       0.248745         6.7687
  20   0.0000       0.272325         7.4103

MULLIKEN ATOMIC CHARGES
-----------------------
   0 C :    0.301940
   1 C :    0.174137
   2 O :   -0.714951
   3 O :   -0.733392
   4 H :   -0.021398
   5 H :   -0.002878
   6 H :   -0.003458
Sum of atomic charges:   -1.0000000

LOEWDIN ATOMIC CHARGES
----------------------
   0 C :    0.136538
   1 C :   -0.328199
   2 O :   -0.347295
   3 O :   -0.348738
   4 H :   -0.042297
   5 H :   -0.035469
   6 H :   -0.034540

  Mayer bond orders larger than 0.100000
B(  0-C ,  1-C ) :   1.2377 B(  0-C ,  4-H ) :   0.8961 B(  0-C ,  5-H ) :   0.8464
B(  0-C ,  6-H ) :   0.8493 B(  1-C ,  2-O ) :   1.3991 B(  1-C ,  3-O ) :   1.4080
B(  1-C ,  4-H ) :   0.2169 B(  1-C ,  5-H ) :   0.1445 B(  1-C ,  6-H ) :   0.1411

Dispersion correction           -0.003027131
FINAL SINGLE POINT ENERGY      -228.121060050265

DIPOLE MOMENT
-------------
                                X             Y             Z
Electronic contribution:      2.69504      -1.77383       1.58181
Nuclear contribution   :     -3.75920       2.48542      -2.19871
                        -----------------------------------------
Total Dipole Moment    :     -1.06416       0.71159      -0.61690
                        -----------------------------------------
Magnitude (a.u.)       :      1.42105
Magnitude (Debye)      :      3.61202

Rotational constants in cm-1:     0.392838     0.334689     0.186890
Rotational constants in MHz : 11776.984954 10033.729666  5602.815156

                             ****ORCA TERMINATED NORMALLY****
TOTAL RUN TIME: 0 days 0 hours 0 minutes 7 seconds 282 msec
