                         Program Version 5.0.0 -  RELEASE  -
|  1> !PBE0 D3BJ RIJCOSX def2-SVPD def2/J TightSCF
|  2> *xyz 1 1
|  3> C          4.60295       -2.44010        2.63478
|  4> C          3.86085       -1.59157        3.62289
|  5> N          2.75650       -2.04616        4.16633
|  6> N          4.25433       -0.36291        3.86046
|  7> H          3.56526        0.31099        4.16898
|  8> H          5.05429       -0.01606        3.33784
|  9> H          2.43970       -2.97389        3.89740
| 10> H          2.06687       -1.41253        4.54981
| 11> H          5.47239       -1.91604        2.29664
| 12> H          3.96816       -2.65362        1.80030
| 13> H          4.89801       -3.35632        3.10209
| 14> *
| 15>
| 16> %MaxCore 64000
| 17>
| 18> %pal nprocs 4
| 19> end
| 20>
| 21> %scf
| 22>   MaxIter 150
| 23> end
| 24>
| 25>
| 26>                          ****END OF INPUT****

CARTESIAN COORDINATES (ANGSTROEM)
---------------------------------
  C      4.602950   -2.440100    2.634780
  C      3.860850   -1.591570    3.622890
  N      2.756500   -2.046160    4.166330
  N      4.254330   -0.362910    3.860460
  H      3.565260    0.310990    4.168980
  H      5.054290   -0.016060    3.337840
  H      2.439700   -2.973890    3.897400
  H      2.066870   -1.412530    4.549810
  H      5.472390   -1.916040    2.296640
  H      3.968160   -2.653620    1.800300
  H      4.898010   -3.356320    3.102090

 Total Charge           Charge          ....    1
 Multiplicity           Mult            ....    1
 Number of Electrons    NEL             ....   32
 Basis Dimension        Dim             ....  136

ORBITAL ENERGIES
----------------

  NO   OCC          E(Eh)            E(eV)
   0   2.0000     -14.649558      -398.6347
   1   2.0000     -14.648797      -398.6140
   2   2.0000     -10.567341      -287.5520
   3   2.0000     -10.435050      -283.9522
   4   2.0000      -1.235993       -33.6331
   5   2.0000      -1.135797       -30.9066
   6   2.0000      -0.974705       -26.5231
   7   2.0000      -0.862171       -23.4609
   8   2.0000      -0.798400       -21.7256
   9   2.0000      -0.790830       -21.5196
  10   2.0000      -0.720777       -19.6133
  11   2.0000      -0.682199       -18.5636
  12   2.0000      -0.636991       -17.3334
  13   2.0000      -0.619570       -16.8593
  14   2.0000      -0.591090       -16.0844
  15   2.0000      -0.517126       -14.0717
  16   0.0000      -0.221489        -6.0270
  17   0.0000      -0.156013        -4.2453
  18   0.0000      -0.111378        -3.0308
  19   0.0000      -0.107213        -2.9174
  20   0.0000      -0.087870        -2.3911

MULLIKEN ATOMIC CHARGES
-----------------------
   0 C :    0.434947
   1 C :    0.399115
   2 N :   -0.022507
   3 N :   -0.101822
   4 H :   -0.024203
   5 H :    0.095242
   6 H :    0.069855
   7 H :   -0.093913
   8 H :    0.073080
   9 H :    0.067662
  10 H :    0.102544
Sum of atomic charges:    1.0000000

LOEWDIN ATOMIC CHARGES
----------------------
   0 C :    0.233745
   1 C :   -0.064750
   2 N :    0.272816
   3 N :    0.275823
   4 H :    0.052550
   5 H :    0.055247
   6 H :    0.060929
   7 H :    0.052221
   8 H :    0.008650
   9 H :    0.028239
  10 H :    0.024530

  Mayer bond orders larger than 0.100000
B(  0-C ,  1-C ) :   1.3079 B(  0-C ,  8-H ) :   0.8164 B(  0-C ,  9-H ) :   0.8492
B(  0-C , 10-H ) :   0.7222 B(  1-C ,  2-N ) :   1.0812 B(  1-C ,  3-N ) :   1.0080
B(  1-C ,  4-H ) :  -0.1350 B(  1-C ,  7-H ) :  -0.1468 B(  1-C ,  8-H ) :   0.2034
B(  1-C ,  9-H ) :   0.1076 B(  1-C , 10-H ) :   0.2043 B(  2-N ,  3-N ) :   0.1800
B(  2-N ,  6-H ) :   1.0469 B(  2-N ,  7-H ) :   1.2478 B(  3-N ,  4-H ) :   1.2262
B(  3-N ,  5-H ) :   1.0038 B(  4-H ,  5-H ) :  -0.1297 B(  6-H ,  7-H ) :  -0.1421
B(  8-H , 10-H ) :   0.1072

Dispersion correction           -0.005745522
FINAL SINGLE POINT ENERGY      -189.370633282784

DIPOLE MOMENT
-------------
                                X             Y             Z
Electronic contribution:     -0.95526       1.14702       1.61231
Nuclear contribution   :      0.47466      -0.79212      -1.71537
                        -----------------------------------------
Total Dipole Moment    :     -0.48061       0.35490      -0.10306
                        -----------------------------------------
Magnitude (a.u.)       :      0.60627
Magnitude (Debye)      :      1.54101

Rotational constants in cm-1:     0.335502     0.299428     0.163704
Rotational constants in MHz : 10058.111638  8976.630214  4907.722182

                             ****ORCA TERMINATED NORMALLY****
TOTAL RUN TIME: 0 days 0 hours 0 minutes 9 seconds 15 msec
