                         Program Version 5.0.0 -  RELEASE  -
|  1> !PBE0 D3BJ RIJCOSX def2-SVPD def2/J TightSCF
|  2> *xyz 0 1
|  3> C         -0.05915        1.50352        3.41058
|  4> C          1.08303        0.74964        4.08571
|  5> F          2.22817        1.26348        4.01983
|  6> O          0.81003       -0.34541        4.63627
|  7> H          0.31461        2.41205        2.98658
|  8> H         -0.81316        1.73160        4.13470
|  9> H         -0.47977        0.89552        2.63708
| 10> *
| 11>
| 12> %MaxCore 64000
| 13>
| 14> %pal nprocs 4
| 15> end
| 16>
| 17> %scf
| 18>   MaxIter 150
| 19> end
| 20>
| 21>
| 22>                          ****END OF INPUT****

CARTESIAN COORDINATES (ANGSTROEM)
---------------------------------
  C     -0.059150    1.503520    3.410580
  C      1.083030    0.749640    4.085710
  F      2.228170    1.263480    4.019830
  O      0.810030   -0.345410    4.636270
  H      0.314610    2.412050    2.986580
  H     -0.813160    1.731600    4.134700
  H     -0.479770    0.895520    2.637080

 Total Charge           Charge          ....    0
 Multiplicity           Mult            ....    1
 Number of Electrons    NEL             ....   32
 Basis Dimension        Dim             ....  110

ORBITAL ENERGIES
----------------

  NO   OCC          E(Eh)            E(eV)
   0   2.0000     -24.858949      -676.4464
   1   2.0000     -19.229052      -523.2491
   2   2.0000     -10.421399      -283.5807
   3   2.0000     -10.261315      -279.2246
   4   2.0000      -1.342587       -36.5336
   5   2.0000      -1.057019       -28.7629
   6   2.0000      -0.792450       -21.5637
   7   2.0000      -0.682367       -18.5682
   8   2.0000      -0.571709       -15.5570
   9   2.0000      -0.567597       -15.4451
  10   2.0000      -0.523458       -14.2440
  11   2.0000      -0.462836       -12.5944
  12   2.0000      -0.449190       -12.2231
  13   2.0000      -0.422549       -11.4981
  14   2.0000      -0.371957       -10.1215
  15   2.0000      -0.313779        -8.5384
  16   0.0000      -0.030630        -0.8335
  17   0.0000       0.018866         0.5134
  18   0.0000       0.065362         1.7786
  19   0.0000       0.094667         2.5760
  20   0.0000       0.095507         2.5989

MULLIKEN ATOMIC CHARGES
-----------------------
   0 C :    0.231389
   1 C :    0.511265
   2 F :   -0.376609
   3 O :   -0.540734
   4 H :    0.026696
   5 H :    0.073120
   6 H :    0.074872
Sum of atomic charges:    0.0000000

LOEWDIN ATOMIC CHARGES
----------------------
   0 C :    0.210026
   1 C :   -0.023772
   2 F :   -0.043586
   3 O :   -0.145379
   4 H :   -0.011511
   5 H :    0.006857
   6 H :    0.007365

  Mayer bond orders larger than 0.100000
B(  0-C ,  1-C ) :   1.2677 B(  0-C ,  4-H ) :   0.8995 B(  0-C ,  5-H ) :   0.8277
B(  0-C ,  6-H ) :   0.8298 B(  1-C ,  2-F ) :   0.7504 B(  1-C ,  3-O ) :   1.7350
B(  1-C ,  4-H ) :   0.1330 B(  1-C ,  5-H ) :   0.1235 B(  1-C ,  6-H ) :   0.1197

Dispersion correction           -0.002787639
FINAL SINGLE POINT ENERGY      -252.642248139220

DIPOLE MOMENT
-------------
                                X             Y             Z
Electronic contribution:      4.67556      -1.02981       1.56876
Nuclear contribution   :     -5.01294       1.99942      -2.18092
                        -----------------------------------------
Total Dipole Moment    :     -0.33738       0.96962      -0.61217
                        -----------------------------------------
Magnitude (a.u.)       :      1.19529
Magnitude (Debye)      :      3.03820

Rotational constants in cm-1:     0.368501     0.321908     0.177384
Rotational constants in MHz : 11047.396090  9650.552559  5317.833075

                             ****ORCA TERMINATED NORMALLY****
TOTAL RUN TIME: 0 days 0 hours 0 minutes 6 seconds 827 msec
