                         Program Version 5.0.0 -  RELEASE  -
|  1> !PBE0 D3BJ RIJCOSX def2-SVPD def2/J TightSCF
|  2> *xyz 0 1
|  3> C          4.60295       -2.44010        2.63478
|  4> C          3.86085       -1.59157        3.62289
|  5> C          2.75650       -2.04616        4.16633
|  6> N          4.25433       -0.36291        3.86046
|  7> H          3.56526        0.31099        4.16898
|  8> H          5.05429       -0.01606        3.33784
|  9> H          2.43970       -2.97389        3.89740
| 10> H          2.06687       -1.41253        4.54981
| 11> H          5.47239       -1.91604        2.29664
| 12> H          3.96816       -2.65362        1.80030
| 13> H          4.89801       -3.35632        3.10209
| 14> *
| 15>
| 16> %MaxCore 64000
| 17>
| 18> %pal nprocs 4
| 19> end
| 20>
| 21> %scf
| 22>   MaxIter 150
| 23> end
| 24>
| 25>
| 26>                          ****END OF INPUT****

CARTESIAN COORDINATES (ANGSTROEM)
---------------------------------
  C      4.602950   -2.440100    2.634780
  C      3.860850   -1.591570    3.622890
  C      2.756500   -2.046160    4.166330
  N      4.254330   -0.362910    3.860460
  H      3.565260    0.310990    4.168980
  H      5.054290   -0.016060    3.337840
  H      2.439700   -2.973890    3.897400
  H      2.066870   -1.412530    4.549810
  H      5.472390   -1.916040    2.296640
  H      3.968160   -2.653620    1.800300
  H      4.898010   -3.356320    3.102090

 Total Charge           Charge          ....    0
 Multiplicity           Mult            ....    1
 Number of Electrons    NEL             ....   32
 Basis Dimension        Dim             ....  136

ORBITAL ENERGIES
----------------

  NO   OCC          E(Eh)            E(eV)
   0   2.0000     -14.398157      -391.7938
   1   2.0000     -10.253698      -279.0173
   2   2.0000     -10.225101      -278.2392
   3   2.0000     -10.161611      -276.5115
   4   2.0000      -0.952672       -25.9235
   5   2.0000      -0.774935       -21.0871
   6   2.0000      -0.706307       -19.2196
   7   2.0000      -0.586416       -15.9572
   8   2.0000      -0.542376       -14.7588
   9   2.0000      -0.488061       -13.2808
  10   2.0000      -0.446699       -12.1553
  11   2.0000      -0.413017       -11.2388
  12   2.0000      -0.401738       -10.9318
  13   2.0000      -0.375047       -10.2056
  14   2.0000      -0.344094        -9.3633
  15   2.0000      -0.201246        -5.4762
  16   0.0000       0.023989         0.6528
  17   0.0000       0.044998         1.2245
  18   0.0000       0.063700         1.7334
  19   0.0000       0.070461         1.9173
  20   0.0000       0.097265         2.6467

MULLIKEN ATOMIC CHARGES
-----------------------
   0 C :    0.625738
   1 C :   -0.386897
   2 C :    0.233786
   3 N :   -0.002667
   4 H :   -0.061963
   5 H :   -0.046695
   6 H :   -0.061558
   7 H :   -0.330645
   8 H :   -0.053790
   9 H :    0.010318
  10 H :    0.074373
Sum of atomic charges:    0.0000000

LOEWDIN ATOMIC CHARGES
----------------------
   0 C :    0.165394
   1 C :   -0.292501
   2 C :    0.153019
   3 N :    0.155634
   4 H :    0.010376
   5 H :   -0.000864
   6 H :   -0.074918
   7 H :   -0.083378
   8 H :   -0.025884
   9 H :   -0.002695
  10 H :   -0.004183

  Mayer bond orders larger than 0.100000
B(  0-C ,  1-C ) :   1.1929 B(  0-C ,  8-H ) :   0.7578 B(  0-C ,  9-H ) :   0.8444
B(  0-C , 10-H ) :   0.7240 B(  1-C ,  2-C ) :   1.8891 B(  1-C ,  3-N ) :   0.9691
B(  1-C ,  6-H ) :   0.1509 B(  1-C ,  7-H ) :   0.1352 B(  1-C ,  8-H ) :   0.2508
B(  1-C ,  9-H ) :   0.1151 B(  1-C , 10-H ) :   0.2177 B(  2-C ,  3-N ) :   0.2567
B(  2-C ,  6-H ) :   0.7986 B(  2-C ,  7-H ) :   0.9215 B(  3-N ,  4-H ) :   1.1569
B(  3-N ,  5-H ) :   1.0453 B(  4-H ,  5-H ) :  -0.1151 B(  6-H ,  7-H ) :   0.1109

Dispersion correction           -0.006037368
FINAL SINGLE POINT ENERGY      -172.923341656630

DIPOLE MOMENT
-------------
                                X             Y             Z
Electronic contribution:      0.12820       1.45851       1.07259
Nuclear contribution   :      0.22927      -0.89318      -1.58153
                        -----------------------------------------
Total Dipole Moment    :      0.35747       0.56533      -0.50894
                        -----------------------------------------
Magnitude (a.u.)       :      0.84047
Magnitude (Debye)      :      2.13631

Rotational constants in cm-1:     0.356805     0.302813     0.169682
Rotational constants in MHz : 10696.748191  9078.116910  5086.926242

                             ****ORCA TERMINATED NORMALLY****
TOTAL RUN TIME: 0 days 0 hours 0 minutes 9 seconds 636 msec
