                         Program Version 5.0.0 -  RELEASE  -
|  1> !PBE0 D3BJ RIJCOSX def2-SVPD def2/J TightSCF
|  2> *xyz 0 1
|  3> C         -0.05915        1.50352        3.41058
|  4> C          1.08303        0.74964        4.08571
|  5> O          2.22817        1.26348        4.01983
|  6> F          0.81003       -0.34541        4.63627
|  7> H          0.31461        2.41205        2.98658
|  8> H         -0.81316        1.73160        4.13470
|  9> H         -0.47977        0.89552        2.63708
| 10> *
| 11>
| 12> %MaxCore 64000
| 13>
| 14> %pal nprocs 4
| 15> end
| 16>
| 17> %scf
| 18>   MaxIter 150
| 19> end
| 20>
| 21>
| 22>                          ****END OF INPUT****

CARTESIAN COORDINATES (ANGSTROEM)
---------------------------------
  C     -0.059150    1.503520    3.410580
  C      1.083030    0.749640    4.085710
  O      2.228170    1.263480    4.019830
  F      0.810030   -0.345410    4.636270
  H      0.314610    2.412050    2.986580
  H     -0.813160    1.731600    4.134700
  H     -0.479770    0.895520    2.637080

 Total Charge           Charge          ....    0
 Multiplicity           Mult            ....    1
 Number of Electrons    NEL             ....   32
 Basis Dimension        Dim             ....  110

ORBITAL ENERGIES
----------------

  NO   OCC          E(Eh)            E(eV)
   0   2.0000     -24.859700      -676.4668
   1   2.0000     -19.228902      -523.2450
   2   2.0000     -10.421188      -283.5749
   3   2.0000     -10.261100      -279.2187
   4   2.0000      -1.343462       -36.5575
   5   2.0000      -1.056473       -28.7481
   6   2.0000      -0.792318       -21.5601
   7   2.0000      -0.682741       -18.5783
   8   2.0000      -0.572838       -15.5877
   9   2.0000      -0.567573       -15.4444
  10   2.0000      -0.523041       -14.2327
  11   2.0000      -0.461911       -12.5692
  12   2.0000      -0.449666       -12.2360
  13   2.0000      -0.422237       -11.4897
  14   2.0000      -0.374383       -10.1875
  15   2.0000      -0.311800        -8.4845
  16   0.0000      -0.027613        -0.7514
  17   0.0000       0.018950         0.5157
  18   0.0000       0.065195         1.7741
  19   0.0000       0.091644         2.4938
  20   0.0000       0.100183         2.7261

MULLIKEN ATOMIC CHARGES
-----------------------
   0 C :    0.244394
   1 C :    0.527890
   2 O :   -0.526952
   3 F :   -0.395016
   4 H :    0.003436
   5 H :    0.072523
   6 H :    0.073725
Sum of atomic charges:   -0.0000000

LOEWDIN ATOMIC CHARGES
----------------------
   0 C :    0.209216
   1 C :   -0.025331
   2 O :   -0.145723
   3 F :   -0.041156
   4 H :    0.001549
   5 H :    0.000196
   6 H :    0.001249

  Mayer bond orders larger than 0.100000
B(  0-C ,  1-C ) :   1.2499 B(  0-C ,  4-H ) :   0.9132 B(  0-C ,  5-H ) :   0.8260
B(  0-C ,  6-H ) :   0.8273 B(  1-C ,  2-O ) :   1.7531 B(  1-C ,  3-F ) :   0.7151
B(  1-C ,  4-H ) :   0.1817 B(  1-C ,  5-H ) :   0.1090 B(  1-C ,  6-H ) :   0.1071

Dispersion correction           -0.002787501
FINAL SINGLE POINT ENERGY      -252.642286207951

DIPOLE MOMENT
-------------
                                X             Y             Z
Electronic contribution:      2.36827      -3.64718       2.57124
Nuclear contribution   :     -3.54758       3.66189      -2.81789
                        -----------------------------------------
Total Dipole Moment    :     -1.17931       0.01471      -0.24665
                        -----------------------------------------
Magnitude (a.u.)       :      1.20492
Magnitude (Debye)      :      3.06265

Rotational constants in cm-1:     0.369278     0.321254     0.177365
Rotational constants in MHz : 11070.686557  9630.951649  5317.254673

                             ****ORCA TERMINATED NORMALLY****
TOTAL RUN TIME: 0 days 0 hours 0 minutes 6 seconds 995 msec
