                         Program Version 5.0.0 -  RELEASE  -
|  1> !PBE0 D3BJ RIJCOSX def2-SVPD def2/J TightSCF
|  2> *xyz 0 1
|  3> C          4.60295       -2.44010        2.63478
|  4> C          3.86085       -1.59157        3.62289
|  5> N          2.75650       -2.04616        4.16633
|  6> C          4.25433       -0.36291        3.86046
|  7> H          3.56526        0.31099        4.16898
|  8> H          5.05429       -0.01606        3.33784
|  9> H          2.43970       -2.97389        3.89740
| 10> H          2.06687       -1.41253        4.54981
| 11> H          5.47239       -1.91604        2.29664
| 12> H          3.96816       -2.65362        1.80030
| 13> H          4.89801       -3.35632        3.10209
| 14> *
| 15>
| 16> %MaxCore 64000
| 17>
| 18> %pal nprocs 4
| 19> end
| 20>
| 21> %scf
| 22>   MaxIter 150
| 23> end
| 24>
| 25>
| 26>                          ****END OF INPUT****

CARTESIAN COORDINATES (ANGSTROEM)
---------------------------------
  C      4.602950   -2.440100    2.634780
  C      3.860850   -1.591570    3.622890
  N      2.756500   -2.046160    4.166330
  C      4.254330   -0.362910    3.860460
  H      3.565260    0.310990    4.168980
  H      5.054290   -0.016060    3.337840
  H      2.439700   -2.973890    3.897400
  H      2.066870   -1.412530    4.549810
  H      5.472390   -1.916040    2.296640
  H      3.968160   -2.653620    1.800300
  H      4.898010   -3.356320    3.102090

 Total Charge           Charge          ....    0
 Multiplicity           Mult            ....    1
 Number of Electrons    NEL             ....   32
 Basis Dimension        Dim             ....  136

ORBITAL ENERGIES
----------------

  NO   OCC          E(Eh)            E(eV)
   0   2.0000     -14.398211      -391.7953
   1   2.0000     -10.255105      -279.0556
   2   2.0000     -10.224813      -278.2313
   3   2.0000     -10.163739      -276.5694
   4   2.0000      -0.951903       -25.9026
   5   2.0000      -0.775651       -21.1065
   6   2.0000      -0.707404       -19.2494
   7   2.0000      -0.589586       -16.0434
   8   2.0000      -0.541028       -14.7221
   9   2.0000      -0.487158       -13.2563
  10   2.0000      -0.448287       -12.1985
  11   2.0000      -0.412131       -11.2147
  12   2.0000      -0.403685       -10.9848
  13   2.0000      -0.373477       -10.1628
  14   2.0000      -0.342212        -9.3121
  15   2.0000      -0.204245        -5.5578
  16   0.0000       0.024661         0.6711
  17   0.0000       0.047197         1.2843
  18   0.0000       0.063144         1.7182
  19   0.0000       0.072156         1.9635
  20   0.0000       0.098702         2.6858

MULLIKEN ATOMIC CHARGES
-----------------------
   0 C :    0.595222
   1 C :   -0.451563
   2 N :    0.084474
   3 C :    0.273586
   4 H :   -0.337863
   5 H :   -0.020425
   6 H :   -0.096284
   7 H :   -0.139776
   8 H :    0.054455
   9 H :    0.011353
  10 H :    0.026822
Sum of atomic charges:   -0.0000000

LOEWDIN ATOMIC CHARGES
----------------------
   0 C :    0.163656
   1 C :   -0.297004
   2 N :    0.154951
   3 C :    0.158675
   4 H :   -0.081795
   5 H :   -0.081384
   6 H :    0.004846
   7 H :    0.009913
   8 H :   -0.012466
   9 H :   -0.006008
  10 H :   -0.013385

  Mayer bond orders larger than 0.100000
B(  0-C ,  1-C ) :   1.3280 B(  0-C ,  8-H ) :   0.8263 B(  0-C ,  9-H ) :   0.7670
B(  0-C , 10-H ) :   0.6889 B(  1-C ,  2-N ) :   1.0608 B(  1-C ,  3-C ) :   1.8901
B(  1-C ,  4-H ) :   0.1741 B(  1-C ,  8-H ) :   0.2081 B(  1-C ,  9-H ) :   0.2170
B(  1-C , 10-H ) :   0.2504 B(  2-N ,  3-C ) :   0.2527 B(  2-N ,  6-H ) :   1.1102
B(  2-N ,  7-H ) :   1.1932 B(  3-C ,  4-H ) :   0.8622 B(  3-C ,  5-H ) :   0.8790
B(  4-H ,  5-H ) :   0.1070 B(  6-H ,  7-H ) :  -0.1241

Dispersion correction           -0.006037288
FINAL SINGLE POINT ENERGY      -172.924276907900

DIPOLE MOMENT
-------------
                                X             Y             Z
Electronic contribution:     -1.19342      -0.01136       1.37310
Nuclear contribution   :      0.56519      -0.51568      -1.65012
                        -----------------------------------------
Total Dipole Moment    :     -0.62823      -0.52705      -0.27702
                        -----------------------------------------
Magnitude (a.u.)       :      0.86556
Magnitude (Debye)      :      2.20008

Rotational constants in cm-1:     0.356673     0.303029     0.169717
Rotational constants in MHz : 10692.789749  9084.577259  5087.998414

                             ****ORCA TERMINATED NORMALLY****
TOTAL RUN TIME: 0 days 0 hours 0 minutes 10 seconds 17 msec
