                         Program Version 5.0.0 -  RELEASE  -
|  1> !PBE0 D3BJ RIJCOSX def2-SVPD def2/J TightSCF xyzfile
|  2>
|  3> *xyzfile 0 1 D2.xyz
|  4>
|  5> %MaxCore 64000
|  6>
|  7> %pal nprocs 4
|  8> end
|  9>
| 10> %scf
| 11>   MaxIter 150
| 12> end
| 13>
| 14>
| 15>                          ****END OF INPUT****

CARTESIAN COORDINATES (ANGSTROEM)
---------------------------------
  C      4.602954   -2.440100    2.634780
  C     -0.914947    0.615112    2.505538
  C     -0.059146    1.503524    3.410578
  H      0.365364    2.344315    2.861161
  H     -0.692261    1.920207    4.198985
  C      1.083027    0.749640    4.085705
  C      3.860851   -1.591565    3.622893
  N      2.756502   -2.046159    4.166333
  C      4.254325   -0.362905    3.860455
  H      3.565256    0.310994    4.168983
  H      5.054292   -0.016059    3.337838
  H      2.439696   -2.973894    3.897395
  H      2.066869   -1.412532    4.549813
  F      2.228167    1.263475    4.019826
  O      0.810034   -0.345411    4.636269
  C      3.744685   -2.580557    1.361882
  C      0.772139    0.636882    0.562129
  C     -0.130740   -0.193985    1.470763
  H     -0.840563   -0.760165    0.856377
  H      0.466691   -0.938942    2.006959
  H     -1.647961    1.245963    1.991076
  H     -1.478180   -0.081046    3.130424
  C      3.203721   -1.256004    0.826211
  H      2.898939   -3.239289    1.583074
  H      4.334962   -3.095523    0.600188
  C      2.107815   -1.442385   -0.216865
  H      2.786775   -0.672760    1.650711
  H      4.021008   -0.652993    0.414046
  C      1.390662   -0.145912   -0.602422
  H      1.372179   -2.152184    0.176151
  H      2.523302   -1.906787   -1.117115
  H      1.561361    1.100094    1.161831
  H      0.195516    1.468325    0.142758
  H      0.602893   -0.398214   -1.319716
  H      2.087247    0.508272   -1.137335
  H      5.561557   -1.971347    2.407084
  H      4.810498   -3.422552    3.063099

 Total Charge           Charge          ....    0
 Multiplicity           Mult            ....    1
 Number of Electrons    NEL             ....  118
 Basis Dimension        Dim             ....  482

ORBITAL ENERGIES
----------------

  NO   OCC          E(Eh)            E(eV)
   0   2.0000     -24.873171      -676.8334
   1   2.0000     -19.251516      -523.8604
   2   2.0000     -14.363429      -390.8488
   3   2.0000     -10.438046      -284.0337
   4   2.0000     -10.274980      -279.5964
   5   2.0000     -10.254211      -279.0313
   6   2.0000     -10.238677      -278.6086
   7   2.0000     -10.235821      -278.5308
   8   2.0000     -10.233395      -278.4648
   9   2.0000     -10.230134      -278.3761
  10   2.0000     -10.225173      -278.2411
  11   2.0000     -10.223854      -278.2052
  12   2.0000     -10.219976      -278.0997
  13   2.0000     -10.217703      -278.0378
  14   2.0000     -10.139424      -275.9078
  15   2.0000      -1.359986       -37.0071
  16   2.0000      -1.084531       -29.5116
  17   2.0000      -0.927856       -25.2482
  18   2.0000      -0.852907       -23.2088
  19   2.0000      -0.825119       -22.4526
  20   2.0000      -0.798373       -21.7248
  21   2.0000      -0.763863       -20.7858
  22   2.0000      -0.732761       -19.9394
  23   2.0000      -0.720860       -19.6156
  24   2.0000      -0.689319       -18.7573
  25   2.0000      -0.664780       -18.0896
  26   2.0000      -0.629242       -17.1225
  27   2.0000      -0.601056       -16.3556
  28   2.0000      -0.589759       -16.0482
  29   2.0000      -0.579829       -15.7780
  30   2.0000      -0.575259       -15.6536
  31   2.0000      -0.563778       -15.3412
  32   2.0000      -0.542910       -14.7733
  33   2.0000      -0.515423       -14.0254
  34   2.0000      -0.500951       -13.6316
  35   2.0000      -0.495175       -13.4744
  36   2.0000      -0.478443       -13.0191
  37   2.0000      -0.469105       -12.7650
  38   2.0000      -0.459979       -12.5167
  39   2.0000      -0.450131       -12.2487
  40   2.0000      -0.439710       -11.9651
  41   2.0000      -0.425627       -11.5819
  42   2.0000      -0.422733       -11.5031
  43   2.0000      -0.410866       -11.1802
  44   2.0000      -0.395813       -10.7706
  45   2.0000      -0.389303       -10.5935
  46   2.0000      -0.384875       -10.4730
  47   2.0000      -0.381602       -10.3839
  48   2.0000      -0.366659        -9.9773
  49   2.0000      -0.362010        -9.8508
  50   2.0000      -0.355925        -9.6852
  51   2.0000      -0.342837        -9.3291
  52   2.0000      -0.336970        -9.1694
  53   2.0000      -0.333012        -9.0617
  54   2.0000      -0.327779        -8.9193
  55   2.0000      -0.324271        -8.8239
  56   2.0000      -0.317130        -8.6296
  57   2.0000      -0.306839        -8.3495
  58   2.0000      -0.182695        -4.9714
  59   0.0000      -0.051339        -1.3970
  60   0.0000       0.016934         0.4608
  61   0.0000       0.029443         0.8012
  62   0.0000       0.036256         0.9866
  63   0.0000       0.039372         1.0714

MULLIKEN ATOMIC CHARGES
-----------------------
   0 C :    0.483791
   1 C :    0.384960
   2 C :   -0.030550
   3 H :    0.262047
   4 H :   -0.075364
   5 C :    0.875269
   6 C :   -0.367881
   7 N :    0.265117
   8 C :    0.754223
   9 H :   -0.609428
  10 H :   -0.027088
  11 H :    0.016404
  12 H :   -0.454679
  13 F :   -0.511553
  14 O :   -0.653325
  15 C :    0.025814
  16 C :   -0.329007
  17 C :   -0.308674
  18 H :   -0.121347
  19 H :    0.051447
  20 H :   -0.016634
  21 H :    0.122602
  22 C :    0.016841
  23 H :    0.122956
  24 H :   -0.243865
  25 C :   -0.131592
  26 H :   -0.246978
  27 H :    0.022950
  28 C :    0.659459
  29 H :    0.208197
  30 H :   -0.288277
  31 H :    0.228741
  32 H :   -0.418702
  33 H :    0.138499
  34 H :    0.041648
  35 H :    0.179363
  36 H :   -0.025385
Sum of atomic charges:   -0.0000000

LOEWDIN ATOMIC CHARGES
----------------------
   0 C :    0.013979
   1 C :   -0.016973
   2 C :    0.054626
   3 H :    0.027832
   4 H :    0.047310
   5 C :    0.066928
   6 C :   -0.260250
   7 N :    0.205928
   8 C :    0.181939
   9 H :   -0.138306
  10 H :   -0.073885
  11 H :    0.007065
  12 H :   -0.104210
  13 F :   -0.039004
  14 O :   -0.115320
  15 C :   -0.024026
  16 C :   -0.040288
  17 C :   -0.032767
  18 H :    0.034241
  19 H :    0.013555
  20 H :    0.031327
  21 H :    0.031257
  22 C :   -0.032094
  23 H :    0.013420
  24 H :    0.023273
  25 C :   -0.043984
  26 H :   -0.012618
  27 H :    0.039700
  28 C :   -0.032006
  29 H :    0.016847
  30 H :    0.025322
  31 H :    0.010771
  32 H :    0.025366
  33 H :    0.023229
  34 H :    0.025197
  35 H :    0.024975
  36 H :    0.021643

  Mayer bond orders larger than 0.100000
B(  0-C ,  6-C ) :   1.3115 B(  0-C ,  8-C ) :   0.1085 B(  0-C , 15-C ) :   1.1340
B(  0-C , 23-H ) :   0.1021 B(  0-C , 24-H ) :   0.1268 B(  0-C , 35-H ) :   0.7614
B(  0-C , 36-H ) :   0.5969 B(  1-C ,  2-C ) :   1.2331 B(  1-C ,  4-H ) :   0.1604
B(  1-C , 17-C ) :   1.2725 B(  1-C , 20-H ) :   0.7979 B(  1-C , 21-H ) :   0.6710
B(  2-C ,  3-H ) :   0.8236 B(  2-C ,  4-H ) :   0.7266 B(  2-C ,  5-C ) :   1.2112
B(  2-C , 20-H ) :   0.1291 B(  2-C , 21-H ) :   0.1125 B(  3-H ,  5-C ) :   0.1196
B(  4-H ,  5-C ) :   0.2311 B(  5-C , 13-F ) :   0.5545 B(  5-C , 14-O ) :   1.4652
B(  6-C ,  7-N ) :   0.8341 B(  6-C ,  8-C ) :   2.0369 B(  6-C ,  9-H ) :   0.3445
B(  6-C , 10-H ) :   0.2591 B(  6-C , 12-H ) :  -0.1075 B(  6-C , 26-H ) :  -0.1086
B(  6-C , 35-H ) :   0.1403 B(  6-C , 36-H ) :   0.2796 B(  7-N ,  8-C ) :   0.3660
B(  7-N , 11-H ) :   1.0058 B(  7-N , 12-H ) :   1.0952 B(  8-C ,  9-H ) :   0.2295
B(  8-C , 10-H ) :   0.7441 B(  9-H , 13-F ) :   0.1899 B( 11-H , 12-H ) :  -0.2241
B( 12-H , 14-O ) :   0.1724 B( 15-C , 22-C ) :   1.1421 B( 15-C , 23-H ) :   0.8459
B( 15-C , 24-H ) :   0.9670 B( 15-C , 26-H ) :   0.1041 B( 15-C , 35-H ) :   0.1382
B( 15-C , 36-H ) :   0.1627 B( 16-C , 17-C ) :   1.2695 B( 16-C , 18-H ) :   0.1752
B( 16-C , 25-C ) :   0.1172 B( 16-C , 28-C ) :   1.1072 B( 16-C , 31-H ) :   0.8022
B( 16-C , 32-H ) :   1.1832 B( 16-C , 33-H ) :   0.1376 B( 16-C , 34-H ) :   0.2427
B( 17-C , 18-H ) :   0.9046 B( 17-C , 19-H ) :   0.9340 B( 17-C , 20-H ) :   0.1918
B( 17-C , 21-H ) :   0.2108 B( 17-C , 32-H ) :   0.1268 B( 22-C , 23-H ) :   0.1170
B( 22-C , 24-H ) :   0.1972 B( 22-C , 25-C ) :   1.1948 B( 22-C , 26-H ) :   1.0270
B( 22-C , 27-H ) :   0.7571 B( 22-C , 29-H ) :   0.1042 B( 22-C , 30-H ) :   0.2362
B( 25-C , 27-H ) :   0.1112 B( 25-C , 28-C ) :   1.1773 B( 25-C , 29-H ) :   0.8234
B( 25-C , 30-H ) :   1.0085 B( 25-C , 33-H ) :   0.1858 B( 25-C , 34-H ) :   0.1555
B( 26-H , 27-H ) :   0.2110 B( 26-H , 31-H ) :   0.1561 B( 28-C , 33-H ) :   0.6808
B( 28-C , 34-H ) :   0.6631

Dispersion correction           -0.037629083
FINAL SINGLE POINT ENERGY      -699.059474903172

DIPOLE MOMENT
-------------
                                X             Y             Z
Electronic contribution:      0.05856       6.25094      15.12625
Nuclear contribution   :     -1.39991      -5.60370     -16.00470
                        -----------------------------------------
Total Dipole Moment    :     -1.34135       0.64724      -0.87844
                        -----------------------------------------
Magnitude (a.u.)       :      1.72910
Magnitude (Debye)      :      4.39503

Rotational constants in cm-1:     0.021622     0.017313     0.011402
Rotational constants in MHz :   648.226014   519.043632   341.814105

                             ****ORCA TERMINATED NORMALLY****
TOTAL RUN TIME: 0 days 0 hours 3 minutes 54 seconds 340 msec
