                         Program Version 5.0.0 -  RELEASE  -
|  1> !PBE0 D3BJ RIJCOSX def2-SVPD def2/J TightSCF xyzfile
|  2>
|  3> *xyzfile 0 1 D3.xyz
|  4>
|  5> %MaxCore 64000
|  6>
|  7> %pal nprocs 4
|  8> end
|  9>
| 10> %scf
| 11>   MaxIter 150
| 12> end
| 13>
| 14>
| 15>                          ****END OF INPUT****

CARTESIAN COORDINATES (ANGSTROEM)
---------------------------------
  C      4.602954   -2.440100    2.634780
  C     -0.914947    0.615112    2.505538
  C     -0.059146    1.503524    3.410578
  H      0.365364    2.344315    2.861161
  H     -0.692261    1.920207    4.198985
  C      1.083027    0.749640    4.085705
  C      3.860851   -1.591565    3.622893
  C      2.756502   -2.046159    4.166333
  N      4.254325   -0.362905    3.860455
  H      3.565256    0.310994    4.168983
  H      5.054292   -0.016059    3.337838
  H      2.439696   -2.973894    3.897395
  H      2.066869   -1.412532    4.549813
  O      2.228167    1.263475    4.019826
  F      0.810034   -0.345411    4.636269
  C      3.744685   -2.580557    1.361882
  C      0.772139    0.636882    0.562129
  C     -0.130740   -0.193985    1.470763
  H     -0.840563   -0.760165    0.856377
  H      0.466691   -0.938942    2.006959
  H     -1.647961    1.245963    1.991076
  H     -1.478180   -0.081046    3.130424
  C      3.203721   -1.256004    0.826211
  H      2.898939   -3.239289    1.583074
  H      4.334962   -3.095523    0.600188
  C      2.107815   -1.442385   -0.216865
  H      2.786775   -0.672760    1.650711
  H      4.021008   -0.652993    0.414046
  C      1.390662   -0.145912   -0.602422
  H      1.372179   -2.152184    0.176151
  H      2.523302   -1.906787   -1.117115
  H      1.561361    1.100094    1.161831
  H      0.195516    1.468325    0.142758
  H      0.602893   -0.398214   -1.319716
  H      2.087247    0.508272   -1.137335
  H      5.561557   -1.971347    2.407084
  H      4.810498   -3.422552    3.063099

 Total Charge           Charge          ....    0
 Multiplicity           Mult            ....    1
 Number of Electrons    NEL             ....  118
 Basis Dimension        Dim             ....  482

ORBITAL ENERGIES
----------------

  NO   OCC          E(Eh)            E(eV)
   0   2.0000     -24.872439      -676.8135
   1   2.0000     -19.249722      -523.8116
   2   2.0000     -14.361374      -390.7929
   3   2.0000     -10.436268      -283.9853
   4   2.0000     -10.273156      -279.5468
   5   2.0000     -10.255589      -279.0688
   6   2.0000     -10.239380      -278.6277
   7   2.0000     -10.233631      -278.4713
   8   2.0000     -10.232944      -278.4526
   9   2.0000     -10.228453      -278.3304
  10   2.0000     -10.222487      -278.1680
  11   2.0000     -10.221411      -278.1387
  12   2.0000     -10.220365      -278.1103
  13   2.0000     -10.216895      -278.0159
  14   2.0000     -10.139282      -275.9039
  15   2.0000      -1.359581       -36.9961
  16   2.0000      -1.081464       -29.4281
  17   2.0000      -0.926829       -25.2203
  18   2.0000      -0.853901       -23.2358
  19   2.0000      -0.824538       -22.4368
  20   2.0000      -0.797830       -21.7101
  21   2.0000      -0.762591       -20.7512
  22   2.0000      -0.729731       -19.8570
  23   2.0000      -0.713702       -19.4208
  24   2.0000      -0.689606       -18.7651
  25   2.0000      -0.664704       -18.0875
  26   2.0000      -0.630938       -17.1687
  27   2.0000      -0.604661       -16.4537
  28   2.0000      -0.590571       -16.0703
  29   2.0000      -0.585368       -15.9287
  30   2.0000      -0.571737       -15.5577
  31   2.0000      -0.557764       -15.1775
  32   2.0000      -0.537455       -14.6249
  33   2.0000      -0.509320       -13.8593
  34   2.0000      -0.499472       -13.5913
  35   2.0000      -0.494505       -13.4562
  36   2.0000      -0.483207       -13.1487
  37   2.0000      -0.463681       -12.6174
  38   2.0000      -0.460456       -12.5297
  39   2.0000      -0.447697       -12.1825
  40   2.0000      -0.438725       -11.9383
  41   2.0000      -0.425493       -11.5782
  42   2.0000      -0.422929       -11.5085
  43   2.0000      -0.406829       -11.0704
  44   2.0000      -0.400722       -10.9042
  45   2.0000      -0.390687       -10.6311
  46   2.0000      -0.386197       -10.5089
  47   2.0000      -0.379863       -10.3366
  48   2.0000      -0.366254        -9.9663
  49   2.0000      -0.356146        -9.6912
  50   2.0000      -0.353920        -9.6307
  51   2.0000      -0.347675        -9.4607
  52   2.0000      -0.335521        -9.1300
  53   2.0000      -0.331623        -9.0239
  54   2.0000      -0.323635        -8.8066
  55   2.0000      -0.322025        -8.7627
  56   2.0000      -0.315379        -8.5819
  57   2.0000      -0.306936        -8.3522
  58   2.0000      -0.181418        -4.9366
  59   0.0000      -0.046864        -1.2752
  60   0.0000       0.015869         0.4318
  61   0.0000       0.035495         0.9659
  62   0.0000       0.035572         0.9680
  63   0.0000       0.039398         1.0721

MULLIKEN ATOMIC CHARGES
-----------------------
   0 C :    0.690942
   1 C :    0.394631
   2 C :   -0.004006
   3 H :    0.238780
   4 H :   -0.086249
   5 C :    0.865467
   6 C :   -0.366262
   7 C :    0.782527
   8 N :    0.199707
   9 H :   -0.352669
  10 H :    0.067969
  11 H :   -0.126477
  12 H :   -0.729009
  13 O :   -0.627653
  14 F :   -0.528285
  15 C :   -0.067175
  16 C :   -0.343628
  17 C :   -0.286991
  18 H :   -0.111109
  19 H :    0.045179
  20 H :   -0.017186
  21 H :    0.082824
  22 C :   -0.025758
  23 H :    0.132514
  24 H :   -0.202126
  25 C :   -0.152147
  26 H :   -0.179021
  27 H :    0.048349
  28 C :    0.674870
  29 H :    0.228590
  30 H :   -0.279224
  31 H :    0.263249
  32 H :   -0.444807
  33 H :    0.123553
  34 H :    0.042019
  35 H :   -0.005058
  36 H :    0.053674
Sum of atomic charges:   -0.0000000

LOEWDIN ATOMIC CHARGES
----------------------
   0 C :    0.015961
   1 C :   -0.024558
   2 C :    0.058853
   3 H :    0.036677
   4 H :    0.044601
   5 C :    0.062433
   6 C :   -0.254484
   7 C :    0.188556
   8 N :    0.198260
   9 H :   -0.102992
  10 H :    0.005794
  11 H :   -0.072858
  12 H :   -0.140464
  13 O :   -0.118922
  14 F :   -0.037870
  15 C :   -0.023584
  16 C :   -0.037431
  17 C :   -0.033110
  18 H :    0.033904
  19 H :    0.014385
  20 H :    0.030650
  21 H :    0.027533
  22 C :   -0.034737
  23 H :    0.019036
  24 H :    0.021547
  25 C :   -0.042250
  26 H :   -0.010826
  27 H :    0.035306
  28 C :   -0.032393
  29 H :    0.017979
  30 H :    0.025701
  31 H :    0.013154
  32 H :    0.025410
  33 H :    0.022573
  34 H :    0.024946
  35 H :    0.015013
  36 H :    0.028207

  Mayer bond orders larger than 0.100000
B(  0-C ,  6-C ) :   1.1924 B(  0-C ,  8-N ) :   0.1028 B(  0-C , 15-C ) :   1.1212
B(  0-C , 35-H ) :   0.5649 B(  0-C , 36-H ) :   0.6914 B(  1-C ,  2-C ) :   1.2082
B(  1-C ,  4-H ) :   0.1602 B(  1-C , 17-C ) :   1.2605 B(  1-C , 20-H ) :   0.8079
B(  1-C , 21-H ) :   0.6769 B(  2-C ,  3-H ) :   0.8355 B(  2-C ,  4-H ) :   0.7497
B(  2-C ,  5-C ) :   1.1840 B(  2-C , 20-H ) :   0.1248 B(  2-C , 21-H ) :   0.1009
B(  3-H ,  5-C ) :   0.1228 B(  4-H ,  5-C ) :   0.2251 B(  5-C , 13-O ) :   1.5135
B(  5-C , 14-F ) :   0.5137 B(  6-C ,  7-C ) :   1.9647 B(  6-C ,  8-N ) :   0.7924
B(  6-C , 10-H ) :   0.1187 B(  6-C , 12-H ) :   0.3088 B(  6-C , 15-C ) :   0.1089
B(  6-C , 35-H ) :   0.3088 B(  6-C , 36-H ) :   0.2218 B(  7-C ,  8-N ) :   0.4119
B(  7-C , 11-H ) :   0.7024 B(  7-C , 12-H ) :   0.1209 B(  8-N ,  9-H ) :   1.0540
B(  8-N , 10-H ) :   0.9301 B(  8-N , 11-H ) :   0.2032 B(  8-N , 12-H ) :  -0.1658
B(  9-H , 10-H ) :  -0.2213 B(  9-H , 13-O ) :   0.1325 B( 12-H , 14-F ) :   0.2304
B( 15-C , 22-C ) :   1.1579 B( 15-C , 23-H ) :   0.8687 B( 15-C , 24-H ) :   0.9823
B( 15-C , 26-H ) :   0.1265 B( 15-C , 27-H ) :   0.1052 B( 15-C , 35-H ) :   0.2026
B( 15-C , 36-H ) :   0.1383 B( 16-C , 17-C ) :   1.2913 B( 16-C , 18-H ) :   0.1722
B( 16-C , 19-H ) :   0.1032 B( 16-C , 25-C ) :   0.1183 B( 16-C , 28-C ) :   1.1008
B( 16-C , 31-H ) :   0.7889 B( 16-C , 32-H ) :   1.2090 B( 16-C , 33-H ) :   0.1414
B( 16-C , 34-H ) :   0.2385 B( 17-C , 18-H ) :   0.9122 B( 17-C , 19-H ) :   0.9143
B( 17-C , 20-H ) :   0.1872 B( 17-C , 21-H ) :   0.2181 B( 17-C , 32-H ) :   0.1194
B( 22-C , 23-H ) :   0.1275 B( 22-C , 24-H ) :   0.2246 B( 22-C , 25-C ) :   1.2200
B( 22-C , 26-H ) :   1.0318 B( 22-C , 27-H ) :   0.7551 B( 22-C , 29-H ) :   0.1041
B( 22-C , 30-H ) :   0.2260 B( 25-C , 27-H ) :   0.1001 B( 25-C , 28-C ) :   1.1730
B( 25-C , 29-H ) :   0.8135 B( 25-C , 30-H ) :   1.0147 B( 25-C , 33-H ) :   0.1907
B( 25-C , 34-H ) :   0.1604 B( 26-H , 27-H ) :   0.1792 B( 26-H , 31-H ) :   0.1638
B( 26-H , 32-H ) :  -0.1033 B( 28-C , 33-H ) :   0.6739 B( 28-C , 34-H ) :   0.6649

Dispersion correction           -0.037675010
FINAL SINGLE POINT ENERGY      -699.060714119608

DIPOLE MOMENT
-------------
                                X             Y             Z
Electronic contribution:     -1.22470       4.75632      15.95895
Nuclear contribution   :      0.05905      -3.94566     -16.70013
                        -----------------------------------------
Total Dipole Moment    :     -1.16566       0.81066      -0.74118
                        -----------------------------------------
Magnitude (a.u.)       :      1.60165
Magnitude (Debye)      :      4.07107

Rotational constants in cm-1:     0.021602     0.017295     0.011353
Rotational constants in MHz :   647.614981   518.478934   340.359556

                             ****ORCA TERMINATED NORMALLY****
TOTAL RUN TIME: 0 days 0 hours 3 minutes 56 seconds 882 msec
