                         Program Version 5.0.0 -  RELEASE  -
|  1> !LC-BLYP RIJCOSX def2-SVPD def2/J TightSCF
|  2> *xyz -1 1
|  3> C          3.51177       -2.80621       -6.49228
|  4> S          3.00462       -1.09621       -6.38926
|  5> O          4.12886       -0.32965       -6.95372
|  6> O          1.78128       -1.00078       -7.13640
|  7> O          2.85155       -0.78368       -4.95679
|  8> H          3.63615       -3.08010       -7.51913
|  9> H          2.76397       -3.42755       -6.04548
| 10> H          4.43892       -2.93511       -5.97393
| 11> *
| 12>
| 13> %MaxCore 64000
| 14>
| 15> %pal nprocs 8
| 16> end
| 17>
| 18> %scf
| 19>   MaxIter 150
| 20> end
| 21>
| 22>
| 23>                          ****END OF INPUT****

CARTESIAN COORDINATES (ANGSTROEM)
---------------------------------
  C      3.511770   -2.806210   -6.492280
  S      3.004620   -1.096210   -6.389260
  O      4.128860   -0.329650   -6.953720
  O      1.781280   -1.000780   -7.136400
  O      2.851550   -0.783680   -4.956790
  H      3.636150   -3.080100   -7.519130
  H      2.763970   -3.427550   -6.045480
  H      4.438920   -2.935110   -5.973930

 Total Charge           Charge          ....   -1
 Multiplicity           Mult            ....    1
 Number of Electrons    NEL             ....   50
 Basis Dimension        Dim             ....  140

ORBITAL ENERGIES
----------------

  NO   OCC          E(Eh)            E(eV)
   0   2.0000     -88.311203     -2403.0700
   1   2.0000     -18.740920      -509.9663
   2   2.0000     -18.730152      -509.6733
   3   2.0000     -18.729645      -509.6595
   4   2.0000      -9.942995      -270.5627
   5   2.0000      -7.859916      -213.8792
   6   2.0000      -5.894205      -160.3895
   7   2.0000      -5.894089      -160.3863
   8   2.0000      -5.893858      -160.3800
   9   2.0000      -1.029751       -28.0209
  10   2.0000      -0.882213       -24.0062
  11   2.0000      -0.861909       -23.4537
  12   2.0000      -0.696497       -18.9527
  13   2.0000      -0.495883       -13.4937
  14   2.0000      -0.410586       -11.1726
  15   2.0000      -0.399730       -10.8772
  16   2.0000      -0.398152       -10.8343
  17   2.0000      -0.351730        -9.5711
  18   2.0000      -0.350386        -9.5345
  19   2.0000      -0.254958        -6.9378
  20   2.0000      -0.253901        -6.9090
  21   2.0000      -0.216003        -5.8777
  22   2.0000      -0.210129        -5.7179
  23   2.0000      -0.202629        -5.5138
  24   2.0000      -0.162390        -4.4189
  25   0.0000       0.195410         5.3174
  26   0.0000       0.221681         6.0322
  27   0.0000       0.221976         6.0403
  28   0.0000       0.227226         6.1831
  29   0.0000       0.257762         7.0141

MULLIKEN ATOMIC CHARGES
-----------------------
   0 C :    0.733850
   1 S :    0.864869
   2 O :   -0.721873
   3 O :   -0.676611
   4 O :   -0.718759
   5 H :   -0.156169
   6 H :   -0.164748
   7 H :   -0.160559
Sum of atomic charges:   -1.0000000

LOEWDIN ATOMIC CHARGES
----------------------
   0 C :    0.041041
   1 S :    0.777467
   2 O :   -0.582646
   3 O :   -0.562960
   4 O :   -0.581001
   5 H :   -0.030564
   6 H :   -0.031403
   7 H :   -0.029934

  Mayer bond orders larger than 0.100000
B(  0-C ,  1-S ) :   0.9461 B(  0-C ,  5-H ) :   0.8675 B(  0-C ,  6-H ) :   0.8680
B(  0-C ,  7-H ) :   0.8700 B(  1-S ,  2-O ) :   1.3686 B(  1-S ,  3-O ) :   1.4052
B(  1-S ,  4-O ) :   1.3688 B(  1-S ,  5-H ) :   0.1325 B(  1-S ,  6-H ) :   0.1336
B(  1-S ,  7-H ) :   0.1422

FINAL SINGLE POINT ENERGY      -662.777690667005

DIPOLE MOMENT
-------------
                                X             Y             Z
Electronic contribution:     -1.26995       3.94366       0.17644
Nuclear contribution   :      1.59265      -5.51967      -0.35565
                        -----------------------------------------
Total Dipole Moment    :      0.32269      -1.57601      -0.17922
                        -----------------------------------------
Magnitude (a.u.)       :      1.61865
Magnitude (Debye)      :      4.11429

Rotational constants in cm-1:     0.172598     0.157065     0.154689
Rotational constants in MHz :  5174.362736  4708.699947  4637.458896

                             ****ORCA TERMINATED NORMALLY****
TOTAL RUN TIME: 0 days 0 hours 0 minutes 7 seconds 222 msec
