                         Program Version 5.0.0 -  RELEASE  -
|  1> !LC-BLYP RIJCOSX def2-SVPD def2/J TightSCF
|  2> *xyz 1 1
|  3> C          4.49059        1.15590       -2.46929
|  4> N          4.30539        1.22276       -3.90832
|  5> C          4.63192        2.24637       -4.67096
|  6> N          4.54169        2.14399       -5.98714
|  7> N          5.08409        3.39358       -4.11855
|  8> H          4.92067        3.57050       -3.13587
|  9> H          5.25465        4.19739       -4.70696
| 10> H          3.82453        0.44911       -4.35093
| 11> H          4.34337        1.24932       -6.41665
| 12> H          4.67671        2.95662       -6.57411
| 13> H          5.00867        2.03053       -2.13534
| 14> H          5.06354        0.28631       -2.22344
| 15> H          3.53600        1.10160       -1.98897
| 16> *
| 17>
| 18> %MaxCore 64000
| 19>
| 20> %pal nprocs 8
| 21> end
| 22>
| 23> %scf
| 24>   MaxIter 150
| 25> end
| 26>
| 27>
| 28>                          ****END OF INPUT****

CARTESIAN COORDINATES (ANGSTROEM)
---------------------------------
  C      4.490590    1.155900   -2.469290
  N      4.305390    1.222760   -3.908320
  C      4.631920    2.246370   -4.670960
  N      4.541690    2.143990   -5.987140
  N      5.084090    3.393580   -4.118550
  H      4.920670    3.570500   -3.135870
  H      5.254650    4.197390   -4.706960
  H      3.824530    0.449110   -4.350930
  H      4.343370    1.249320   -6.416650
  H      4.676710    2.956620   -6.574110
  H      5.008670    2.030530   -2.135340
  H      5.063540    0.286310   -2.223440
  H      3.536000    1.101600   -1.988970

 Total Charge           Charge          ....    1
 Multiplicity           Mult            ....    1
 Number of Electrons    NEL             ....   40
 Basis Dimension        Dim             ....  164

ORBITAL ENERGIES
----------------

  NO   OCC          E(Eh)            E(eV)
   0   2.0000     -14.420604      -392.4046
   1   2.0000     -14.415916      -392.2770
   2   2.0000     -14.412838      -392.1933
   3   2.0000     -10.428896      -283.7847
   4   2.0000     -10.291115      -280.0355
   5   2.0000      -1.315342       -35.7923
   6   2.0000      -1.204956       -32.7885
   7   2.0000      -1.188104       -32.3299
   8   2.0000      -1.014846       -27.6154
   9   2.0000      -0.933849       -25.4113
  10   2.0000      -0.900475       -24.5032
  11   2.0000      -0.863984       -23.5102
  12   2.0000      -0.799085       -21.7442
  13   2.0000      -0.795591       -21.6491
  14   2.0000      -0.767299       -20.8793
  15   2.0000      -0.747611       -20.3435
  16   2.0000      -0.700569       -19.0635
  17   2.0000      -0.684846       -18.6356
  18   2.0000      -0.581192       -15.8150
  19   2.0000      -0.555145       -15.1063
  20   0.0000      -0.098505        -2.6805
  21   0.0000      -0.091032        -2.4771
  22   0.0000      -0.062558        -1.7023
  23   0.0000      -0.057964        -1.5773
  24   0.0000      -0.027181        -0.7396

MULLIKEN ATOMIC CHARGES
-----------------------
   0 C :    1.417550
   1 N :   -0.417573
   2 C :    1.039515
   3 N :    0.182442
   4 N :    0.148244
   5 H :   -0.094209
   6 H :   -0.156111
   7 H :   -0.294848
   8 H :   -0.101237
   9 H :   -0.070600
  10 H :   -0.294805
  11 H :   -0.166847
  12 H :   -0.191521
Sum of atomic charges:    1.0000000

LOEWDIN ATOMIC CHARGES
----------------------
   0 C :    0.251144
   1 N :    0.029082
   2 C :   -0.059628
   3 N :    0.271668
   4 N :    0.284044
   5 H :    0.011241
   6 H :    0.037472
   7 H :    0.066437
   8 H :    0.043195
   9 H :    0.042748
  10 H :   -0.014715
  11 H :    0.019308
  12 H :    0.018004

  Mayer bond orders larger than 0.100000
B(  0-C ,  1-N ) :   0.9996 B(  0-C ,  7-H ) :  -0.2042 B(  0-C , 10-H ) :   0.7602
B(  0-C , 11-H ) :   0.7031 B(  0-C , 12-H ) :   0.7241 B(  1-N ,  2-C ) :   1.1146
B(  1-N ,  3-N ) :   0.2369 B(  1-N ,  4-N ) :   0.2599 B(  1-N ,  7-H ) :   1.3436
B(  1-N , 10-H ) :   0.2039 B(  1-N , 11-H ) :   0.1971 B(  1-N , 12-H ) :   0.1740
B(  2-C ,  3-N ) :   0.9754 B(  2-C ,  4-N ) :   1.0113 B(  2-C ,  5-H ) :  -0.1309
B(  2-C ,  6-H ) :  -0.1638 B(  2-C ,  7-H ) :  -0.2639 B(  2-C ,  8-H ) :  -0.1823
B(  2-C ,  9-H ) :  -0.1289 B(  3-N ,  4-N ) :   0.1674 B(  3-N ,  8-H ) :   1.2141
B(  3-N ,  9-H ) :   1.1999 B(  4-N ,  5-H ) :   1.1105 B(  4-N ,  6-H ) :   1.2206
B(  5-H ,  6-H ) :  -0.1656 B(  5-H , 10-H ) :   0.1051 B(  8-H ,  9-H ) :  -0.1877

FINAL SINGLE POINT ENERGY      -244.310682783359

DIPOLE MOMENT
-------------
                                X             Y             Z
Electronic contribution:      0.02164       0.68847      -2.68352
Nuclear contribution   :     -0.23495      -0.48067       2.19509
                        -----------------------------------------
Total Dipole Moment    :     -0.21330       0.20781      -0.48843
                        -----------------------------------------
Magnitude (a.u.)       :      0.57205
Magnitude (Debye)      :      1.45404

Rotational constants in cm-1:     0.315679     0.134071     0.096006
Rotational constants in MHz :  9463.824527  4019.347586  2878.182223

                             ****ORCA TERMINATED NORMALLY****
TOTAL RUN TIME: 0 days 0 hours 0 minutes 10 seconds 258 msec
