                         Program Version 5.0.0 -  RELEASE  -
|  1> !LC-BLYP RIJCOSX def2-SVPD def2/J TightSCF
|  2> *xyz 0 1
|  3> C          3.51177       -2.80621       -6.49228
|  4> S          3.00462       -1.09621       -6.38926
|  5> F          4.12886       -0.32965       -6.95372
|  6> O          1.78128       -1.00078       -7.13640
|  7> O          2.85155       -0.78368       -4.95679
|  8> H          3.63615       -3.08010       -7.51913
|  9> H          2.76397       -3.42755       -6.04548
| 10> H          4.43892       -2.93511       -5.97393
| 11> *
| 12>
| 13> %MaxCore 64000
| 14>
| 15> %pal nprocs 8
| 16> end
| 17>
| 18> %scf
| 19>   MaxIter 150
| 20> end
| 21>
| 22>
| 23>                          ****END OF INPUT****

CARTESIAN COORDINATES (ANGSTROEM)
---------------------------------
  C      3.511770   -2.806210   -6.492280
  S      3.004620   -1.096210   -6.389260
  F      4.128860   -0.329650   -6.953720
  O      1.781280   -1.000780   -7.136400
  O      2.851550   -0.783680   -4.956790
  H      3.636150   -3.080100   -7.519130
  H      2.763970   -3.427550   -6.045480
  H      4.438920   -2.935110   -5.973930

 Total Charge           Charge          ....    0
 Multiplicity           Mult            ....    1
 Number of Electrons    NEL             ....   50
 Basis Dimension        Dim             ....  140

ORBITAL ENERGIES
----------------

  NO   OCC          E(Eh)            E(eV)
   0   2.0000     -88.573772     -2410.2149
   1   2.0000     -24.585684      -669.0105
   2   2.0000     -18.978698      -516.4366
   3   2.0000     -18.967638      -516.1357
   4   2.0000     -10.151393      -276.2334
   5   2.0000      -8.123083      -221.0403
   6   2.0000      -6.161805      -167.6712
   7   2.0000      -6.155078      -167.4882
   8   2.0000      -6.154036      -167.4598
   9   2.0000      -1.441256       -39.2186
  10   2.0000      -1.215336       -33.0710
  11   2.0000      -1.110550       -30.2196
  12   2.0000      -0.917933       -24.9782
  13   2.0000      -0.816030       -22.2053
  14   2.0000      -0.706869       -19.2349
  15   2.0000      -0.682119       -18.5614
  16   2.0000      -0.662201       -18.0194
  17   2.0000      -0.590041       -16.0558
  18   2.0000      -0.587610       -15.9897
  19   2.0000      -0.574765       -15.6402
  20   2.0000      -0.546220       -14.8634
  21   2.0000      -0.498659       -13.5692
  22   2.0000      -0.448142       -12.1946
  23   2.0000      -0.437613       -11.9081
  24   2.0000      -0.417672       -11.3654
  25   0.0000       0.041732         1.1356
  26   0.0000       0.077313         2.1038
  27   0.0000       0.083126         2.2620
  28   0.0000       0.084478         2.2988
  29   0.0000       0.101105         2.7512

MULLIKEN ATOMIC CHARGES
-----------------------
   0 C :    0.698017
   1 S :    1.041594
   2 F :   -0.333063
   3 O :   -0.536937
   4 O :   -0.576498
   5 H :   -0.090680
   6 H :   -0.103158
   7 H :   -0.099274
Sum of atomic charges:    0.0000000

LOEWDIN ATOMIC CHARGES
----------------------
   0 C :    0.108843
   1 S :    1.049495
   2 F :   -0.252014
   3 O :   -0.444395
   4 O :   -0.460663
   5 H :   -0.004554
   6 H :    0.007908
   7 H :   -0.004620

  Mayer bond orders larger than 0.100000
B(  0-C ,  1-S ) :   1.0011 B(  0-C ,  5-H ) :   0.8718 B(  0-C ,  6-H ) :   0.8676
B(  0-C ,  7-H ) :   0.8738 B(  1-S ,  2-F ) :   0.7482 B(  1-S ,  3-O ) :   1.6095
B(  1-S ,  4-O ) :   1.5721 B(  1-S ,  5-H ) :   0.1077 B(  1-S ,  6-H ) :   0.1338
B(  1-S ,  7-H ) :   0.1158

FINAL SINGLE POINT ENERGY      -687.258488250903

DIPOLE MOMENT
-------------
                                X             Y             Z
Electronic contribution:      0.61033       5.19245      -0.78966
Nuclear contribution   :      0.51040      -6.36905       0.21167
                        -----------------------------------------
Total Dipole Moment    :      1.12073      -1.17659      -0.57799
                        -----------------------------------------
Magnitude (a.u.)       :      1.72466
Magnitude (Debye)      :      4.38374

Rotational constants in cm-1:     0.163860     0.154073     0.147119
Rotational constants in MHz :  4912.396151  4618.979177  4410.507958

                             ****ORCA TERMINATED NORMALLY****
TOTAL RUN TIME: 0 days 0 hours 0 minutes 7 seconds 603 msec
