                         Program Version 5.0.0 -  RELEASE  -
|  1> !LC-BLYP RIJCOSX def2-SVPD def2/J TightSCF
|  2> *xyz 0 1
|  3> C          4.49059        1.15590       -2.46929
|  4> C          4.30539        1.22276       -3.90832
|  5> C          4.63192        2.24637       -4.67096
|  6> N          4.54169        2.14399       -5.98714
|  7> N          5.08409        3.39358       -4.11855
|  8> H          4.92067        3.57050       -3.13587
|  9> H          5.25465        4.19739       -4.70696
| 10> H          3.82453        0.44911       -4.35093
| 11> H          4.34337        1.24932       -6.41665
| 12> H          4.67671        2.95662       -6.57411
| 13> H          5.00867        2.03053       -2.13534
| 14> H          5.06354        0.28631       -2.22344
| 15> H          3.53600        1.10160       -1.98897
| 16> *
| 17>
| 18> %MaxCore 64000
| 19>
| 20> %pal nprocs 8
| 21> end
| 22>
| 23> %scf
| 24>   MaxIter 150
| 25> end
| 26>
| 27>
| 28>                          ****END OF INPUT****

CARTESIAN COORDINATES (ANGSTROEM)
---------------------------------
  C      4.490590    1.155900   -2.469290
  C      4.305390    1.222760   -3.908320
  C      4.631920    2.246370   -4.670960
  N      4.541690    2.143990   -5.987140
  N      5.084090    3.393580   -4.118550
  H      4.920670    3.570500   -3.135870
  H      5.254650    4.197390   -4.706960
  H      3.824530    0.449110   -4.350930
  H      4.343370    1.249320   -6.416650
  H      4.676710    2.956620   -6.574110
  H      5.008670    2.030530   -2.135340
  H      5.063540    0.286310   -2.223440
  H      3.536000    1.101600   -1.988970

 Total Charge           Charge          ....    0
 Multiplicity           Mult            ....    1
 Number of Electrons    NEL             ....   40
 Basis Dimension        Dim             ....  164

ORBITAL ENERGIES
----------------

  NO   OCC          E(Eh)            E(eV)
   0   2.0000     -14.185785      -386.0148
   1   2.0000     -14.184793      -385.9878
   2   2.0000     -10.126722      -275.5621
   3   2.0000     -10.049118      -273.4504
   4   2.0000     -10.008637      -272.3489
   5   2.0000      -1.051492       -28.6125
   6   2.0000      -0.960226       -26.1291
   7   2.0000      -0.855366       -23.2757
   8   2.0000      -0.759301       -20.6616
   9   2.0000      -0.687067       -18.6960
  10   2.0000      -0.645704       -17.5705
  11   2.0000      -0.614735       -16.7278
  12   2.0000      -0.574097       -15.6220
  13   2.0000      -0.526421       -14.3246
  14   2.0000      -0.515519       -14.0280
  15   2.0000      -0.479440       -13.0462
  16   2.0000      -0.462775       -12.5928
  17   2.0000      -0.441771       -12.0212
  18   2.0000      -0.363828        -9.9003
  19   2.0000      -0.250897        -6.8273
  20   0.0000       0.072609         1.9758
  21   0.0000       0.098553         2.6818
  22   0.0000       0.108343         2.9482
  23   0.0000       0.138847         3.7782
  24   0.0000       0.143688         3.9099

MULLIKEN ATOMIC CHARGES
-----------------------
   0 C :    1.211039
   1 C :   -0.677371
   2 C :    0.842136
   3 N :    0.261224
   4 N :    0.206314
   5 H :   -0.109126
   6 H :   -0.292377
   7 H :   -0.543528
   8 H :   -0.114290
   9 H :   -0.192960
  10 H :   -0.370442
  11 H :   -0.078908
  12 H :   -0.141711
Sum of atomic charges:    0.0000000

LOEWDIN ATOMIC CHARGES
----------------------
   0 C :    0.091140
   1 C :   -0.076895
   2 C :   -0.246730
   3 N :    0.184895
   4 N :    0.203989
   5 H :   -0.021873
   6 H :   -0.014211
   7 H :   -0.045026
   8 H :    0.006534
   9 H :   -0.010540
  10 H :   -0.043143
  11 H :   -0.013766
  12 H :   -0.014373

  Mayer bond orders larger than 0.100000
B(  0-C ,  1-C ) :   1.0891 B(  0-C ,  7-H ) :   0.1832 B(  0-C , 10-H ) :   0.6378
B(  0-C , 11-H ) :   0.6146 B(  0-C , 12-H ) :   0.6440 B(  1-C ,  2-C ) :   1.5162
B(  1-C ,  3-N ) :   0.4230 B(  1-C ,  4-N ) :   0.3192 B(  1-C ,  7-H ) :   0.9642
B(  1-C , 10-H ) :   0.4800 B(  1-C , 11-H ) :   0.2293 B(  1-C , 12-H ) :   0.1926
B(  2-C ,  3-N ) :   0.9436 B(  2-C ,  4-N ) :   1.0313 B(  2-C ,  6-H ) :  -0.1570
B(  2-C ,  8-H ) :  -0.1141 B(  2-C , 10-H ) :  -0.1417 B(  3-N ,  4-N ) :   0.1106
B(  3-N ,  8-H ) :   1.1996 B(  3-N ,  9-H ) :   1.1736 B(  4-N ,  5-H ) :   1.0931
B(  4-N ,  6-H ) :   1.2441 B(  5-H ,  6-H ) :  -0.1533 B(  8-H ,  9-H ) :  -0.1776
B( 10-H , 11-H ) :   0.1781 B( 10-H , 12-H ) :   0.1083

FINAL SINGLE POINT ENERGY      -227.850153808590

DIPOLE MOMENT
-------------
                                X             Y             Z
Electronic contribution:      0.28811       1.32728      -2.85208
Nuclear contribution   :     -0.29662      -0.64714       2.26125
                        -----------------------------------------
Total Dipole Moment    :     -0.00852       0.68014      -0.59084
                        -----------------------------------------
Magnitude (a.u.)       :      0.90097
Magnitude (Debye)      :      2.29009

Rotational constants in cm-1:     0.320965     0.135060     0.096994
Rotational constants in MHz :  9622.302637  4048.999301  2907.812202

                             ****ORCA TERMINATED NORMALLY****
TOTAL RUN TIME: 0 days 0 hours 0 minutes 11 seconds 247 msec
