                         Program Version 5.0.0 -  RELEASE  -
|  1> !LC-BLYP RIJCOSX def2-SVPD def2/J TightSCF
|  2> *xyz 0 1
|  3> C          3.51177       -2.80621       -6.49228
|  4> S          3.00462       -1.09621       -6.38926
|  5> O          4.12886       -0.32965       -6.95372
|  6> F          1.78128       -1.00078       -7.13640
|  7> O          2.85155       -0.78368       -4.95679
|  8> H          3.63615       -3.08010       -7.51913
|  9> H          2.76397       -3.42755       -6.04548
| 10> H          4.43892       -2.93511       -5.97393
| 11> *
| 12>
| 13> %MaxCore 64000
| 14>
| 15> %pal nprocs 8
| 16> end
| 17>
| 18> %scf
| 19>   MaxIter 150
| 20> end
| 21>
| 22>
| 23>                          ****END OF INPUT****

CARTESIAN COORDINATES (ANGSTROEM)
---------------------------------
  C      3.511770   -2.806210   -6.492280
  S      3.004620   -1.096210   -6.389260
  O      4.128860   -0.329650   -6.953720
  F      1.781280   -1.000780   -7.136400
  O      2.851550   -0.783680   -4.956790
  H      3.636150   -3.080100   -7.519130
  H      2.763970   -3.427550   -6.045480
  H      4.438920   -2.935110   -5.973930

 Total Charge           Charge          ....    0
 Multiplicity           Mult            ....    1
 Number of Electrons    NEL             ....   50
 Basis Dimension        Dim             ....  140

ORBITAL ENERGIES
----------------

  NO   OCC          E(Eh)            E(eV)
   0   2.0000     -88.575691     -2410.2671
   1   2.0000     -24.603275      -669.4891
   2   2.0000     -18.968105      -516.1484
   3   2.0000     -18.967425      -516.1299
   4   2.0000     -10.152084      -276.2523
   5   2.0000      -8.125051      -221.0939
   6   2.0000      -6.163986      -167.7306
   7   2.0000      -6.156824      -167.5357
   8   2.0000      -6.155825      -167.5085
   9   2.0000      -1.471519       -40.0421
  10   2.0000      -1.203138       -32.7391
  11   2.0000      -1.097045       -29.8521
  12   2.0000      -0.919729       -25.0271
  13   2.0000      -0.830567       -22.6009
  14   2.0000      -0.720565       -19.6076
  15   2.0000      -0.703271       -19.1370
  16   2.0000      -0.665882       -18.1196
  17   2.0000      -0.589661       -16.0455
  18   2.0000      -0.585195       -15.9240
  19   2.0000      -0.575943       -15.6722
  20   2.0000      -0.540257       -14.7011
  21   2.0000      -0.491865       -13.3843
  22   2.0000      -0.439146       -11.9498
  23   2.0000      -0.433075       -11.7846
  24   2.0000      -0.407181       -11.0799
  25   0.0000       0.039954         1.0872
  26   0.0000       0.075995         2.0679
  27   0.0000       0.082180         2.2362
  28   0.0000       0.084657         2.3036
  29   0.0000       0.102279         2.7832

MULLIKEN ATOMIC CHARGES
-----------------------
   0 C :    0.698087
   1 S :    1.038980
   2 O :   -0.569207
   3 F :   -0.309828
   4 O :   -0.567195
   5 H :   -0.091472
   6 H :   -0.099163
   7 H :   -0.100202
Sum of atomic charges:   -0.0000000

LOEWDIN ATOMIC CHARGES
----------------------
   0 C :    0.108311
   1 S :    1.051477
   2 O :   -0.462057
   3 F :   -0.236233
   4 O :   -0.460237
   5 H :   -0.004806
   6 H :   -0.005398
   7 H :    0.008943

  Mayer bond orders larger than 0.100000
B(  0-C ,  1-S ) :   1.0014 B(  0-C ,  5-H ) :   0.8700 B(  0-C ,  6-H ) :   0.8722
B(  0-C ,  7-H ) :   0.8709 B(  1-S ,  2-O ) :   1.5757 B(  1-S ,  3-F ) :   0.7925
B(  1-S ,  4-O ) :   1.5743 B(  1-S ,  5-H ) :   0.1067 B(  1-S ,  6-H ) :   0.1077
B(  1-S ,  7-H ) :   0.1403

FINAL SINGLE POINT ENERGY      -687.243496513377

DIPOLE MOMENT
-------------
                                X             Y             Z
Electronic contribution:     -3.32078       4.06685      -1.08335
Nuclear contribution   :      2.85578      -5.69854       0.39418
                        -----------------------------------------
Total Dipole Moment    :     -0.46499      -1.63169      -0.68918
                        -----------------------------------------
Magnitude (a.u.)       :      1.83128
Magnitude (Debye)      :      4.65475

Rotational constants in cm-1:     0.163257     0.155833     0.146211
Rotational constants in MHz :  4894.333085  4671.750883  4383.281537

                             ****ORCA TERMINATED NORMALLY****
TOTAL RUN TIME: 0 days 0 hours 0 minutes 7 seconds 865 msec
