                         Program Version 5.0.0 -  RELEASE  -
|  1> !LC-BLYP RIJCOSX def2-SVPD def2/J TightSCF
|  2> *xyz 0 1
|  3> C          4.49059        1.15590       -2.46929
|  4> N          4.30539        1.22276       -3.90832
|  5> C          4.63192        2.24637       -4.67096
|  6> C          4.54169        2.14399       -5.98714
|  7> N          5.08409        3.39358       -4.11855
|  8> H          4.92067        3.57050       -3.13587
|  9> H          5.25465        4.19739       -4.70696
| 10> H          3.82453        0.44911       -4.35093
| 11> H          4.34337        1.24932       -6.41665
| 12> H          4.67671        2.95662       -6.57411
| 13> H          5.00867        2.03053       -2.13534
| 14> H          5.06354        0.28631       -2.22344
| 15> H          3.53600        1.10160       -1.98897
| 16> *
| 17>
| 18> %MaxCore 64000
| 19>
| 20> %pal nprocs 8
| 21> end
| 22>
| 23> %scf
| 24>   MaxIter 150
| 25> end
| 26>
| 27>
| 28>                          ****END OF INPUT****

CARTESIAN COORDINATES (ANGSTROEM)
---------------------------------
  C      4.490590    1.155900   -2.469290
  N      4.305390    1.222760   -3.908320
  C      4.631920    2.246370   -4.670960
  C      4.541690    2.143990   -5.987140
  N      5.084090    3.393580   -4.118550
  H      4.920670    3.570500   -3.135870
  H      5.254650    4.197390   -4.706960
  H      3.824530    0.449110   -4.350930
  H      4.343370    1.249320   -6.416650
  H      4.676710    2.956620   -6.574110
  H      5.008670    2.030530   -2.135340
  H      5.063540    0.286310   -2.223440
  H      3.536000    1.101600   -1.988970

 Total Charge           Charge          ....    0
 Multiplicity           Mult            ....    1
 Number of Electrons    NEL             ....   40
 Basis Dimension        Dim             ....  164

ORBITAL ENERGIES
----------------

  NO   OCC          E(Eh)            E(eV)
   0   2.0000     -14.189612      -386.1190
   1   2.0000     -14.187173      -386.0526
   2   2.0000     -10.132454      -275.7181
   3   2.0000     -10.116894      -275.2947
   4   2.0000      -9.995147      -271.9818
   5   2.0000      -1.062423       -28.9100
   6   2.0000      -0.973666       -26.4948
   7   2.0000      -0.848854       -23.0985
   8   2.0000      -0.767655       -20.8889
   9   2.0000      -0.707844       -19.2614
  10   2.0000      -0.643453       -17.5092
  11   2.0000      -0.595765       -16.2116
  12   2.0000      -0.577619       -15.7178
  13   2.0000      -0.560855       -15.2617
  14   2.0000      -0.509890       -13.8748
  15   2.0000      -0.492614       -13.4047
  16   2.0000      -0.487531       -13.2664
  17   2.0000      -0.463042       -12.6000
  18   2.0000      -0.352875        -9.6022
  19   2.0000      -0.256316        -6.9747
  20   0.0000       0.067118         1.8264
  21   0.0000       0.100636         2.7384
  22   0.0000       0.103713         2.8222
  23   0.0000       0.137384         3.7384
  24   0.0000       0.148063         4.0290

MULLIKEN ATOMIC CHARGES
-----------------------
   0 C :    1.465124
   1 N :   -0.338971
   2 C :    0.693382
   3 C :    0.448968
   4 N :    0.228100
   5 H :   -0.181301
   6 H :   -0.167435
   7 H :   -0.352046
   8 H :   -0.458621
   9 H :   -0.493184
  10 H :   -0.342877
  11 H :   -0.236251
  12 H :   -0.264889
Sum of atomic charges:   -0.0000000

LOEWDIN ATOMIC CHARGES
----------------------
   0 C :    0.199233
   1 N :   -0.029751
   2 C :   -0.255561
   3 C :    0.128886
   4 N :    0.205465
   5 H :   -0.034950
   6 H :    0.004242
   7 H :    0.038747
   8 H :   -0.098601
   9 H :   -0.100628
  10 H :   -0.033333
  11 H :   -0.011247
  12 H :   -0.012503

  Mayer bond orders larger than 0.100000
B(  0-C ,  1-N ) :   0.9523 B(  0-C ,  7-H ) :  -0.2125 B(  0-C , 10-H ) :   0.7542
B(  0-C , 11-H ) :   0.6895 B(  0-C , 12-H ) :   0.7108 B(  1-N ,  2-C ) :   1.1180
B(  1-N ,  3-C ) :   0.2549 B(  1-N ,  4-N ) :   0.1913 B(  1-N ,  7-H ) :   1.3269
B(  1-N , 10-H ) :   0.2310 B(  1-N , 11-H ) :   0.1947 B(  1-N , 12-H ) :   0.1893
B(  2-C ,  3-C ) :   1.2651 B(  2-C ,  4-N ) :   1.0084 B(  2-C ,  6-H ) :  -0.1109
B(  2-C ,  7-H ) :  -0.2498 B(  2-C ,  9-H ) :   0.1576 B(  3-C ,  4-N ) :   0.2317
B(  3-C ,  8-H ) :   0.8110 B(  3-C ,  9-H ) :   0.7221 B(  4-N ,  5-H ) :   1.0960
B(  4-N ,  6-H ) :   1.1817 B(  5-H ,  6-H ) :  -0.1589

FINAL SINGLE POINT ENERGY      -227.838042649971

DIPOLE MOMENT
-------------
                                X             Y             Z
Electronic contribution:      0.08547       0.50212      -0.76112
Nuclear contribution   :     -0.24876      -0.46055       1.84019
                        -----------------------------------------
Total Dipole Moment    :     -0.16329       0.04156       1.07908
                        -----------------------------------------
Magnitude (a.u.)       :      1.09215
Magnitude (Debye)      :      2.77603

Rotational constants in cm-1:     0.322158     0.139919     0.099594
Rotational constants in MHz :  9658.057362  4194.660927  2985.745059

                             ****ORCA TERMINATED NORMALLY****
TOTAL RUN TIME: 0 days 0 hours 0 minutes 10 seconds 36 msec
