                         Program Version 5.0.0 -  RELEASE  -
|  1> !LC-BLYP RIJCOSX def2-SVPD def2/J TightSCF
|  2> *xyz 0 1
|  3> C          3.51177       -2.80621       -6.49228
|  4> S          3.00462       -1.09621       -6.38926
|  5> O          4.12886       -0.32965       -6.95372
|  6> O          1.78128       -1.00078       -7.13640
|  7> F          2.85155       -0.78368       -4.95679
|  8> H          3.63615       -3.08010       -7.51913
|  9> H          2.76397       -3.42755       -6.04548
| 10> H          4.43892       -2.93511       -5.97393
| 11> *
| 12>
| 13> %MaxCore 64000
| 14>
| 15> %pal nprocs 8
| 16> end
| 17>
| 18> %scf
| 19>   MaxIter 150
| 20> end
| 21>
| 22>
| 23>                          ****END OF INPUT****

CARTESIAN COORDINATES (ANGSTROEM)
---------------------------------
  C      3.511770   -2.806210   -6.492280
  S      3.004620   -1.096210   -6.389260
  O      4.128860   -0.329650   -6.953720
  O      1.781280   -1.000780   -7.136400
  F      2.851550   -0.783680   -4.956790
  H      3.636150   -3.080100   -7.519130
  H      2.763970   -3.427550   -6.045480
  H      4.438920   -2.935110   -5.973930

 Total Charge           Charge          ....    0
 Multiplicity           Mult            ....    1
 Number of Electrons    NEL             ....   50
 Basis Dimension        Dim             ....  140

ORBITAL ENERGIES
----------------

  NO   OCC          E(Eh)            E(eV)
   0   2.0000     -88.573768     -2410.2148
   1   2.0000     -24.585829      -669.0144
   2   2.0000     -18.978937      -516.4431
   3   2.0000     -18.967218      -516.1242
   4   2.0000     -10.151186      -276.2278
   5   2.0000      -8.123076      -221.0401
   6   2.0000      -6.161789      -167.6708
   7   2.0000      -6.155025      -167.4867
   8   2.0000      -6.154080      -167.4610
   9   2.0000      -1.440772       -39.2054
  10   2.0000      -1.215232       -33.0681
  11   2.0000      -1.111724       -30.2515
  12   2.0000      -0.916700       -24.9447
  13   2.0000      -0.816070       -22.2064
  14   2.0000      -0.706833       -19.2339
  15   2.0000      -0.681414       -18.5422
  16   2.0000      -0.662229       -18.0202
  17   2.0000      -0.589565       -16.0429
  18   2.0000      -0.587018       -15.9736
  19   2.0000      -0.576141       -15.6776
  20   2.0000      -0.546405       -14.8684
  21   2.0000      -0.498058       -13.5528
  22   2.0000      -0.448028       -12.1915
  23   2.0000      -0.436567       -11.8796
  24   2.0000      -0.418720       -11.3940
  25   0.0000       0.041444         1.1278
  26   0.0000       0.077321         2.1040
  27   0.0000       0.083165         2.2630
  28   0.0000       0.084233         2.2921
  29   0.0000       0.098872         2.6904

MULLIKEN ATOMIC CHARGES
-----------------------
   0 C :    0.698444
   1 S :    1.044745
   2 O :   -0.580074
   3 O :   -0.538239
   4 F :   -0.331965
   5 H :   -0.095264
   6 H :   -0.100500
   7 H :   -0.097148
Sum of atomic charges:   -0.0000000

LOEWDIN ATOMIC CHARGES
----------------------
   0 C :    0.108666
   1 S :    1.050080
   2 O :   -0.462340
   3 O :   -0.444357
   4 F :   -0.250483
   5 H :    0.008463
   6 H :   -0.005710
   7 H :   -0.004319

  Mayer bond orders larger than 0.100000
B(  0-C ,  1-S ) :   1.0022 B(  0-C ,  5-H ) :   0.8664 B(  0-C ,  6-H ) :   0.8718
B(  0-C ,  7-H ) :   0.8747 B(  1-S ,  2-O ) :   1.5723 B(  1-S ,  3-O ) :   1.6086
B(  1-S ,  4-F ) :   0.7448 B(  1-S ,  5-H ) :   0.1322 B(  1-S ,  6-H ) :   0.1079
B(  1-S ,  7-H ) :   0.1155

FINAL SINGLE POINT ENERGY      -687.258187839886

DIPOLE MOMENT
-------------
                                X             Y             Z
Electronic contribution:     -1.53911       4.42580       2.57441
Nuclear contribution   :      1.78651      -5.91544      -1.78339
                        -----------------------------------------
Total Dipole Moment    :      0.24740      -1.48964       0.79101
                        -----------------------------------------
Magnitude (a.u.)       :      1.70468
Magnitude (Debye)      :      4.33295

Rotational constants in cm-1:     0.165193     0.152051     0.147788
Rotational constants in MHz :  4952.361749  4558.380225  4430.570551

                             ****ORCA TERMINATED NORMALLY****
TOTAL RUN TIME: 0 days 0 hours 0 minutes 7 seconds 812 msec
