                         Program Version 5.0.0 -  RELEASE  -
|  1> !LC-BLYP RIJCOSX def2-SVPD def2/J TightSCF
|  2> *xyz 0 1
|  3> C          4.49059        1.15590       -2.46929
|  4> N          4.30539        1.22276       -3.90832
|  5> C          4.63192        2.24637       -4.67096
|  6> N          4.54169        2.14399       -5.98714
|  7> C          5.08409        3.39358       -4.11855
|  8> H          4.92067        3.57050       -3.13587
|  9> H          5.25465        4.19739       -4.70696
| 10> H          3.82453        0.44911       -4.35093
| 11> H          4.34337        1.24932       -6.41665
| 12> H          4.67671        2.95662       -6.57411
| 13> H          5.00867        2.03053       -2.13534
| 14> H          5.06354        0.28631       -2.22344
| 15> H          3.53600        1.10160       -1.98897
| 16> *
| 17>
| 18> %MaxCore 64000
| 19>
| 20> %pal nprocs 8
| 21> end
| 22>
| 23> %scf
| 24>   MaxIter 150
| 25> end
| 26>
| 27>
| 28>                          ****END OF INPUT****

CARTESIAN COORDINATES (ANGSTROEM)
---------------------------------
  C      4.490590    1.155900   -2.469290
  N      4.305390    1.222760   -3.908320
  C      4.631920    2.246370   -4.670960
  N      4.541690    2.143990   -5.987140
  C      5.084090    3.393580   -4.118550
  H      4.920670    3.570500   -3.135870
  H      5.254650    4.197390   -4.706960
  H      3.824530    0.449110   -4.350930
  H      4.343370    1.249320   -6.416650
  H      4.676710    2.956620   -6.574110
  H      5.008670    2.030530   -2.135340
  H      5.063540    0.286310   -2.223440
  H      3.536000    1.101600   -1.988970

 Total Charge           Charge          ....    0
 Multiplicity           Mult            ....    1
 Number of Electrons    NEL             ....   40
 Basis Dimension        Dim             ....  164

ORBITAL ENERGIES
----------------

  NO   OCC          E(Eh)            E(eV)
   0   2.0000     -14.193048      -386.2125
   1   2.0000     -14.190182      -386.1345
   2   2.0000     -10.136043      -275.8157
   3   2.0000     -10.106663      -275.0163
   4   2.0000      -9.995720      -271.9974
   5   2.0000      -1.065940       -29.0057
   6   2.0000      -0.980785       -26.6885
   7   2.0000      -0.819923       -22.3112
   8   2.0000      -0.800214       -21.7749
   9   2.0000      -0.674195       -18.3458
  10   2.0000      -0.659038       -17.9333
  11   2.0000      -0.624189       -16.9851
  12   2.0000      -0.562021       -15.2934
  13   2.0000      -0.547704       -14.9038
  14   2.0000      -0.517694       -14.0872
  15   2.0000      -0.484312       -13.1788
  16   2.0000      -0.483335       -13.1522
  17   2.0000      -0.458088       -12.4652
  18   2.0000      -0.349711        -9.5161
  19   2.0000      -0.256881        -6.9901
  20   0.0000       0.070711         1.9241
  21   0.0000       0.092404         2.5145
  22   0.0000       0.106502         2.8981
  23   0.0000       0.137959         3.7541
  24   0.0000       0.143590         3.9073

MULLIKEN ATOMIC CHARGES
-----------------------
   0 C :    1.429075
   1 N :   -0.339474
   2 C :    0.578281
   3 N :    0.311575
   4 C :    0.410660
   5 H :   -0.295094
   6 H :   -0.607654
   7 H :   -0.417049
   8 H :   -0.231821
   9 H :   -0.082698
  10 H :   -0.284040
  11 H :   -0.217549
  12 H :   -0.254212
Sum of atomic charges:    0.0000000

LOEWDIN ATOMIC CHARGES
----------------------
   0 C :    0.206762
   1 N :   -0.037743
   2 C :   -0.256031
   3 N :    0.192699
   4 C :    0.145038
   5 H :   -0.121933
   6 H :   -0.105799
   7 H :    0.024358
   8 H :   -0.007109
   9 H :    0.009448
  10 H :   -0.031209
  11 H :   -0.009811
  12 H :   -0.008671

  Mayer bond orders larger than 0.100000
B(  0-C ,  1-N ) :   0.9647 B(  0-C ,  7-H ) :  -0.1887 B(  0-C , 10-H ) :   0.7914
B(  0-C , 11-H ) :   0.6602 B(  0-C , 12-H ) :   0.6757 B(  1-N ,  2-C ) :   1.0679
B(  1-N ,  3-N ) :   0.1377 B(  1-N ,  4-C ) :   0.3389 B(  1-N ,  7-H ) :   1.3598
B(  1-N , 10-H ) :   0.1836 B(  1-N , 11-H ) :   0.2328 B(  1-N , 12-H ) :   0.2152
B(  2-C ,  3-N ) :   1.0500 B(  2-C ,  4-C ) :   1.5981 B(  2-C ,  5-H ) :   0.1978
B(  2-C ,  6-H ) :   0.1205 B(  2-C ,  7-H ) :  -0.2745 B(  2-C ,  8-H ) :  -0.1001
B(  3-N ,  4-C ) :   0.2289 B(  3-N ,  8-H ) :   1.2094 B(  3-N ,  9-H ) :   1.1758
B(  4-C ,  5-H ) :   0.6691 B(  4-C ,  6-H ) :   0.8877 B(  5-H ,  6-H ) :   0.1088
B(  5-H , 10-H ) :   0.1618 B(  8-H ,  9-H ) :  -0.1864

FINAL SINGLE POINT ENERGY      -227.836907046249

DIPOLE MOMENT
-------------
                                X             Y             Z
Electronic contribution:     -0.39494      -0.73160      -2.63869
Nuclear contribution   :     -0.13890      -0.20745       2.21867
                        -----------------------------------------
Total Dipole Moment    :     -0.53384      -0.93905      -0.42002
                        -----------------------------------------
Magnitude (a.u.)       :      1.15898
Magnitude (Debye)      :      2.94588

Rotational constants in cm-1:     0.339212     0.134625     0.098371
Rotational constants in MHz : 10169.318272  4035.946597  2949.073953

                             ****ORCA TERMINATED NORMALLY****
TOTAL RUN TIME: 0 days 0 hours 0 minutes 10 seconds 359 msec
