                         Program Version 5.0.0 -  RELEASE  -
|  1> !TPSS D3BJ RIJCOSX def2-TZVPD def2/J TightSCF
|  2> *xyz -1 1
|  3> C         -0.87096        0.24804       -2.66280
|  4> C         -0.47749        0.60819       -4.10105
|  5> H          0.20677        1.45830       -4.11875
|  6> H         -1.36844        0.92942       -4.64785
|  7> C          0.18467       -0.50664       -4.91676
|  8> O         -0.15869       -1.70109       -4.65798
|  9> O          1.05594       -0.17441       -5.74037
| 10> H         -1.54056       -0.58646       -2.67455
| 11> H         -1.35339        1.08600       -2.20455
| 12> H          0.00660       -0.00662       -2.10609
| 13> *
| 14>
| 15> %MaxCore 64000
| 16>
| 17> %pal nprocs 4
| 18> end
| 19>
| 20> %scf
| 21>   MaxIter 150
| 22> end
| 23>
| 24>
| 25>                          ****END OF INPUT****

CARTESIAN COORDINATES (ANGSTROEM)
---------------------------------
  C     -0.870960    0.248040   -2.662800
  C     -0.477490    0.608190   -4.101050
  H      0.206770    1.458300   -4.118750
  H     -1.368440    0.929420   -4.647850
  C      0.184670   -0.506640   -4.916760
  O     -0.158690   -1.701090   -4.657980
  O      1.055940   -0.174410   -5.740370
  H     -1.540560   -0.586460   -2.674550
  H     -1.353390    1.086000   -2.204550
  H      0.006600   -0.006620   -2.106090

 Total Charge           Charge          ....   -1
 Multiplicity           Mult            ....    1
 Number of Electrons    NEL             ....   40
 Basis Dimension        Dim             ....  236

ORBITAL ENERGIES
----------------

  NO   OCC          E(Eh)            E(eV)
   0   2.0000     -18.621236      -506.7096
   1   2.0000     -18.618211      -506.6273
   2   2.0000      -9.857832      -268.2453
   3   2.0000      -9.819128      -267.1920
   4   2.0000      -9.810214      -266.9495
   5   2.0000      -0.750093       -20.4111
   6   2.0000      -0.660664       -17.9776
   7   2.0000      -0.546128       -14.8609
   8   2.0000      -0.424142       -11.5415
   9   2.0000      -0.271019        -7.3748
  10   2.0000      -0.250726        -6.8226
  11   2.0000      -0.216015        -5.8781
  12   2.0000      -0.184108        -5.0098
  13   2.0000      -0.174448        -4.7470
  14   2.0000      -0.162460        -4.4208
  15   2.0000      -0.133941        -3.6447
  16   2.0000      -0.119882        -3.2622
  17   2.0000      -0.011939        -0.3249
  18   2.0000      -0.000144        -0.0039
  19   2.0000       0.015719         0.4277
  20   0.0000       0.125046         3.4027
  21   0.0000       0.150328         4.0906
  22   0.0000       0.163197         4.4408
  23   0.0000       0.173379         4.7179
  24   0.0000       0.193744         5.2720

MULLIKEN ATOMIC CHARGES
-----------------------
   0 C :   -0.823952
   1 C :   -0.129489
   2 H :    0.186774
   3 H :    0.129480
   4 C :    0.558144
   5 O :   -0.811184
   6 O :   -0.800113
   7 H :    0.235232
   8 H :    0.234336
   9 H :    0.220772
Sum of atomic charges:   -1.0000000

LOEWDIN ATOMIC CHARGES
----------------------
   0 C :   -0.131644
   1 C :   -0.205571
   2 H :    0.081134
   3 H :    0.088517
   4 C :   -0.770660
   5 O :   -0.107938
   6 O :   -0.092474
   7 H :    0.048870
   8 H :    0.035741
   9 H :    0.054026

  Mayer bond orders larger than 0.100000
B(  0-C ,  1-C ) :   0.8224 B(  0-C ,  7-H ) :   0.9722 B(  0-C ,  8-H ) :   0.9584
B(  0-C ,  9-H ) :   0.9635 B(  1-C ,  2-H ) :   0.9622 B(  1-C ,  3-H ) :   0.9081
B(  1-C ,  4-C ) :   1.0688 B(  4-C ,  5-O ) :   1.2128 B(  4-C ,  6-O ) :   1.2261

Dispersion correction           -0.008004854
FINAL SINGLE POINT ENERGY      -267.990281673323

DIPOLE MOMENT
-------------
                                X             Y             Z
Electronic contribution:      2.67644      -2.98275      -4.61781
Nuclear contribution   :     -3.54611       4.15440       5.90446
                        -----------------------------------------
Total Dipole Moment    :     -0.86967       1.17165       1.28666
                        -----------------------------------------
Magnitude (a.u.)       :      1.94540
Magnitude (Debye)      :      4.94481

Rotational constants in cm-1:     0.332789     0.132085     0.101080
Rotational constants in MHz :  9976.755824  3959.803182  3030.288811

                             ****ORCA TERMINATED NORMALLY****
TOTAL RUN TIME: 0 days 0 hours 0 minutes 26 seconds 29 msec
