                         Program Version 5.0.0 -  RELEASE  -
|  1> !TPSS D3BJ RIJCOSX def2-TZVPD def2/J TightSCF
|  2> *xyz 1 1
|  3> C          2.48645       -2.67712       -2.56345
|  4> C          3.03764       -2.36672       -3.92351
|  5> N          2.28036       -2.45441       -4.96769
|  6> N          4.32174       -2.01793       -4.01664
|  7> H          4.87994       -1.91167       -3.17382
|  8> H          4.71015       -1.67088       -4.88356
|  9> H          1.27042       -2.41265       -4.86614
| 10> H          2.58183       -2.05528       -5.84688
| 11> C          2.49799       -1.46946       -1.61030
| 12> H          1.47259       -3.05153       -2.69437
| 13> H          3.08320       -3.49064       -2.14147
| 14> H          1.91240       -0.67831       -2.02991
| 15> H          3.50450       -1.13364       -1.47227
| 16> H          2.08509       -1.75655       -0.66585
| 17> *
| 18>
| 19> %MaxCore 64000
| 20>
| 21> %pal nprocs 4
| 22> end
| 23>
| 24> %scf
| 25>   MaxIter 150
| 26> end
| 27>
| 28>
| 29>                          ****END OF INPUT****

CARTESIAN COORDINATES (ANGSTROEM)
---------------------------------
  C      2.486450   -2.677120   -2.563450
  C      3.037640   -2.366720   -3.923510
  N      2.280360   -2.454410   -4.967690
  N      4.321740   -2.017930   -4.016640
  H      4.879940   -1.911670   -3.173820
  H      4.710150   -1.670880   -4.883560
  H      1.270420   -2.412650   -4.866140
  H      2.581830   -2.055280   -5.846880
  C      2.497990   -1.469460   -1.610300
  H      1.472590   -3.051530   -2.694370
  H      3.083200   -3.490640   -2.141470
  H      1.912400   -0.678310   -2.029910
  H      3.504500   -1.133640   -1.472270
  H      2.085090   -1.756550   -0.665850

 Total Charge           Charge          ....    1
 Multiplicity           Mult            ....    1
 Number of Electrons    NEL             ....   40
 Basis Dimension        Dim             ....  266

ORBITAL ENERGIES
----------------

  NO   OCC          E(Eh)            E(eV)
   0   2.0000     -14.349924      -390.4813
   1   2.0000     -14.345248      -390.3540
   2   2.0000     -10.298838      -280.2456
   3   2.0000     -10.184463      -277.1333
   4   2.0000     -10.143760      -276.0257
   5   2.0000      -1.141850       -31.0713
   6   2.0000      -1.051758       -28.6198
   7   2.0000      -0.913020       -24.8445
   8   2.0000      -0.815513       -22.1912
   9   2.0000      -0.766705       -20.8631
  10   2.0000      -0.727040       -19.7838
  11   2.0000      -0.705474       -19.1969
  12   2.0000      -0.658723       -17.9248
  13   2.0000      -0.608881       -16.5685
  14   2.0000      -0.583347       -15.8737
  15   2.0000      -0.567439       -15.4408
  16   2.0000      -0.511354       -13.9147
  17   2.0000      -0.502581       -13.6759
  18   2.0000      -0.493997       -13.4423
  19   2.0000      -0.459489       -12.5033
  20   0.0000      -0.242915        -6.6101
  21   0.0000      -0.180437        -4.9100
  22   0.0000      -0.140353        -3.8192
  23   0.0000      -0.136344        -3.7101
  24   0.0000      -0.106358        -2.8941

MULLIKEN ATOMIC CHARGES
-----------------------
   0 C :   -0.198263
   1 C :    0.700042
   2 N :   -0.297055
   3 N :   -0.347382
   4 H :    0.217091
   5 H :    0.192956
   6 H :    0.246152
   7 H :    0.200281
   8 C :   -0.911400
   9 H :    0.180476
  10 H :    0.194996
  11 H :    0.288594
  12 H :    0.321242
  13 H :    0.212270
Sum of atomic charges:    1.0000000

LOEWDIN ATOMIC CHARGES
----------------------
   0 C :   -0.137441
   1 C :   -0.364288
   2 N :    0.235702
   3 N :    0.231889
   4 H :    0.145170
   5 H :    0.143092
   6 H :    0.154849
   7 H :    0.147703
   8 C :   -0.045635
   9 H :    0.120369
  10 H :    0.135186
  11 H :    0.081030
  12 H :    0.067806
  13 H :    0.084571

  Mayer bond orders larger than 0.100000
B(  0-C ,  1-C ) :   0.9622 B(  0-C ,  8-C ) :   0.8834 B(  0-C ,  9-H ) :   0.9357
B(  0-C , 10-H ) :   0.9145 B(  1-C ,  2-N ) :   1.2766 B(  1-C ,  3-N ) :   1.1532
B(  2-N ,  3-N ) :   0.1047 B(  2-N ,  6-H ) :   0.9326 B(  2-N ,  7-H ) :   0.9870
B(  3-N ,  4-H ) :   0.9623 B(  3-N ,  5-H ) :   1.0085 B(  8-C , 11-H ) :   0.9477
B(  8-C , 12-H ) :   0.8670 B(  8-C , 13-H ) :   1.0102

Dispersion correction           -0.012449758
FINAL SINGLE POINT ENERGY      -229.161350443802

DIPOLE MOMENT
-------------
                                X             Y             Z
Electronic contribution:      1.06262      -1.07337      -3.90274
Nuclear contribution   :     -0.84604       1.34287       2.92710
                        -----------------------------------------
Total Dipole Moment    :      0.21658       0.26950      -0.97564
                        -----------------------------------------
Magnitude (a.u.)       :      1.03509
Magnitude (Debye)      :      2.63099

Rotational constants in cm-1:     0.265816     0.126189     0.097583
Rotational constants in MHz :  7968.948902  3783.040103  2925.457702

                             ****ORCA TERMINATED NORMALLY****
TOTAL RUN TIME: 0 days 0 hours 0 minutes 25 seconds 814 msec
