                         Program Version 5.0.0 -  RELEASE  -
|  1> !TPSS D3BJ RIJCOSX def2-TZVPD def2/J TightSCF xyzfile
|  2>
|  3> *xyzfile 0 1 B.xyz
|  4>
|  5> %MaxCore 64000
|  6>
|  7> %pal nprocs 4
|  8> end
|  9>
| 10> %scf
| 11>   MaxIter 150
| 12> end
| 13>
| 14>
| 15>                          ****END OF INPUT****

CARTESIAN COORDINATES (ANGSTROEM)
---------------------------------
  C      2.486452   -2.677121   -2.563447
  C     -0.870963    0.248043   -2.662804
  C     -0.477492    0.608191   -4.101052
  H      0.206773    1.458299   -4.118748
  H     -1.368442    0.929419   -4.647855
  C      0.184673   -0.506640   -4.916760
  C      3.037640   -2.366715   -3.923509
  N      2.280360   -2.454408   -4.967692
  N      4.321736   -2.017932   -4.016641
  H      4.879940   -1.911668   -3.173823
  H      4.710148   -1.670882   -4.883561
  H      1.270423   -2.412650   -4.866143
  H      2.581829   -2.055282   -5.846878
  O     -0.158685   -1.701088   -4.657981
  O      1.055938   -0.174410   -5.740373
  C      2.497991   -1.469464   -1.610303
  C      1.582841   -0.321986   -2.042619
  H      2.193083   -1.833912   -0.625420
  H      3.523356   -1.103982   -1.490392
  C      0.100160   -0.673551   -1.915815
  H      1.822311   -0.040361   -3.072834
  H      1.813180    0.557019   -1.433266
  H     -0.063284   -1.679120   -2.301112
  H     -0.168820   -0.691680   -0.853831
  H     -1.001048    1.181040   -2.104071
  H     -1.844645   -0.246592   -2.663281
  H      1.472592   -3.051527   -2.694366
  H      3.083201   -3.490638   -2.141472

 Total Charge           Charge          ....    0
 Multiplicity           Mult            ....    1
 Number of Electrons    NEL             ....   94
 Basis Dimension        Dim             ....  594

ORBITAL ENERGIES
----------------

  NO   OCC          E(Eh)            E(eV)
   0   2.0000     -18.798043      -511.5208
   1   2.0000     -18.791050      -511.3305
   2   2.0000     -14.181961      -385.9108
   3   2.0000     -14.145762      -384.9257
   4   2.0000     -10.120975      -275.4057
   5   2.0000     -10.029058      -272.9045
   6   2.0000     -10.026699      -272.8404
   7   2.0000     -10.011437      -272.4250
   8   2.0000      -9.982166      -271.6286
   9   2.0000      -9.964622      -271.1512
  10   2.0000      -9.960025      -271.0261
  11   2.0000      -9.948536      -270.7134
  12   2.0000      -0.964751       -26.2522
  13   2.0000      -0.930046       -25.3079
  14   2.0000      -0.872566       -23.7437
  15   2.0000      -0.839847       -22.8534
  16   2.0000      -0.772214       -21.0130
  17   2.0000      -0.720708       -19.6115
  18   2.0000      -0.678799       -18.4711
  19   2.0000      -0.627219       -17.0675
  20   2.0000      -0.608141       -16.5484
  21   2.0000      -0.567177       -15.4337
  22   2.0000      -0.558953       -15.2099
  23   2.0000      -0.531984       -14.4760
  24   2.0000      -0.510616       -13.8946
  25   2.0000      -0.478224       -13.0131
  26   2.0000      -0.454850       -12.3771
  27   2.0000      -0.437248       -11.8981
  28   2.0000      -0.415188       -11.2979
  29   2.0000      -0.408887       -11.1264
  30   2.0000      -0.401332       -10.9208
  31   2.0000      -0.381825       -10.3900
  32   2.0000      -0.371799       -10.1172
  33   2.0000      -0.367595       -10.0028
  34   2.0000      -0.347113        -9.4454
  35   2.0000      -0.339675        -9.2430
  36   2.0000      -0.326090        -8.8734
  37   2.0000      -0.318722        -8.6729
  38   2.0000      -0.313626        -8.5342
  39   2.0000      -0.297209        -8.0875
  40   2.0000      -0.285481        -7.7683
  41   2.0000      -0.279263        -7.5991
  42   2.0000      -0.269767        -7.3407
  43   2.0000      -0.262001        -7.1294
  44   2.0000      -0.190399        -5.1810
  45   2.0000      -0.174313        -4.7433
  46   2.0000      -0.159833        -4.3493
  47   0.0000      -0.070881        -1.9288
  48   0.0000      -0.040868        -1.1121
  49   0.0000      -0.005882        -0.1601
  50   0.0000       0.005855         0.1593
  51   0.0000       0.012229         0.3328

MULLIKEN ATOMIC CHARGES
-----------------------
   0 C :   -0.324308
   1 C :   -0.196850
   2 C :   -0.396203
   3 H :    0.242680
   4 H :    0.114276
   5 C :    0.867607
   6 C :    0.610547
   7 N :   -0.277733
   8 N :   -0.473981
   9 H :    0.183604
  10 H :    0.168371
  11 H :    0.260190
  12 H :    0.172702
  13 O :   -0.926146
  14 O :   -0.862723
  15 C :   -0.124226
  16 C :   -0.336796
  17 H :    0.083651
  18 H :    0.214402
  19 C :   -0.499819
  20 H :    0.301186
  21 H :    0.073264
  22 H :    0.328894
  23 H :    0.152631
  24 H :    0.100083
  25 H :    0.193300
  26 H :    0.232223
  27 H :    0.119173
Sum of atomic charges:   -0.0000000

LOEWDIN ATOMIC CHARGES
----------------------
   0 C :   -0.099709
   1 C :   -0.190594
   2 C :   -0.124819
   3 H :    0.103319
   4 H :    0.111393
   5 C :   -0.696775
   6 C :   -0.372532
   7 N :    0.233608
   8 N :    0.193461
   9 H :    0.123768
  10 H :    0.128443
  11 H :    0.048947
  12 H :    0.131164
  13 O :   -0.056903
  14 O :   -0.028409
  15 C :   -0.181487
  16 C :   -0.186197
  17 H :    0.113172
  18 H :    0.097427
  19 C :   -0.206604
  20 H :    0.103647
  21 H :    0.114281
  22 H :    0.087757
  23 H :    0.108648
  24 H :    0.100882
  25 H :    0.104826
  26 H :    0.116082
  27 H :    0.123204

  Mayer bond orders larger than 0.100000
B(  0-C ,  6-C ) :   0.9493 B(  0-C , 15-C ) :   0.9854 B(  0-C , 19-C ) :   0.1467
B(  0-C , 26-H ) :   0.9095 B(  0-C , 27-H ) :   0.9024 B(  1-C ,  2-C ) :   0.9276
B(  1-C , 19-C ) :   1.3198 B(  1-C , 22-H ) :   0.1320 B(  1-C , 24-H ) :   0.9111
B(  1-C , 25-H ) :   0.8579 B(  2-C ,  3-H ) :   0.9219 B(  2-C ,  4-H ) :   0.8799
B(  2-C ,  5-C ) :   1.1244 B(  2-C , 16-C ) :   0.1291 B(  5-C , 13-O ) :   0.9628
B(  5-C , 14-O ) :   1.0173 B(  6-C ,  7-N ) :   1.3645 B(  6-C ,  8-N ) :   0.8995
B(  6-C , 15-C ) :   0.1877 B(  6-C , 16-C ) :   0.1208 B(  7-N ,  8-N ) :   0.1278
B(  7-N , 11-H ) :   0.7254 B(  7-N , 12-H ) :   0.9500 B(  8-N ,  9-H ) :   1.0272
B(  8-N , 10-H ) :   1.0121 B( 11-H , 13-O ) :   0.2156 B( 13-O , 14-O ) :   0.1278
B( 15-C , 16-C ) :   1.1751 B( 15-C , 17-H ) :   0.9212 B( 15-C , 18-H ) :   0.7841
B( 15-C , 19-C ) :   0.2286 B( 16-C , 19-C ) :   0.7305 B( 16-C , 20-H ) :   0.8287
B( 16-C , 21-H ) :   0.9397 B( 19-C , 22-H ) :   0.7836 B( 19-C , 23-H ) :   0.8821

Dispersion correction           -0.039200221
FINAL SINGLE POINT ENERGY      -574.796667537136

DIPOLE MOMENT
-------------
                                X             Y             Z
Electronic contribution:      1.62954      -2.89483      -8.88197
Nuclear contribution   :      1.39386       1.90489      10.36520
                        -----------------------------------------
Total Dipole Moment    :      3.02340      -0.98994       1.48323
                        -----------------------------------------
Magnitude (a.u.)       :      3.51011
Magnitude (Debye)      :      8.92200

Rotational constants in cm-1:     0.041165     0.025922     0.019001
Rotational constants in MHz :  1234.086888   777.109255   569.639629

                             ****ORCA TERMINATED NORMALLY****
TOTAL RUN TIME: 0 days 0 hours 2 minutes 5 seconds 864 msec
