                         Program Version 5.0.0 -  RELEASE  -
|  1> !TPSS D3BJ RIJCOSX def2-TZVPD def2/J TightSCF
|  2> *xyz 0 1
|  3> C         -0.87096        0.24804       -2.66280
|  4> C         -0.47749        0.60819       -4.10105
|  5> H          0.20677        1.45830       -4.11875
|  6> H         -1.36844        0.92942       -4.64785
|  7> C          0.18467       -0.50664       -4.91676
|  8> F         -0.15869       -1.70109       -4.65798
|  9> O          1.05594       -0.17441       -5.74037
| 10> H         -1.54056       -0.58646       -2.67455
| 11> H         -1.35339        1.08600       -2.20455
| 12> H          0.00660       -0.00662       -2.10609
| 13> *
| 14>
| 15> %MaxCore 64000
| 16>
| 17> %pal nprocs 4
| 18> end
| 19>
| 20> %scf
| 21>   MaxIter 150
| 22> end
| 23>
| 24>
| 25>                          ****END OF INPUT****

CARTESIAN COORDINATES (ANGSTROEM)
---------------------------------
  C     -0.870960    0.248040   -2.662800
  C     -0.477490    0.608190   -4.101050
  H      0.206770    1.458300   -4.118750
  H     -1.368440    0.929420   -4.647850
  C      0.184670   -0.506640   -4.916760
  F     -0.158690   -1.701090   -4.657980
  O      1.055940   -0.174410   -5.740370
  H     -1.540560   -0.586460   -2.674550
  H     -1.353390    1.086000   -2.204550
  H      0.006600   -0.006620   -2.106090

 Total Charge           Charge          ....    0
 Multiplicity           Mult            ....    1
 Number of Electrons    NEL             ....   40
 Basis Dimension        Dim             ....  236

ORBITAL ENERGIES
----------------

  NO   OCC          E(Eh)            E(eV)
   0   2.0000     -24.473521      -665.9584
   1   2.0000     -18.888774      -513.9897
   2   2.0000     -10.150816      -276.2177
   3   2.0000     -10.017399      -272.5873
   4   2.0000      -9.993134      -271.9270
   5   2.0000      -1.229384       -33.4532
   6   2.0000      -0.969622       -26.3848
   7   2.0000      -0.744940       -20.2709
   8   2.0000      -0.631350       -17.1799
   9   2.0000      -0.586141       -15.9497
  10   2.0000      -0.490647       -13.3512
  11   2.0000      -0.482848       -13.1390
  12   2.0000      -0.446081       -12.1385
  13   2.0000      -0.424306       -11.5459
  14   2.0000      -0.390470       -10.6252
  15   2.0000      -0.359298        -9.7770
  16   2.0000      -0.348091        -9.4720
  17   2.0000      -0.339269        -9.2320
  18   2.0000      -0.312581        -8.5058
  19   2.0000      -0.248321        -6.7572
  20   0.0000      -0.059792        -1.6270
  21   0.0000      -0.011471        -0.3122
  22   0.0000       0.020387         0.5548
  23   0.0000       0.027974         0.7612
  24   0.0000       0.039574         1.0769

MULLIKEN ATOMIC CHARGES
-----------------------
   0 C :   -0.843191
   1 C :   -0.005707
   2 H :    0.186431
   3 H :    0.178902
   4 C :    0.487041
   5 F :   -0.210426
   6 O :   -0.518891
   7 H :    0.261636
   8 H :    0.205446
   9 H :    0.258760
Sum of atomic charges:   -0.0000000

LOEWDIN ATOMIC CHARGES
----------------------
   0 C :   -0.087681
   1 C :   -0.145403
   2 H :    0.113877
   3 H :    0.117630
   4 C :   -0.493560
   5 F :    0.201443
   6 O :    0.095493
   7 H :    0.063966
   8 H :    0.064961
   9 H :    0.069275

  Mayer bond orders larger than 0.100000
B(  0-C ,  1-C ) :   0.8846 B(  0-C ,  7-H ) :   0.9406 B(  0-C ,  8-H ) :   0.9874
B(  0-C ,  9-H ) :   0.9474 B(  1-C ,  2-H ) :   0.9424 B(  1-C ,  3-H ) :   0.8797
B(  1-C ,  4-C ) :   1.0130 B(  4-C ,  5-F ) :   0.9784 B(  4-C ,  6-O ) :   1.6355

Dispersion correction           -0.007539090
FINAL SINGLE POINT ENERGY      -292.562280484235

DIPOLE MOMENT
-------------
                                X             Y             Z
Electronic contribution:      2.63474      -5.37004      -5.31869
Nuclear contribution   :     -3.42837       5.66737       6.17046
                        -----------------------------------------
Total Dipole Moment    :     -0.79363       0.29733       0.85176
                        -----------------------------------------
Magnitude (a.u.)       :      1.20156
Magnitude (Debye)      :      3.05413

Rotational constants in cm-1:     0.304660     0.130969     0.097716
Rotational constants in MHz :  9133.464515  3926.366384  2929.457090

                             ****ORCA TERMINATED NORMALLY****
TOTAL RUN TIME: 0 days 0 hours 0 minutes 24 seconds 311 msec
