                         Program Version 5.0.0 -  RELEASE  -
|  1> !TPSS D3BJ RIJCOSX def2-TZVPD def2/J TightSCF
|  2> *xyz 0 1
|  3> C          2.48645       -2.67712       -2.56345
|  4> C          3.03764       -2.36672       -3.92351
|  5> C          2.28036       -2.45441       -4.96769
|  6> N          4.32174       -2.01793       -4.01664
|  7> H          4.87994       -1.91167       -3.17382
|  8> H          4.71015       -1.67088       -4.88356
|  9> H          1.27042       -2.41265       -4.86614
| 10> H          2.58183       -2.05528       -5.84688
| 11> C          2.49799       -1.46946       -1.61030
| 12> H          1.47259       -3.05153       -2.69437
| 13> H          3.08320       -3.49064       -2.14147
| 14> H          1.91240       -0.67831       -2.02991
| 15> H          3.50450       -1.13364       -1.47227
| 16> H          2.08509       -1.75655       -0.66585
| 17> *
| 18>
| 19> %MaxCore 64000
| 20>
| 21> %pal nprocs 4
| 22> end
| 23>
| 24> %scf
| 25>   MaxIter 150
| 26> end
| 27>
| 28>
| 29>                          ****END OF INPUT****

CARTESIAN COORDINATES (ANGSTROEM)
---------------------------------
  C      2.486450   -2.677120   -2.563450
  C      3.037640   -2.366720   -3.923510
  C      2.280360   -2.454410   -4.967690
  N      4.321740   -2.017930   -4.016640
  H      4.879940   -1.911670   -3.173820
  H      4.710150   -1.670880   -4.883560
  H      1.270420   -2.412650   -4.866140
  H      2.581830   -2.055280   -5.846880
  C      2.497990   -1.469460   -1.610300
  H      1.472590   -3.051530   -2.694370
  H      3.083200   -3.490640   -2.141470
  H      1.912400   -0.678310   -2.029910
  H      3.504500   -1.133640   -1.472270
  H      2.085090   -1.756550   -0.665850

 Total Charge           Charge          ....    0
 Multiplicity           Mult            ....    1
 Number of Electrons    NEL             ....   40
 Basis Dimension        Dim             ....  266

ORBITAL ENERGIES
----------------

  NO   OCC          E(Eh)            E(eV)
   0   2.0000     -14.103668      -383.7803
   1   2.0000      -9.999037      -272.0876
   2   2.0000      -9.984456      -271.6909
   3   2.0000      -9.974287      -271.4142
   4   2.0000      -9.914181      -269.7786
   5   2.0000      -0.862761       -23.4769
   6   2.0000      -0.722997       -19.6737
   7   2.0000      -0.670157       -18.2359
   8   2.0000      -0.586380       -15.9562
   9   2.0000      -0.520197       -14.1553
  10   2.0000      -0.481126       -13.0921
  11   2.0000      -0.434076       -11.8118
  12   2.0000      -0.396491       -10.7891
  13   2.0000      -0.390049       -10.6138
  14   2.0000      -0.348699        -9.4886
  15   2.0000      -0.344039        -9.3618
  16   2.0000      -0.319050        -8.6818
  17   2.0000      -0.296236        -8.0610
  18   2.0000      -0.287708        -7.8289
  19   2.0000      -0.166542        -4.5318
  20   0.0000      -0.008994        -0.2447
  21   0.0000       0.010501         0.2857
  22   0.0000       0.025438         0.6922
  23   0.0000       0.030249         0.8231
  24   0.0000       0.039793         1.0828

MULLIKEN ATOMIC CHARGES
-----------------------
   0 C :   -0.229067
   1 C :    0.721302
   2 C :   -1.037521
   3 N :   -0.501089
   4 H :    0.161645
   5 H :    0.150252
   6 H :    0.261904
   7 H :    0.252018
   8 C :   -0.898499
   9 H :    0.161004
  10 H :    0.188479
  11 H :    0.277655
  12 H :    0.283283
  13 H :    0.208634
Sum of atomic charges:    0.0000000

LOEWDIN ATOMIC CHARGES
----------------------
   0 C :   -0.190136
   1 C :   -0.494366
   2 C :    0.009445
   3 N :    0.108060
   4 H :    0.101801
   5 H :    0.108105
   6 H :    0.026221
   7 H :    0.021643
   8 C :   -0.084775
   9 H :    0.104433
  10 H :    0.108784
  11 H :    0.068896
  12 H :    0.052093
  13 H :    0.059795

  Mayer bond orders larger than 0.100000
B(  0-C ,  1-C ) :   0.9061 B(  0-C ,  8-C ) :   0.8448 B(  0-C ,  9-H ) :   0.9322
B(  0-C , 10-H ) :   0.9110 B(  1-C ,  2-C ) :   1.4438 B(  1-C ,  3-N ) :   0.8587
B(  2-C ,  3-N ) :   0.1298 B(  2-C ,  6-H ) :   0.9561 B(  2-C ,  7-H ) :   1.0550
B(  3-N ,  4-H ) :   1.0295 B(  3-N ,  5-H ) :   1.0312 B(  8-C , 11-H ) :   0.9773
B(  8-C , 12-H ) :   0.9041 B(  8-C , 13-H ) :   1.0010

Dispersion correction           -0.012943051
FINAL SINGLE POINT ENERGY      -212.684162859691

DIPOLE MOMENT
-------------
                                X             Y             Z
Electronic contribution:      1.53566      -0.88154      -2.14048
Nuclear contribution   :     -0.99743       1.27863       2.57190
                        -----------------------------------------
Total Dipole Moment    :      0.53823       0.39709       0.43142
                        -----------------------------------------
Magnitude (a.u.)       :      0.79592
Magnitude (Debye)      :      2.02307

Rotational constants in cm-1:     0.274050     0.130114     0.100964
Rotational constants in MHz :  8215.815505  3900.722919  3026.834930

                             ****ORCA TERMINATED NORMALLY****
TOTAL RUN TIME: 0 days 0 hours 0 minutes 31 seconds 173 msec
