                         Program Version 5.0.0 -  RELEASE  -
|  1> !TPSS D3BJ RIJCOSX def2-TZVPD def2/J TightSCF
|  2> *xyz 0 1
|  3> C         -0.87096        0.24804       -2.66280
|  4> C         -0.47749        0.60819       -4.10105
|  5> H          0.20677        1.45830       -4.11875
|  6> H         -1.36844        0.92942       -4.64785
|  7> C          0.18467       -0.50664       -4.91676
|  8> O         -0.15869       -1.70109       -4.65798
|  9> F          1.05594       -0.17441       -5.74037
| 10> H         -1.54056       -0.58646       -2.67455
| 11> H         -1.35339        1.08600       -2.20455
| 12> H          0.00660       -0.00662       -2.10609
| 13> *
| 14>
| 15> %MaxCore 64000
| 16>
| 17> %pal nprocs 4
| 18> end
| 19>
| 20> %scf
| 21>   MaxIter 150
| 22> end
| 23>
| 24>
| 25>                          ****END OF INPUT****

CARTESIAN COORDINATES (ANGSTROEM)
---------------------------------
  C     -0.870960    0.248040   -2.662800
  C     -0.477490    0.608190   -4.101050
  H      0.206770    1.458300   -4.118750
  H     -1.368440    0.929420   -4.647850
  C      0.184670   -0.506640   -4.916760
  O     -0.158690   -1.701090   -4.657980
  F      1.055940   -0.174410   -5.740370
  H     -1.540560   -0.586460   -2.674550
  H     -1.353390    1.086000   -2.204550
  H      0.006600   -0.006620   -2.106090

 Total Charge           Charge          ....    0
 Multiplicity           Mult            ....    1
 Number of Electrons    NEL             ....   40
 Basis Dimension        Dim             ....  236

ORBITAL ENERGIES
----------------

  NO   OCC          E(Eh)            E(eV)
   0   2.0000     -24.482703      -666.2082
   1   2.0000     -18.885659      -513.9049
   2   2.0000     -10.153025      -276.2779
   3   2.0000     -10.018422      -272.6151
   4   2.0000      -9.987792      -271.7816
   5   2.0000      -1.247507       -33.9464
   6   2.0000      -0.955104       -25.9897
   7   2.0000      -0.741299       -20.1718
   8   2.0000      -0.639398       -17.3989
   9   2.0000      -0.585580       -15.9344
  10   2.0000      -0.497270       -13.5314
  11   2.0000      -0.484198       -13.1757
  12   2.0000      -0.456968       -12.4347
  13   2.0000      -0.424113       -11.5407
  14   2.0000      -0.387819       -10.5531
  15   2.0000      -0.354483        -9.6460
  16   2.0000      -0.338819        -9.2197
  17   2.0000      -0.333096        -9.0640
  18   2.0000      -0.307579        -8.3697
  19   2.0000      -0.245177        -6.6716
  20   0.0000      -0.062194        -1.6924
  21   0.0000      -0.008696        -0.2366
  22   0.0000       0.018199         0.4952
  23   0.0000       0.030353         0.8259
  24   0.0000       0.038967         1.0603

MULLIKEN ATOMIC CHARGES
-----------------------
   0 C :   -0.811893
   1 C :   -0.081266
   2 H :    0.211712
   3 H :    0.168773
   4 C :    0.542825
   5 O :   -0.539900
   6 F :   -0.204690
   7 H :    0.257808
   8 H :    0.211365
   9 H :    0.245267
Sum of atomic charges:   -0.0000000

LOEWDIN ATOMIC CHARGES
----------------------
   0 C :   -0.081340
   1 C :   -0.152391
   2 H :    0.104694
   3 H :    0.117453
   4 C :   -0.494808
   5 O :    0.075646
   6 F :    0.227336
   7 H :    0.067739
   8 H :    0.064951
   9 H :    0.070720

  Mayer bond orders larger than 0.100000
B(  0-C ,  1-C ) :   0.9376 B(  0-C ,  7-H ) :   0.9488 B(  0-C ,  8-H ) :   0.9709
B(  0-C ,  9-H ) :   0.9359 B(  1-C ,  2-H ) :   0.9211 B(  1-C ,  3-H ) :   0.8886
B(  1-C ,  4-C ) :   1.0250 B(  4-C ,  5-O ) :   1.5992 B(  4-C ,  6-F ) :   0.9856

Dispersion correction           -0.007603748
FINAL SINGLE POINT ENERGY      -292.555764456562

DIPOLE MOMENT
-------------
                                X             Y             Z
Electronic contribution:      4.65139      -2.87484      -7.12361
Nuclear contribution   :     -4.75269       4.00281       7.35060
                        -----------------------------------------
Total Dipole Moment    :     -0.10130       1.12797       0.22699
                        -----------------------------------------
Magnitude (a.u.)       :      1.15504
Magnitude (Debye)      :      2.93587

Rotational constants in cm-1:     0.323805     0.124913     0.096140
Rotational constants in MHz :  9707.430323  3744.789513  2882.191141

                             ****ORCA TERMINATED NORMALLY****
TOTAL RUN TIME: 0 days 0 hours 0 minutes 19 seconds 938 msec
