                         Program Version 5.0.0 -  RELEASE  -
|  1> !TPSS D3BJ RIJCOSX def2-TZVPD def2/J TightSCF
|  2> *xyz 0 1
|  3> C          2.48645       -2.67712       -2.56345
|  4> C          3.03764       -2.36672       -3.92351
|  5> N          2.28036       -2.45441       -4.96769
|  6> C          4.32174       -2.01793       -4.01664
|  7> H          4.87994       -1.91167       -3.17382
|  8> H          4.71015       -1.67088       -4.88356
|  9> H          1.27042       -2.41265       -4.86614
| 10> H          2.58183       -2.05528       -5.84688
| 11> C          2.49799       -1.46946       -1.61030
| 12> H          1.47259       -3.05153       -2.69437
| 13> H          3.08320       -3.49064       -2.14147
| 14> H          1.91240       -0.67831       -2.02991
| 15> H          3.50450       -1.13364       -1.47227
| 16> H          2.08509       -1.75655       -0.66585
| 17> *
| 18>
| 19> %MaxCore 64000
| 20>
| 21> %pal nprocs 4
| 22> end
| 23>
| 24> %scf
| 25>   MaxIter 150
| 26> end
| 27>
| 28>
| 29>                          ****END OF INPUT****

CARTESIAN COORDINATES (ANGSTROEM)
---------------------------------
  C      2.486450   -2.677120   -2.563450
  C      3.037640   -2.366720   -3.923510
  N      2.280360   -2.454410   -4.967690
  C      4.321740   -2.017930   -4.016640
  H      4.879940   -1.911670   -3.173820
  H      4.710150   -1.670880   -4.883560
  H      1.270420   -2.412650   -4.866140
  H      2.581830   -2.055280   -5.846880
  C      2.497990   -1.469460   -1.610300
  H      1.472590   -3.051530   -2.694370
  H      3.083200   -3.490640   -2.141470
  H      1.912400   -0.678310   -2.029910
  H      3.504500   -1.133640   -1.472270
  H      2.085090   -1.756550   -0.665850

 Total Charge           Charge          ....    0
 Multiplicity           Mult            ....    1
 Number of Electrons    NEL             ....   40
 Basis Dimension        Dim             ....  266

ORBITAL ENERGIES
----------------

  NO   OCC          E(Eh)            E(eV)
   0   2.0000     -14.107202      -383.8765
   1   2.0000      -9.998961      -272.0856
   2   2.0000      -9.985063      -271.7074
   3   2.0000      -9.970418      -271.3089
   4   2.0000      -9.915689      -269.8196
   5   2.0000      -0.877512       -23.8783
   6   2.0000      -0.723794       -19.6954
   7   2.0000      -0.655358       -17.8332
   8   2.0000      -0.591085       -16.0842
   9   2.0000      -0.523595       -14.2477
  10   2.0000      -0.477915       -13.0047
  11   2.0000      -0.438451       -11.9309
  12   2.0000      -0.404307       -11.0018
  13   2.0000      -0.368284       -10.0215
  14   2.0000      -0.354488        -9.6461
  15   2.0000      -0.340824        -9.2743
  16   2.0000      -0.316535        -8.6134
  17   2.0000      -0.299828        -8.1587
  18   2.0000      -0.295733        -8.0473
  19   2.0000      -0.158208        -4.3051
  20   0.0000      -0.007676        -0.2089
  21   0.0000       0.006914         0.1882
  22   0.0000       0.024835         0.6758
  23   0.0000       0.029695         0.8080
  24   0.0000       0.041253         1.1225

MULLIKEN ATOMIC CHARGES
-----------------------
   0 C :   -0.194514
   1 C :    0.792314
   2 N :   -0.436533
   3 C :   -1.211226
   4 H :    0.274921
   5 H :    0.223265
   6 H :    0.192762
   7 H :    0.155451
   8 C :   -0.901902
   9 H :    0.172601
  10 H :    0.170111
  11 H :    0.247662
  12 H :    0.302315
  13 H :    0.212773
Sum of atomic charges:   -0.0000000

LOEWDIN ATOMIC CHARGES
----------------------
   0 C :   -0.190746
   1 C :   -0.501649
   2 N :    0.105538
   3 C :    0.022521
   4 H :    0.019170
   5 H :    0.014645
   6 H :    0.107975
   7 H :    0.112606
   8 C :   -0.083792
   9 H :    0.097079
  10 H :    0.112241
  11 H :    0.066848
  12 H :    0.058842
  13 H :    0.058722

  Mayer bond orders larger than 0.100000
B(  0-C ,  1-C ) :   0.8767 B(  0-C ,  8-C ) :   0.7984 B(  0-C ,  9-H ) :   1.0041
B(  0-C , 10-H ) :   0.9003 B(  1-C ,  2-N ) :   0.9874 B(  1-C ,  3-C ) :   1.2123
B(  1-C ,  8-C ) :   0.1171 B(  2-N ,  3-C ) :   0.1225 B(  2-N ,  6-H ) :   0.9843
B(  2-N ,  7-H ) :   1.0046 B(  3-C ,  4-H ) :   0.9333 B(  3-C ,  5-H ) :   1.0551
B(  8-C , 11-H ) :   0.9605 B(  8-C , 12-H ) :   0.9213 B(  8-C , 13-H ) :   0.9824

Dispersion correction           -0.012971900
FINAL SINGLE POINT ENERGY      -212.685005195183

DIPOLE MOMENT
-------------
                                X             Y             Z
Electronic contribution:     -0.24153      -1.20098      -2.98164
Nuclear contribution   :     -0.52463       1.37972       2.79217
                        -----------------------------------------
Total Dipole Moment    :     -0.76616       0.17874      -0.18947
                        -----------------------------------------
Magnitude (a.u.)       :      0.80923
Magnitude (Debye)      :      2.05690

Rotational constants in cm-1:     0.281086     0.127387     0.100311
Rotational constants in MHz :  8426.743103  3818.969834  3007.238026

                             ****ORCA TERMINATED NORMALLY****
TOTAL RUN TIME: 0 days 0 hours 0 minutes 30 seconds 26 msec
