                         Program Version 5.0.0 -  RELEASE  -
|  1> !TPSS D3BJ RIJCOSX def2-TZVPD def2/J TightSCF xyzfile
|  2>
|  3> *xyzfile 0 1 D1.xyz
|  4>
|  5> %MaxCore 64000
|  6>
|  7> %pal nprocs 4
|  8> end
|  9>
| 10> %scf
| 11>   MaxIter 150
| 12> end
| 13>
| 14>
| 15>                          ****END OF INPUT****

CARTESIAN COORDINATES (ANGSTROEM)
---------------------------------
  C      2.486452   -2.677121   -2.563447
  C     -0.870963    0.248043   -2.662804
  C     -0.477492    0.608191   -4.101052
  H      0.206773    1.458299   -4.118748
  H     -1.368442    0.929419   -4.647855
  C      0.184673   -0.506640   -4.916760
  C      3.037640   -2.366715   -3.923509
  C      2.280360   -2.454408   -4.967692
  N      4.321736   -2.017932   -4.016641
  H      4.879940   -1.911668   -3.173823
  H      4.710148   -1.670882   -4.883561
  H      1.270423   -2.412650   -4.866143
  H      2.581829   -2.055282   -5.846878
  F     -0.158685   -1.701088   -4.657981
  O      1.055938   -0.174410   -5.740373
  C      2.497991   -1.469464   -1.610303
  C      1.582841   -0.321986   -2.042619
  H      2.193083   -1.833912   -0.625420
  H      3.523356   -1.103982   -1.490392
  C      0.100160   -0.673551   -1.915815
  H      1.822311   -0.040361   -3.072834
  H      1.813180    0.557019   -1.433266
  H     -0.063284   -1.679120   -2.301112
  H     -0.168820   -0.691680   -0.853831
  H     -1.001048    1.181040   -2.104071
  H     -1.844645   -0.246592   -2.663281
  H      1.472592   -3.051527   -2.694366
  H      3.083201   -3.490638   -2.141472

 Total Charge           Charge          ....    0
 Multiplicity           Mult            ....    1
 Number of Electrons    NEL             ....   94
 Basis Dimension        Dim             ....  594

ORBITAL ENERGIES
----------------

  NO   OCC          E(Eh)            E(eV)
   0   2.0000     -24.474063      -665.9731
   1   2.0000     -18.885350      -513.8965
   2   2.0000     -14.091961      -383.4618
   3   2.0000     -10.149284      -276.1760
   4   2.0000     -10.013399      -272.4784
   5   2.0000      -9.998517      -272.0735
   6   2.0000      -9.987279      -271.7677
   7   2.0000      -9.984821      -271.7008
   8   2.0000      -9.984575      -271.6941
   9   2.0000      -9.983280      -271.6589
  10   2.0000      -9.979005      -271.5425
  11   2.0000      -9.893706      -269.2214
  12   2.0000      -1.236117       -33.6364
  13   2.0000      -0.968433       -26.3524
  14   2.0000      -0.851578       -23.1726
  15   2.0000      -0.767540       -20.8858
  16   2.0000      -0.734531       -19.9876
  17   2.0000      -0.688440       -18.7334
  18   2.0000      -0.665359       -18.1054
  19   2.0000      -0.622858       -16.9488
  20   2.0000      -0.600487       -16.3401
  21   2.0000      -0.566477       -15.4146
  22   2.0000      -0.532806       -14.4984
  23   2.0000      -0.519589       -14.1387
  24   2.0000      -0.492998       -13.4152
  25   2.0000      -0.486432       -13.2365
  26   2.0000      -0.464394       -12.6368
  27   2.0000      -0.444913       -12.1067
  28   2.0000      -0.436603       -11.8806
  29   2.0000      -0.425967       -11.5911
  30   2.0000      -0.415457       -11.3052
  31   2.0000      -0.400876       -10.9084
  32   2.0000      -0.388867       -10.5816
  33   2.0000      -0.366531        -9.9738
  34   2.0000      -0.362891        -9.8748
  35   2.0000      -0.347380        -9.4527
  36   2.0000      -0.336229        -9.1493
  37   2.0000      -0.334230        -9.0949
  38   2.0000      -0.319105        -8.6833
  39   2.0000      -0.312942        -8.5156
  40   2.0000      -0.302261        -8.2249
  41   2.0000      -0.297954        -8.1078
  42   2.0000      -0.284677        -7.7465
  43   2.0000      -0.276356        -7.5200
  44   2.0000      -0.273796        -7.4504
  45   2.0000      -0.243501        -6.6260
  46   2.0000      -0.152388        -4.1467
  47   0.0000      -0.059507        -1.6193
  48   0.0000      -0.010637        -0.2894
  49   0.0000      -0.001697        -0.0462
  50   0.0000       0.008345         0.2271
  51   0.0000       0.013047         0.3550

MULLIKEN ATOMIC CHARGES
-----------------------
   0 C :   -0.413803
   1 C :   -0.185068
   2 C :   -0.258844
   3 H :    0.247588
   4 H :    0.119937
   5 C :    0.574980
   6 C :    0.666506
   7 C :   -1.318234
   8 N :   -0.584934
   9 H :    0.141495
  10 H :    0.134261
  11 H :    0.770423
  12 H :    0.221540
  13 F :   -0.297375
  14 O :   -0.602334
  15 C :   -0.178570
  16 C :   -0.355767
  17 H :    0.082754
  18 H :    0.247647
  19 C :   -0.483905
  20 H :    0.353791
  21 H :    0.074955
  22 H :    0.298111
  23 H :    0.158273
  24 H :    0.103494
  25 H :    0.198083
  26 H :    0.161945
  27 H :    0.123051
Sum of atomic charges:    0.0000000

LOEWDIN ATOMIC CHARGES
----------------------
   0 C :   -0.136091
   1 C :   -0.186682
   2 C :   -0.092166
   3 H :    0.120428
   4 H :    0.121618
   5 C :   -0.487393
   6 C :   -0.467163
   7 C :    0.012629
   8 N :    0.113300
   9 H :    0.098769
  10 H :    0.108855
  11 H :   -0.001151
  12 H :    0.036506
  13 F :    0.171428
  14 O :    0.104630
  15 C :   -0.187813
  16 C :   -0.187790
  17 H :    0.106142
  18 H :    0.097965
  19 C :   -0.201168
  20 H :    0.103449
  21 H :    0.113116
  22 H :    0.091974
  23 H :    0.114533
  24 H :    0.108985
  25 H :    0.106078
  26 H :    0.103329
  27 H :    0.113683

  Mayer bond orders larger than 0.100000
B(  0-C ,  6-C ) :   0.9148 B(  0-C ,  8-N ) :   0.1350 B(  0-C , 15-C ) :   1.0119
B(  0-C , 19-C ) :   0.1194 B(  0-C , 26-H ) :   0.9002 B(  0-C , 27-H ) :   0.9354
B(  1-C ,  2-C ) :   0.9551 B(  1-C , 19-C ) :   1.2374 B(  1-C , 22-H ) :   0.1046
B(  1-C , 24-H ) :   0.9011 B(  1-C , 25-H ) :   0.8934 B(  2-C ,  3-H ) :   0.9077
B(  2-C ,  4-H ) :   0.8784 B(  2-C ,  5-C ) :   1.0602 B(  2-C , 16-C ) :   0.1180
B(  5-C , 13-F ) :   0.8998 B(  5-C , 14-O ) :   1.4723 B(  6-C ,  7-C ) :   1.6059
B(  6-C ,  8-N ) :   0.6656 B(  6-C , 11-H ) :  -0.2239 B(  6-C , 16-C ) :   0.1170
B(  7-C , 11-H ) :   0.5242 B(  7-C , 12-H ) :   1.0483 B(  8-N ,  9-H ) :   1.0873
B(  8-N , 10-H ) :   1.0409 B( 11-H , 13-F ) :  -0.1078 B( 15-C , 16-C ) :   1.2090
B( 15-C , 17-H ) :   0.9211 B( 15-C , 18-H ) :   0.7816 B( 15-C , 19-C ) :   0.2548
B( 16-C , 19-C ) :   0.6899 B( 16-C , 20-H ) :   0.8190 B( 16-C , 21-H ) :   0.9376
B( 19-C , 22-H ) :   0.8485 B( 19-C , 23-H ) :   0.8575

Dispersion correction           -0.038999444
FINAL SINGLE POINT ENERGY      -582.688337705447

DIPOLE MOMENT
-------------
                                X             Y             Z
Electronic contribution:     -3.66026      -1.65166     -10.28279
Nuclear contribution   :      3.32973       2.37270      11.37738
                        -----------------------------------------
Total Dipole Moment    :     -0.33053       0.72104       1.09459
                        -----------------------------------------
Magnitude (a.u.)       :      1.35177
Magnitude (Debye)      :      3.43592

Rotational constants in cm-1:     0.040902     0.025807     0.019036
Rotational constants in MHz :  1226.202138   773.670450   570.681201

                             ****ORCA TERMINATED NORMALLY****
TOTAL RUN TIME: 0 days 0 hours 2 minutes 0 seconds 581 msec
