                         Program Version 5.0.0 -  RELEASE  -
|  1> !TPSS D3BJ RIJCOSX def2-TZVPD def2/J TightSCF xyzfile
|  2>
|  3> *xyzfile 0 1 D2.xyz
|  4>
|  5> %MaxCore 64000
|  6>
|  7> %pal nprocs 4
|  8> end
|  9>
| 10> %scf
| 11>   MaxIter 150
| 12> end
| 13>
| 14>
| 15>                          ****END OF INPUT****

CARTESIAN COORDINATES (ANGSTROEM)
---------------------------------
  C      2.486452   -2.677121   -2.563447
  C     -0.870963    0.248043   -2.662804
  C     -0.477492    0.608191   -4.101052
  H      0.206773    1.458299   -4.118748
  H     -1.368442    0.929419   -4.647855
  C      0.184673   -0.506640   -4.916760
  C      3.037640   -2.366715   -3.923509
  N      2.280360   -2.454408   -4.967692
  C      4.321736   -2.017932   -4.016641
  H      4.879940   -1.911668   -3.173823
  H      4.710148   -1.670882   -4.883561
  H      1.270423   -2.412650   -4.866143
  H      2.581829   -2.055282   -5.846878
  F     -0.158685   -1.701088   -4.657981
  O      1.055938   -0.174410   -5.740373
  C      2.497991   -1.469464   -1.610303
  C      1.582841   -0.321986   -2.042619
  H      2.193083   -1.833912   -0.625420
  H      3.523356   -1.103982   -1.490392
  C      0.100160   -0.673551   -1.915815
  H      1.822311   -0.040361   -3.072834
  H      1.813180    0.557019   -1.433266
  H     -0.063284   -1.679120   -2.301112
  H     -0.168820   -0.691680   -0.853831
  H     -1.001048    1.181040   -2.104071
  H     -1.844645   -0.246592   -2.663281
  H      1.472592   -3.051527   -2.694366
  H      3.083201   -3.490638   -2.141472

 Total Charge           Charge          ....    0
 Multiplicity           Mult            ....    1
 Number of Electrons    NEL             ....   94
 Basis Dimension        Dim             ....  594

ORBITAL ENERGIES
----------------

  NO   OCC          E(Eh)            E(eV)
   0   2.0000     -24.502108      -666.7363
   1   2.0000     -18.905188      -514.4363
   2   2.0000     -14.080553      -383.1513
   3   2.0000     -10.168195      -276.6906
   4   2.0000     -10.025118      -272.7973
   5   2.0000     -10.006093      -272.2796
   6   2.0000      -9.992428      -271.9078
   7   2.0000      -9.987031      -271.7609
   8   2.0000      -9.985515      -271.7197
   9   2.0000      -9.982106      -271.6269
  10   2.0000      -9.979707      -271.5616
  11   2.0000      -9.903097      -269.4770
  12   2.0000      -1.262987       -34.3676
  13   2.0000      -0.988237       -26.8913
  14   2.0000      -0.860640       -23.4192
  15   2.0000      -0.775244       -21.0955
  16   2.0000      -0.737049       -20.0561
  17   2.0000      -0.697445       -18.9784
  18   2.0000      -0.654120       -17.7995
  19   2.0000      -0.634242       -17.2586
  20   2.0000      -0.612773       -16.6744
  21   2.0000      -0.575806       -15.6685
  22   2.0000      -0.540712       -14.7135
  23   2.0000      -0.532845       -14.4995
  24   2.0000      -0.511790       -13.9265
  25   2.0000      -0.491866       -13.3844
  26   2.0000      -0.464627       -12.6431
  27   2.0000      -0.453182       -12.3317
  28   2.0000      -0.438632       -11.9358
  29   2.0000      -0.433058       -11.7841
  30   2.0000      -0.428147       -11.6505
  31   2.0000      -0.402270       -10.9463
  32   2.0000      -0.385590       -10.4924
  33   2.0000      -0.375734       -10.2242
  34   2.0000      -0.369544       -10.0558
  35   2.0000      -0.353205        -9.6112
  36   2.0000      -0.347367        -9.4523
  37   2.0000      -0.336466        -9.1557
  38   2.0000      -0.330154        -8.9839
  39   2.0000      -0.321036        -8.7358
  40   2.0000      -0.308803        -8.4030
  41   2.0000      -0.302373        -8.2280
  42   2.0000      -0.288436        -7.8487
  43   2.0000      -0.285110        -7.7582
  44   2.0000      -0.279217        -7.5979
  45   2.0000      -0.260228        -7.0812
  46   2.0000      -0.143409        -3.9024
  47   0.0000      -0.077641        -2.1127
  48   0.0000      -0.016773        -0.4564
  49   0.0000       0.003552         0.0967
  50   0.0000       0.006666         0.1814
  51   0.0000       0.010459         0.2846

MULLIKEN ATOMIC CHARGES
-----------------------
   0 C :   -0.239021
   1 C :   -0.170617
   2 C :   -0.245897
   3 H :    0.250555
   4 H :    0.116322
   5 C :    0.644139
   6 C :    0.518542
   7 N :   -0.572293
   8 C :   -1.217772
   9 H :    0.302855
  10 H :    0.222919
  11 H :    0.409306
  12 H :    0.135001
  13 F :   -0.339856
  14 O :   -0.598962
  15 C :   -0.169032
  16 C :   -0.473359
  17 H :    0.092449
  18 H :    0.264840
  19 C :   -0.449101
  20 H :    0.370729
  21 H :    0.075810
  22 H :    0.278749
  23 H :    0.159670
  24 H :    0.108468
  25 H :    0.200159
  26 H :    0.241760
  27 H :    0.083637
Sum of atomic charges:    0.0000000

LOEWDIN ATOMIC CHARGES
----------------------
   0 C :   -0.136225
   1 C :   -0.186146
   2 C :   -0.091002
   3 H :    0.122884
   4 H :    0.123338
   5 C :   -0.482051
   6 C :   -0.482876
   7 N :    0.122632
   8 C :    0.026728
   9 H :    0.016526
  10 H :    0.015883
  11 H :    0.058344
  12 H :    0.113832
  13 F :    0.180613
  14 O :    0.108196
  15 C :   -0.183720
  16 C :   -0.187419
  17 H :    0.106396
  18 H :    0.104866
  19 C :   -0.203576
  20 H :    0.102020
  21 H :    0.114711
  22 H :    0.089023
  23 H :    0.115627
  24 H :    0.110734
  25 H :    0.106368
  26 H :    0.096634
  27 H :    0.117658

  Mayer bond orders larger than 0.100000
B(  0-C ,  6-C ) :   0.8237 B(  0-C ,  8-C ) :  -0.1387 B(  0-C , 15-C ) :   0.9462
B(  0-C , 19-C ) :   0.1321 B(  0-C , 26-H ) :   0.8991 B(  0-C , 27-H ) :   0.8924
B(  1-C ,  2-C ) :   0.9557 B(  1-C , 19-C ) :   1.1888 B(  1-C , 24-H ) :   0.8939
B(  1-C , 25-H ) :   0.8974 B(  2-C ,  3-H ) :   0.8943 B(  2-C ,  4-H ) :   0.8830
B(  2-C ,  5-C ) :   1.0833 B(  2-C , 16-C ) :   0.1290 B(  5-C , 13-F ) :   0.7706
B(  5-C , 14-O ) :   1.5099 B(  6-C ,  7-N ) :   0.9447 B(  6-C ,  8-C ) :   1.3192
B(  6-C , 15-C ) :   0.1483 B(  6-C , 16-C ) :   0.1449 B(  7-N ,  8-C ) :   0.2040
B(  7-N , 11-H ) :   0.6592 B(  7-N , 12-H ) :   0.9515 B(  7-N , 14-O ) :   0.1013
B(  8-C ,  9-H ) :   0.9556 B(  8-C , 10-H ) :   0.9955 B( 15-C , 16-C ) :   1.2258
B( 15-C , 17-H ) :   0.8997 B( 15-C , 18-H ) :   0.8109 B( 15-C , 19-C ) :   0.2411
B( 16-C , 19-C ) :   0.6922 B( 16-C , 20-H ) :   0.8227 B( 16-C , 21-H ) :   0.9512
B( 19-C , 22-H ) :   0.8762 B( 19-C , 23-H ) :   0.8557

Dispersion correction           -0.038855693
FINAL SINGLE POINT ENERGY      -582.699958231499

DIPOLE MOMENT
-------------
                                X             Y             Z
Electronic contribution:     -5.30721      -1.80558     -10.91759
Nuclear contribution   :      3.65024       2.44123      11.52670
                        -----------------------------------------
Total Dipole Moment    :     -1.65697       0.63565       0.60911
                        -----------------------------------------
Magnitude (a.u.)       :      1.87633
Magnitude (Debye)      :      4.76925

Rotational constants in cm-1:     0.040600     0.026409     0.019262
Rotational constants in MHz :  1217.142957   791.712481   577.449390

                             ****ORCA TERMINATED NORMALLY****
TOTAL RUN TIME: 0 days 0 hours 2 minutes 3 seconds 24 msec
