                         Program Version 5.0.0 -  RELEASE  -
|  1> !TPSS D3BJ RIJCOSX def2-TZVPD def2/J TightSCF xyzfile
|  2>
|  3> *xyzfile 0 1 D3.xyz
|  4>
|  5> %MaxCore 64000
|  6>
|  7> %pal nprocs 4
|  8> end
|  9>
| 10> %scf
| 11>   MaxIter 150
| 12> end
| 13>
| 14>
| 15>                          ****END OF INPUT****

CARTESIAN COORDINATES (ANGSTROEM)
---------------------------------
  C      2.486452   -2.677121   -2.563447
  C     -0.870963    0.248043   -2.662804
  C     -0.477492    0.608191   -4.101052
  H      0.206773    1.458299   -4.118748
  H     -1.368442    0.929419   -4.647855
  C      0.184673   -0.506640   -4.916760
  C      3.037640   -2.366715   -3.923509
  C      2.280360   -2.454408   -4.967692
  N      4.321736   -2.017932   -4.016641
  H      4.879940   -1.911668   -3.173823
  H      4.710148   -1.670882   -4.883561
  H      1.270423   -2.412650   -4.866143
  H      2.581829   -2.055282   -5.846878
  O     -0.158685   -1.701088   -4.657981
  F      1.055938   -0.174410   -5.740373
  C      2.497991   -1.469464   -1.610303
  C      1.582841   -0.321986   -2.042619
  H      2.193083   -1.833912   -0.625420
  H      3.523356   -1.103982   -1.490392
  C      0.100160   -0.673551   -1.915815
  H      1.822311   -0.040361   -3.072834
  H      1.813180    0.557019   -1.433266
  H     -0.063284   -1.679120   -2.301112
  H     -0.168820   -0.691680   -0.853831
  H     -1.001048    1.181040   -2.104071
  H     -1.844645   -0.246592   -2.663281
  H      1.472592   -3.051527   -2.694366
  H      3.083201   -3.490638   -2.141472

 Total Charge           Charge          ....    0
 Multiplicity           Mult            ....    1
 Number of Electrons    NEL             ....   94
 Basis Dimension        Dim             ....  594

ORBITAL ENERGIES
----------------

  NO   OCC          E(Eh)            E(eV)
   0   2.0000     -24.480755      -666.1552
   1   2.0000     -18.884658      -513.8777
   2   2.0000     -14.090853      -383.4316
   3   2.0000     -10.153765      -276.2980
   4   2.0000     -10.015524      -272.5363
   5   2.0000      -9.996034      -272.0059
   6   2.0000      -9.982587      -271.6400
   7   2.0000      -9.981727      -271.6166
   8   2.0000      -9.981503      -271.6105
   9   2.0000      -9.978977      -271.5418
  10   2.0000      -9.974173      -271.4111
  11   2.0000      -9.886579      -269.0275
  12   2.0000      -1.246597       -33.9216
  13   2.0000      -0.963465       -26.2172
  14   2.0000      -0.850278       -23.1373
  15   2.0000      -0.762503       -20.7488
  16   2.0000      -0.732024       -19.9194
  17   2.0000      -0.686486       -18.6802
  18   2.0000      -0.663237       -18.0476
  19   2.0000      -0.624691       -16.9987
  20   2.0000      -0.597963       -16.2714
  21   2.0000      -0.562436       -15.3047
  22   2.0000      -0.528793       -14.3892
  23   2.0000      -0.512278       -13.9398
  24   2.0000      -0.495428       -13.4813
  25   2.0000      -0.476872       -12.9763
  26   2.0000      -0.469716       -12.7816
  27   2.0000      -0.461265       -12.5517
  28   2.0000      -0.434046       -11.8110
  29   2.0000      -0.425396       -11.5756
  30   2.0000      -0.411159       -11.1882
  31   2.0000      -0.398759       -10.8508
  32   2.0000      -0.389988       -10.6121
  33   2.0000      -0.361265        -9.8305
  34   2.0000      -0.356537        -9.7019
  35   2.0000      -0.348760        -9.4902
  36   2.0000      -0.339582        -9.2405
  37   2.0000      -0.327398        -8.9089
  38   2.0000      -0.321737        -8.7549
  39   2.0000      -0.313271        -8.5245
  40   2.0000      -0.299006        -8.1364
  41   2.0000      -0.290865        -7.9148
  42   2.0000      -0.281629        -7.6635
  43   2.0000      -0.275624        -7.5001
  44   2.0000      -0.272778        -7.4227
  45   2.0000      -0.225632        -6.1398
  46   2.0000      -0.151330        -4.1179
  47   0.0000      -0.064115        -1.7447
  48   0.0000      -0.009585        -0.2608
  49   0.0000      -0.000015        -0.0004
  50   0.0000       0.007285         0.1982
  51   0.0000       0.015397         0.4190

MULLIKEN ATOMIC CHARGES
-----------------------
   0 C :   -0.397148
   1 C :   -0.213212
   2 C :   -0.336831
   3 H :    0.324340
   4 H :    0.107054
   5 C :    0.631306
   6 C :    0.680341
   7 C :   -1.467456
   8 N :   -0.588303
   9 H :    0.142479
  10 H :    0.129250
  11 H :    0.918027
  12 H :    0.224357
  13 O :   -0.624441
  14 F :   -0.298341
  15 C :   -0.192580
  16 C :   -0.303127
  17 H :    0.081237
  18 H :    0.241260
  19 C :   -0.520907
  20 H :    0.285490
  21 H :    0.076930
  22 H :    0.329748
  23 H :    0.162863
  24 H :    0.103374
  25 H :    0.207765
  26 H :    0.173025
  27 H :    0.123502
Sum of atomic charges:   -0.0000000

LOEWDIN ATOMIC CHARGES
----------------------
   0 C :   -0.132808
   1 C :   -0.178426
   2 C :   -0.097386
   3 H :    0.112114
   4 H :    0.121880
   5 C :   -0.475199
   6 C :   -0.469066
   7 C :    0.010469
   8 N :    0.108001
   9 H :    0.097660
  10 H :    0.105812
  11 H :   -0.021376
  12 H :    0.034690
  13 O :    0.061822
  14 F :    0.236950
  15 C :   -0.187229
  16 C :   -0.189523
  17 H :    0.106806
  18 H :    0.096779
  19 C :   -0.200141
  20 H :    0.100070
  21 H :    0.111638
  22 H :    0.092780
  23 H :    0.114307
  24 H :    0.109306
  25 H :    0.109508
  26 H :    0.107086
  27 H :    0.113474

  Mayer bond orders larger than 0.100000
B(  0-C ,  6-C ) :   0.9083 B(  0-C ,  8-N ) :   0.1308 B(  0-C , 15-C ) :   1.0041
B(  0-C , 19-C ) :   0.1158 B(  0-C , 26-H ) :   0.8916 B(  0-C , 27-H ) :   0.9357
B(  1-C ,  2-C ) :   1.0059 B(  1-C , 19-C ) :   1.3066 B(  1-C , 22-H ) :   0.1135
B(  1-C , 24-H ) :   0.9128 B(  1-C , 25-H ) :   0.8543 B(  2-C ,  3-H ) :   0.8403
B(  2-C ,  4-H ) :   0.8829 B(  2-C ,  5-C ) :   1.0865 B(  2-C , 16-C ) :   0.1224
B(  5-C , 13-O ) :   1.6162 B(  5-C , 14-F ) :   0.8047 B(  6-C ,  7-C ) :   1.5208
B(  6-C ,  8-N ) :   0.6680 B(  6-C , 11-H ) :  -0.1924 B(  6-C , 12-H ) :  -0.1141
B(  6-C , 16-C ) :   0.1153 B(  7-C , 11-H ) :   0.4478 B(  7-C , 12-H ) :   1.1313
B(  8-N ,  9-H ) :   1.0887 B(  8-N , 10-H ) :   1.0472 B( 11-H , 13-O ) :  -0.2765
B( 13-O , 14-F ) :   0.1205 B( 15-C , 16-C ) :   1.2394 B( 15-C , 17-H ) :   0.9139
B( 15-C , 18-H ) :   0.7847 B( 15-C , 19-C ) :   0.2505 B( 16-C , 19-C ) :   0.6887
B( 16-C , 20-H ) :   0.8330 B( 16-C , 21-H ) :   0.9340 B( 19-C , 22-H ) :   0.8351
B( 19-C , 23-H ) :   0.8492

Dispersion correction           -0.039184474
FINAL SINGLE POINT ENERGY      -582.683784561488

DIPOLE MOMENT
-------------
                                X             Y             Z
Electronic contribution:     -1.73407       0.85320     -12.12118
Nuclear contribution   :      1.88979       0.56282      12.66056
                        -----------------------------------------
Total Dipole Moment    :      0.15571       1.41602       0.53938
                        -----------------------------------------
Magnitude (a.u.)       :      1.52325
Magnitude (Debye)      :      3.87179

Rotational constants in cm-1:     0.040271     0.025954     0.018866
Rotational constants in MHz :  1207.302496   778.083475   565.600538

                             ****ORCA TERMINATED NORMALLY****
TOTAL RUN TIME: 0 days 0 hours 1 minutes 56 seconds 46 msec
