                         Program Version 5.0.0 -  RELEASE  -
|  1> !TPSS D3BJ RIJCOSX def2-TZVPD def2/J TightSCF xyzfile
|  2>
|  3> *xyzfile 0 1 D4.xyz
|  4>
|  5> %MaxCore 64000
|  6>
|  7> %pal nprocs 4
|  8> end
|  9>
| 10> %scf
| 11>   MaxIter 150
| 12> end
| 13>
| 14>
| 15>                          ****END OF INPUT****

CARTESIAN COORDINATES (ANGSTROEM)
---------------------------------
  C      2.486452   -2.677121   -2.563447
  C     -0.870963    0.248043   -2.662804
  C     -0.477492    0.608191   -4.101052
  H      0.206773    1.458299   -4.118748
  H     -1.368442    0.929419   -4.647855
  C      0.184673   -0.506640   -4.916760
  C      3.037640   -2.366715   -3.923509
  N      2.280360   -2.454408   -4.967692
  C      4.321736   -2.017932   -4.016641
  H      4.879940   -1.911668   -3.173823
  H      4.710148   -1.670882   -4.883561
  H      1.270423   -2.412650   -4.866143
  H      2.581829   -2.055282   -5.846878
  O     -0.158685   -1.701088   -4.657981
  F      1.055938   -0.174410   -5.740373
  C      2.497991   -1.469464   -1.610303
  C      1.582841   -0.321986   -2.042619
  H      2.193083   -1.833912   -0.625420
  H      3.523356   -1.103982   -1.490392
  C      0.100160   -0.673551   -1.915815
  H      1.822311   -0.040361   -3.072834
  H      1.813180    0.557019   -1.433266
  H     -0.063284   -1.679120   -2.301112
  H     -0.168820   -0.691680   -0.853831
  H     -1.001048    1.181040   -2.104071
  H     -1.844645   -0.246592   -2.663281
  H      1.472592   -3.051527   -2.694366
  H      3.083201   -3.490638   -2.141472

 Total Charge           Charge          ....    0
 Multiplicity           Mult            ....    1
 Number of Electrons    NEL             ....   94
 Basis Dimension        Dim             ....  594

ORBITAL ENERGIES
----------------

  NO   OCC          E(Eh)            E(eV)
   0   2.0000     -24.502553      -666.7484
   1   2.0000     -18.910998      -514.5944
   2   2.0000     -14.071738      -382.9115
   3   2.0000     -10.176683      -276.9216
   4   2.0000     -10.028711      -272.8951
   5   2.0000     -10.004524      -272.2369
   6   2.0000      -9.984577      -271.6942
   7   2.0000      -9.984121      -271.6817
   8   2.0000      -9.984071      -271.6804
   9   2.0000      -9.978953      -271.5411
  10   2.0000      -9.974151      -271.4105
  11   2.0000      -9.900935      -269.4181
  12   2.0000      -1.268322       -34.5128
  13   2.0000      -0.989264       -26.9192
  14   2.0000      -0.854894       -23.2629
  15   2.0000      -0.771428       -20.9916
  16   2.0000      -0.734895       -19.9975
  17   2.0000      -0.695531       -18.9264
  18   2.0000      -0.655679       -17.8419
  19   2.0000      -0.629462       -17.1285
  20   2.0000      -0.609836       -16.5945
  21   2.0000      -0.571178       -15.5425
  22   2.0000      -0.536553       -14.6003
  23   2.0000      -0.521747       -14.1975
  24   2.0000      -0.507069       -13.7981
  25   2.0000      -0.492489       -13.4013
  26   2.0000      -0.482001       -13.1159
  27   2.0000      -0.453484       -12.3399
  28   2.0000      -0.438705       -11.9378
  29   2.0000      -0.434023       -11.8104
  30   2.0000      -0.427648       -11.6369
  31   2.0000      -0.401091       -10.9142
  32   2.0000      -0.383557       -10.4371
  33   2.0000      -0.368889       -10.0380
  34   2.0000      -0.365649        -9.9498
  35   2.0000      -0.353171        -9.6103
  36   2.0000      -0.342772        -9.3273
  37   2.0000      -0.333552        -9.0764
  38   2.0000      -0.324215        -8.8223
  39   2.0000      -0.322896        -8.7865
  40   2.0000      -0.304258        -8.2793
  41   2.0000      -0.298905        -8.1336
  42   2.0000      -0.287474        -7.8226
  43   2.0000      -0.281727        -7.6662
  44   2.0000      -0.277473        -7.5504
  45   2.0000      -0.259336        -7.0569
  46   2.0000      -0.141061        -3.8385
  47   0.0000      -0.085338        -2.3222
  48   0.0000      -0.014970        -0.4074
  49   0.0000       0.002846         0.0774
  50   0.0000       0.009041         0.2460
  51   0.0000       0.010290         0.2800

MULLIKEN ATOMIC CHARGES
-----------------------
   0 C :   -0.212884
   1 C :   -0.189275
   2 C :   -0.322857
   3 H :    0.324570
   4 H :    0.101831
   5 C :    0.739426
   6 C :    0.475856
   7 N :   -0.570125
   8 C :   -1.215639
   9 H :    0.306189
  10 H :    0.227454
  11 H :    0.420148
  12 H :    0.121880
  13 O :   -0.678008
  14 F :   -0.296291
  15 C :   -0.188988
  16 C :   -0.424601
  17 H :    0.088329
  18 H :    0.262782
  19 C :   -0.477951
  20 H :    0.303067
  21 H :    0.076728
  22 H :    0.308294
  23 H :    0.165063
  24 H :    0.107407
  25 H :    0.211207
  26 H :    0.247211
  27 H :    0.089177
Sum of atomic charges:    0.0000000

LOEWDIN ATOMIC CHARGES
----------------------
   0 C :   -0.133547
   1 C :   -0.177352
   2 C :   -0.094472
   3 H :    0.115453
   4 H :    0.124272
   5 C :   -0.464946
   6 C :   -0.485040
   7 N :    0.118268
   8 C :    0.020096
   9 H :    0.014992
  10 H :    0.012236
  11 H :    0.034255
  12 H :    0.111979
  13 O :    0.068912
  14 F :    0.241552
  15 C :   -0.183265
  16 C :   -0.188879
  17 H :    0.106978
  18 H :    0.103675
  19 C :   -0.201953
  20 H :    0.098568
  21 H :    0.113281
  22 H :    0.090341
  23 H :    0.115568
  24 H :    0.111261
  25 H :    0.110019
  26 H :    0.100300
  27 H :    0.117448

  Mayer bond orders larger than 0.100000
B(  0-C ,  6-C ) :   0.8289 B(  0-C ,  8-C ) :  -0.1415 B(  0-C , 15-C ) :   0.9331
B(  0-C , 19-C ) :   0.1353 B(  0-C , 26-H ) :   0.9039 B(  0-C , 27-H ) :   0.8868
B(  1-C ,  2-C ) :   1.0050 B(  1-C , 19-C ) :   1.2546 B(  1-C , 22-H ) :   0.1025
B(  1-C , 24-H ) :   0.9031 B(  1-C , 25-H ) :   0.8585 B(  2-C ,  3-H ) :   0.8360
B(  2-C ,  4-H ) :   0.8819 B(  2-C ,  5-C ) :   1.1147 B(  2-C , 16-C ) :   0.1230
B(  5-C , 13-O ) :   1.4218 B(  5-C , 14-F ) :   0.8274 B(  6-C ,  7-N ) :   0.9453
B(  6-C ,  8-C ) :   1.3405 B(  6-C , 15-C ) :   0.1636 B(  6-C , 16-C ) :   0.1481
B(  7-N ,  8-C ) :   0.2029 B(  7-N , 11-H ) :   0.6371 B(  7-N , 12-H ) :   0.9692
B(  8-C ,  9-H ) :   0.9585 B(  8-C , 10-H ) :   0.9957 B( 13-O , 14-F ) :   0.1043
B( 15-C , 16-C ) :   1.2565 B( 15-C , 17-H ) :   0.8914 B( 15-C , 18-H ) :   0.8172
B( 15-C , 19-C ) :   0.2319 B( 16-C , 19-C ) :   0.6894 B( 16-C , 20-H ) :   0.8415
B( 16-C , 21-H ) :   0.9426 B( 19-C , 22-H ) :   0.8639 B( 19-C , 23-H ) :   0.8438

Dispersion correction           -0.039037705
FINAL SINGLE POINT ENERGY      -582.702321315842

DIPOLE MOMENT
-------------
                                X             Y             Z
Electronic contribution:     -3.42299       0.74644     -12.75376
Nuclear contribution   :      2.21030       0.63135      12.80988
                        -----------------------------------------
Total Dipole Moment    :     -1.21269       1.37779       0.05613
                        -----------------------------------------
Magnitude (a.u.)       :      1.83632
Magnitude (Debye)      :      4.66756

Rotational constants in cm-1:     0.039980     0.026547     0.019089
Rotational constants in MHz :  1198.568620   795.867393   572.288555

                             ****ORCA TERMINATED NORMALLY****
TOTAL RUN TIME: 0 days 0 hours 2 minutes 2 seconds 283 msec
