                         Program Version 5.0.0 -  RELEASE  -
|  1> !M062X D3Zero RIJCOSX def2-SVPD def2/J TightSCF
|  2> *xyz -1 1
|  3> C         -5.57236       -5.80780       -0.81644
|  4> S         -6.90318       -4.61903       -0.52846
|  5> O         -8.11485       -5.25093       -0.95701
|  6> O         -6.53271       -3.42684       -1.31485
|  7> O         -6.86563       -4.29496        0.91412
|  8> H         -5.55376       -6.07856       -1.85145
|  9> H         -5.73990       -6.68165       -0.22212
| 10> H         -4.63562       -5.36690       -0.54622
| 11> *
| 12> %MaxCore 64000
| 13>
| 14> %pal nprocs 4
| 15> end
| 16>
| 17> %scf
| 18>   MaxIter 150
| 19> end
| 20>
| 21>                          ****END OF INPUT****

CARTESIAN COORDINATES (ANGSTROEM)
---------------------------------
  C     -5.572360   -5.807800   -0.816440
  S     -6.903180   -4.619030   -0.528460
  O     -8.114850   -5.250930   -0.957010
  O     -6.532710   -3.426840   -1.314850
  O     -6.865630   -4.294960    0.914120
  H     -5.553760   -6.078560   -1.851450
  H     -5.739900   -6.681650   -0.222120
  H     -4.635620   -5.366900   -0.546220

 Total Charge           Charge          ....   -1
 Multiplicity           Mult            ....    1
 Number of Electrons    NEL             ....   50
 Basis Dimension        Dim             ....  140

ORBITAL ENERGIES
----------------

  NO   OCC          E(Eh)            E(eV)
   0   2.0000     -89.937945     -2447.3359
   1   2.0000     -19.420089      -528.4475
   2   2.0000     -19.407620      -528.1082
   3   2.0000     -19.406564      -528.0795
   4   2.0000     -10.406785      -283.1830
   5   2.0000      -8.260971      -224.7925
   6   2.0000      -6.186270      -168.3370
   7   2.0000      -6.186059      -168.3312
   8   2.0000      -6.185937      -168.3279
   9   2.0000      -1.045654       -28.4537
  10   2.0000      -0.900912       -24.5151
  11   2.0000      -0.876357       -23.8469
  12   2.0000      -0.672734       -18.3060
  13   2.0000      -0.471263       -12.8237
  14   2.0000      -0.381670       -10.3858
  15   2.0000      -0.365046        -9.9334
  16   2.0000      -0.363846        -9.9008
  17   2.0000      -0.322626        -8.7791
  18   2.0000      -0.320937        -8.7331
  19   2.0000      -0.224060        -6.0970
  20   2.0000      -0.222769        -6.0618
  21   2.0000      -0.185154        -5.0383
  22   2.0000      -0.172481        -4.6934
  23   2.0000      -0.171205        -4.6587
  24   2.0000      -0.133747        -3.6395
  25   0.0000       0.162981         4.4349
  26   0.0000       0.185896         5.0585
  27   0.0000       0.186890         5.0855
  28   0.0000       0.193369         5.2619
  29   0.0000       0.224218         6.1013

MULLIKEN ATOMIC CHARGES
-----------------------
   0 C :    0.453275
   1 S :    1.195427
   2 O :   -0.784608
   3 O :   -0.824719
   4 O :   -0.827023
   5 H :   -0.066539
   6 H :   -0.075997
   7 H :   -0.069816
Sum of atomic charges:   -1.0000000

LOEWDIN ATOMIC CHARGES
----------------------
   0 C :    0.061600
   1 S :    0.875939
   2 O :   -0.592026
   3 O :   -0.615482
   4 O :   -0.614842
   5 H :   -0.038558
   6 H :   -0.039355
   7 H :   -0.037276

  Mayer bond orders larger than 0.100000
B(  0-C ,  1-S ) :   0.9207 B(  0-C ,  5-H ) :   0.9267 B(  0-C ,  6-H ) :   0.9318
B(  0-C ,  7-H ) :   0.9330 B(  1-S ,  2-O ) :   1.3098 B(  1-S ,  3-O ) :   1.2817
B(  1-S ,  4-O ) :   1.2730 B(  1-S ,  5-H ) :   0.1120 B(  1-S ,  6-H ) :   0.1130
B(  1-S ,  7-H ) :   0.1214

Dispersion correction           -0.000044805
FINAL SINGLE POINT ENERGY      -663.359720036625

DIPOLE MOMENT
-------------
                                X             Y             Z
Electronic contribution:     -3.21430       2.69828       0.62694
Nuclear contribution   :      4.23639      -3.86101      -0.94151
                        -----------------------------------------
Total Dipole Moment    :      1.02209      -1.16272      -0.31457
                        -----------------------------------------
Magnitude (a.u.)       :      1.57973
Magnitude (Debye)      :      4.01535

Rotational constants in cm-1:     0.172406     0.155169     0.153146
Rotational constants in MHz :  5168.590738  4651.861875  4591.214998

                             ****ORCA TERMINATED NORMALLY****
TOTAL RUN TIME: 0 days 0 hours 0 minutes 12 seconds 909 msec
