                         Program Version 5.0.0 -  RELEASE  -
|  1> !M062X D3Zero RIJCOSX def2-SVPD def2/J TightSCF
|  2> *xyz 1 1
|  3> C         -4.38262       -1.67089        1.21620
|  4> N         -5.76354       -1.91517        0.70501
|  5> H         -5.84081       -2.11520       -0.30065
|  6> H         -6.40882       -1.14866        0.93612
|  7> H         -6.17478       -2.79061        1.05143
|  8> H         -4.01369       -0.74796        0.81997
|  9> H         -3.74223       -2.47168        0.91037
| 10> H         -4.40201       -1.61791        2.28471
| 11> *
| 12> %MaxCore 64000
| 13>
| 14> %pal nprocs 4
| 15> end
| 16>
| 17> %scf
| 18>   MaxIter 150
| 19> end
| 20>
| 21>                          ****END OF INPUT****

CARTESIAN COORDINATES (ANGSTROEM)
---------------------------------
  C     -4.382620   -1.670890    1.216200
  N     -5.763540   -1.915170    0.705010
  H     -5.840810   -2.115200   -0.300650
  H     -6.408820   -1.148660    0.936120
  H     -6.174780   -2.790610    1.051430
  H     -4.013690   -0.747960    0.819970
  H     -3.742230   -2.471680    0.910370
  H     -4.402010   -1.617910    2.284710

 Total Charge           Charge          ....    1
 Multiplicity           Mult            ....    1
 Number of Electrons    NEL             ....   18
 Basis Dimension        Dim             ....   88

ORBITAL ENERGIES
----------------

  NO   OCC          E(Eh)            E(eV)
   0   2.0000     -15.110359      -411.1738
   1   2.0000     -10.811684      -294.2009
   2   2.0000      -1.322100       -35.9762
   3   2.0000      -1.028585       -27.9892
   4   2.0000      -0.889702       -24.2100
   5   2.0000      -0.865268       -23.5451
   6   2.0000      -0.787588       -21.4314
   7   2.0000      -0.694111       -18.8877
   8   2.0000      -0.690682       -18.7944
   9   0.0000      -0.178096        -4.8462
  10   0.0000      -0.112138        -3.0514
  11   0.0000      -0.106368        -2.8944
  12   0.0000      -0.105725        -2.8769
  13   0.0000      -0.058673        -1.5966

MULLIKEN ATOMIC CHARGES
-----------------------
   0 C :    0.870295
   1 N :   -0.952759
   2 H :    0.365795
   3 H :    0.398801
   4 H :    0.373786
   5 H :   -0.022633
   6 H :   -0.021075
   7 H :   -0.012211
Sum of atomic charges:    1.0000000

LOEWDIN ATOMIC CHARGES
----------------------
   0 C :    0.297644
   1 N :    0.297909
   2 H :    0.109871
   3 H :    0.112236
   4 H :    0.107329
   5 H :    0.024671
   6 H :    0.024746
   7 H :    0.025596

  Mayer bond orders larger than 0.100000
B(  0-C ,  1-N ) :   0.7152 B(  0-C ,  5-H ) :   0.9123 B(  0-C ,  6-H ) :   0.9112
B(  0-C ,  7-H ) :   0.9017 B(  1-N ,  2-H ) :   0.7931 B(  1-N ,  3-H ) :   0.7371
B(  1-N ,  4-H ) :   0.7872

Dispersion correction           -0.000006901
FINAL SINGLE POINT ENERGY       -96.085775166038

DIPOLE MOMENT
-------------
                                X             Y             Z
Electronic contribution:     -0.95139      -0.13318      -0.35049
Nuclear contribution   :      0.12888      -0.05969       0.04130
                        -----------------------------------------
Total Dipole Moment    :     -0.82251      -0.19288      -0.30919
                        -----------------------------------------
Magnitude (a.u.)       :      0.89962
Magnitude (Debye)      :      2.28666

Rotational constants in cm-1:     2.932748     0.676653     0.669753
Rotational constants in MHz : 87921.559023 20285.538082 20078.692306

                             ****ORCA TERMINATED NORMALLY****
TOTAL RUN TIME: 0 days 0 hours 0 minutes 5 seconds 134 msec
