                         Program Version 5.0.0 -  RELEASE  -
|  1> !M062X D3Zero RIJCOSX def2-SVPD def2/J TightSCF
|  2> *xyz 0 1
|  3> C         -5.57236       -5.80780       -0.81644
|  4> S         -6.90318       -4.61903       -0.52846
|  5> F         -8.11485       -5.25093       -0.95701
|  6> O         -6.53271       -3.42684       -1.31485
|  7> O         -6.86563       -4.29496        0.91412
|  8> H         -5.55376       -6.07856       -1.85145
|  9> H         -5.73990       -6.68165       -0.22212
| 10> H         -4.63562       -5.36690       -0.54622
| 11> *
| 12> %MaxCore 64000
| 13>
| 14> %pal nprocs 4
| 15> end
| 16>
| 17> %scf
| 18>   MaxIter 150
| 19> end
| 20>
| 21>                          ****END OF INPUT****

CARTESIAN COORDINATES (ANGSTROEM)
---------------------------------
  C     -5.572360   -5.807800   -0.816440
  S     -6.903180   -4.619030   -0.528460
  F     -8.114850   -5.250930   -0.957010
  O     -6.532710   -3.426840   -1.314850
  O     -6.865630   -4.294960    0.914120
  H     -5.553760   -6.078560   -1.851450
  H     -5.739900   -6.681650   -0.222120
  H     -4.635620   -5.366900   -0.546220

 Total Charge           Charge          ....    0
 Multiplicity           Mult            ....    1
 Number of Electrons    NEL             ....   50
 Basis Dimension        Dim             ....  140

ORBITAL ENERGIES
----------------

  NO   OCC          E(Eh)            E(eV)
   0   2.0000     -90.206950     -2454.6559
   1   2.0000     -25.390293      -690.9050
   2   2.0000     -19.648859      -534.6726
   3   2.0000     -19.647717      -534.6416
   4   2.0000     -10.619064      -288.9594
   5   2.0000      -8.530856      -232.1364
   6   2.0000      -6.459372      -175.7685
   7   2.0000      -6.453720      -175.6147
   8   2.0000      -6.453077      -175.5972
   9   2.0000      -1.532725       -41.7076
  10   2.0000      -1.219843       -33.1936
  11   2.0000      -1.113311       -30.2947
  12   2.0000      -0.901486       -24.5307
  13   2.0000      -0.826235       -22.4830
  14   2.0000      -0.711210       -19.3530
  15   2.0000      -0.701807       -19.0971
  16   2.0000      -0.647155       -17.6100
  17   2.0000      -0.556420       -15.1410
  18   2.0000      -0.556083       -15.1318
  19   2.0000      -0.543048       -14.7771
  20   2.0000      -0.512888       -13.9564
  21   2.0000      -0.461144       -12.5484
  22   2.0000      -0.404685       -11.0120
  23   2.0000      -0.403953       -10.9921
  24   2.0000      -0.379497       -10.3266
  25   0.0000       0.004049         0.1102
  26   0.0000       0.038710         1.0534
  27   0.0000       0.044281         1.2049
  28   0.0000       0.047715         1.2984
  29   0.0000       0.063437         1.7262

MULLIKEN ATOMIC CHARGES
-----------------------
   0 C :    0.369261
   1 S :    1.338539
   2 F :   -0.387550
   3 O :   -0.682205
   4 O :   -0.683637
   5 H :    0.022314
   6 H :    0.014521
   7 H :    0.008757
Sum of atomic charges:   -0.0000000

LOEWDIN ATOMIC CHARGES
----------------------
   0 C :    0.132911
   1 S :    1.145905
   2 F :   -0.264645
   3 O :   -0.496895
   4 O :   -0.495586
   5 H :   -0.011959
   6 H :   -0.012343
   7 H :    0.002612

  Mayer bond orders larger than 0.100000
B(  0-C ,  1-S ) :   0.9854 B(  0-C ,  5-H ) :   0.9265 B(  0-C ,  6-H ) :   0.9334
B(  0-C ,  7-H ) :   0.9356 B(  1-S ,  2-F ) :   0.6685 B(  1-S ,  3-O ) :   1.5013
B(  1-S ,  4-O ) :   1.4926 B(  1-S ,  7-H ) :   0.1171

Dispersion correction           -0.000049926
FINAL SINGLE POINT ENERGY      -687.834937694319

DIPOLE MOMENT
-------------
                                X             Y             Z
Electronic contribution:     -5.19815       1.56782      -0.10724
Nuclear contribution   :      5.53040      -3.27628      -0.52239
                        -----------------------------------------
Total Dipole Moment    :      0.33225      -1.70846      -0.62964
                        -----------------------------------------
Magnitude (a.u.)       :      1.85086
Magnitude (Debye)      :      4.70450

Rotational constants in cm-1:     0.163239     0.153903     0.144751
Rotational constants in MHz :  4893.777363  4613.882823  4339.513182

                             ****ORCA TERMINATED NORMALLY****
TOTAL RUN TIME: 0 days 0 hours 0 minutes 12 seconds 722 msec
