                         Program Version 5.0.0 -  RELEASE  -
|  1> !M062X D3Zero RIJCOSX def2-SVPD def2/J TightSCF
|  2> *xyz 0 1
|  3> C         -4.38262       -1.67089        1.21620
|  4> C         -5.76354       -1.91517        0.70501
|  5> H         -5.84081       -2.11520       -0.30065
|  6> H         -6.40882       -1.14866        0.93612
|  7> H         -6.17478       -2.79061        1.05143
|  8> H         -4.01369       -0.74796        0.81997
|  9> H         -3.74223       -2.47168        0.91037
| 10> H         -4.40201       -1.61791        2.28471
| 11> *
| 12> %MaxCore 64000
| 13>
| 14> %pal nprocs 4
| 15> end
| 16>
| 17> %scf
| 18>   MaxIter 150
| 19> end
| 20>
| 21>                          ****END OF INPUT****

CARTESIAN COORDINATES (ANGSTROEM)
---------------------------------
  C     -4.382620   -1.670890    1.216200
  C     -5.763540   -1.915170    0.705010
  H     -5.840810   -2.115200   -0.300650
  H     -6.408820   -1.148660    0.936120
  H     -6.174780   -2.790610    1.051430
  H     -4.013690   -0.747960    0.819970
  H     -3.742230   -2.471680    0.910370
  H     -4.402010   -1.617910    2.284710

 Total Charge           Charge          ....    0
 Multiplicity           Mult            ....    1
 Number of Electrons    NEL             ....   18
 Basis Dimension        Dim             ....   88

ORBITAL ENERGIES
----------------

  NO   OCC          E(Eh)            E(eV)
   0   2.0000     -10.529088      -286.5110
   1   2.0000     -10.514300      -286.1087
   2   2.0000      -0.856237       -23.2994
   3   2.0000      -0.707189       -19.2436
   4   2.0000      -0.520208       -14.1556
   5   2.0000      -0.506469       -13.7817
   6   2.0000      -0.437144       -11.8953
   7   2.0000      -0.412386       -11.2216
   8   2.0000      -0.398801       -10.8519
   9   0.0000       0.045727         1.2443
  10   0.0000       0.074666         2.0318
  11   0.0000       0.128313         3.4916
  12   0.0000       0.131868         3.5883
  13   0.0000       0.149769         4.0754

MULLIKEN ATOMIC CHARGES
-----------------------
   0 C :    0.210984
   1 C :    0.422354
   2 H :   -0.199359
   3 H :   -0.155414
   4 H :   -0.187105
   5 H :   -0.040386
   6 H :   -0.021534
   7 H :   -0.029540
Sum of atomic charges:    0.0000000

LOEWDIN ATOMIC CHARGES
----------------------
   0 C :    0.085345
   1 C :    0.076030
   2 H :   -0.037962
   3 H :   -0.033365
   4 H :   -0.039454
   5 H :   -0.017564
   6 H :   -0.016843
   7 H :   -0.016187

  Mayer bond orders larger than 0.100000
B(  0-C ,  1-C ) :   1.4400 B(  0-C ,  2-H ) :   0.1255 B(  0-C ,  3-H ) :   0.1483
B(  0-C ,  4-H ) :   0.1379 B(  0-C ,  5-H ) :   0.8729 B(  0-C ,  6-H ) :   0.8798
B(  0-C ,  7-H ) :   0.8572 B(  1-C ,  2-H ) :   0.7843 B(  1-C ,  3-H ) :   0.8137
B(  1-C ,  4-H ) :   0.7756 B(  1-C ,  5-H ) :   0.1450 B(  1-C ,  6-H ) :   0.1419
B(  1-C ,  7-H ) :   0.1498 B(  2-H ,  4-H ) :   0.2271

Dispersion correction           -0.000006833
FINAL SINGLE POINT ENERGY       -79.698752086702

DIPOLE MOMENT
-------------
                                X             Y             Z
Electronic contribution:      0.07814       0.07469       0.03230
Nuclear contribution   :     -0.10782      -0.10031      -0.04623
                        -----------------------------------------
Total Dipole Moment    :     -0.02968      -0.02562      -0.01393
                        -----------------------------------------
Magnitude (a.u.)       :      0.04160
Magnitude (Debye)      :      0.10575

Rotational constants in cm-1:     2.932831     0.705715     0.698218
Rotational constants in MHz : 87924.050302 21156.813368 20932.044240

                             ****ORCA TERMINATED NORMALLY****
TOTAL RUN TIME: 0 days 0 hours 0 minutes 5 seconds 304 msec
