                         Program Version 5.0.0 -  RELEASE  -
|  1> !M062X D3Zero RIJCOSX def2-SVPD def2/J TightSCF
|  2> *xyz 0 1
|  3> C         -5.57236       -5.80780       -0.81644
|  4> S         -6.90318       -4.61903       -0.52846
|  5> O         -8.11485       -5.25093       -0.95701
|  6> F         -6.53271       -3.42684       -1.31485
|  7> O         -6.86563       -4.29496        0.91412
|  8> H         -5.55376       -6.07856       -1.85145
|  9> H         -5.73990       -6.68165       -0.22212
| 10> H         -4.63562       -5.36690       -0.54622
| 11> *
| 12> %MaxCore 64000
| 13>
| 14> %pal nprocs 4
| 15> end
| 16>
| 17> %scf
| 18>   MaxIter 150
| 19> end
| 20>
| 21>                          ****END OF INPUT****

CARTESIAN COORDINATES (ANGSTROEM)
---------------------------------
  C     -5.572360   -5.807800   -0.816440
  S     -6.903180   -4.619030   -0.528460
  O     -8.114850   -5.250930   -0.957010
  F     -6.532710   -3.426840   -1.314850
  O     -6.865630   -4.294960    0.914120
  H     -5.553760   -6.078560   -1.851450
  H     -5.739900   -6.681650   -0.222120
  H     -4.635620   -5.366900   -0.546220

 Total Charge           Charge          ....    0
 Multiplicity           Mult            ....    1
 Number of Electrons    NEL             ....   50
 Basis Dimension        Dim             ....  140

ORBITAL ENERGIES
----------------

  NO   OCC          E(Eh)            E(eV)
   0   2.0000     -90.205093     -2454.6054
   1   2.0000     -25.368321      -690.3071
   2   2.0000     -19.661290      -535.0109
   3   2.0000     -19.648213      -534.6551
   4   2.0000     -10.618239      -288.9370
   5   2.0000      -8.528819      -232.0810
   6   2.0000      -6.457103      -175.7067
   7   2.0000      -6.451985      -175.5674
   8   2.0000      -6.451235      -175.5470
   9   2.0000      -1.494673       -40.6721
  10   2.0000      -1.237297       -33.6686
  11   2.0000      -1.129584       -30.7375
  12   2.0000      -0.898078       -24.4379
  13   2.0000      -0.806989       -21.9593
  14   2.0000      -0.689872       -18.7724
  15   2.0000      -0.675138       -18.3714
  16   2.0000      -0.645722       -17.5710
  17   2.0000      -0.562554       -15.3079
  18   2.0000      -0.557755       -15.1773
  19   2.0000      -0.541664       -14.7394
  20   2.0000      -0.520484       -14.1631
  21   2.0000      -0.470049       -12.7907
  22   2.0000      -0.419411       -11.4128
  23   2.0000      -0.405764       -11.0414
  24   2.0000      -0.391885       -10.6637
  25   0.0000       0.006576         0.1789
  26   0.0000       0.040046         1.0897
  27   0.0000       0.045105         1.2274
  28   0.0000       0.047399         1.2898
  29   0.0000       0.062827         1.7096

MULLIKEN ATOMIC CHARGES
-----------------------
   0 C :    0.366663
   1 S :    1.349999
   2 O :   -0.654426
   3 F :   -0.410843
   4 O :   -0.695471
   5 H :    0.022503
   6 H :    0.005905
   7 H :    0.015670
Sum of atomic charges:   -0.0000000

LOEWDIN ATOMIC CHARGES
----------------------
   0 C :    0.133374
   1 S :    1.143292
   2 O :   -0.474964
   3 F :   -0.283825
   4 O :   -0.496162
   5 H :   -0.011674
   6 H :    0.001149
   7 H :   -0.011189

  Mayer bond orders larger than 0.100000
B(  0-C ,  1-S ) :   0.9864 B(  0-C ,  5-H ) :   0.9288 B(  0-C ,  6-H ) :   0.9333
B(  0-C ,  7-H ) :   0.9348 B(  1-S ,  2-O ) :   1.5302 B(  1-S ,  3-F ) :   0.6245
B(  1-S ,  4-O ) :   1.4907 B(  1-S ,  6-H ) :   0.1113

Dispersion correction           -0.000049884
FINAL SINGLE POINT ENERGY      -687.853643755716

DIPOLE MOMENT
-------------
                                X             Y             Z
Electronic contribution:     -2.54851       4.62822      -0.72159
Nuclear contribution   :      3.94974      -5.09866      -0.16489
                        -----------------------------------------
Total Dipole Moment    :      1.40123      -0.47044      -0.88648
                        -----------------------------------------
Magnitude (a.u.)       :      1.72355
Magnitude (Debye)      :      4.38091

Rotational constants in cm-1:     0.163657     0.151977     0.145976
Rotational constants in MHz :  4906.325390  4556.144033  4376.262759

                             ****ORCA TERMINATED NORMALLY****
TOTAL RUN TIME: 0 days 0 hours 0 minutes 11 seconds 974 msec
