                         Program Version 5.0.0 -  RELEASE  -
|  1> !M062X D3Zero RIJCOSX def2-SVPD def2/J TightSCF
|  2> *xyz 0 1
|  3> C         -5.57236       -5.80780       -0.81644
|  4> S         -6.90318       -4.61903       -0.52846
|  5> O         -8.11485       -5.25093       -0.95701
|  6> O         -6.53271       -3.42684       -1.31485
|  7> F         -6.86563       -4.29496        0.91412
|  8> H         -5.55376       -6.07856       -1.85145
|  9> H         -5.73990       -6.68165       -0.22212
| 10> H         -4.63562       -5.36690       -0.54622
| 11> *
| 12> %MaxCore 64000
| 13>
| 14> %pal nprocs 4
| 15> end
| 16>
| 17> %scf
| 18>   MaxIter 150
| 19> end
| 20>
| 21>                          ****END OF INPUT****

CARTESIAN COORDINATES (ANGSTROEM)
---------------------------------
  C     -5.572360   -5.807800   -0.816440
  S     -6.903180   -4.619030   -0.528460
  O     -8.114850   -5.250930   -0.957010
  O     -6.532710   -3.426840   -1.314850
  F     -6.865630   -4.294960    0.914120
  H     -5.553760   -6.078560   -1.851450
  H     -5.739900   -6.681650   -0.222120
  H     -4.635620   -5.366900   -0.546220

 Total Charge           Charge          ....    0
 Multiplicity           Mult            ....    1
 Number of Electrons    NEL             ....   50
 Basis Dimension        Dim             ....  140

ORBITAL ENERGIES
----------------

  NO   OCC          E(Eh)            E(eV)
   0   2.0000     -90.204834     -2454.5983
   1   2.0000     -25.368414      -690.3096
   2   2.0000     -19.661348      -535.0125
   3   2.0000     -19.647260      -534.6291
   4   2.0000     -10.618258      -288.9375
   5   2.0000      -8.528584      -232.0746
   6   2.0000      -6.456823      -175.6991
   7   2.0000      -6.451754      -175.5612
   8   2.0000      -6.451027      -175.5414
   9   2.0000      -1.492678       -40.6178
  10   2.0000      -1.238088       -33.6901
  11   2.0000      -1.130431       -30.7606
  12   2.0000      -0.897224       -24.4147
  13   2.0000      -0.806614       -21.9491
  14   2.0000      -0.689099       -18.7513
  15   2.0000      -0.673947       -18.3390
  16   2.0000      -0.645313       -17.5598
  17   2.0000      -0.562235       -15.2992
  18   2.0000      -0.557887       -15.1809
  19   2.0000      -0.542365       -14.7585
  20   2.0000      -0.520610       -14.1665
  21   2.0000      -0.470098       -12.7920
  22   2.0000      -0.419574       -11.4172
  23   2.0000      -0.405071       -11.0225
  24   2.0000      -0.391840       -10.6625
  25   0.0000       0.006114         0.1664
  26   0.0000       0.040042         1.0896
  27   0.0000       0.045062         1.2262
  28   0.0000       0.047235         1.2853
  29   0.0000       0.060590         1.6487

MULLIKEN ATOMIC CHARGES
-----------------------
   0 C :    0.368135
   1 S :    1.348833
   2 O :   -0.654792
   3 O :   -0.694047
   4 F :   -0.412471
   5 H :    0.013437
   6 H :    0.013519
   7 H :    0.017387
Sum of atomic charges:    0.0000000

LOEWDIN ATOMIC CHARGES
----------------------
   0 C :    0.133599
   1 S :    1.143485
   2 O :   -0.474837
   3 O :   -0.496955
   4 F :   -0.283484
   5 H :    0.001717
   6 H :   -0.012764
   7 H :   -0.010760

  Mayer bond orders larger than 0.100000
B(  0-C ,  1-S ) :   0.9864 B(  0-C ,  5-H ) :   0.9281 B(  0-C ,  6-H ) :   0.9333
B(  0-C ,  7-H ) :   0.9354 B(  1-S ,  2-O ) :   1.5282 B(  1-S ,  3-O ) :   1.4977
B(  1-S ,  4-F ) :   0.6191 B(  1-S ,  5-H ) :   0.1101

Dispersion correction           -0.000049989
FINAL SINGLE POINT ENERGY      -687.853163736418

DIPOLE MOMENT
-------------
                                X             Y             Z
Electronic contribution:     -3.10896       3.16132       3.03573
Nuclear contribution   :      4.28235      -4.23136      -2.39177
                        -----------------------------------------
Total Dipole Moment    :      1.17339      -1.07003       0.64396
                        -----------------------------------------
Magnitude (a.u.)       :      1.71362
Magnitude (Debye)      :      4.35567

Rotational constants in cm-1:     0.164456     0.151338     0.145749
Rotational constants in MHz :  4930.268698  4537.002642  4369.437533

                             ****ORCA TERMINATED NORMALLY****
TOTAL RUN TIME: 0 days 0 hours 0 minutes 12 seconds 8 msec
