                         Program Version 5.0.0 -  RELEASE  -
|  1> !M062X D3Zero RIJCOSX def2-SVPD def2/J TightSCF xyzfile
|  2>
|  3> *xyzfile 0 1 D3.xyz
|  4>
|  5> %MaxCore 64000
|  6>
|  7> %pal nprocs 4
|  8> end
|  9>
| 10> %scf
| 11>   MaxIter 150
| 12> end
| 13>
| 14>
| 15>                          ****END OF INPUT****

CARTESIAN COORDINATES (ANGSTROEM)
---------------------------------
  C     -4.382623   -1.670889    1.216201
  C     -5.763539   -1.915170    0.705012
  C     -3.281728   -2.191272    0.294361
  C     -5.572364   -5.807798   -0.816445
  S     -6.903179   -4.619033   -0.528458
  H     -5.840812   -2.115205   -0.300646
  H     -6.408823   -1.148656    0.936124
  H     -6.174781   -2.790606    1.051433
  O     -8.114853   -5.250932   -0.957007
  O     -6.532715   -3.426838   -1.314848
  H     -4.328618   -2.139223    2.198103
  H     -4.261583   -0.597399    1.357248
  F     -6.865632   -4.294957    0.914118
  C     -3.474641   -3.605898   -0.259608
  H     -2.354548   -2.127602    0.871433
  H     -3.166611   -1.499693   -0.545037
  C     -3.827078   -4.661097    0.786174
  H     -2.560559   -3.889391   -0.788050
  H     -4.255932   -3.570040   -1.019300
  C     -4.457800   -5.941875    0.229195
  H     -5.177347   -5.542575   -1.797714
  H     -6.074202   -6.768894   -0.921272
  H     -4.530506   -4.253640    1.511979
  H     -2.933400   -4.932302    1.356825
  H     -3.681064   -6.562236   -0.229885
  H     -4.843942   -6.512728    1.075805

 Total Charge           Charge          ....    0
 Multiplicity           Mult            ....    1
 Number of Electrons    NEL             ....   98
 Basis Dimension        Dim             ....  356

ORBITAL ENERGIES
----------------

  NO   OCC          E(Eh)            E(eV)
   0   2.0000     -90.203277     -2454.5560
   1   2.0000     -25.367748      -690.2915
   2   2.0000     -19.661820      -535.0253
   3   2.0000     -19.645810      -534.5897
   4   2.0000     -10.617722      -288.9229
   5   2.0000     -10.586619      -288.0765
   6   2.0000     -10.562612      -287.4233
   7   2.0000     -10.547025      -286.9991
   8   2.0000     -10.539412      -286.7920
   9   2.0000     -10.529331      -286.5177
  10   2.0000     -10.482344      -285.2391
  11   2.0000      -8.526239      -232.0108
  12   2.0000      -6.454683      -175.6408
  13   2.0000      -6.449558      -175.5014
  14   2.0000      -6.448417      -175.4703
  15   2.0000      -1.496502       -40.7219
  16   2.0000      -1.239162       -33.7193
  17   2.0000      -1.134106       -30.8606
  18   2.0000      -0.936944       -25.4955
  19   2.0000      -0.897033       -24.4095
  20   2.0000      -0.848279       -23.0829
  21   2.0000      -0.823935       -22.4204
  22   2.0000      -0.786643       -21.4057
  23   2.0000      -0.741704       -20.1828
  24   2.0000      -0.708767       -19.2865
  25   2.0000      -0.683557       -18.6005
  26   2.0000      -0.673069       -18.3151
  27   2.0000      -0.633918       -17.2498
  28   2.0000      -0.626199       -17.0397
  29   2.0000      -0.572267       -15.5722
  30   2.0000      -0.567629       -15.4460
  31   2.0000      -0.556214       -15.1354
  32   2.0000      -0.538845       -14.6627
  33   2.0000      -0.524644       -14.2763
  34   2.0000      -0.517673       -14.0866
  35   2.0000      -0.497291       -13.5320
  36   2.0000      -0.478475       -13.0200
  37   2.0000      -0.462366       -12.5816
  38   2.0000      -0.459729       -12.5099
  39   2.0000      -0.457083       -12.4379
  40   2.0000      -0.428660       -11.6644
  41   2.0000      -0.423383       -11.5208
  42   2.0000      -0.412970       -11.2375
  43   2.0000      -0.399488       -10.8706
  44   2.0000      -0.397428       -10.8146
  45   2.0000      -0.387953       -10.5567
  46   2.0000      -0.368215       -10.0196
  47   2.0000      -0.365490        -9.9455
  48   2.0000      -0.352670        -9.5966
  49   0.0000       0.010614         0.2888
  50   0.0000       0.033195         0.9033
  51   0.0000       0.037636         1.0241
  52   0.0000       0.042691         1.1617
  53   0.0000       0.056804         1.5457

MULLIKEN ATOMIC CHARGES
-----------------------
   0 C :   -0.073929
   1 C :    2.084771
   2 C :    0.479682
   3 C :    0.193345
   4 S :    1.549934
   5 H :   -0.407197
   6 H :   -0.398852
   7 H :   -1.041773
   8 O :   -0.763253
   9 O :   -0.659974
  10 H :    0.152877
  11 H :   -0.419391
  12 F :   -0.534807
  13 C :    0.174361
  14 H :   -0.061488
  15 H :    0.060595
  16 C :    0.075625
  17 H :   -0.377392
  18 H :   -0.062798
  19 C :    0.486559
  20 H :    0.176091
  21 H :   -0.270929
  22 H :   -0.049241
  23 H :   -0.262442
  24 H :   -0.016365
  25 H :   -0.034006
Sum of atomic charges:    0.0000000

LOEWDIN ATOMIC CHARGES
----------------------
   0 C :   -0.045297
   1 C :    0.144327
   2 C :   -0.022166
   3 C :   -0.019722
   4 S :    1.200940
   5 H :   -0.095811
   6 H :   -0.016445
   7 H :   -0.109663
   8 O :   -0.456871
   9 O :   -0.474856
  10 H :    0.014854
  11 H :    0.018405
  12 F :   -0.286417
  13 C :   -0.008793
  14 H :    0.017714
  15 H :    0.028207
  16 C :   -0.013139
  17 H :    0.026532
  18 H :   -0.016917
  19 C :   -0.025527
  20 H :    0.031525
  21 H :    0.018334
  22 H :   -0.005588
  23 H :    0.033284
  24 H :    0.034495
  25 H :    0.028596

  Mayer bond orders larger than 0.100000
B(  0-C ,  1-C ) :   0.9912 B(  0-C ,  2-C ) :   1.1434 B(  0-C ,  5-H ) :   0.3862
B(  0-C ,  7-H ) :   0.4333 B(  0-C , 10-H ) :   0.6700 B(  0-C , 11-H ) :   1.0816
B(  0-C , 14-H ) :   0.1560 B(  0-C , 15-H ) :   0.1611 B(  0-C , 16-C ) :   0.1020
B(  1-C ,  2-C ) :   0.1758 B(  1-C ,  5-H ) :  -0.2020 B(  1-C ,  6-H ) :   0.5946
B(  1-C ,  7-H ) :  -0.9164 B(  1-C , 10-H ) :   0.2209 B(  1-C , 17-H ) :   0.1493
B(  2-C ,  7-H ) :  -0.1063 B(  2-C , 10-H ) :   0.1264 B(  2-C , 13-C ) :   1.2887
B(  2-C , 14-H ) :   0.7800 B(  2-C , 15-H ) :   0.6575 B(  3-C ,  4-S ) :   0.9155
B(  3-C , 19-C ) :   1.1977 B(  3-C , 20-H ) :   0.8469 B(  3-C , 21-H ) :   0.9606
B(  3-C , 24-H ) :   0.1115 B(  3-C , 25-H ) :   0.1151 B(  4-S ,  8-O ) :   1.5522
B(  4-S ,  9-O ) :   1.4011 B(  4-S , 12-F ) :   0.5603 B(  5-H ,  6-H ) :  -0.1494
B(  5-H ,  7-H ) :   1.1050 B(  5-H ,  9-O ) :   0.1586 B(  5-H , 11-H ) :   0.1763
B(  5-H , 17-H ) :  -0.1385 B(  5-H , 18-H ) :   0.2331 B(  6-H , 11-H ) :  -0.1534
B(  6-H , 13-C ) :   0.1108 B(  6-H , 17-H ) :   0.1410 B(  6-H , 18-H ) :  -0.1952
B(  7-H , 10-H ) :  -0.1271 B(  7-H , 11-H ) :   0.1031 B(  7-H , 12-F ) :   0.1553
B(  7-H , 17-H ) :  -0.1463 B(  9-O , 12-F ) :   0.1029 B( 10-H , 11-H ) :  -0.2632
B( 10-H , 22-H ) :   0.1570 B( 11-H , 14-H ) :   0.1145 B( 13-C , 14-H ) :   0.1643
B( 13-C , 15-H ) :   0.2573 B( 13-C , 16-C ) :   1.1670 B( 13-C , 17-H ) :   0.8847
B( 13-C , 18-H ) :   0.8229 B( 13-C , 23-H ) :   0.1839 B( 14-H , 15-H ) :  -0.1359
B( 16-C , 17-H ) :   0.1859 B( 16-C , 18-H ) :   0.1785 B( 16-C , 19-C ) :   1.2551
B( 16-C , 22-H ) :   0.8616 B( 16-C , 23-H ) :   0.8722 B( 16-C , 24-H ) :   0.1386
B( 16-C , 25-H ) :   0.2462 B( 19-C , 21-H ) :   0.1968 B( 19-C , 24-H ) :   0.7714
B( 19-C , 25-H ) :   0.6863 B( 24-H , 25-H ) :  -0.1253

Dispersion correction           -0.001234628
FINAL SINGLE POINT ENERGY      -923.394495844348

DIPOLE MOMENT
-------------
                                X             Y             Z
Electronic contribution:    -16.46011      -6.88017      -3.42986
Nuclear contribution   :     17.63907       5.79106       3.97609
                        -----------------------------------------
Total Dipole Moment    :      1.17896      -1.08911       0.54624
                        -----------------------------------------
Magnitude (a.u.)       :      1.69543
Magnitude (Debye)      :      4.30943

Rotational constants in cm-1:     0.048663     0.025472     0.020259
Rotational constants in MHz :  1458.892793   763.621130   607.350055

                             ****ORCA TERMINATED NORMALLY****
TOTAL RUN TIME: 0 days 0 hours 1 minutes 58 seconds 164 msec
