                         Program Version 5.0.0 -  RELEASE  -
|  1> !CAM-B3LYP RIJCOSX def2-TZVPD def2/J TightSCF
|  2> *xyz -1 1
|  3> C          2.49556        1.81615       -2.13636
|  4> C          1.87218        0.42790       -2.07750
|  5> H          2.61427       -0.36583       -2.19889
|  6> H          1.38995        0.27309       -1.11236
|  7> S          0.57902        0.14047       -3.29794
|  8> O          0.22886       -1.24687       -3.12787
|  9> O         -0.43927        1.11897       -3.01455
| 10> O          1.24788        0.40347       -4.59565
| 11> H          2.96535        1.95613       -3.08747
| 12> H          3.22581        1.91242       -1.36024
| 13> H          1.73350        2.55528       -2.00274
| 14> *
| 15>
| 16> %MaxCore 64000
| 17>
| 18> %pal nprocs 4
| 19> end
| 20>
| 21> %scf
| 22>   MaxIter 150
| 23> end
| 24>
| 25>
| 26>                          ****END OF INPUT****

CARTESIAN COORDINATES (ANGSTROEM)
---------------------------------
  C      2.495560    1.816150   -2.136360
  C      1.872180    0.427900   -2.077500
  H      2.614270   -0.365830   -2.198890
  H      1.389950    0.273090   -1.112360
  S      0.579020    0.140470   -3.297940
  O      0.228860   -1.246870   -3.127870
  O     -0.439270    1.118970   -3.014550
  O      1.247880    0.403470   -4.595650
  H      2.965350    1.956130   -3.087470
  H      3.225810    1.912420   -1.360240
  H      1.733500    2.555280   -2.002740

 Total Charge           Charge          ....   -1
 Multiplicity           Mult            ....    1
 Number of Electrons    NEL             ....   58
 Basis Dimension        Dim             ....  285

ORBITAL ENERGIES
----------------

  NO   OCC          E(Eh)            E(eV)
   0   2.0000     -88.917410     -2419.5657
   1   2.0000     -18.981759      -516.5199
   2   2.0000     -18.981660      -516.5172
   3   2.0000     -18.967129      -516.1218
   4   2.0000     -10.103160      -274.9210
   5   2.0000     -10.095495      -274.7124
   6   2.0000      -7.961043      -216.6310
   7   2.0000      -5.925619      -161.2443
   8   2.0000      -5.924505      -161.2140
   9   2.0000      -5.924247      -161.2070
  10   2.0000      -1.011860       -27.5341
  11   2.0000      -0.881081       -23.9754
  12   2.0000      -0.854632       -23.2557
  13   2.0000      -0.714239       -19.4354
  14   2.0000      -0.583330       -15.8732
  15   2.0000      -0.455512       -12.3951
  16   2.0000      -0.388396       -10.5688
  17   2.0000      -0.387102       -10.5336
  18   2.0000      -0.345663        -9.4060
  19   2.0000      -0.334093        -9.0911
  20   2.0000      -0.323534        -8.8038
  21   2.0000      -0.296889        -8.0788
  22   2.0000      -0.277932        -7.5629
  23   2.0000      -0.223999        -6.0953
  24   2.0000      -0.222885        -6.0650
  25   2.0000      -0.187243        -5.0951
  26   2.0000      -0.175764        -4.7828
  27   2.0000      -0.166648        -4.5347
  28   2.0000      -0.133047        -3.6204
  29   0.0000       0.146644         3.9904
  30   0.0000       0.163599         4.4518
  31   0.0000       0.166428         4.5287
  32   0.0000       0.174615         4.7515
  33   0.0000       0.194434         5.2908

MULLIKEN ATOMIC CHARGES
-----------------------
   0 C :   -1.146392
   1 C :   -0.398430
   2 H :    0.282489
   3 H :    0.276905
   4 S :    1.196546
   5 O :   -0.690140
   6 O :   -0.702138
   7 O :   -0.747432
   8 H :    0.305510
   9 H :    0.322605
  10 H :    0.300477
Sum of atomic charges:   -1.0000000

LOEWDIN ATOMIC CHARGES
----------------------
   0 C :   -0.150813
   1 C :   -0.333427
   2 H :    0.085890
   3 H :    0.081451
   4 S :    0.343560
   5 O :   -0.391181
   6 O :   -0.384796
   7 O :   -0.419800
   8 H :    0.059131
   9 H :    0.049467
  10 H :    0.060519

  Mayer bond orders larger than 0.100000
B(  0-C ,  1-C ) :   0.6325 B(  0-C ,  8-H ) :   0.9842 B(  0-C ,  9-H ) :   0.9281
B(  0-C , 10-H ) :   0.9795 B(  1-C ,  2-H ) :   0.9493 B(  1-C ,  3-H ) :   0.9583
B(  1-C ,  4-S ) :   0.8904 B(  1-C ,  5-O ) :   0.1245 B(  1-C ,  6-O ) :   0.1062
B(  4-S ,  5-O ) :   1.4974 B(  4-S ,  6-O ) :   1.5013 B(  4-S ,  7-O ) :   1.4556

FINAL SINGLE POINT ENERGY      -703.209028195540

DIPOLE MOMENT
-------------
                                X             Y             Z
Electronic contribution:     -5.65007      -3.57819      -4.05035
Nuclear contribution   :      6.89220       4.11756       5.35566
                        -----------------------------------------
Total Dipole Moment    :      1.24213       0.53937       1.30531
                        -----------------------------------------
Magnitude (a.u.)       :      1.88086
Magnitude (Debye)      :      4.78076

Rotational constants in cm-1:     0.162183     0.084017     0.082390
Rotational constants in MHz :  4862.117324  2518.774315  2469.980309

                             ****ORCA TERMINATED NORMALLY****
TOTAL RUN TIME: 0 days 0 hours 0 minutes 48 seconds 475 msec
