                         Program Version 5.0.0 -  RELEASE  -
|  1> !CAM-B3LYP RIJCOSX def2-TZVPD def2/J TightSCF
|  2> *xyz 1 1
|  3> C          3.38093        2.08304       -3.35013
|  4> N          4.53592        1.18245       -3.42852
|  5> C          2.49556        1.81615       -2.13636
|  6> C          4.67196        0.12227       -4.22060
|  7> N          5.86602       -0.50785       -4.22428
|  8> N          3.69888       -0.31284       -4.98699
|  9> H          2.73141       -0.05009       -4.84900
| 10> H          3.89005       -1.05517       -5.64373
| 11> H          5.25193        1.30346       -2.72101
| 12> H          6.69516       -0.06232       -3.85160
| 13> H          5.97538       -1.39688       -4.69141
| 14> H          2.80646        1.98651       -4.26848
| 15> H          3.77871        3.09828       -3.30738
| 16> H          2.11090        0.81901       -2.18783
| 17> H          1.68276        2.51198       -2.12786
| 18> H          3.07216        1.93031       -1.24227
| 19> *
| 20>
| 21> %MaxCore 64000
| 22>
| 23> %pal nprocs 4
| 24> end
| 25>
| 26> %scf
| 27>   MaxIter 150
| 28> end
| 29>
| 30>
| 31>                          ****END OF INPUT****

CARTESIAN COORDINATES (ANGSTROEM)
---------------------------------
  C      3.380930    2.083040   -3.350130
  N      4.535920    1.182450   -3.428520
  C      2.495560    1.816150   -2.136360
  C      4.671960    0.122270   -4.220600
  N      5.866020   -0.507850   -4.224280
  N      3.698880   -0.312840   -4.986990
  H      2.731410   -0.050090   -4.849000
  H      3.890050   -1.055170   -5.643730
  H      5.251930    1.303460   -2.721010
  H      6.695160   -0.062320   -3.851600
  H      5.975380   -1.396880   -4.691410
  H      2.806460    1.986510   -4.268480
  H      3.778710    3.098280   -3.307380
  H      2.110900    0.819010   -2.187830
  H      1.682760    2.511980   -2.127860
  H      3.072160    1.930310   -1.242270

 Total Charge           Charge          ....    1
 Multiplicity           Mult            ....    1
 Number of Electrons    NEL             ....   48
 Basis Dimension        Dim             ....  312

ORBITAL ENERGIES
----------------

  NO   OCC          E(Eh)            E(eV)
   0   2.0000     -14.615715      -397.7138
   1   2.0000     -14.610859      -397.5817
   2   2.0000     -14.607404      -397.4877
   3   2.0000     -10.584105      -288.0081
   4   2.0000     -10.449322      -284.3405
   5   2.0000     -10.376615      -282.3620
   6   2.0000      -1.298248       -35.3271
   7   2.0000      -1.186603       -32.2891
   8   2.0000      -1.171303       -31.8728
   9   2.0000      -1.011407       -27.5218
  10   2.0000      -0.918177       -24.9849
  11   2.0000      -0.878897       -23.9160
  12   2.0000      -0.859325       -23.3834
  13   2.0000      -0.814698       -22.1691
  14   2.0000      -0.766024       -20.8446
  15   2.0000      -0.761782       -20.7291
  16   2.0000      -0.711412       -19.3585
  17   2.0000      -0.702304       -19.1107
  18   2.0000      -0.673030       -18.3141
  19   2.0000      -0.625409       -17.0182
  20   2.0000      -0.596794       -16.2396
  21   2.0000      -0.580051       -15.7840
  22   2.0000      -0.543562       -14.7911
  23   2.0000      -0.510050       -13.8792
  24   0.0000      -0.130385        -3.5480
  25   0.0000      -0.121916        -3.3175
  26   0.0000      -0.097299        -2.6476
  27   0.0000      -0.088781        -2.4159
  28   0.0000      -0.065731        -1.7886

MULLIKEN ATOMIC CHARGES
-----------------------
   0 C :   -0.544064
   1 N :   -0.160490
   2 C :   -0.974743
   3 C :    0.689496
   4 N :   -0.350594
   5 N :   -0.288840
   6 H :    0.214610
   7 H :    0.199867
   8 H :    0.205189
   9 H :    0.205702
  10 H :    0.192177
  11 H :    0.343050
  12 H :    0.284379
  13 H :    0.309537
  14 H :    0.342344
  15 H :    0.332379
Sum of atomic charges:    1.0000000

LOEWDIN ATOMIC CHARGES
----------------------
   0 C :   -0.201889
   1 N :    0.084838
   2 C :   -0.062671
   3 C :   -0.433078
   4 N :    0.196000
   5 N :    0.223144
   6 H :    0.136815
   7 H :    0.141891
   8 H :    0.168009
   9 H :    0.136119
  10 H :    0.132111
  11 H :    0.115460
  12 H :    0.130007
  13 H :    0.072780
  14 H :    0.083148
  15 H :    0.077318

  Mayer bond orders larger than 0.100000
B(  0-C ,  1-N ) :   0.8549 B(  0-C ,  2-C ) :   0.6105 B(  0-C ,  3-C ) :  -0.1275
B(  0-C , 11-H ) :   0.8923 B(  0-C , 12-H ) :   0.9738 B(  1-N ,  3-C ) :   1.2362
B(  1-N ,  8-H ) :   0.9932 B(  2-C , 13-H ) :   0.9647 B(  2-C , 14-H ) :   0.9700
B(  2-C , 15-H ) :   0.9307 B(  3-C ,  4-N ) :   1.0296 B(  3-C ,  5-N ) :   1.1633
B(  4-N ,  9-H ) :   0.9841 B(  4-N , 10-H ) :   1.0173 B(  5-N ,  6-H ) :   0.9520
B(  5-N ,  7-H ) :   1.0098

FINAL SINGLE POINT ENERGY      -284.365943999471

DIPOLE MOMENT
-------------
                                X             Y             Z
Electronic contribution:      3.55445      -2.64777      -2.82081
Nuclear contribution   :     -2.93277       1.85779       2.25966
                        -----------------------------------------
Total Dipole Moment    :      0.62169      -0.78998      -0.56115
                        -----------------------------------------
Magnitude (a.u.)       :      1.15128
Magnitude (Debye)      :      2.92632

Rotational constants in cm-1:     0.245511     0.068839     0.059711
Rotational constants in MHz :  7360.233487  2063.743353  1790.088408

                             ****ORCA TERMINATED NORMALLY****
TOTAL RUN TIME: 0 days 0 hours 1 minutes 10 seconds 174 msec
