                         Program Version 5.0.0 -  RELEASE  -
|  1> !CAM-B3LYP RIJCOSX def2-TZVPD def2/J TightSCF xyzfile
|  2>
|  3> *xyzfile 0 1 B.xyz
|  4>
|  5> %MaxCore 64000
|  6>
|  7> %pal nprocs 4
|  8> end
|  9>
| 10> %scf
| 11>   MaxIter 150
| 12> end
| 13>
| 14>
| 15>                          ****END OF INPUT****

CARTESIAN COORDINATES (ANGSTROEM)
---------------------------------
  C      3.380928    2.083045   -3.350127
  N      4.535924    1.182447   -3.428518
  C      2.495557    1.816150   -2.136364
  C      1.872181    0.427903   -2.077497
  H      2.614270   -0.365825   -2.198894
  H      1.389953    0.273087   -1.112360
  S      0.579024    0.140472   -3.297943
  C      4.671956    0.122273   -4.220598
  N      5.866023   -0.507849   -4.224284
  N      3.698881   -0.312844   -4.986988
  H      2.731405   -0.050091   -4.849000
  H      3.890046   -1.055172   -5.643730
  H      5.251933    1.303459   -2.721014
  H      6.695165   -0.062322   -3.851596
  H      5.975383   -1.396884   -4.691414
  O      0.228860   -1.246868   -3.127871
  O     -0.439269    1.118966   -3.014550
  O      1.247881    0.403474   -4.595647
  H      1.697003    2.561969   -2.141109
  H      3.080787    1.987436   -1.225838
  H      2.806463    1.986511   -4.268484
  H      3.778714    3.098282   -3.307383

 Total Charge           Charge          ....    0
 Multiplicity           Mult            ....    1
 Number of Electrons    NEL             ....   96
 Basis Dimension        Dim             ....  524

ORBITAL ENERGIES
----------------

  NO   OCC          E(Eh)            E(eV)
   0   2.0000     -89.063872     -2423.5512
   1   2.0000     -19.133066      -520.6372
   2   2.0000     -19.118212      -520.2330
   3   2.0000     -19.118037      -520.2282
   4   2.0000     -14.484796      -394.1513
   5   2.0000     -14.479280      -394.0012
   6   2.0000     -14.449410      -393.1884
   7   2.0000     -10.445818      -284.2452
   8   2.0000     -10.308989      -280.5219
   9   2.0000     -10.259374      -279.1718
  10   2.0000     -10.246012      -278.8082
  11   2.0000      -8.107597      -220.6189
  12   2.0000      -6.072481      -165.2406
  13   2.0000      -6.071370      -165.2104
  14   2.0000      -6.070161      -165.1775
  15   2.0000      -1.162824       -31.6420
  16   2.0000      -1.157497       -31.4971
  17   2.0000      -1.051220       -28.6051
  18   2.0000      -1.036241       -28.1976
  19   2.0000      -1.017316       -27.6826
  20   2.0000      -1.015993       -27.6466
  21   2.0000      -0.893432       -24.3115
  22   2.0000      -0.819834       -22.3088
  23   2.0000      -0.763879       -20.7862
  24   2.0000      -0.725473       -19.7411
  25   2.0000      -0.717256       -19.5175
  26   2.0000      -0.679745       -18.4968
  27   2.0000      -0.637653       -17.3514
  28   2.0000      -0.622386       -16.9360
  29   2.0000      -0.603072       -16.4104
  30   2.0000      -0.581968       -15.8361
  31   2.0000      -0.559752       -15.2316
  32   2.0000      -0.545170       -14.8348
  33   2.0000      -0.522695       -14.2233
  34   2.0000      -0.506518       -13.7830
  35   2.0000      -0.490225       -13.3397
  36   2.0000      -0.470401       -12.8003
  37   2.0000      -0.449214       -12.2237
  38   2.0000      -0.442588       -12.0434
  39   2.0000      -0.430352       -11.7105
  40   2.0000      -0.406670       -11.0660
  41   2.0000      -0.377047       -10.2600
  42   2.0000      -0.372434       -10.1345
  43   2.0000      -0.365104        -9.9350
  44   2.0000      -0.332167        -9.0387
  45   2.0000      -0.322639        -8.7794
  46   2.0000      -0.313474        -8.5301
  47   2.0000      -0.282797        -7.6953
  48   0.0000      -0.023527        -0.6402
  49   0.0000       0.006687         0.1820
  50   0.0000       0.012144         0.3304
  51   0.0000       0.027901         0.7592
  52   0.0000       0.042776         1.1640

MULLIKEN ATOMIC CHARGES
-----------------------
   0 C :   -0.724542
   1 N :   -0.181606
   2 C :   -0.506674
   3 C :   -0.649103
   4 H :    0.256985
   5 H :    0.338432
   6 S :    1.249066
   7 C :    0.589412
   8 N :   -0.362042
   9 N :   -0.201222
  10 H :    0.257144
  11 H :    0.186114
  12 H :    0.207717
  13 H :    0.188316
  14 H :    0.182554
  15 O :   -0.682285
  16 O :   -0.668798
  17 O :   -0.850833
  18 H :    0.329029
  19 H :    0.293128
  20 H :    0.483227
  21 H :    0.265982
Sum of atomic charges:   -0.0000000

LOEWDIN ATOMIC CHARGES
----------------------
   0 C :   -0.161749
   1 N :    0.086179
   2 C :   -0.204222
   3 C :   -0.254490
   4 H :    0.090573
   5 H :    0.103050
   6 S :    0.418178
   7 C :   -0.444251
   8 N :    0.169904
   9 N :    0.234138
  10 H :    0.023911
  11 H :    0.137703
  12 H :    0.158481
  13 H :    0.120703
  14 H :    0.120659
  15 O :   -0.341795
  16 O :   -0.331247
  17 O :   -0.395748
  18 H :    0.120295
  19 H :    0.110879
  20 H :    0.114045
  21 H :    0.124805

  Mayer bond orders larger than 0.100000
B(  0-C ,  1-N ) :   0.8367 B(  0-C ,  2-C ) :   0.7473 B(  0-C ,  7-C ) :  -0.1275
B(  0-C , 20-H ) :   0.8128 B(  0-C , 21-H ) :   0.9634 B(  1-N ,  7-C ) :   1.2405
B(  1-N ,  8-N ) :   0.1019 B(  1-N , 12-H ) :   0.9709 B(  2-C ,  3-C ) :   0.9395
B(  2-C , 18-H ) :   0.9712 B(  2-C , 19-H ) :   0.9111 B(  3-C ,  4-H ) :   0.9309
B(  3-C ,  5-H ) :   0.9274 B(  3-C ,  6-S ) :   0.8699 B(  3-C , 15-O ) :   0.1317
B(  3-C , 16-O ) :   0.1025 B(  6-S , 15-O ) :   1.4891 B(  6-S , 16-O ) :   1.5054
B(  6-S , 17-O ) :   1.3141 B(  7-C ,  8-N ) :   0.9863 B(  7-C ,  9-N ) :   1.2485
B(  8-N , 13-H ) :   0.9913 B(  8-N , 14-H ) :   1.0177 B(  9-N , 10-H ) :   0.7776
B(  9-N , 11-H ) :   1.0111 B(  9-N , 17-O ) :  -0.1119 B( 10-H , 17-O ) :   0.1294

FINAL SINGLE POINT ENERGY      -947.212071002142

DIPOLE MOMENT
-------------
                                X             Y             Z
Electronic contribution:     -7.03947      -3.18144      -2.42358
Nuclear contribution   :     13.40759       3.44219       2.21042
                        -----------------------------------------
Total Dipole Moment    :      6.36812       0.26075      -0.21316
                        -----------------------------------------
Magnitude (a.u.)       :      6.37702
Magnitude (Debye)      :     16.20910

Rotational constants in cm-1:     0.059860     0.020817     0.017914
Rotational constants in MHz :  1794.564877   624.092098   537.039275

                             ****ORCA TERMINATED NORMALLY****
TOTAL RUN TIME: 0 days 0 hours 4 minutes 25 seconds 110 msec
