                         Program Version 5.0.0 -  RELEASE  -
|  1> !CAM-B3LYP RIJCOSX def2-TZVPD def2/J TightSCF
|  2> *xyz 0 1
|  3> C          2.49556        1.81615       -2.13636
|  4> C          1.87218        0.42790       -2.07750
|  5> H          2.61427       -0.36583       -2.19889
|  6> H          1.38995        0.27309       -1.11236
|  7> S          0.57902        0.14047       -3.29794
|  8> F          0.22886       -1.24687       -3.12787
|  9> O         -0.43927        1.11897       -3.01455
| 10> O          1.24788        0.40347       -4.59565
| 11> H          2.96535        1.95613       -3.08747
| 12> H          3.22581        1.91242       -1.36024
| 13> H          1.73350        2.55528       -2.00274
| 14> *
| 15>
| 16> %MaxCore 64000
| 17>
| 18> %pal nprocs 4
| 19> end
| 20>
| 21> %scf
| 22>   MaxIter 150
| 23> end
| 24>
| 25>
| 26>                          ****END OF INPUT****

CARTESIAN COORDINATES (ANGSTROEM)
---------------------------------
  C      2.495560    1.816150   -2.136360
  C      1.872180    0.427900   -2.077500
  H      2.614270   -0.365830   -2.198890
  H      1.389950    0.273090   -1.112360
  S      0.579020    0.140470   -3.297940
  F      0.228860   -1.246870   -3.127870
  O     -0.439270    1.118970   -3.014550
  O      1.247880    0.403470   -4.595650
  H      2.965350    1.956130   -3.087470
  H      3.225810    1.912420   -1.360240
  H      1.733500    2.555280   -2.002740

 Total Charge           Charge          ....    0
 Multiplicity           Mult            ....    1
 Number of Electrons    NEL             ....   58
 Basis Dimension        Dim             ....  285

ORBITAL ENERGIES
----------------

  NO   OCC          E(Eh)            E(eV)
   0   2.0000     -89.180361     -2426.7210
   1   2.0000     -24.883484      -677.1140
   2   2.0000     -19.216304      -522.9022
   3   2.0000     -19.201354      -522.4954
   4   2.0000     -10.305432      -280.4251
   5   2.0000     -10.259439      -279.1735
   6   2.0000      -8.224467      -223.7991
   7   2.0000      -6.192256      -168.4999
   8   2.0000      -6.185779      -168.3236
   9   2.0000      -6.185582      -168.3182
  10   2.0000      -1.473219       -40.0883
  11   2.0000      -1.192738       -32.4561
  12   2.0000      -1.089155       -29.6374
  13   2.0000      -0.905318       -24.6350
  14   2.0000      -0.819109       -22.2891
  15   2.0000      -0.754450       -20.5296
  16   2.0000      -0.668423       -18.1887
  17   2.0000      -0.666121       -18.1261
  18   2.0000      -0.631522       -17.1846
  19   2.0000      -0.566516       -15.4157
  20   2.0000      -0.556296       -15.1376
  21   2.0000      -0.515376       -14.0241
  22   2.0000      -0.499446       -13.5906
  23   2.0000      -0.477501       -12.9935
  24   2.0000      -0.457327       -12.4445
  25   2.0000      -0.454720       -12.3736
  26   2.0000      -0.404449       -11.0056
  27   2.0000      -0.390028       -10.6132
  28   2.0000      -0.375570       -10.2198
  29   0.0000       0.015541         0.4229
  30   0.0000       0.035194         0.9577
  31   0.0000       0.044545         1.2121
  32   0.0000       0.045791         1.2460
  33   0.0000       0.071662         1.9500

MULLIKEN ATOMIC CHARGES
-----------------------
   0 C :   -1.186343
   1 C :   -0.427256
   2 H :    0.351580
   3 H :    0.347738
   4 S :    1.152200
   5 F :   -0.117044
   6 O :   -0.554185
   7 O :   -0.594662
   8 H :    0.345661
   9 H :    0.335052
  10 H :    0.347259
Sum of atomic charges:    0.0000000

LOEWDIN ATOMIC CHARGES
----------------------
   0 C :   -0.105810
   1 C :   -0.289806
   2 H :    0.103178
   3 H :    0.098982
   4 S :    0.592380
   5 F :   -0.049870
   6 O :   -0.271607
   7 O :   -0.304975
   8 H :    0.075264
   9 H :    0.075884
  10 H :    0.076381

  Mayer bond orders larger than 0.100000
B(  0-C ,  1-C ) :   0.6901 B(  0-C ,  8-H ) :   0.9453 B(  0-C ,  9-H ) :   0.9304
B(  0-C , 10-H ) :   0.9354 B(  1-C ,  2-H ) :   0.8780 B(  1-C ,  3-H ) :   0.8878
B(  1-C ,  4-S ) :   0.8752 B(  4-S ,  5-F ) :   1.0052 B(  4-S ,  6-O ) :   1.7033
B(  4-S ,  7-O ) :   1.6550

FINAL SINGLE POINT ENERGY      -727.725173019290

DIPOLE MOMENT
-------------
                                X             Y             Z
Electronic contribution:     -6.79958      -6.40991      -4.06595
Nuclear contribution   :      7.60530       5.82028       5.38743
                        -----------------------------------------
Total Dipole Moment    :      0.80572      -0.58963       1.32149
                        -----------------------------------------
Magnitude (a.u.)       :      1.65626
Magnitude (Debye)      :      4.20987

Rotational constants in cm-1:     0.157861     0.081452     0.078859
Rotational constants in MHz :  4732.562506  2441.865430  2364.129821

                             ****ORCA TERMINATED NORMALLY****
TOTAL RUN TIME: 0 days 0 hours 0 minutes 56 seconds 964 msec
