                         Program Version 5.0.0 -  RELEASE  -
|  1> !CAM-B3LYP RIJCOSX def2-TZVPD def2/J TightSCF
|  2> *xyz 0 1
|  3> C          3.38093        2.08304       -3.35013
|  4> C          4.53592        1.18245       -3.42852
|  5> C          2.49556        1.81615       -2.13636
|  6> C          4.67196        0.12227       -4.22060
|  7> N          5.86602       -0.50785       -4.22428
|  8> N          3.69888       -0.31284       -4.98699
|  9> H          2.73141       -0.05009       -4.84900
| 10> H          3.89005       -1.05517       -5.64373
| 11> H          5.25193        1.30346       -2.72101
| 12> H          6.69516       -0.06232       -3.85160
| 13> H          5.97538       -1.39688       -4.69141
| 14> H          2.80646        1.98651       -4.26848
| 15> H          3.77871        3.09828       -3.30738
| 16> H          2.11090        0.81901       -2.18783
| 17> H          1.68276        2.51198       -2.12786
| 18> H          3.07216        1.93031       -1.24227
| 19> *
| 20>
| 21> %MaxCore 64000
| 22>
| 23> %pal nprocs 4
| 24> end
| 25>
| 26> %scf
| 27>   MaxIter 150
| 28> end
| 29>
| 30>
| 31>                          ****END OF INPUT****

CARTESIAN COORDINATES (ANGSTROEM)
---------------------------------
  C      3.380930    2.083040   -3.350130
  C      4.535920    1.182450   -3.428520
  C      2.495560    1.816150   -2.136360
  C      4.671960    0.122270   -4.220600
  N      5.866020   -0.507850   -4.224280
  N      3.698880   -0.312840   -4.986990
  H      2.731410   -0.050090   -4.849000
  H      3.890050   -1.055170   -5.643730
  H      5.251930    1.303460   -2.721010
  H      6.695160   -0.062320   -3.851600
  H      5.975380   -1.396880   -4.691410
  H      2.806460    1.986510   -4.268480
  H      3.778710    3.098280   -3.307380
  H      2.110900    0.819010   -2.187830
  H      1.682760    2.511980   -2.127860
  H      3.072160    1.930310   -1.242270

 Total Charge           Charge          ....    0
 Multiplicity           Mult            ....    1
 Number of Electrons    NEL             ....   48
 Basis Dimension        Dim             ....  312

ORBITAL ENERGIES
----------------

  NO   OCC          E(Eh)            E(eV)
   0   2.0000     -14.392608      -391.6428
   1   2.0000     -14.385042      -391.4369
   2   2.0000     -10.289456      -279.9903
   3   2.0000     -10.215424      -277.9758
   4   2.0000     -10.206143      -277.7233
   5   2.0000     -10.164488      -276.5898
   6   2.0000      -1.045304       -28.4442
   7   2.0000      -0.950998       -25.8780
   8   2.0000      -0.853602       -23.2277
   9   2.0000      -0.774300       -21.0698
  10   2.0000      -0.693498       -18.8710
  11   2.0000      -0.652268       -17.7491
  12   2.0000      -0.615955       -16.7610
  13   2.0000      -0.578318       -15.7368
  14   2.0000      -0.548941       -14.9375
  15   2.0000      -0.511445       -13.9171
  16   2.0000      -0.484614       -13.1870
  17   2.0000      -0.463275       -12.6064
  18   2.0000      -0.446044       -12.1375
  19   2.0000      -0.416298       -11.3280
  20   2.0000      -0.391644       -10.6572
  21   2.0000      -0.384992       -10.4762
  22   2.0000      -0.330801        -9.0015
  23   2.0000      -0.215810        -5.8725
  24   0.0000       0.025617         0.6971
  25   0.0000       0.050181         1.3655
  26   0.0000       0.058617         1.5950
  27   0.0000       0.069901         1.9021
  28   0.0000       0.083086         2.2609

MULLIKEN ATOMIC CHARGES
-----------------------
   0 C :   -0.556384
   1 C :   -0.505227
   2 C :   -0.988837
   3 C :    0.467581
   4 N :   -0.388058
   5 N :   -0.329819
   6 H :    0.163162
   7 H :    0.145656
   8 H :    0.295762
   9 H :    0.162286
  10 H :    0.142342
  11 H :    0.280393
  12 H :    0.222277
  13 H :    0.290235
  14 H :    0.291295
  15 H :    0.307338
Sum of atomic charges:    0.0000000

LOEWDIN ATOMIC CHARGES
----------------------
   0 C :   -0.283338
   1 C :   -0.142389
   2 C :   -0.111579
   3 C :   -0.548384
   4 N :    0.100758
   5 N :    0.129616
   6 H :    0.108862
   7 H :    0.101906
   8 H :    0.067403
   9 H :    0.105753
  10 H :    0.090438
  11 H :    0.093519
  12 H :    0.101656
  13 H :    0.063078
  14 H :    0.057655
  15 H :    0.065046

  Mayer bond orders larger than 0.100000
B(  0-C ,  1-C ) :   0.6399 B(  0-C ,  2-C ) :   0.5256 B(  0-C , 11-H ) :   0.9720
B(  0-C , 12-H ) :   1.1048 B(  1-C ,  3-C ) :   1.3539 B(  1-C ,  4-N ) :   0.1535
B(  1-C ,  8-H ) :   1.0057 B(  2-C , 13-H ) :   0.9881 B(  2-C , 14-H ) :   0.9757
B(  2-C , 15-H ) :   0.9768 B(  3-C ,  4-N ) :   0.8484 B(  3-C ,  5-N ) :   0.9501
B(  3-C ,  8-H ) :  -0.1281 B(  4-N ,  9-H ) :   1.0219 B(  4-N , 10-H ) :   1.0627
B(  5-N ,  6-H ) :   0.9947 B(  5-N ,  7-H ) :   1.0520

FINAL SINGLE POINT ENERGY      -267.879526898883

DIPOLE MOMENT
-------------
                                X             Y             Z
Electronic contribution:      2.98443      -2.77170      -2.87962
Nuclear contribution   :     -2.84307       1.95814       2.32378
                        -----------------------------------------
Total Dipole Moment    :      0.14136      -0.81356      -0.55584
                        -----------------------------------------
Magnitude (a.u.)       :      0.99540
Magnitude (Debye)      :      2.53011

Rotational constants in cm-1:     0.248902     0.068887     0.059904
Rotational constants in MHz :  7461.898926  2065.183281  1795.882140

                             ****ORCA TERMINATED NORMALLY****
TOTAL RUN TIME: 0 days 0 hours 1 minutes 12 seconds 446 msec
