                         Program Version 5.0.0 -  RELEASE  -
|  1> !CAM-B3LYP RIJCOSX def2-TZVPD def2/J TightSCF
|  2> *xyz 0 1
|  3> C          2.49556        1.81615       -2.13636
|  4> C          1.87218        0.42790       -2.07750
|  5> H          2.61427       -0.36583       -2.19889
|  6> H          1.38995        0.27309       -1.11236
|  7> S          0.57902        0.14047       -3.29794
|  8> O          0.22886       -1.24687       -3.12787
|  9> F         -0.43927        1.11897       -3.01455
| 10> O          1.24788        0.40347       -4.59565
| 11> H          2.96535        1.95613       -3.08747
| 12> H          3.22581        1.91242       -1.36024
| 13> H          1.73350        2.55528       -2.00274
| 14> *
| 15>
| 16> %MaxCore 64000
| 17>
| 18> %pal nprocs 4
| 19> end
| 20>
| 21> %scf
| 22>   MaxIter 150
| 23> end
| 24>
| 25>
| 26>                          ****END OF INPUT****

CARTESIAN COORDINATES (ANGSTROEM)
---------------------------------
  C      2.495560    1.816150   -2.136360
  C      1.872180    0.427900   -2.077500
  H      2.614270   -0.365830   -2.198890
  H      1.389950    0.273090   -1.112360
  S      0.579020    0.140470   -3.297940
  O      0.228860   -1.246870   -3.127870
  F     -0.439270    1.118970   -3.014550
  O      1.247880    0.403470   -4.595650
  H      2.965350    1.956130   -3.087470
  H      3.225810    1.912420   -1.360240
  H      1.733500    2.555280   -2.002740

 Total Charge           Charge          ....    0
 Multiplicity           Mult            ....    1
 Number of Electrons    NEL             ....   58
 Basis Dimension        Dim             ....  285

ORBITAL ENERGIES
----------------

  NO   OCC          E(Eh)            E(eV)
   0   2.0000     -89.180500     -2426.7248
   1   2.0000     -24.883559      -677.1161
   2   2.0000     -19.216613      -522.9106
   3   2.0000     -19.201918      -522.5108
   4   2.0000     -10.305342      -280.4226
   5   2.0000     -10.262557      -279.2584
   6   2.0000      -8.224569      -223.8019
   7   2.0000      -6.192504      -168.5066
   8   2.0000      -6.185878      -168.3263
   9   2.0000      -6.185561      -168.3177
  10   2.0000      -1.473687       -40.1011
  11   2.0000      -1.192179       -32.4408
  12   2.0000      -1.090114       -29.6635
  13   2.0000      -0.908310       -24.7164
  14   2.0000      -0.815464       -22.1899
  15   2.0000      -0.758658       -20.6441
  16   2.0000      -0.676869       -18.4185
  17   2.0000      -0.667128       -18.1535
  18   2.0000      -0.624423       -16.9914
  19   2.0000      -0.566380       -15.4120
  20   2.0000      -0.552562       -15.0360
  21   2.0000      -0.524880       -14.2827
  22   2.0000      -0.503838       -13.7101
  23   2.0000      -0.477863       -13.0033
  24   2.0000      -0.467188       -12.7128
  25   2.0000      -0.448519       -12.2048
  26   2.0000      -0.403678       -10.9846
  27   2.0000      -0.389892       -10.6095
  28   2.0000      -0.377567       -10.2741
  29   0.0000       0.013984         0.3805
  30   0.0000       0.037811         1.0289
  31   0.0000       0.041636         1.1330
  32   0.0000       0.046202         1.2572
  33   0.0000       0.070932         1.9302

MULLIKEN ATOMIC CHARGES
-----------------------
   0 C :   -1.168695
   1 C :   -0.407323
   2 H :    0.333361
   3 H :    0.346271
   4 S :    1.138345
   5 O :   -0.543779
   6 F :   -0.133822
   7 O :   -0.592611
   8 H :    0.343520
   9 H :    0.336377
  10 H :    0.348355
Sum of atomic charges:    0.0000000

LOEWDIN ATOMIC CHARGES
----------------------
   0 C :   -0.116774
   1 C :   -0.281739
   2 H :    0.114343
   3 H :    0.099486
   4 S :    0.590460
   5 O :   -0.275348
   6 F :   -0.046022
   7 O :   -0.302829
   8 H :    0.073324
   9 H :    0.074358
  10 H :    0.070741

  Mayer bond orders larger than 0.100000
B(  0-C ,  1-C ) :   0.6191 B(  0-C ,  8-H ) :   0.9779 B(  0-C ,  9-H ) :   0.9442
B(  0-C , 10-H ) :   0.9142 B(  1-C ,  2-H ) :   0.9069 B(  1-C ,  3-H ) :   0.9085
B(  1-C ,  4-S ) :   0.8833 B(  4-S ,  5-O ) :   1.7031 B(  4-S ,  6-F ) :   1.0109
B(  4-S ,  7-O ) :   1.6604

FINAL SINGLE POINT ENERGY      -727.725200305457

DIPOLE MOMENT
-------------
                                X             Y             Z
Electronic contribution:     -7.92104      -2.39323      -3.86743
Nuclear contribution   :      8.30151       3.35500       5.26935
                        -----------------------------------------
Total Dipole Moment    :      0.38047       0.96177       1.40192
                        -----------------------------------------
Magnitude (a.u.)       :      1.74216
Magnitude (Debye)      :      4.42822

Rotational constants in cm-1:     0.152913     0.083043     0.080351
Rotational constants in MHz :  4584.227971  2489.580280  2408.872860

                             ****ORCA TERMINATED NORMALLY****
TOTAL RUN TIME: 0 days 0 hours 0 minutes 57 seconds 380 msec
