                         Program Version 5.0.0 -  RELEASE  -
|  1> !CAM-B3LYP RIJCOSX def2-TZVPD def2/J TightSCF
|  2> *xyz 0 1
|  3> C          3.38093        2.08304       -3.35013
|  4> N          4.53592        1.18245       -3.42852
|  5> C          2.49556        1.81615       -2.13636
|  6> C          4.67196        0.12227       -4.22060
|  7> C          5.86602       -0.50785       -4.22428
|  8> N          3.69888       -0.31284       -4.98699
|  9> H          2.73141       -0.05009       -4.84900
| 10> H          3.89005       -1.05517       -5.64373
| 11> H          5.25193        1.30346       -2.72101
| 12> H          6.69516       -0.06232       -3.85160
| 13> H          5.97538       -1.39688       -4.69141
| 14> H          2.80646        1.98651       -4.26848
| 15> H          3.77871        3.09828       -3.30738
| 16> H          2.11090        0.81901       -2.18783
| 17> H          1.68276        2.51198       -2.12786
| 18> H          3.07216        1.93031       -1.24227
| 19> *
| 20>
| 21> %MaxCore 64000
| 22>
| 23> %pal nprocs 4
| 24> end
| 25>
| 26> %scf
| 27>   MaxIter 150
| 28> end
| 29>
| 30>
| 31>                          ****END OF INPUT****

CARTESIAN COORDINATES (ANGSTROEM)
---------------------------------
  C      3.380930    2.083040   -3.350130
  N      4.535920    1.182450   -3.428520
  C      2.495560    1.816150   -2.136360
  C      4.671960    0.122270   -4.220600
  C      5.866020   -0.507850   -4.224280
  N      3.698880   -0.312840   -4.986990
  H      2.731410   -0.050090   -4.849000
  H      3.890050   -1.055170   -5.643730
  H      5.251930    1.303460   -2.721010
  H      6.695160   -0.062320   -3.851600
  H      5.975380   -1.396880   -4.691410
  H      2.806460    1.986510   -4.268480
  H      3.778710    3.098280   -3.307380
  H      2.110900    0.819010   -2.187830
  H      1.682760    2.511980   -2.127860
  H      3.072160    1.930310   -1.242270

 Total Charge           Charge          ....    0
 Multiplicity           Mult            ....    1
 Number of Electrons    NEL             ....   48
 Basis Dimension        Dim             ....  312

ORBITAL ENERGIES
----------------

  NO   OCC          E(Eh)            E(eV)
   0   2.0000     -14.392455      -391.6386
   1   2.0000     -14.388448      -391.5296
   2   2.0000     -10.294039      -280.1150
   3   2.0000     -10.283741      -279.8348
   4   2.0000     -10.235210      -278.5142
   5   2.0000     -10.150261      -276.2026
   6   2.0000      -1.052699       -28.6454
   7   2.0000      -0.970015       -26.3955
   8   2.0000      -0.853759       -23.2320
   9   2.0000      -0.777333       -21.1523
  10   2.0000      -0.705363       -19.1939
  11   2.0000      -0.677547       -18.4370
  12   2.0000      -0.616722       -16.7819
  13   2.0000      -0.569046       -15.4845
  14   2.0000      -0.550855       -14.9895
  15   2.0000      -0.515691       -14.0327
  16   2.0000      -0.498691       -13.5701
  17   2.0000      -0.471141       -12.8204
  18   2.0000      -0.456498       -12.4219
  19   2.0000      -0.434707       -11.8290
  20   2.0000      -0.429582       -11.6895
  21   2.0000      -0.420052       -11.4302
  22   2.0000      -0.318725        -8.6730
  23   2.0000      -0.215307        -5.8588
  24   0.0000       0.024783         0.6744
  25   0.0000       0.051000         1.3878
  26   0.0000       0.056116         1.5270
  27   0.0000       0.058446         1.5904
  28   0.0000       0.084706         2.3050

MULLIKEN ATOMIC CHARGES
-----------------------
   0 C :   -0.535833
   1 N :   -0.202180
   2 C :   -0.952274
   3 C :    0.725202
   4 C :   -1.183963
   5 N :   -0.336464
   6 H :    0.163591
   7 H :    0.164468
   8 H :    0.166205
   9 H :    0.247389
  10 H :    0.241760
  11 H :    0.329951
  12 H :    0.269615
  13 H :    0.285256
  14 H :    0.327218
  15 H :    0.290059
Sum of atomic charges:    0.0000000

LOEWDIN ATOMIC CHARGES
----------------------
   0 C :   -0.238754
   1 N :    0.018553
   2 C :   -0.090680
   3 C :   -0.569870
   4 C :   -0.007823
   5 N :    0.125790
   6 H :    0.098920
   7 H :    0.114055
   8 H :    0.144979
   9 H :    0.000568
  10 H :   -0.004209
  11 H :    0.103376
  12 H :    0.109839
  13 H :    0.065573
  14 H :    0.064163
  15 H :    0.065519

  Mayer bond orders larger than 0.100000
B(  0-C ,  1-N ) :   0.8463 B(  0-C ,  2-C ) :   0.5743 B(  0-C ,  3-C ) :  -0.1243
B(  0-C , 11-H ) :   0.9245 B(  0-C , 12-H ) :   0.9910 B(  1-N ,  3-C ) :   1.0810
B(  1-N ,  4-C ) :   0.1249 B(  1-N ,  8-H ) :   1.0068 B(  2-C , 13-H ) :   0.9993
B(  2-C , 14-H ) :   0.9747 B(  2-C , 15-H ) :   0.9603 B(  3-C ,  4-C ) :   1.0651
B(  3-C ,  5-N ) :   1.0128 B(  3-C , 10-H ) :  -0.1313 B(  4-C ,  9-H ) :   0.9887
B(  4-C , 10-H ) :   1.1219 B(  5-N ,  6-H ) :   1.0093 B(  5-N ,  7-H ) :   1.0150

FINAL SINGLE POINT ENERGY      -267.869280959016

DIPOLE MOMENT
-------------
                                X             Y             Z
Electronic contribution:      1.48691      -1.08658      -2.03595
Nuclear contribution   :     -2.56090       1.59955       2.15496
                        -----------------------------------------
Total Dipole Moment    :     -1.07400       0.51297       0.11902
                        -----------------------------------------
Magnitude (a.u.)       :      1.19615
Magnitude (Debye)      :      3.04037

Rotational constants in cm-1:     0.249834     0.071381     0.061833
Rotational constants in MHz :  7489.842787  2139.945635  1853.706310

                             ****ORCA TERMINATED NORMALLY****
TOTAL RUN TIME: 0 days 0 hours 1 minutes 14 seconds 698 msec
