                         Program Version 5.0.0 -  RELEASE  -
|  1> !CAM-B3LYP RIJCOSX def2-TZVPD def2/J TightSCF
|  2> *xyz 0 1
|  3> C          2.49556        1.81615       -2.13636
|  4> C          1.87218        0.42790       -2.07750
|  5> H          2.61427       -0.36583       -2.19889
|  6> H          1.38995        0.27309       -1.11236
|  7> S          0.57902        0.14047       -3.29794
|  8> O          0.22886       -1.24687       -3.12787
|  9> O         -0.43927        1.11897       -3.01455
| 10> F          1.24788        0.40347       -4.59565
| 11> H          2.96535        1.95613       -3.08747
| 12> H          3.22581        1.91242       -1.36024
| 13> H          1.73350        2.55528       -2.00274
| 14> *
| 15>
| 16> %MaxCore 64000
| 17>
| 18> %pal nprocs 4
| 19> end
| 20>
| 21> %scf
| 22>   MaxIter 150
| 23> end
| 24>
| 25>
| 26>                          ****END OF INPUT****

CARTESIAN COORDINATES (ANGSTROEM)
---------------------------------
  C      2.495560    1.816150   -2.136360
  C      1.872180    0.427900   -2.077500
  H      2.614270   -0.365830   -2.198890
  H      1.389950    0.273090   -1.112360
  S      0.579020    0.140470   -3.297940
  O      0.228860   -1.246870   -3.127870
  O     -0.439270    1.118970   -3.014550
  F      1.247880    0.403470   -4.595650
  H      2.965350    1.956130   -3.087470
  H      3.225810    1.912420   -1.360240
  H      1.733500    2.555280   -2.002740

 Total Charge           Charge          ....    0
 Multiplicity           Mult            ....    1
 Number of Electrons    NEL             ....   58
 Basis Dimension        Dim             ....  285

ORBITAL ENERGIES
----------------

  NO   OCC          E(Eh)            E(eV)
   0   2.0000     -89.178045     -2426.6580
   1   2.0000     -24.860963      -676.5012
   2   2.0000     -19.216198      -522.8993
   3   2.0000     -19.215969      -522.8931
   4   2.0000     -10.304242      -280.3927
   5   2.0000     -10.263056      -279.2719
   6   2.0000      -8.222127      -223.7354
   7   2.0000      -6.190113      -168.4415
   8   2.0000      -6.183565      -168.2634
   9   2.0000      -6.183096      -168.2506
  10   2.0000      -1.437332       -39.1118
  11   2.0000      -1.202927       -32.7333
  12   2.0000      -1.111172       -30.2365
  13   2.0000      -0.907582       -24.6966
  14   2.0000      -0.801413       -21.8076
  15   2.0000      -0.751305       -20.4440
  16   2.0000      -0.658344       -17.9144
  17   2.0000      -0.641901       -17.4670
  18   2.0000      -0.622229       -16.9317
  19   2.0000      -0.567923       -15.4540
  20   2.0000      -0.549824       -14.9615
  21   2.0000      -0.529039       -14.3959
  22   2.0000      -0.508007       -13.8236
  23   2.0000      -0.479598       -13.0505
  24   2.0000      -0.472504       -12.8575
  25   2.0000      -0.450371       -12.2552
  26   2.0000      -0.412671       -11.2294
  27   2.0000      -0.399562       -10.8726
  28   2.0000      -0.392653       -10.6846
  29   0.0000       0.016142         0.4393
  30   0.0000       0.039512         1.0752
  31   0.0000       0.042376         1.1531
  32   0.0000       0.046148         1.2557
  33   0.0000       0.072985         1.9860

MULLIKEN ATOMIC CHARGES
-----------------------
   0 C :   -1.176280
   1 C :   -0.402088
   2 H :    0.347640
   3 H :    0.330329
   4 S :    1.157805
   5 O :   -0.549906
   6 O :   -0.560605
   7 F :   -0.176496
   8 H :    0.349800
   9 H :    0.334369
  10 H :    0.345433
Sum of atomic charges:   -0.0000000

LOEWDIN ATOMIC CHARGES
----------------------
   0 C :   -0.116604
   1 C :   -0.280624
   2 H :    0.104835
   3 H :    0.109856
   4 S :    0.590900
   5 O :   -0.275840
   6 O :   -0.270440
   7 F :   -0.080445
   8 H :    0.070180
   9 H :    0.074396
  10 H :    0.073786

  Mayer bond orders larger than 0.100000
B(  0-C ,  1-C ) :   0.6124 B(  0-C ,  8-H ) :   0.9212 B(  0-C ,  9-H ) :   0.9448
B(  0-C , 10-H ) :   0.9670 B(  1-C ,  2-H ) :   0.9061 B(  1-C ,  3-H ) :   0.9143
B(  1-C ,  4-S ) :   0.8785 B(  4-S ,  5-O ) :   1.6956 B(  4-S ,  6-O ) :   1.6991
B(  4-S ,  7-F ) :   0.9717

FINAL SINGLE POINT ENERGY      -727.743743196007

DIPOLE MOMENT
-------------
                                X             Y             Z
Electronic contribution:     -5.04849      -3.59939      -6.56550
Nuclear contribution   :      6.54345       4.10057       6.91691
                        -----------------------------------------
Total Dipole Moment    :      1.49496       0.50118       0.35140
                        -----------------------------------------
Magnitude (a.u.)       :      1.61542
Magnitude (Debye)      :      4.10606

Rotational constants in cm-1:     0.152835     0.082826     0.080611
Rotational constants in MHz :  4581.878371  2483.049050  2416.647141

                             ****ORCA TERMINATED NORMALLY****
TOTAL RUN TIME: 0 days 0 hours 0 minutes 53 seconds 77 msec
