                         Program Version 5.0.0 -  RELEASE  -
|  1> !CAM-B3LYP RIJCOSX def2-TZVPD def2/J TightSCF
|  2> *xyz 0 1
|  3> C          3.38093        2.08304       -3.35013
|  4> N          4.53592        1.18245       -3.42852
|  5> C          2.49556        1.81615       -2.13636
|  6> C          4.67196        0.12227       -4.22060
|  7> N          5.86602       -0.50785       -4.22428
|  8> C          3.69888       -0.31284       -4.98699
|  9> H          2.73141       -0.05009       -4.84900
| 10> H          3.89005       -1.05517       -5.64373
| 11> H          5.25193        1.30346       -2.72101
| 12> H          6.69516       -0.06232       -3.85160
| 13> H          5.97538       -1.39688       -4.69141
| 14> H          2.80646        1.98651       -4.26848
| 15> H          3.77871        3.09828       -3.30738
| 16> H          2.11090        0.81901       -2.18783
| 17> H          1.68276        2.51198       -2.12786
| 18> H          3.07216        1.93031       -1.24227
| 19> *
| 20>
| 21> %MaxCore 64000
| 22>
| 23> %pal nprocs 4
| 24> end
| 25>
| 26> %scf
| 27>   MaxIter 150
| 28> end
| 29>
| 30>
| 31>                          ****END OF INPUT****

CARTESIAN COORDINATES (ANGSTROEM)
---------------------------------
  C      3.380930    2.083040   -3.350130
  N      4.535920    1.182450   -3.428520
  C      2.495560    1.816150   -2.136360
  C      4.671960    0.122270   -4.220600
  N      5.866020   -0.507850   -4.224280
  C      3.698880   -0.312840   -4.986990
  H      2.731410   -0.050090   -4.849000
  H      3.890050   -1.055170   -5.643730
  H      5.251930    1.303460   -2.721010
  H      6.695160   -0.062320   -3.851600
  H      5.975380   -1.396880   -4.691410
  H      2.806460    1.986510   -4.268480
  H      3.778710    3.098280   -3.307380
  H      2.110900    0.819010   -2.187830
  H      1.682760    2.511980   -2.127860
  H      3.072160    1.930310   -1.242270

 Total Charge           Charge          ....    0
 Multiplicity           Mult            ....    1
 Number of Electrons    NEL             ....   48
 Basis Dimension        Dim             ....  312

ORBITAL ENERGIES
----------------

  NO   OCC          E(Eh)            E(eV)
   0   2.0000     -14.388883      -391.5414
   1   2.0000     -14.385655      -391.4536
   2   2.0000     -10.291079      -280.0345
   3   2.0000     -10.275526      -279.6113
   4   2.0000     -10.227640      -278.3082
   5   2.0000     -10.154832      -276.3270
   6   2.0000      -1.045993       -28.4629
   7   2.0000      -0.960802       -26.1447
   8   2.0000      -0.838486       -22.8164
   9   2.0000      -0.792743       -21.5716
  10   2.0000      -0.716767       -19.5042
  11   2.0000      -0.639110       -17.3911
  12   2.0000      -0.616011       -16.7625
  13   2.0000      -0.585968       -15.9450
  14   2.0000      -0.526805       -14.3351
  15   2.0000      -0.519297       -14.1308
  16   2.0000      -0.490675       -13.3519
  17   2.0000      -0.471053       -12.8180
  18   2.0000      -0.447848       -12.1866
  19   2.0000      -0.441962       -12.0264
  20   2.0000      -0.420893       -11.4531
  21   2.0000      -0.415470       -11.3055
  22   2.0000      -0.311208        -8.4684
  23   2.0000      -0.228401        -6.2151
  24   0.0000       0.029078         0.7912
  25   0.0000       0.047600         1.2953
  26   0.0000       0.059062         1.6071
  27   0.0000       0.062505         1.7009
  28   0.0000       0.084525         2.3000

MULLIKEN ATOMIC CHARGES
-----------------------
   0 C :   -0.524642
   1 N :   -0.231926
   2 C :   -0.975522
   3 C :    0.783985
   4 N :   -0.371344
   5 C :   -1.186141
   6 H :    0.258968
   7 H :    0.245470
   8 H :    0.172472
   9 H :    0.156491
  10 H :    0.155871
  11 H :    0.348448
  12 H :    0.262007
  13 H :    0.282632
  14 H :    0.324552
  15 H :    0.298679
Sum of atomic charges:   -0.0000000

LOEWDIN ATOMIC CHARGES
----------------------
   0 C :   -0.234537
   1 N :    0.010415
   2 C :   -0.087768
   3 C :   -0.562823
   4 N :    0.105022
   5 C :    0.003434
   6 H :    0.008612
   7 H :    0.010381
   8 H :    0.136883
   9 H :    0.095228
  10 H :    0.103253
  11 H :    0.106647
  12 H :    0.109600
  13 H :    0.068221
  14 H :    0.064669
  15 H :    0.062762

  Mayer bond orders larger than 0.100000
B(  0-C ,  1-N ) :   0.8416 B(  0-C ,  2-C ) :   0.5671 B(  0-C ,  5-C ) :   0.1259
B(  0-C , 11-H ) :   0.9213 B(  0-C , 12-H ) :   0.9561 B(  1-N ,  3-C ) :   1.0303
B(  1-N ,  8-H ) :   1.0220 B(  2-C , 13-H ) :   1.0141 B(  2-C , 14-H ) :   0.9625
B(  2-C , 15-H ) :   0.9497 B(  3-C ,  4-N ) :   0.8885 B(  3-C ,  5-C ) :   1.2095
B(  3-C ,  7-H ) :  -0.1368 B(  4-N ,  9-H ) :   1.0352 B(  4-N , 10-H ) :   1.0300
B(  5-C ,  6-H ) :   0.9498 B(  5-C ,  7-H ) :   1.1426

FINAL SINGLE POINT ENERGY      -267.874776994871

DIPOLE MOMENT
-------------
                                X             Y             Z
Electronic contribution:      3.64809      -1.31260      -1.35191
Nuclear contribution   :     -3.02065       1.64092       1.99316
                        -----------------------------------------
Total Dipole Moment    :      0.62744       0.32832       0.64125
                        -----------------------------------------
Magnitude (a.u.)       :      0.95534
Magnitude (Debye)      :      2.42828

Rotational constants in cm-1:     0.259304     0.069422     0.060943
Rotational constants in MHz :  7773.747720  2081.225169  1827.013389

                             ****ORCA TERMINATED NORMALLY****
TOTAL RUN TIME: 0 days 0 hours 1 minutes 14 seconds 543 msec
