                         Program Version 5.0.0 -  RELEASE  -
|  1> !CAM-B3LYP RIJCOSX def2-TZVPD def2/J TightSCF xyzfile
|  2>
|  3> *xyzfile 0 1 D1.xyz
|  4>
|  5> %MaxCore 64000
|  6>
|  7> %pal nprocs 4
|  8> end
|  9>
| 10> %scf
| 11>   MaxIter 150
| 12> end
| 13>
| 14>
| 15>                          ****END OF INPUT****

CARTESIAN COORDINATES (ANGSTROEM)
---------------------------------
  C      3.380928    2.083045   -3.350127
  C      4.535924    1.182447   -3.428518
  C      2.495557    1.816150   -2.136364
  C      1.872181    0.427903   -2.077497
  H      2.614270   -0.365825   -2.198894
  H      1.389953    0.273087   -1.112360
  S      0.579024    0.140472   -3.297943
  C      4.671956    0.122273   -4.220598
  N      5.866023   -0.507849   -4.224284
  N      3.698881   -0.312844   -4.986988
  H      2.731405   -0.050091   -4.849000
  H      3.890046   -1.055172   -5.643730
  H      5.251933    1.303459   -2.721014
  H      6.695165   -0.062322   -3.851596
  H      5.975383   -1.396884   -4.691414
  F      0.228860   -1.246868   -3.127871
  O     -0.439269    1.118966   -3.014550
  O      1.247881    0.403474   -4.595647
  H      1.697003    2.561969   -2.141109
  H      3.080787    1.987436   -1.225838
  H      2.806463    1.986511   -4.268484
  H      3.778714    3.098282   -3.307383

 Total Charge           Charge          ....    0
 Multiplicity           Mult            ....    1
 Number of Electrons    NEL             ....   96
 Basis Dimension        Dim             ....  524

ORBITAL ENERGIES
----------------

  NO   OCC          E(Eh)            E(eV)
   0   2.0000     -89.190002     -2426.9833
   1   2.0000     -24.890375      -677.3015
   2   2.0000     -19.223749      -523.1048
   3   2.0000     -19.217927      -522.9464
   4   2.0000     -14.382775      -391.3752
   5   2.0000     -14.365893      -390.9158
   6   2.0000     -10.297797      -280.2173
   7   2.0000     -10.286929      -279.9216
   8   2.0000     -10.253454      -279.0107
   9   2.0000     -10.219349      -278.0826
  10   2.0000     -10.163634      -276.5665
  11   2.0000      -8.234406      -224.0696
  12   2.0000      -6.202153      -168.7692
  13   2.0000      -6.195958      -168.6006
  14   2.0000      -6.195241      -168.5811
  15   2.0000      -1.480456       -40.2852
  16   2.0000      -1.205175       -32.7945
  17   2.0000      -1.108877       -30.1741
  18   2.0000      -1.036397       -28.2018
  19   2.0000      -0.942093       -25.6357
  20   2.0000      -0.909724       -24.7549
  21   2.0000      -0.847810       -23.0701
  22   2.0000      -0.808099       -21.9895
  23   2.0000      -0.761955       -20.7338
  24   2.0000      -0.706508       -19.2251
  25   2.0000      -0.678223       -18.4554
  26   2.0000      -0.666901       -18.1473
  27   2.0000      -0.657804       -17.8998
  28   2.0000      -0.627683       -17.0801
  29   2.0000      -0.608539       -16.5592
  30   2.0000      -0.588480       -16.0133
  31   2.0000      -0.562702       -15.3119
  32   2.0000      -0.557124       -15.1601
  33   2.0000      -0.540522       -14.7084
  34   2.0000      -0.523200       -14.2370
  35   2.0000      -0.507751       -13.8166
  36   2.0000      -0.477209       -12.9855
  37   2.0000      -0.474609       -12.9148
  38   2.0000      -0.462386       -12.5822
  39   2.0000      -0.451004       -12.2724
  40   2.0000      -0.425464       -11.5775
  41   2.0000      -0.421493       -11.4694
  42   2.0000      -0.405617       -11.0374
  43   2.0000      -0.401819       -10.9341
  44   2.0000      -0.386890       -10.5278
  45   2.0000      -0.377591       -10.2748
  46   2.0000      -0.320804        -8.7295
  47   2.0000      -0.216294        -5.8857
  48   0.0000       0.014248         0.3877
  49   0.0000       0.032590         0.8868
  50   0.0000       0.036559         0.9948
  51   0.0000       0.045657         1.2424
  52   0.0000       0.058403         1.5892

MULLIKEN ATOMIC CHARGES
-----------------------
   0 C :   -0.622672
   1 C :   -0.767803
   2 C :   -0.576248
   3 C :   -0.686924
   4 H :    0.403801
   5 H :    0.357020
   6 S :    1.178688
   7 C :    0.574113
   8 N :   -0.385176
   9 N :   -0.289177
  10 H :    0.240680
  11 H :    0.131894
  12 H :    0.266908
  13 H :    0.171297
  14 H :    0.142880
  15 F :   -0.133048
  16 O :   -0.562277
  17 O :   -0.704931
  18 H :    0.258020
  19 H :    0.348459
  20 H :    0.388519
  21 H :    0.265976
Sum of atomic charges:   -0.0000000

LOEWDIN ATOMIC CHARGES
----------------------
   0 C :   -0.223335
   1 C :   -0.135104
   2 C :   -0.209317
   3 C :   -0.221232
   4 H :    0.106955
   5 H :    0.104751
   6 S :    0.644164
   7 C :   -0.542212
   8 N :    0.104011
   9 N :    0.143617
  10 H :    0.012437
  11 H :    0.106905
  12 H :    0.067234
  13 H :    0.104278
  14 H :    0.090783
  15 F :   -0.038721
  16 O :   -0.254118
  17 O :   -0.308872
  18 H :    0.112301
  19 H :    0.123434
  20 H :    0.099672
  21 H :    0.112369

  Mayer bond orders larger than 0.100000
B(  0-C ,  1-C ) :   0.5116 B(  0-C ,  2-C ) :   0.6751 B(  0-C , 20-H ) :   0.9192
B(  0-C , 21-H ) :   1.0643 B(  1-C ,  7-C ) :   1.2797 B(  1-C ,  8-N ) :   0.1624
B(  1-C ,  9-N ) :   0.1056 B(  1-C , 12-H ) :   1.0789 B(  2-C ,  3-C ) :   0.9928
B(  2-C ,  6-S ) :   0.1256 B(  2-C , 18-H ) :   0.9537 B(  2-C , 19-H ) :   0.9048
B(  3-C ,  4-H ) :   0.8254 B(  3-C ,  5-H ) :   0.8865 B(  3-C ,  6-S ) :   0.8407
B(  6-S , 15-F ) :   0.9669 B(  6-S , 16-O ) :   1.6911 B(  6-S , 17-O ) :   1.5847
B(  7-C ,  8-N ) :   0.8418 B(  7-C ,  9-N ) :   0.9048 B(  7-C , 10-H ) :  -0.1068
B(  7-C , 12-H ) :  -0.1539 B(  8-N , 13-H ) :   1.0077 B(  8-N , 14-H ) :   1.0625
B(  9-N , 10-H ) :   0.8718 B(  9-N , 11-H ) :   1.0518

FINAL SINGLE POINT ENERGY      -955.104206960572

DIPOLE MOMENT
-------------
                                X             Y             Z
Electronic contribution:    -15.29174      -6.69324      -1.12005
Nuclear contribution   :     15.92508       5.34175       1.81950
                        -----------------------------------------
Total Dipole Moment    :      0.63334      -1.35149       0.69945
                        -----------------------------------------
Magnitude (a.u.)       :      1.64829
Magnitude (Debye)      :      4.18963

Rotational constants in cm-1:     0.058561     0.020662     0.017762
Rotational constants in MHz :  1755.621534   619.433801   532.501507

                             ****ORCA TERMINATED NORMALLY****
TOTAL RUN TIME: 0 days 0 hours 5 minutes 1 seconds 189 msec
