                         Program Version 5.0.0 -  RELEASE  -
|  1> !CAM-B3LYP RIJCOSX def2-TZVPD def2/J TightSCF xyzfile
|  2>
|  3> *xyzfile 0 1 D2.xyz
|  4>
|  5> %MaxCore 64000
|  6>
|  7> %pal nprocs 4
|  8> end
|  9>
| 10> %scf
| 11>   MaxIter 150
| 12> end
| 13>
| 14>
| 15>                          ****END OF INPUT****

CARTESIAN COORDINATES (ANGSTROEM)
---------------------------------
  C      3.380928    2.083045   -3.350127
  N      4.535924    1.182447   -3.428518
  C      2.495557    1.816150   -2.136364
  C      1.872181    0.427903   -2.077497
  H      2.614270   -0.365825   -2.198894
  H      1.389953    0.273087   -1.112360
  S      0.579024    0.140472   -3.297943
  C      4.671956    0.122273   -4.220598
  C      5.866023   -0.507849   -4.224284
  N      3.698881   -0.312844   -4.986988
  H      2.731405   -0.050091   -4.849000
  H      3.890046   -1.055172   -5.643730
  H      5.251933    1.303459   -2.721014
  H      6.695165   -0.062322   -3.851596
  H      5.975383   -1.396884   -4.691414
  F      0.228860   -1.246868   -3.127871
  O     -0.439269    1.118966   -3.014550
  O      1.247881    0.403474   -4.595647
  H      1.697003    2.561969   -2.141109
  H      3.080787    1.987436   -1.225838
  H      2.806463    1.986511   -4.268484
  H      3.778714    3.098282   -3.307383

 Total Charge           Charge          ....    0
 Multiplicity           Mult            ....    1
 Number of Electrons    NEL             ....   96
 Basis Dimension        Dim             ....  524

ORBITAL ENERGIES
----------------

  NO   OCC          E(Eh)            E(eV)
   0   2.0000     -89.203823     -2427.3594
   1   2.0000     -24.901788      -677.6121
   2   2.0000     -19.236682      -523.4567
   3   2.0000     -19.229922      -523.2728
   4   2.0000     -14.390204      -391.5774
   5   2.0000     -14.363193      -390.8424
   6   2.0000     -10.316696      -280.7316
   7   2.0000     -10.287458      -279.9360
   8   2.0000     -10.286955      -279.9223
   9   2.0000     -10.281269      -279.7676
  10   2.0000     -10.144246      -276.0390
  11   2.0000      -8.248051      -224.4409
  12   2.0000      -6.215741      -169.1389
  13   2.0000      -6.209616      -168.9723
  14   2.0000      -6.209012      -168.9558
  15   2.0000      -1.491689       -40.5909
  16   2.0000      -1.218033       -33.1444
  17   2.0000      -1.121380       -30.5143
  18   2.0000      -1.046800       -28.4849
  19   2.0000      -0.963895       -26.2289
  20   2.0000      -0.920660       -25.0524
  21   2.0000      -0.854116       -23.2417
  22   2.0000      -0.808183       -21.9918
  23   2.0000      -0.768620       -20.9152
  24   2.0000      -0.716843       -19.5063
  25   2.0000      -0.688544       -18.7362
  26   2.0000      -0.675648       -18.3853
  27   2.0000      -0.672546       -18.3009
  28   2.0000      -0.657975       -17.9044
  29   2.0000      -0.619610       -16.8605
  30   2.0000      -0.582464       -15.8496
  31   2.0000      -0.565157       -15.3787
  32   2.0000      -0.559610       -15.2278
  33   2.0000      -0.552416       -15.0320
  34   2.0000      -0.536439       -14.5972
  35   2.0000      -0.516717       -14.0606
  36   2.0000      -0.487203       -13.2575
  37   2.0000      -0.479397       -13.0451
  38   2.0000      -0.476361       -12.9624
  39   2.0000      -0.456795       -12.4300
  40   2.0000      -0.452259       -12.3066
  41   2.0000      -0.437202       -11.8969
  42   2.0000      -0.425650       -11.5825
  43   2.0000      -0.415360       -11.3025
  44   2.0000      -0.406977       -11.0744
  45   2.0000      -0.394625       -10.7383
  46   2.0000      -0.312668        -8.5081
  47   2.0000      -0.210087        -5.7168
  48   0.0000       0.007751         0.2109
  49   0.0000       0.024556         0.6682
  50   0.0000       0.035794         0.9740
  51   0.0000       0.037172         1.0115
  52   0.0000       0.056866         1.5474

MULLIKEN ATOMIC CHARGES
-----------------------
   0 C :   -0.763278
   1 N :   -0.206399
   2 C :   -0.502350
   3 C :   -0.686578
   4 H :    0.381748
   5 H :    0.360906
   6 S :    1.187227
   7 C :    0.627633
   8 C :   -1.203559
   9 N :   -0.292098
  10 H :    0.278821
  11 H :    0.136690
  12 H :    0.181387
  13 H :    0.248187
  14 H :    0.259656
  15 F :   -0.128023
  16 O :   -0.561043
  17 O :   -0.703071
  18 H :    0.310054
  19 H :    0.320503
  20 H :    0.450790
  21 H :    0.302797
Sum of atomic charges:    0.0000000

LOEWDIN ATOMIC CHARGES
----------------------
   0 C :   -0.178292
   1 N :    0.031191
   2 C :   -0.193388
   3 C :   -0.218331
   4 H :    0.110236
   5 H :    0.106973
   6 S :    0.645466
   7 C :   -0.570462
   8 C :   -0.012029
   9 N :    0.139850
  10 H :    0.007353
  11 H :    0.118486
  12 H :    0.145857
  13 H :   -0.003544
  14 H :   -0.005559
  15 F :   -0.032521
  16 O :   -0.251898
  17 O :   -0.309025
  18 H :    0.117106
  19 H :    0.122942
  20 H :    0.108645
  21 H :    0.120945

  Mayer bond orders larger than 0.100000
B(  0-C ,  1-N ) :   0.8147 B(  0-C ,  2-C ) :   0.7544 B(  0-C ,  7-C ) :  -0.1202
B(  0-C , 20-H ) :   0.8519 B(  0-C , 21-H ) :   0.9647 B(  1-N ,  7-C ) :   1.0841
B(  1-N ,  8-C ) :   0.1503 B(  1-N , 12-H ) :   0.9812 B(  2-C ,  3-C ) :   0.9606
B(  2-C ,  6-S ) :   0.1206 B(  2-C , 18-H ) :   0.9728 B(  2-C , 19-H ) :   0.8940
B(  3-C ,  4-H ) :   0.8286 B(  3-C ,  5-H ) :   0.8898 B(  3-C ,  6-S ) :   0.8476
B(  6-S , 15-F ) :   0.9748 B(  6-S , 16-O ) :   1.6917 B(  6-S , 17-O ) :   1.5836
B(  7-C ,  8-C ) :   1.1047 B(  7-C ,  9-N ) :   1.0251 B(  7-C , 14-H ) :  -0.1149
B(  8-C , 13-H ) :   1.0392 B(  8-C , 14-H ) :   1.0850 B(  9-N , 10-H ) :   0.8259
B(  9-N , 11-H ) :   1.0320

FINAL SINGLE POINT ENERGY      -955.089304093367

DIPOLE MOMENT
-------------
                                X             Y             Z
Electronic contribution:    -16.76883      -5.23348      -0.35370
Nuclear contribution   :     16.05479       5.17692       1.74190
                        -----------------------------------------
Total Dipole Moment    :     -0.71405      -0.05656       1.38819
                        -----------------------------------------
Magnitude (a.u.)       :      1.56210
Magnitude (Debye)      :      3.97053

Rotational constants in cm-1:     0.058652     0.021107     0.018077
Rotational constants in MHz :  1758.344290   632.763813   541.920558

                             ****ORCA TERMINATED NORMALLY****
TOTAL RUN TIME: 0 days 0 hours 5 minutes 6 seconds 554 msec
