                         Program Version 5.0.0 -  RELEASE  -
|  1> !CAM-B3LYP RIJCOSX def2-TZVPD def2/J TightSCF xyzfile
|  2>
|  3> *xyzfile 0 1 D3.xyz
|  4>
|  5> %MaxCore 64000
|  6>
|  7> %pal nprocs 4
|  8> end
|  9>
| 10> %scf
| 11>   MaxIter 150
| 12> end
| 13>
| 14>
| 15>                          ****END OF INPUT****

CARTESIAN COORDINATES (ANGSTROEM)
---------------------------------
  C      3.380928    2.083045   -3.350127
  N      4.535924    1.182447   -3.428518
  C      2.495557    1.816150   -2.136364
  C      1.872181    0.427903   -2.077497
  H      2.614270   -0.365825   -2.198894
  H      1.389953    0.273087   -1.112360
  S      0.579024    0.140472   -3.297943
  C      4.671956    0.122273   -4.220598
  N      5.866023   -0.507849   -4.224284
  C      3.698881   -0.312844   -4.986988
  H      2.731405   -0.050091   -4.849000
  H      3.890046   -1.055172   -5.643730
  H      5.251933    1.303459   -2.721014
  H      6.695165   -0.062322   -3.851596
  H      5.975383   -1.396884   -4.691414
  F      0.228860   -1.246868   -3.127871
  O     -0.439269    1.118966   -3.014550
  O      1.247881    0.403474   -4.595647
  H      1.697003    2.561969   -2.141109
  H      3.080787    1.987436   -1.225838
  H      2.806463    1.986511   -4.268484
  H      3.778714    3.098282   -3.307383

 Total Charge           Charge          ....    0
 Multiplicity           Mult            ....    1
 Number of Electrons    NEL             ....   96
 Basis Dimension        Dim             ....  524

ORBITAL ENERGIES
----------------

  NO   OCC          E(Eh)            E(eV)
   0   2.0000     -89.181668     -2426.7566
   1   2.0000     -24.882958      -677.0997
   2   2.0000     -19.216743      -522.9142
   3   2.0000     -19.200437      -522.4704
   4   2.0000     -14.390864      -391.5953
   5   2.0000     -14.381375      -391.3371
   6   2.0000     -10.302202      -280.3372
   7   2.0000     -10.283175      -279.8194
   8   2.0000     -10.280887      -279.7571
   9   2.0000     -10.272682      -279.5339
  10   2.0000     -10.132798      -275.7275
  11   2.0000      -8.225915      -223.8385
  12   2.0000      -6.193681      -168.5386
  13   2.0000      -6.187199      -168.3623
  14   2.0000      -6.187067      -168.3587
  15   2.0000      -1.472745       -40.0754
  16   2.0000      -1.195626       -32.5346
  17   2.0000      -1.095935       -29.8219
  18   2.0000      -1.045390       -28.4465
  19   2.0000      -0.962546       -26.1922
  20   2.0000      -0.907217       -24.6866
  21   2.0000      -0.835621       -22.7384
  22   2.0000      -0.797841       -21.7103
  23   2.0000      -0.775885       -21.1129
  24   2.0000      -0.721595       -19.6356
  25   2.0000      -0.668902       -18.2017
  26   2.0000      -0.664029       -18.0691
  27   2.0000      -0.648881       -17.6570
  28   2.0000      -0.629161       -17.1203
  29   2.0000      -0.610520       -16.6131
  30   2.0000      -0.588966       -16.0266
  31   2.0000      -0.566400       -15.4125
  32   2.0000      -0.562627       -15.3099
  33   2.0000      -0.527250       -14.3472
  34   2.0000      -0.521740       -14.1973
  35   2.0000      -0.516933       -14.0665
  36   2.0000      -0.476136       -12.9563
  37   2.0000      -0.468384       -12.7454
  38   2.0000      -0.460704       -12.5364
  39   2.0000      -0.450267       -12.2524
  40   2.0000      -0.446466       -12.1489
  41   2.0000      -0.436807       -11.8861
  42   2.0000      -0.417857       -11.3705
  43   2.0000      -0.404191       -10.9986
  44   2.0000      -0.386125       -10.5070
  45   2.0000      -0.349262        -9.5039
  46   2.0000      -0.312753        -8.5104
  47   2.0000      -0.221208        -6.0194
  48   0.0000       0.015347         0.4176
  49   0.0000       0.028036         0.7629
  50   0.0000       0.037426         1.0184
  51   0.0000       0.044167         1.2018
  52   0.0000       0.057760         1.5717

MULLIKEN ATOMIC CHARGES
-----------------------
   0 C :   -0.772768
   1 N :   -0.221248
   2 C :   -0.527990
   3 C :   -0.666334
   4 H :    0.395411
   5 H :    0.359761
   6 S :    1.160856
   7 C :    0.919504
   8 N :   -0.394033
   9 C :   -1.321921
  10 H :    0.306034
  11 H :    0.227235
  12 H :    0.175960
  13 H :    0.146641
  14 H :    0.162167
  15 F :   -0.138029
  16 O :   -0.575124
  17 O :   -0.589599
  18 H :    0.300818
  19 H :    0.315613
  20 H :    0.455320
  21 H :    0.281727
Sum of atomic charges:    0.0000000

LOEWDIN ATOMIC CHARGES
----------------------
   0 C :   -0.173270
   1 N :    0.022526
   2 C :   -0.192853
   3 C :   -0.219580
   4 H :    0.107040
   5 H :    0.104256
   6 S :    0.635557
   7 C :   -0.555834
   8 N :    0.102406
   9 C :    0.018336
  10 H :   -0.057764
  11 H :    0.023898
  12 H :    0.137442
  13 H :    0.092055
  14 H :    0.102175
  15 F :   -0.037254
  16 O :   -0.263049
  17 O :   -0.316528
  18 H :    0.116867
  19 H :    0.119668
  20 H :    0.113038
  21 H :    0.120869

  Mayer bond orders larger than 0.100000
B(  0-C ,  1-N ) :   0.8686 B(  0-C ,  2-C ) :   0.7524 B(  0-C , 20-H ) :   0.8438
B(  0-C , 21-H ) :   0.9702 B(  1-N ,  7-C ) :   1.0048 B(  1-N , 12-H ) :   0.9979
B(  2-C ,  3-C ) :   0.9649 B(  2-C ,  6-S ) :   0.1329 B(  2-C , 18-H ) :   0.9608
B(  2-C , 19-H ) :   0.8985 B(  3-C ,  4-H ) :   0.8380 B(  3-C ,  5-H ) :   0.8992
B(  3-C ,  6-S ) :   0.8191 B(  6-S , 15-F ) :   0.9560 B(  6-S , 16-O ) :   1.6859
B(  6-S , 17-O ) :   1.6563 B(  7-C ,  8-N ) :   0.8781 B(  7-C ,  9-C ) :   0.9015
B(  7-C , 10-H ) :  -0.1189 B(  7-C , 11-H ) :  -0.1943 B(  8-N , 13-H ) :   1.0475
B(  8-N , 14-H ) :   1.0237 B(  9-C , 10-H ) :   1.1804 B(  9-C , 11-H ) :   1.2323
B(  9-C , 17-O ) :   0.1790 B( 10-H , 17-O ) :  -0.4155

FINAL SINGLE POINT ENERGY      -955.073239721580

DIPOLE MOMENT
-------------
                                X             Y             Z
Electronic contribution:    -14.70149      -5.48440       0.06163
Nuclear contribution   :     15.84345       5.19593       1.66752
                        -----------------------------------------
Total Dipole Moment    :      1.14196      -0.28847       1.72915
                        -----------------------------------------
Magnitude (a.u.)       :      2.09219
Magnitude (Debye)      :      5.31792

Rotational constants in cm-1:     0.059060     0.020573     0.017713
Rotational constants in MHz :  1770.576058   616.749938   531.036486

                             ****ORCA TERMINATED NORMALLY****
TOTAL RUN TIME: 0 days 0 hours 5 minutes 3 seconds 968 msec
