                         Program Version 5.0.0 -  RELEASE  -
|  1> !CAM-B3LYP RIJCOSX def2-TZVPD def2/J TightSCF xyzfile
|  2>
|  3> *xyzfile 0 1 D4.xyz
|  4>
|  5> %MaxCore 64000
|  6>
|  7> %pal nprocs 4
|  8> end
|  9>
| 10> %scf
| 11>   MaxIter 150
| 12> end
| 13>
| 14>
| 15>                          ****END OF INPUT****

CARTESIAN COORDINATES (ANGSTROEM)
---------------------------------
  C      3.380928    2.083045   -3.350127
  C      4.535924    1.182447   -3.428518
  C      2.495557    1.816150   -2.136364
  C      1.872181    0.427903   -2.077497
  H      2.614270   -0.365825   -2.198894
  H      1.389953    0.273087   -1.112360
  S      0.579024    0.140472   -3.297943
  C      4.671956    0.122273   -4.220598
  N      5.866023   -0.507849   -4.224284
  N      3.698881   -0.312844   -4.986988
  H      2.731405   -0.050091   -4.849000
  H      3.890046   -1.055172   -5.643730
  H      5.251933    1.303459   -2.721014
  H      6.695165   -0.062322   -3.851596
  H      5.975383   -1.396884   -4.691414
  O      0.228860   -1.246868   -3.127871
  F     -0.439269    1.118966   -3.014550
  O      1.247881    0.403474   -4.595647
  H      1.697003    2.561969   -2.141109
  H      3.080787    1.987436   -1.225838
  H      2.806463    1.986511   -4.268484
  H      3.778714    3.098282   -3.307383

 Total Charge           Charge          ....    0
 Multiplicity           Mult            ....    1
 Number of Electrons    NEL             ....   96
 Basis Dimension        Dim             ....  524

ORBITAL ENERGIES
----------------

  NO   OCC          E(Eh)            E(eV)
   0   2.0000     -89.190314     -2426.9918
   1   2.0000     -24.890026      -677.2920
   2   2.0000     -19.224239      -523.1181
   3   2.0000     -19.217282      -522.9288
   4   2.0000     -14.381997      -391.3540
   5   2.0000     -14.364951      -390.8902
   6   2.0000     -10.297219      -280.2016
   7   2.0000     -10.287086      -279.9258
   8   2.0000     -10.255810      -279.0748
   9   2.0000     -10.221473      -278.1404
  10   2.0000     -10.163760      -276.5700
  11   2.0000      -8.234585      -224.0744
  12   2.0000      -6.202423      -168.7765
  13   2.0000      -6.196160      -168.6061
  14   2.0000      -6.195348      -168.5840
  15   2.0000      -1.480130       -40.2764
  16   2.0000      -1.204837       -32.7853
  17   2.0000      -1.109016       -30.1779
  18   2.0000      -1.035498       -28.1773
  19   2.0000      -0.941073       -25.6079
  20   2.0000      -0.912417       -24.8281
  21   2.0000      -0.845676       -23.0120
  22   2.0000      -0.807713       -21.9790
  23   2.0000      -0.763804       -20.7842
  24   2.0000      -0.704979       -19.1835
  25   2.0000      -0.681528       -18.5453
  26   2.0000      -0.671495       -18.2723
  27   2.0000      -0.656884       -17.8747
  28   2.0000      -0.624134       -16.9836
  29   2.0000      -0.605796       -16.4846
  30   2.0000      -0.587309       -15.9815
  31   2.0000      -0.559607       -15.2277
  32   2.0000      -0.553532       -15.0624
  33   2.0000      -0.547316       -14.8932
  34   2.0000      -0.524555       -14.2739
  35   2.0000      -0.510924       -13.9030
  36   2.0000      -0.480199       -13.0669
  37   2.0000      -0.471195       -12.8219
  38   2.0000      -0.469796       -12.7838
  39   2.0000      -0.448698       -12.2097
  40   2.0000      -0.426954       -11.6180
  41   2.0000      -0.416656       -11.3378
  42   2.0000      -0.409179       -11.1343
  43   2.0000      -0.401299       -10.9199
  44   2.0000      -0.393665       -10.7122
  45   2.0000      -0.374623       -10.1940
  46   2.0000      -0.319514        -8.6944
  47   2.0000      -0.216302        -5.8859
  48   0.0000       0.015641         0.4256
  49   0.0000       0.032967         0.8971
  50   0.0000       0.037770         1.0278
  51   0.0000       0.044890         1.2215
  52   0.0000       0.058847         1.6013

MULLIKEN ATOMIC CHARGES
-----------------------
   0 C :   -0.609271
   1 C :   -0.798838
   2 C :   -0.512962
   3 C :   -0.664784
   4 H :    0.366652
   5 H :    0.361398
   6 S :    1.164713
   7 C :    0.594405
   8 N :   -0.385546
   9 N :   -0.276938
  10 H :    0.206160
  11 H :    0.132988
  12 H :    0.266957
  13 H :    0.171449
  14 H :    0.144926
  15 O :   -0.574408
  16 F :   -0.122316
  17 O :   -0.699209
  18 H :    0.249026
  19 H :    0.335139
  20 H :    0.386473
  21 H :    0.263986
Sum of atomic charges:   -0.0000000

LOEWDIN ATOMIC CHARGES
----------------------
   0 C :   -0.228951
   1 C :   -0.135679
   2 C :   -0.220491
   3 C :   -0.215261
   4 H :    0.117304
   5 H :    0.105114
   6 S :    0.641845
   7 C :   -0.538667
   8 N :    0.105626
   9 N :    0.149808
  10 H :    0.018262
  11 H :    0.109607
  12 H :    0.066969
  13 H :    0.104416
  14 H :    0.092131
  15 O :   -0.260183
  16 F :   -0.033151
  17 O :   -0.313806
  18 H :    0.106292
  19 H :    0.121043
  20 H :    0.096725
  21 H :    0.111047

  Mayer bond orders larger than 0.100000
B(  0-C ,  1-C ) :   0.5337 B(  0-C ,  2-C ) :   0.6959 B(  0-C , 20-H ) :   0.9145
B(  0-C , 21-H ) :   1.0750 B(  1-C ,  7-C ) :   1.2717 B(  1-C ,  8-N ) :   0.1603
B(  1-C ,  9-N ) :   0.1081 B(  1-C , 12-H ) :   1.0789 B(  2-C ,  3-C ) :   0.9073
B(  2-C , 18-H ) :   0.9396 B(  2-C , 19-H ) :   0.9230 B(  3-C ,  4-H ) :   0.8736
B(  3-C ,  5-H ) :   0.9072 B(  3-C ,  6-S ) :   0.8440 B(  6-S , 15-O ) :   1.6696
B(  6-S , 16-F ) :   1.0129 B(  6-S , 17-O ) :   1.5835 B(  7-C ,  8-N ) :   0.8466
B(  7-C ,  9-N ) :   0.9079 B(  7-C , 10-H ) :  -0.1116 B(  7-C , 12-H ) :  -0.1534
B(  8-N , 13-H ) :   1.0074 B(  8-N , 14-H ) :   1.0606 B(  9-N , 10-H ) :   0.8724
B(  9-N , 11-H ) :   1.0468

FINAL SINGLE POINT ENERGY      -955.104596179513

DIPOLE MOMENT
-------------
                                X             Y             Z
Electronic contribution:    -16.41195      -2.63340      -0.94520
Nuclear contribution   :     16.65743       2.74852       1.69529
                        -----------------------------------------
Total Dipole Moment    :      0.24547       0.11512       0.75009
                        -----------------------------------------
Magnitude (a.u.)       :      0.79759
Magnitude (Debye)      :      2.02730

Rotational constants in cm-1:     0.059907     0.020458     0.017675
Rotational constants in MHz :  1795.978106   613.328205   529.885290

                             ****ORCA TERMINATED NORMALLY****
TOTAL RUN TIME: 0 days 0 hours 5 minutes 0 seconds 972 msec
