                         Program Version 5.0.0 -  RELEASE  -
|  1> !CAM-B3LYP RIJCOSX def2-TZVPD def2/J TightSCF xyzfile
|  2>
|  3> *xyzfile 0 1 D5.xyz
|  4>
|  5> %MaxCore 64000
|  6>
|  7> %pal nprocs 4
|  8> end
|  9>
| 10> %scf
| 11>   MaxIter 150
| 12> end
| 13>
| 14>
| 15>                          ****END OF INPUT****

CARTESIAN COORDINATES (ANGSTROEM)
---------------------------------
  C      3.380928    2.083045   -3.350127
  N      4.535924    1.182447   -3.428518
  C      2.495557    1.816150   -2.136364
  C      1.872181    0.427903   -2.077497
  H      2.614270   -0.365825   -2.198894
  H      1.389953    0.273087   -1.112360
  S      0.579024    0.140472   -3.297943
  C      4.671956    0.122273   -4.220598
  C      5.866023   -0.507849   -4.224284
  N      3.698881   -0.312844   -4.986988
  H      2.731405   -0.050091   -4.849000
  H      3.890046   -1.055172   -5.643730
  H      5.251933    1.303459   -2.721014
  H      6.695165   -0.062322   -3.851596
  H      5.975383   -1.396884   -4.691414
  O      0.228860   -1.246868   -3.127871
  F     -0.439269    1.118966   -3.014550
  O      1.247881    0.403474   -4.595647
  H      1.697003    2.561969   -2.141109
  H      3.080787    1.987436   -1.225838
  H      2.806463    1.986511   -4.268484
  H      3.778714    3.098282   -3.307383

 Total Charge           Charge          ....    0
 Multiplicity           Mult            ....    1
 Number of Electrons    NEL             ....   96
 Basis Dimension        Dim             ....  524

ORBITAL ENERGIES
----------------

  NO   OCC          E(Eh)            E(eV)
   0   2.0000     -89.203448     -2427.3492
   1   2.0000     -24.902679      -677.6363
   2   2.0000     -19.235850      -523.4341
   3   2.0000     -19.229681      -523.2662
   4   2.0000     -14.390955      -391.5978
   5   2.0000     -14.361763      -390.8034
   6   2.0000     -10.316382      -280.7230
   7   2.0000     -10.289728      -279.9977
   8   2.0000     -10.285906      -279.8937
   9   2.0000     -10.283849      -279.8378
  10   2.0000     -10.143024      -276.0057
  11   2.0000      -8.247619      -224.4291
  12   2.0000      -6.215431      -169.1305
  13   2.0000      -6.209183      -168.9605
  14   2.0000      -6.208472      -168.9411
  15   2.0000      -1.492843       -40.6223
  16   2.0000      -1.216750       -33.1095
  17   2.0000      -1.120960       -30.5029
  18   2.0000      -1.046518       -28.4772
  19   2.0000      -0.963733       -26.2245
  20   2.0000      -0.922784       -25.1102
  21   2.0000      -0.851896       -23.1813
  22   2.0000      -0.809650       -22.0317
  23   2.0000      -0.769686       -20.9442
  24   2.0000      -0.715765       -19.4770
  25   2.0000      -0.691221       -18.8091
  26   2.0000      -0.688470       -18.7342
  27   2.0000      -0.670681       -18.2502
  28   2.0000      -0.649843       -17.6831
  29   2.0000      -0.614741       -16.7280
  30   2.0000      -0.581962       -15.8360
  31   2.0000      -0.570468       -15.5232
  32   2.0000      -0.559774       -15.2322
  33   2.0000      -0.551323       -15.0022
  34   2.0000      -0.532872       -14.5002
  35   2.0000      -0.521301       -14.1853
  36   2.0000      -0.490575       -13.3492
  37   2.0000      -0.483030       -13.1439
  38   2.0000      -0.476806       -12.9745
  39   2.0000      -0.460036       -12.5182
  40   2.0000      -0.451108       -12.2753
  41   2.0000      -0.433718       -11.8021
  42   2.0000      -0.421574       -11.4716
  43   2.0000      -0.410585       -11.1726
  44   2.0000      -0.406882       -11.0718
  45   2.0000      -0.400696       -10.9035
  46   2.0000      -0.312094        -8.4925
  47   2.0000      -0.208931        -5.6853
  48   0.0000       0.004518         0.1229
  49   0.0000       0.026633         0.7247
  50   0.0000       0.033114         0.9011
  51   0.0000       0.037492         1.0202
  52   0.0000       0.054547         1.4843

MULLIKEN ATOMIC CHARGES
-----------------------
   0 C :   -0.751651
   1 N :   -0.215134
   2 C :   -0.455276
   3 C :   -0.670892
   4 H :    0.349654
   5 H :    0.364675
   6 S :    1.177462
   7 C :    0.637680
   8 C :   -1.211934
   9 N :   -0.280720
  10 H :    0.247553
  11 H :    0.137227
  12 H :    0.183573
  13 H :    0.249369
  14 H :    0.261020
  15 O :   -0.567314
  16 F :   -0.124087
  17 O :   -0.698092
  18 H :    0.302352
  19 H :    0.313384
  20 H :    0.447182
  21 H :    0.303969
Sum of atomic charges:   -0.0000000

LOEWDIN ATOMIC CHARGES
----------------------
   0 C :   -0.183530
   1 N :    0.031579
   2 C :   -0.204043
   3 C :   -0.211999
   4 H :    0.120623
   5 H :    0.107380
   6 S :    0.641856
   7 C :   -0.568338
   8 C :   -0.010623
   9 N :    0.145195
  10 H :    0.012832
  11 H :    0.120675
  12 H :    0.145922
  13 H :   -0.003498
  14 H :   -0.004326
  15 O :   -0.251987
  16 F :   -0.031860
  17 O :   -0.313455
  18 H :    0.111484
  19 H :    0.120667
  20 H :    0.105641
  21 H :    0.119804

  Mayer bond orders larger than 0.100000
B(  0-C ,  1-N ) :   0.8239 B(  0-C ,  2-C ) :   0.7736 B(  0-C ,  7-C ) :  -0.1152
B(  0-C , 20-H ) :   0.8569 B(  0-C , 21-H ) :   0.9671 B(  1-N ,  7-C ) :   1.0737
B(  1-N ,  8-C ) :   0.1513 B(  1-N , 12-H ) :   0.9819 B(  2-C ,  3-C ) :   0.8729
B(  2-C , 18-H ) :   0.9664 B(  2-C , 19-H ) :   0.9099 B(  3-C ,  4-H ) :   0.8703
B(  3-C ,  5-H ) :   0.9124 B(  3-C ,  6-S ) :   0.8567 B(  6-S , 15-O ) :   1.6770
B(  6-S , 16-F ) :   1.0148 B(  6-S , 17-O ) :   1.5796 B(  7-C ,  8-C ) :   1.0975
B(  7-C ,  9-N ) :   1.0264 B(  7-C , 14-H ) :  -0.1139 B(  8-C , 13-H ) :   1.0407
B(  8-C , 14-H ) :   1.0828 B(  9-N , 10-H ) :   0.8248 B(  9-N , 11-H ) :   1.0266

FINAL SINGLE POINT ENERGY      -955.088253062721

DIPOLE MOMENT
-------------
                                X             Y             Z
Electronic contribution:    -17.89318      -1.16853      -0.16473
Nuclear contribution   :     16.78714       2.58368       1.61768
                        -----------------------------------------
Total Dipole Moment    :     -1.10604       1.41515       1.45295
                        -----------------------------------------
Magnitude (a.u.)       :      2.31021
Magnitude (Debye)      :      5.87207

Rotational constants in cm-1:     0.059928     0.020911     0.017993
Rotational constants in MHz :  1796.610847   626.896941   539.414615

                             ****ORCA TERMINATED NORMALLY****
TOTAL RUN TIME: 0 days 0 hours 4 minutes 59 seconds 263 msec
