                         Program Version 5.0.0 -  RELEASE  -
|  1> !CAM-B3LYP RIJCOSX def2-TZVPD def2/J TightSCF xyzfile
|  2>
|  3> *xyzfile 0 1 D6.xyz
|  4>
|  5> %MaxCore 64000
|  6>
|  7> %pal nprocs 4
|  8> end
|  9>
| 10> %scf
| 11>   MaxIter 150
| 12> end
| 13>
| 14>
| 15>                          ****END OF INPUT****

CARTESIAN COORDINATES (ANGSTROEM)
---------------------------------
  C      3.380928    2.083045   -3.350127
  N      4.535924    1.182447   -3.428518
  C      2.495557    1.816150   -2.136364
  C      1.872181    0.427903   -2.077497
  H      2.614270   -0.365825   -2.198894
  H      1.389953    0.273087   -1.112360
  S      0.579024    0.140472   -3.297943
  C      4.671956    0.122273   -4.220598
  N      5.866023   -0.507849   -4.224284
  C      3.698881   -0.312844   -4.986988
  H      2.731405   -0.050091   -4.849000
  H      3.890046   -1.055172   -5.643730
  H      5.251933    1.303459   -2.721014
  H      6.695165   -0.062322   -3.851596
  H      5.975383   -1.396884   -4.691414
  O      0.228860   -1.246868   -3.127871
  F     -0.439269    1.118966   -3.014550
  O      1.247881    0.403474   -4.595647
  H      1.697003    2.561969   -2.141109
  H      3.080787    1.987436   -1.225838
  H      2.806463    1.986511   -4.268484
  H      3.778714    3.098282   -3.307383

 Total Charge           Charge          ....    0
 Multiplicity           Mult            ....    1
 Number of Electrons    NEL             ....   96
 Basis Dimension        Dim             ....  524

ORBITAL ENERGIES
----------------

  NO   OCC          E(Eh)            E(eV)
   0   2.0000     -89.180699     -2426.7302
   1   2.0000     -24.882988      -677.1005
   2   2.0000     -19.216146      -522.8979
   3   2.0000     -19.201982      -522.5125
   4   2.0000     -14.391139      -391.6028
   5   2.0000     -14.379671      -391.2907
   6   2.0000     -10.302028      -280.3324
   7   2.0000     -10.283102      -279.8174
   8   2.0000     -10.281438      -279.7722
   9   2.0000     -10.275371      -279.6071
  10   2.0000     -10.132148      -275.7098
  11   2.0000      -8.224996      -223.8135
  12   2.0000      -6.192915      -168.5178
  13   2.0000      -6.186233      -168.3360
  14   2.0000      -6.186053      -168.3311
  15   2.0000      -1.473526       -40.0967
  16   2.0000      -1.194269       -32.4977
  17   2.0000      -1.096241       -29.8302
  18   2.0000      -1.044844       -28.4316
  19   2.0000      -0.962203       -26.1829
  20   2.0000      -0.909909       -24.7599
  21   2.0000      -0.832615       -22.6566
  22   2.0000      -0.799257       -21.7489
  23   2.0000      -0.776184       -21.1210
  24   2.0000      -0.721930       -19.6447
  25   2.0000      -0.676910       -18.4196
  26   2.0000      -0.669035       -18.2054
  27   2.0000      -0.643536       -17.5115
  28   2.0000      -0.628019       -17.0893
  29   2.0000      -0.606658       -16.5080
  30   2.0000      -0.587276       -15.9806
  31   2.0000      -0.566770       -15.4226
  32   2.0000      -0.558777       -15.2051
  33   2.0000      -0.535331       -14.5671
  34   2.0000      -0.521463       -14.1897
  35   2.0000      -0.513683       -13.9780
  36   2.0000      -0.486331       -13.2337
  37   2.0000      -0.468957       -12.7610
  38   2.0000      -0.462426       -12.5832
  39   2.0000      -0.454280       -12.3616
  40   2.0000      -0.443605       -12.0711
  41   2.0000      -0.435200       -11.8424
  42   2.0000      -0.419225       -11.4077
  43   2.0000      -0.391428       -10.6513
  44   2.0000      -0.378627       -10.3030
  45   2.0000      -0.363153        -9.8819
  46   2.0000      -0.312485        -8.5032
  47   2.0000      -0.219536        -5.9739
  48   0.0000       0.012398         0.3374
  49   0.0000       0.028682         0.7805
  50   0.0000       0.039222         1.0673
  51   0.0000       0.040305         1.0968
  52   0.0000       0.059037         1.6065

MULLIKEN ATOMIC CHARGES
-----------------------
   0 C :   -0.761191
   1 N :   -0.229385
   2 C :   -0.475584
   3 C :   -0.638352
   4 H :    0.352961
   5 H :    0.355196
   6 S :    1.150815
   7 C :    0.909085
   8 N :   -0.394688
   9 C :   -1.241075
  10 H :    0.212561
  11 H :    0.232573
  12 H :    0.176570
  13 H :    0.145359
  14 H :    0.162666
  15 O :   -0.583945
  16 F :   -0.131659
  17 O :   -0.576908
  18 H :    0.292001
  19 H :    0.309076
  20 H :    0.451095
  21 H :    0.282828
Sum of atomic charges:   -0.0000000

LOEWDIN ATOMIC CHARGES
----------------------
   0 C :   -0.178604
   1 N :    0.022279
   2 C :   -0.203335
   3 C :   -0.213102
   4 H :    0.117552
   5 H :    0.104740
   6 S :    0.631288
   7 C :   -0.554106
   8 N :    0.102782
   9 C :    0.025361
  10 H :   -0.051969
  11 H :    0.026705
  12 H :    0.137341
  13 H :    0.091745
  14 H :    0.102921
  15 O :   -0.259860
  16 F :   -0.040642
  17 O :   -0.319642
  18 H :    0.111314
  19 H :    0.117489
  20 H :    0.110007
  21 H :    0.119736

  Mayer bond orders larger than 0.100000
B(  0-C ,  1-N ) :   0.8776 B(  0-C ,  2-C ) :   0.7725 B(  0-C , 20-H ) :   0.8496
B(  0-C , 21-H ) :   0.9721 B(  1-N ,  7-C ) :   0.9899 B(  1-N , 12-H ) :   1.0000
B(  2-C ,  3-C ) :   0.8819 B(  2-C ,  6-S ) :   0.1012 B(  2-C , 18-H ) :   0.9544
B(  2-C , 19-H ) :   0.9134 B(  3-C ,  4-H ) :   0.8862 B(  3-C ,  5-H ) :   0.9271
B(  3-C ,  6-S ) :   0.8241 B(  3-C , 15-O ) :   0.1060 B(  6-S , 15-O ) :   1.6473
B(  6-S , 16-F ) :   1.0120 B(  6-S , 17-O ) :   1.6364 B(  7-C ,  8-N ) :   0.8723
B(  7-C ,  9-C ) :   0.9073 B(  7-C , 10-H ) :  -0.1315 B(  7-C , 11-H ) :  -0.1876
B(  8-N , 13-H ) :   1.0489 B(  8-N , 14-H ) :   1.0239 B(  9-C , 10-H ) :   1.1829
B(  9-C , 11-H ) :   1.2024 B( 10-H , 17-O ) :  -0.2881

FINAL SINGLE POINT ENERGY      -955.072765534439

DIPOLE MOMENT
-------------
                                X             Y             Z
Electronic contribution:    -15.84107      -1.40968       0.24844
Nuclear contribution   :     16.57580       2.60270       1.54331
                        -----------------------------------------
Total Dipole Moment    :      0.73473       1.19302       1.79175
                        -----------------------------------------
Magnitude (a.u.)       :      2.27453
Magnitude (Debye)      :      5.78140

Rotational constants in cm-1:     0.060402     0.020377     0.017632
Rotational constants in MHz :  1810.792194   610.900365   528.582827

                             ****ORCA TERMINATED NORMALLY****
TOTAL RUN TIME: 0 days 0 hours 5 minutes 23 seconds 982 msec
