                         Program Version 5.0.0 -  RELEASE  -
|  1> !CAM-B3LYP RIJCOSX def2-TZVPD def2/J TightSCF xyzfile
|  2>
|  3> *xyzfile 0 1 D7.xyz
|  4>
|  5> %MaxCore 64000
|  6>
|  7> %pal nprocs 4
|  8> end
|  9>
| 10> %scf
| 11>   MaxIter 150
| 12> end
| 13>
| 14>
| 15>                          ****END OF INPUT****

CARTESIAN COORDINATES (ANGSTROEM)
---------------------------------
  C      3.380928    2.083045   -3.350127
  C      4.535924    1.182447   -3.428518
  C      2.495557    1.816150   -2.136364
  C      1.872181    0.427903   -2.077497
  H      2.614270   -0.365825   -2.198894
  H      1.389953    0.273087   -1.112360
  S      0.579024    0.140472   -3.297943
  C      4.671956    0.122273   -4.220598
  N      5.866023   -0.507849   -4.224284
  N      3.698881   -0.312844   -4.986988
  H      2.731405   -0.050091   -4.849000
  H      3.890046   -1.055172   -5.643730
  H      5.251933    1.303459   -2.721014
  H      6.695165   -0.062322   -3.851596
  H      5.975383   -1.396884   -4.691414
  O      0.228860   -1.246868   -3.127871
  O     -0.439269    1.118966   -3.014550
  F      1.247881    0.403474   -4.595647
  H      1.697003    2.561969   -2.141109
  H      3.080787    1.987436   -1.225838
  H      2.806463    1.986511   -4.268484
  H      3.778714    3.098282   -3.307383

 Total Charge           Charge          ....    0
 Multiplicity           Mult            ....    1
 Number of Electrons    NEL             ....   96
 Basis Dimension        Dim             ....  524

ORBITAL ENERGIES
----------------

  NO   OCC          E(Eh)            E(eV)
   0   2.0000     -89.179827     -2426.7065
   1   2.0000     -24.877094      -676.9401
   2   2.0000     -19.218746      -522.9687
   3   2.0000     -19.218047      -522.9497
   4   2.0000     -14.395629      -391.7250
   5   2.0000     -14.395299      -391.7160
   6   2.0000     -10.303355      -280.3685
   7   2.0000     -10.293736      -280.1068
   8   2.0000     -10.255305      -279.0610
   9   2.0000     -10.236382      -278.5461
  10   2.0000     -10.179106      -276.9876
  11   2.0000      -8.224551      -223.8014
  12   2.0000      -6.192922      -168.5180
  13   2.0000      -6.185503      -168.3161
  14   2.0000      -6.185334      -168.3115
  15   2.0000      -1.458428       -39.6859
  16   2.0000      -1.206802       -32.8387
  17   2.0000      -1.113369       -30.2963
  18   2.0000      -1.056023       -28.7358
  19   2.0000      -0.961935       -26.1756
  20   2.0000      -0.913362       -24.8538
  21   2.0000      -0.849818       -23.1247
  22   2.0000      -0.812181       -22.1006
  23   2.0000      -0.768548       -20.9133
  24   2.0000      -0.723577       -19.6895
  25   2.0000      -0.676029       -18.3957
  26   2.0000      -0.666007       -18.1230
  27   2.0000      -0.650367       -17.6974
  28   2.0000      -0.627209       -17.0672
  29   2.0000      -0.621519       -16.9124
  30   2.0000      -0.587847       -15.9961
  31   2.0000      -0.565762       -15.3952
  32   2.0000      -0.550649       -14.9839
  33   2.0000      -0.544405       -14.8140
  34   2.0000      -0.531782       -14.4705
  35   2.0000      -0.525635       -14.3033
  36   2.0000      -0.483549       -13.1580
  37   2.0000      -0.479075       -13.0363
  38   2.0000      -0.477566       -12.9952
  39   2.0000      -0.457979       -12.4622
  40   2.0000      -0.431941       -11.7537
  41   2.0000      -0.420131       -11.4323
  42   2.0000      -0.412225       -11.2172
  43   2.0000      -0.405168       -11.0252
  44   2.0000      -0.396740       -10.7958
  45   2.0000      -0.389242       -10.5918
  46   2.0000      -0.339903        -9.2492
  47   2.0000      -0.231620        -6.3027
  48   0.0000       0.018356         0.4995
  49   0.0000       0.032177         0.8756
  50   0.0000       0.036193         0.9849
  51   0.0000       0.045262         1.2316
  52   0.0000       0.059071         1.6074

MULLIKEN ATOMIC CHARGES
-----------------------
   0 C :   -0.592972
   1 C :   -0.741100
   2 C :   -0.563026
   3 C :   -0.626346
   4 H :    0.357700
   5 H :    0.357646
   6 S :    1.131777
   7 C :    0.599149
   8 N :   -0.390187
   9 N :   -0.322354
  10 H :    0.269599
  11 H :    0.139819
  12 H :    0.271772
  13 H :    0.174876
  14 H :    0.146224
  15 O :   -0.575966
  16 O :   -0.560943
  17 F :   -0.283493
  18 H :    0.260401
  19 H :    0.352642
  20 H :    0.338495
  21 H :    0.256285
Sum of atomic charges:   -0.0000000

LOEWDIN ATOMIC CHARGES
----------------------
   0 C :   -0.224442
   1 C :   -0.130958
   2 C :   -0.219583
   3 C :   -0.217515
   4 H :    0.108063
   5 H :    0.115117
   6 S :    0.610029
   7 C :   -0.537185
   8 N :    0.109129
   9 N :    0.149908
  10 H :    0.045488
  11 H :    0.112851
  12 H :    0.071609
  13 H :    0.107418
  14 H :    0.093898
  15 O :   -0.266102
  16 O :   -0.258080
  17 F :   -0.114010
  18 H :    0.110206
  19 H :    0.122040
  20 H :    0.097909
  21 H :    0.114212

  Mayer bond orders larger than 0.100000
B(  0-C ,  1-C ) :   0.5238 B(  0-C ,  2-C ) :   0.6661 B(  0-C , 12-H ) :  -0.1036
B(  0-C , 20-H ) :   0.9152 B(  0-C , 21-H ) :   1.0779 B(  1-C ,  7-C ) :   1.2881
B(  1-C ,  8-N ) :   0.1619 B(  1-C ,  9-N ) :   0.1085 B(  1-C , 12-H ) :   1.0674
B(  2-C ,  3-C ) :   0.9609 B(  2-C ,  6-S ) :   0.1093 B(  2-C , 18-H ) :   0.9909
B(  2-C , 19-H ) :   0.8961 B(  3-C ,  4-H ) :   0.9099 B(  3-C ,  5-H ) :   0.8860
B(  3-C ,  6-S ) :   0.8185 B(  6-S , 15-O ) :   1.6509 B(  6-S , 16-O ) :   1.6669
B(  6-S , 17-F ) :   0.9942 B(  7-C ,  8-N ) :   0.8395 B(  7-C ,  9-N ) :   0.8881
B(  7-C , 10-H ) :  -0.1042 B(  7-C , 12-H ) :  -0.1466 B(  8-N , 13-H ) :   1.0063
B(  8-N , 14-H ) :   1.0603 B(  9-N , 10-H ) :   0.8759 B(  9-N , 11-H ) :   1.0501

FINAL SINGLE POINT ENERGY      -955.110727857034

DIPOLE MOMENT
-------------
                                X             Y             Z
Electronic contribution:    -13.19543      -3.82519      -3.64050
Nuclear contribution   :     14.80811       3.53278       3.42836
                        -----------------------------------------
Total Dipole Moment    :      1.61268      -0.29240      -0.21215
                        -----------------------------------------
Magnitude (a.u.)       :      1.65265
Magnitude (Debye)      :      4.20069

Rotational constants in cm-1:     0.059173     0.020923     0.018056
Rotational constants in MHz :  1773.956621   627.264018   541.303397

                             ****ORCA TERMINATED NORMALLY****
TOTAL RUN TIME: 0 days 0 hours 4 minutes 58 seconds 886 msec
