                         Program Version 5.0.0 -  RELEASE  -
|  1> !CAM-B3LYP RIJCOSX def2-TZVPD def2/J TightSCF xyzfile
|  2>
|  3> *xyzfile 0 1 D8.xyz
|  4>
|  5> %MaxCore 64000
|  6>
|  7> %pal nprocs 4
|  8> end
|  9>
| 10> %scf
| 11>   MaxIter 150
| 12> end
| 13>
| 14>
| 15>                          ****END OF INPUT****

CARTESIAN COORDINATES (ANGSTROEM)
---------------------------------
  C      3.380928    2.083045   -3.350127
  N      4.535924    1.182447   -3.428518
  C      2.495557    1.816150   -2.136364
  C      1.872181    0.427903   -2.077497
  H      2.614270   -0.365825   -2.198894
  H      1.389953    0.273087   -1.112360
  S      0.579024    0.140472   -3.297943
  C      4.671956    0.122273   -4.220598
  C      5.866023   -0.507849   -4.224284
  N      3.698881   -0.312844   -4.986988
  H      2.731405   -0.050091   -4.849000
  H      3.890046   -1.055172   -5.643730
  H      5.251933    1.303459   -2.721014
  H      6.695165   -0.062322   -3.851596
  H      5.975383   -1.396884   -4.691414
  O      0.228860   -1.246868   -3.127871
  O     -0.439269    1.118966   -3.014550
  F      1.247881    0.403474   -4.595647
  H      1.697003    2.561969   -2.141109
  H      3.080787    1.987436   -1.225838
  H      2.806463    1.986511   -4.268484
  H      3.778714    3.098282   -3.307383

 Total Charge           Charge          ....    0
 Multiplicity           Mult            ....    1
 Number of Electrons    NEL             ....   96
 Basis Dimension        Dim             ....  524

ORBITAL ENERGIES
----------------

  NO   OCC          E(Eh)            E(eV)
   0   2.0000     -89.192826     -2427.0602
   1   2.0000     -24.888554      -677.2520
   2   2.0000     -19.230691      -523.2937
   3   2.0000     -19.229857      -523.2710
   4   2.0000     -14.403764      -391.9463
   5   2.0000     -14.392881      -391.6502
   6   2.0000     -10.312170      -280.6084
   7   2.0000     -10.303481      -280.3720
   8   2.0000     -10.303359      -280.3687
   9   2.0000     -10.282244      -279.7941
  10   2.0000     -10.159420      -276.4519
  11   2.0000      -8.237421      -224.1516
  12   2.0000      -6.205755      -168.8672
  13   2.0000      -6.198529      -168.6706
  14   2.0000      -6.198142      -168.6600
  15   2.0000      -1.470092       -40.0032
  16   2.0000      -1.218675       -33.1618
  17   2.0000      -1.125092       -30.6153
  18   2.0000      -1.065383       -28.9905
  19   2.0000      -0.983620       -26.7657
  20   2.0000      -0.923551       -25.1311
  21   2.0000      -0.855340       -23.2750
  22   2.0000      -0.807401       -21.9705
  23   2.0000      -0.784915       -21.3586
  24   2.0000      -0.723523       -19.6881
  25   2.0000      -0.692832       -18.8529
  26   2.0000      -0.687870       -18.7179
  27   2.0000      -0.672340       -18.2953
  28   2.0000      -0.639372       -17.3982
  29   2.0000      -0.611686       -16.6448
  30   2.0000      -0.590305       -16.0630
  31   2.0000      -0.570859       -15.5339
  32   2.0000      -0.564250       -15.3540
  33   2.0000      -0.557135       -15.1604
  34   2.0000      -0.542397       -14.7594
  35   2.0000      -0.530173       -14.4267
  36   2.0000      -0.500068       -13.6075
  37   2.0000      -0.479907       -13.0589
  38   2.0000      -0.478737       -13.0271
  39   2.0000      -0.463353       -12.6085
  40   2.0000      -0.456020       -12.4089
  41   2.0000      -0.447935       -12.1889
  42   2.0000      -0.431319       -11.7368
  43   2.0000      -0.424331       -11.5466
  44   2.0000      -0.410683       -11.1753
  45   2.0000      -0.404941       -11.0190
  46   2.0000      -0.331244        -9.0136
  47   2.0000      -0.225579        -6.1383
  48   0.0000       0.012817         0.3488
  49   0.0000       0.026805         0.7294
  50   0.0000       0.034141         0.9290
  51   0.0000       0.036290         0.9875
  52   0.0000       0.059087         1.6079

MULLIKEN ATOMIC CHARGES
-----------------------
   0 C :   -0.755771
   1 N :   -0.193204
   2 C :   -0.479870
   3 C :   -0.629628
   4 H :    0.338845
   5 H :    0.357911
   6 S :    1.145055
   7 C :    0.695128
   8 C :   -1.224624
   9 N :   -0.324893
  10 H :    0.308094
  11 H :    0.143693
  12 H :    0.183856
  13 H :    0.252799
  14 H :    0.262769
  15 O :   -0.569106
  16 O :   -0.560138
  17 F :   -0.289894
  18 H :    0.312330
  19 H :    0.326248
  20 H :    0.404211
  21 H :    0.296190
Sum of atomic charges:   -0.0000000

LOEWDIN ATOMIC CHARGES
----------------------
   0 C :   -0.180687
   1 N :    0.032110
   2 C :   -0.204500
   3 C :   -0.215240
   4 H :    0.110863
   5 H :    0.117116
   6 S :    0.610732
   7 C :   -0.565078
   8 C :   -0.000975
   9 N :    0.145207
  10 H :    0.039583
  11 H :    0.123659
  12 H :    0.148950
  13 H :    0.002061
  14 H :   -0.000661
  15 O :   -0.258219
  16 O :   -0.255968
  17 F :   -0.114699
  18 H :    0.114806
  19 H :    0.121464
  20 H :    0.107258
  21 H :    0.122219

  Mayer bond orders larger than 0.100000
B(  0-C ,  1-N ) :   0.8303 B(  0-C ,  2-C ) :   0.7278 B(  0-C ,  7-C ) :  -0.1226
B(  0-C , 20-H ) :   0.8488 B(  0-C , 21-H ) :   0.9889 B(  1-N ,  7-C ) :   1.0711
B(  1-N ,  8-C ) :   0.1521 B(  1-N , 12-H ) :   0.9773 B(  2-C ,  3-C ) :   0.9174
B(  2-C ,  6-S ) :   0.1013 B(  2-C , 18-H ) :   1.0093 B(  2-C , 19-H ) :   0.8881
B(  3-C ,  4-H ) :   0.9049 B(  3-C ,  5-H ) :   0.8946 B(  3-C ,  6-S ) :   0.8329
B(  6-S , 15-O ) :   1.6601 B(  6-S , 16-O ) :   1.6665 B(  6-S , 17-F ) :   0.9900
B(  7-C ,  8-C ) :   1.0502 B(  7-C ,  9-N ) :   0.9958 B(  7-C , 14-H ) :  -0.1229
B(  8-C , 13-H ) :   1.0348 B(  8-C , 14-H ) :   1.0846 B(  9-N , 10-H ) :   0.8280
B(  9-N , 11-H ) :   1.0253

FINAL SINGLE POINT ENERGY      -955.095310994485

DIPOLE MOMENT
-------------
                                X             Y             Z
Electronic contribution:    -14.63132      -2.40645      -2.88565
Nuclear contribution   :     14.93782       3.36795       3.35075
                        -----------------------------------------
Total Dipole Moment    :      0.30651       0.96150       0.46510
                        -----------------------------------------
Magnitude (a.u.)       :      1.11119
Magnitude (Debye)      :      2.82442

Rotational constants in cm-1:     0.059219     0.021387     0.018380
Rotational constants in MHz :  1775.354399   641.172207   551.019443

                             ****ORCA TERMINATED NORMALLY****
TOTAL RUN TIME: 0 days 0 hours 5 minutes 6 seconds 889 msec
