                         Program Version 5.0.0 -  RELEASE  -
|  1> !CAM-B3LYP RIJCOSX def2-TZVPD def2/J TightSCF xyzfile
|  2>
|  3> *xyzfile 0 1 D9.xyz
|  4>
|  5> %MaxCore 64000
|  6>
|  7> %pal nprocs 4
|  8> end
|  9>
| 10> %scf
| 11>   MaxIter 150
| 12> end
| 13>
| 14>
| 15>                          ****END OF INPUT****

CARTESIAN COORDINATES (ANGSTROEM)
---------------------------------
  C      3.380928    2.083045   -3.350127
  N      4.535924    1.182447   -3.428518
  C      2.495557    1.816150   -2.136364
  C      1.872181    0.427903   -2.077497
  H      2.614270   -0.365825   -2.198894
  H      1.389953    0.273087   -1.112360
  S      0.579024    0.140472   -3.297943
  C      4.671956    0.122273   -4.220598
  N      5.866023   -0.507849   -4.224284
  C      3.698881   -0.312844   -4.986988
  H      2.731405   -0.050091   -4.849000
  H      3.890046   -1.055172   -5.643730
  H      5.251933    1.303459   -2.721014
  H      6.695165   -0.062322   -3.851596
  H      5.975383   -1.396884   -4.691414
  O      0.228860   -1.246868   -3.127871
  O     -0.439269    1.118966   -3.014550
  F      1.247881    0.403474   -4.595647
  H      1.697003    2.561969   -2.141109
  H      3.080787    1.987436   -1.225838
  H      2.806463    1.986511   -4.268484
  H      3.778714    3.098282   -3.307383

 Total Charge           Charge          ....    0
 Multiplicity           Mult            ....    1
 Number of Electrons    NEL             ....   96
 Basis Dimension        Dim             ....  524

ORBITAL ENERGIES
----------------

  NO   OCC          E(Eh)            E(eV)
   0   2.0000     -89.175160     -2426.5795
   1   2.0000     -24.857760      -676.4140
   2   2.0000     -19.213806      -522.8342
   3   2.0000     -19.212245      -522.7918
   4   2.0000     -14.405570      -391.9955
   5   2.0000     -14.395445      -391.7200
   6   2.0000     -10.302402      -280.3426
   7   2.0000     -10.298659      -280.2408
   8   2.0000     -10.296907      -280.1931
   9   2.0000     -10.274549      -279.5847
  10   2.0000     -10.158407      -276.4243
  11   2.0000      -8.219438      -223.6623
  12   2.0000      -6.187499      -168.3704
  13   2.0000      -6.180836      -168.1891
  14   2.0000      -6.180318      -168.1750
  15   2.0000      -1.440877       -39.2083
  16   2.0000      -1.200747       -32.6740
  17   2.0000      -1.108154       -30.1544
  18   2.0000      -1.060880       -28.8680
  19   2.0000      -0.976551       -26.5733
  20   2.0000      -0.909993       -24.7622
  21   2.0000      -0.832125       -22.6433
  22   2.0000      -0.813551       -22.1378
  23   2.0000      -0.775180       -21.0937
  24   2.0000      -0.731145       -19.8955
  25   2.0000      -0.665341       -18.1048
  26   2.0000      -0.661008       -17.9869
  27   2.0000      -0.640390       -17.4259
  28   2.0000      -0.629368       -17.1260
  29   2.0000      -0.618070       -16.8185
  30   2.0000      -0.590645       -16.0723
  31   2.0000      -0.569657       -15.5011
  32   2.0000      -0.553036       -15.0489
  33   2.0000      -0.538687       -14.6584
  34   2.0000      -0.533015       -14.5041
  35   2.0000      -0.518253       -14.1024
  36   2.0000      -0.488983       -13.3059
  37   2.0000      -0.481036       -13.0897
  38   2.0000      -0.469874       -12.7859
  39   2.0000      -0.453122       -12.3301
  40   2.0000      -0.449232       -12.2242
  41   2.0000      -0.440839       -11.9958
  42   2.0000      -0.425491       -11.5782
  43   2.0000      -0.408437       -11.1141
  44   2.0000      -0.395236       -10.7549
  45   2.0000      -0.388263       -10.5652
  46   2.0000      -0.326133        -8.8745
  47   2.0000      -0.240301        -6.5389
  48   0.0000       0.015228         0.4144
  49   0.0000       0.032286         0.8785
  50   0.0000       0.038628         1.0511
  51   0.0000       0.039642         1.0787
  52   0.0000       0.059015         1.6059

MULLIKEN ATOMIC CHARGES
-----------------------
   0 C :   -0.768835
   1 N :   -0.208539
   2 C :   -0.507645
   3 C :   -0.604027
   4 H :    0.355580
   5 H :    0.353627
   6 S :    1.149846
   7 C :    0.930393
   8 N :   -0.395347
   9 C :   -1.357663
  10 H :    0.333465
  11 H :    0.229787
  12 H :    0.180732
  13 H :    0.151278
  14 H :    0.165135
  15 O :   -0.584152
  16 O :   -0.573506
  17 F :   -0.173205
  18 H :    0.305382
  19 H :    0.319796
  20 H :    0.421987
  21 H :    0.275911
Sum of atomic charges:    0.0000000

LOEWDIN ATOMIC CHARGES
----------------------
   0 C :   -0.175653
   1 N :    0.025893
   2 C :   -0.203386
   3 C :   -0.215902
   4 H :    0.108516
   5 H :    0.114571
   6 S :    0.607678
   7 C :   -0.549048
   8 N :    0.110829
   9 C :    0.022530
  10 H :   -0.031533
  11 H :    0.027035
  12 H :    0.141265
  13 H :    0.096432
  14 H :    0.105758
  15 O :   -0.263438
  16 O :   -0.264340
  17 F :   -0.123824
  18 H :    0.114670
  19 H :    0.118363
  20 H :    0.111353
  21 H :    0.122231

  Mayer bond orders larger than 0.100000
B(  0-C ,  1-N ) :   0.8806 B(  0-C ,  2-C ) :   0.7333 B(  0-C , 20-H ) :   0.8375
B(  0-C , 21-H ) :   0.9954 B(  1-N ,  7-C ) :   1.0039 B(  1-N , 12-H ) :   0.9938
B(  2-C ,  3-C ) :   0.9254 B(  2-C ,  6-S ) :   0.1114 B(  2-C , 18-H ) :   0.9957
B(  2-C , 19-H ) :   0.8943 B(  3-C ,  4-H ) :   0.9082 B(  3-C ,  5-H ) :   0.9074
B(  3-C ,  6-S ) :   0.8119 B(  3-C , 15-O ) :   0.1083 B(  6-S , 15-O ) :   1.6388
B(  6-S , 16-O ) :   1.6545 B(  6-S , 17-F ) :   1.0335 B(  7-C ,  8-N ) :   0.8743
B(  7-C ,  9-C ) :   0.9389 B(  7-C , 11-H ) :  -0.1644 B(  8-N , 13-H ) :   1.0421
B(  8-N , 14-H ) :   1.0203 B(  9-C , 10-H ) :   1.0356 B(  9-C , 11-H ) :   1.1936
B(  9-C , 17-F ) :   0.1415 B( 10-H , 17-F ) :  -0.2888

FINAL SINGLE POINT ENERGY      -955.092998316860

DIPOLE MOMENT
-------------
                                X             Y             Z
Electronic contribution:    -12.62644      -2.62594      -2.42403
Nuclear contribution   :     14.72648       3.38697       3.27638
                        -----------------------------------------
Total Dipole Moment    :      2.10005       0.76103       0.85235
                        -----------------------------------------
Magnitude (a.u.)       :      2.39079
Magnitude (Debye)      :      6.07690

Rotational constants in cm-1:     0.059651     0.020833     0.018010
Rotational constants in MHz :  1788.283887   624.555661   539.921162

                             ****ORCA TERMINATED NORMALLY****
TOTAL RUN TIME: 0 days 0 hours 4 minutes 59 seconds 68 msec
