                         Program Version 5.0.0 -  RELEASE  -
|  1> !LC-BLYP RIJCOSX def2-SVPD def2/J TightSCF
|  2> *xyz -1 1
|  3> C          1.36401        0.46874       -2.81376
|  4> C          0.96805        1.63064       -3.71575
|  5> C         -0.50835        1.72268       -4.12430
|  6> S         -1.32861        0.14674       -4.43578
|  7> H         -0.59151        2.29496       -5.04722
|  8> H         -1.11411        2.23561       -3.37436
|  9> O         -2.57135        0.47573       -5.06834
| 10> O         -1.51496       -0.40051       -3.06342
| 11> H          1.57869        1.52065       -4.61273
| 12> H          1.26665        2.57599       -3.25045
| 13> O         -0.37793       -0.62756       -5.20114
| 14> H          1.07115       -0.45339       -3.27071
| 15> H          0.87480        0.56905       -1.86745
| 16> H          2.42423        0.47442       -2.66954
| 17> *
| 18> %MaxCore 64000
| 19>
| 20> %pal nprocs 4
| 21> end
| 22>
| 23> %scf
| 24>   MaxIter 150
| 25> end
| 26>
| 27>
| 28>                          ****END OF INPUT****

CARTESIAN COORDINATES (ANGSTROEM)
---------------------------------
  C      1.364010    0.468740   -2.813760
  C      0.968050    1.630640   -3.715750
  C     -0.508350    1.722680   -4.124300
  S     -1.328610    0.146740   -4.435780
  H     -0.591510    2.294960   -5.047220
  H     -1.114110    2.235610   -3.374360
  O     -2.571350    0.475730   -5.068340
  O     -1.514960   -0.400510   -3.063420
  H      1.578690    1.520650   -4.612730
  H      1.266650    2.575990   -3.250450
  O     -0.377930   -0.627560   -5.201140
  H      1.071150   -0.453390   -3.270710
  H      0.874800    0.569050   -1.867450
  H      2.424230    0.474420   -2.669540

 Total Charge           Charge          ....   -1
 Multiplicity           Mult            ....    1
 Number of Electrons    NEL             ....   66
 Basis Dimension        Dim             ....  212

ORBITAL ENERGIES
----------------

  NO   OCC          E(Eh)            E(eV)
   0   2.0000     -88.313764     -2403.1397
   1   2.0000     -18.747190      -510.1370
   2   2.0000     -18.745207      -510.0830
   3   2.0000     -18.728253      -509.6217
   4   2.0000      -9.955026      -270.8900
   5   2.0000      -9.948160      -270.7032
   6   2.0000      -9.927297      -270.1355
   7   2.0000      -7.862423      -213.9474
   8   2.0000      -5.896814      -160.4605
   9   2.0000      -5.896606      -160.4548
  10   2.0000      -5.896173      -160.4430
  11   2.0000      -1.038646       -28.2630
  12   2.0000      -0.897032       -24.4095
  13   2.0000      -0.866372       -23.5752
  14   2.0000      -0.759200       -20.6589
  15   2.0000      -0.669335       -18.2135
  16   2.0000      -0.573039       -15.5932
  17   2.0000      -0.485148       -13.2016
  18   2.0000      -0.441451       -12.0125
  19   2.0000      -0.426305       -11.6003
  20   2.0000      -0.405236       -11.0270
  21   2.0000      -0.388560       -10.5733
  22   2.0000      -0.367822       -10.0089
  23   2.0000      -0.351264        -9.5584
  24   2.0000      -0.323868        -8.8129
  25   2.0000      -0.316512        -8.6127
  26   2.0000      -0.294368        -8.0102
  27   2.0000      -0.261988        -7.1290
  28   2.0000      -0.257131        -6.9969
  29   2.0000      -0.225487        -6.1358
  30   2.0000      -0.212440        -5.7808
  31   2.0000      -0.199692        -5.4339
  32   2.0000      -0.170178        -4.6308
  33   0.0000       0.186587         5.0773
  34   0.0000       0.207172         5.6374
  35   0.0000       0.212223         5.7749
  36   0.0000       0.216434         5.8895
  37   0.0000       0.235327         6.4036

MULLIKEN ATOMIC CHARGES
-----------------------
   0 C :    1.015082
   1 C :   -0.120692
   2 C :    0.307509
   3 S :    1.031232
   4 H :   -0.156170
   5 H :   -0.068499
   6 O :   -0.717772
   7 O :   -0.756982
   8 H :   -0.051932
   9 H :   -0.246487
  10 O :   -0.734600
  11 H :   -0.148162
  12 H :   -0.124371
  13 H :   -0.228157
Sum of atomic charges:   -1.0000000

LOEWDIN ATOMIC CHARGES
----------------------
   0 C :    0.096861
   1 C :   -0.101182
   2 C :   -0.099330
   3 S :    0.804463
   4 H :    0.004096
   5 H :    0.012270
   6 O :   -0.547152
   7 O :   -0.571570
   8 H :    0.017883
   9 H :    0.011068
  10 O :   -0.546804
  11 H :   -0.038045
  12 H :   -0.013971
  13 H :   -0.028586

  Mayer bond orders larger than 0.100000
B(  0-C ,  1-C ) :   1.3023 B(  0-C ,  8-H ) :   0.1136 B(  0-C ,  9-H ) :   0.1047
B(  0-C , 11-H ) :   0.7419 B(  0-C , 12-H ) :   0.6908 B(  0-C , 13-H ) :   0.6569
B(  1-C ,  2-C ) :   1.2628 B(  1-C ,  4-H ) :   0.1677 B(  1-C ,  5-H ) :   0.1622
B(  1-C ,  8-H ) :   0.8377 B(  1-C ,  9-H ) :   0.8171 B(  1-C , 11-H ) :   0.2356
B(  1-C , 12-H ) :   0.2402 B(  1-C , 13-H ) :   0.2696 B(  2-C ,  3-S ) :   0.8847
B(  2-C ,  4-H ) :   0.8694 B(  2-C ,  5-H ) :   0.8781 B(  2-C ,  8-H ) :   0.1280
B(  2-C ,  9-H ) :   0.1389 B(  3-S ,  6-O ) :   1.4683 B(  3-S ,  7-O ) :   1.3132
B(  3-S , 10-O ) :   1.3399

FINAL SINGLE POINT ENERGY      -741.109741394756

DIPOLE MOMENT
-------------
                                X             Y             Z
Electronic contribution:     -8.28322      -4.37563      -4.06497
Nuclear contribution   :      9.76868       5.90538       4.47074
                        -----------------------------------------
Total Dipole Moment    :      1.48547       1.52975       0.40577
                        -----------------------------------------
Magnitude (a.u.)       :      2.17057
Magnitude (Debye)      :      5.51716

Rotational constants in cm-1:     0.135183     0.058485     0.054837
Rotational constants in MHz :  4052.676901  1753.343161  1643.972690

                             ****ORCA TERMINATED NORMALLY****
TOTAL RUN TIME: 0 days 0 hours 0 minutes 32 seconds 170 msec
