                         Program Version 5.0.0 -  RELEASE  -
|  1> !LC-BLYP RIJCOSX def2-SVPD def2/J TightSCF
|  2> *xyz 1 1
|  3> C          1.36401        0.46874       -2.81376
|  4> N          0.42884        0.32140       -1.65531
|  5> C          0.96805        1.63064       -3.71575
|  6> C         -0.50835        1.72268       -4.12430
|  7> H          0.74858       -0.40054       -1.00134
|  8> H         -0.46105        0.02333       -2.07773
|  9> H          0.31026        1.20137       -1.13495
| 10> H          1.29485       -0.46874       -3.36468
| 11> H          2.37622        0.59740       -2.43149
| 12> H          1.57869        1.52065       -4.61273
| 13> H          1.26665        2.57599       -3.25045
| 14> H         -0.65192        2.57663       -4.75283
| 15> H         -1.11549        1.81835       -3.24844
| 16> H         -0.78702        0.83723       -4.65648
| 17> *
| 18> %MaxCore 64000
| 19>
| 20> %pal nprocs 4
| 21> end
| 22>
| 23> %scf
| 24>   MaxIter 150
| 25> end
| 26>
| 27>
| 28>                          ****END OF INPUT****

CARTESIAN COORDINATES (ANGSTROEM)
---------------------------------
  C      1.364010    0.468740   -2.813760
  N      0.428840    0.321400   -1.655310
  C      0.968050    1.630640   -3.715750
  C     -0.508350    1.722680   -4.124300
  H      0.748580   -0.400540   -1.001340
  H     -0.461050    0.023330   -2.077730
  H      0.310260    1.201370   -1.134950
  H      1.294850   -0.468740   -3.364680
  H      2.376220    0.597400   -2.431490
  H      1.578690    1.520650   -4.612730
  H      1.266650    2.575990   -3.250450
  H     -0.651920    2.576630   -4.752830
  H     -1.115490    1.818350   -3.248440
  H     -0.787020    0.837230   -4.656480

 Total Charge           Charge          ....    1
 Multiplicity           Mult            ....    1
 Number of Electrons    NEL             ....   34
 Basis Dimension        Dim             ....  160

ORBITAL ENERGIES
----------------

  NO   OCC          E(Eh)            E(eV)
   0   2.0000     -14.515251      -394.9800
   1   2.0000     -10.332914      -281.1729
   2   2.0000     -10.263577      -279.2861
   3   2.0000     -10.236149      -278.5398
   4   2.0000      -1.302823       -35.4516
   5   2.0000      -1.076518       -29.2936
   6   2.0000      -0.989595       -26.9282
   7   2.0000      -0.909807       -24.7571
   8   2.0000      -0.896969       -24.4078
   9   2.0000      -0.874437       -23.7947
  10   2.0000      -0.787875       -21.4392
  11   2.0000      -0.742096       -20.1934
  12   2.0000      -0.712256       -19.3815
  13   2.0000      -0.688192       -18.7267
  14   2.0000      -0.632289       -17.2055
  15   2.0000      -0.622148       -16.9295
  16   2.0000      -0.608793       -16.5661
  17   0.0000      -0.127410        -3.4670
  18   0.0000      -0.068983        -1.8771
  19   0.0000      -0.066478        -1.8089
  20   0.0000      -0.059892        -1.6298
  21   0.0000      -0.031210        -0.8493

MULLIKEN ATOMIC CHARGES
-----------------------
   0 C :    0.688859
   1 N :   -0.548835
   2 C :   -0.141849
   3 C :    0.998899
   4 H :    0.264209
   5 H :    0.371139
   6 H :    0.347743
   7 H :   -0.105148
   8 H :   -0.213951
   9 H :   -0.091123
  10 H :   -0.128032
  11 H :   -0.197457
  12 H :   -0.156701
  13 H :   -0.087752
Sum of atomic charges:    1.0000000

LOEWDIN ATOMIC CHARGES
----------------------
   0 C :    0.072046
   1 N :    0.334870
   2 C :   -0.056467
   3 C :    0.137107
   4 H :    0.108770
   5 H :    0.091240
   6 H :    0.113685
   7 H :    0.059377
   8 H :    0.057682
   9 H :    0.049176
  10 H :    0.041455
  11 H :    0.011676
  12 H :   -0.022977
  13 H :    0.002361

  Mayer bond orders larger than 0.100000
B(  0-C ,  1-N ) :   0.8776 B(  0-C ,  2-C ) :   1.1974 B(  0-C ,  7-H ) :   0.7892
B(  0-C ,  8-H ) :   0.8808 B(  0-C ,  9-H ) :   0.1764 B(  0-C , 10-H ) :   0.1130
B(  1-N ,  4-H ) :   0.8399 B(  1-N ,  5-H ) :   0.7827 B(  1-N ,  6-H ) :   0.8111
B(  1-N ,  7-H ) :   0.1383 B(  2-C ,  3-C ) :   1.3009 B(  2-C ,  7-H ) :   0.1221
B(  2-C ,  9-H ) :   0.8404 B(  2-C , 10-H ) :   0.8977 B(  2-C , 11-H ) :   0.2550
B(  2-C , 12-H ) :   0.2024 B(  2-C , 13-H ) :   0.2171 B(  3-C , 11-H ) :   0.7365
B(  3-C , 12-H ) :   0.7608 B(  3-C , 13-H ) :   0.7485

FINAL SINGLE POINT ENERGY      -174.213782134082

DIPOLE MOMENT
-------------
                                X             Y             Z
Electronic contribution:      0.76799      -1.08343       1.95616
Nuclear contribution   :     -0.79558       0.15863      -0.24664
                        -----------------------------------------
Total Dipole Moment    :     -0.02759      -0.92480       1.70952
                        -----------------------------------------
Magnitude (a.u.)       :      1.94383
Magnitude (Debye)      :      4.94083

Rotational constants in cm-1:     0.425244     0.165801     0.135024
Rotational constants in MHz : 12748.492920  4970.589839  4047.903558

                             ****ORCA TERMINATED NORMALLY****
TOTAL RUN TIME: 0 days 0 hours 0 minutes 14 seconds 87 msec
