                         Program Version 5.0.0 -  RELEASE  -
|  1> !LC-BLYP RIJCOSX def2-SVPD def2/J TightSCF
|  2> *xyz 0 1
|  3> C          1.36401        0.46874       -2.81376
|  4> C          0.96805        1.63064       -3.71575
|  5> C         -0.50835        1.72268       -4.12430
|  6> S         -1.32861        0.14674       -4.43578
|  7> H         -0.59151        2.29496       -5.04722
|  8> H         -1.11411        2.23561       -3.37436
|  9> F         -2.57135        0.47573       -5.06834
| 10> O         -1.51496       -0.40051       -3.06342
| 11> H          1.57869        1.52065       -4.61273
| 12> H          1.26665        2.57599       -3.25045
| 13> O         -0.37793       -0.62756       -5.20114
| 14> H          1.07115       -0.45339       -3.27071
| 15> H          0.87480        0.56905       -1.86745
| 16> H          2.42423        0.47442       -2.66954
| 17> *
| 18> %MaxCore 64000
| 19>
| 20> %pal nprocs 4
| 21> end
| 22>
| 23> %scf
| 24>   MaxIter 150
| 25> end
| 26>
| 27>
| 28>                          ****END OF INPUT****

CARTESIAN COORDINATES (ANGSTROEM)
---------------------------------
  C      1.364010    0.468740   -2.813760
  C      0.968050    1.630640   -3.715750
  C     -0.508350    1.722680   -4.124300
  S     -1.328610    0.146740   -4.435780
  H     -0.591510    2.294960   -5.047220
  H     -1.114110    2.235610   -3.374360
  F     -2.571350    0.475730   -5.068340
  O     -1.514960   -0.400510   -3.063420
  H      1.578690    1.520650   -4.612730
  H      1.266650    2.575990   -3.250450
  O     -0.377930   -0.627560   -5.201140
  H      1.071150   -0.453390   -3.270710
  H      0.874800    0.569050   -1.867450
  H      2.424230    0.474420   -2.669540

 Total Charge           Charge          ....    0
 Multiplicity           Mult            ....    1
 Number of Electrons    NEL             ....   66
 Basis Dimension        Dim             ....  212

ORBITAL ENERGIES
----------------

  NO   OCC          E(Eh)            E(eV)
   0   2.0000     -88.569017     -2410.0855
   1   2.0000     -24.601811      -669.4493
   2   2.0000     -18.975553      -516.3510
   3   2.0000     -18.959000      -515.9006
   4   2.0000     -10.147014      -276.1143
   5   2.0000     -10.112410      -275.1727
   6   2.0000     -10.070457      -274.0311
   7   2.0000      -8.118654      -220.9198
   8   2.0000      -6.157396      -167.5513
   9   2.0000      -6.150638      -167.3674
  10   2.0000      -6.149195      -167.3281
  11   2.0000      -1.470825       -40.0232
  12   2.0000      -1.207343       -32.8535
  13   2.0000      -1.098336       -29.8872
  14   2.0000      -0.934957       -25.4415
  15   2.0000      -0.864636       -23.5279
  16   2.0000      -0.815852       -22.2005
  17   2.0000      -0.745602       -20.2889
  18   2.0000      -0.702083       -19.1047
  19   2.0000      -0.686471       -18.6798
  20   2.0000      -0.659753       -17.9528
  21   2.0000      -0.603777       -16.4296
  22   2.0000      -0.591294       -16.0899
  23   2.0000      -0.563163       -15.3244
  24   2.0000      -0.554936       -15.1006
  25   2.0000      -0.523253       -14.2384
  26   2.0000      -0.495429       -13.4813
  27   2.0000      -0.477362       -12.9897
  28   2.0000      -0.465288       -12.6611
  29   2.0000      -0.449787       -12.2393
  30   2.0000      -0.433062       -11.7842
  31   2.0000      -0.417439       -11.3591
  32   2.0000      -0.408031       -11.1031
  33   0.0000       0.045287         1.2323
  34   0.0000       0.069276         1.8851
  35   0.0000       0.077689         2.1140
  36   0.0000       0.082269         2.2386
  37   0.0000       0.103885         2.8269

MULLIKEN ATOMIC CHARGES
-----------------------
   0 C :    1.044574
   1 C :   -0.098100
   2 C :    0.262069
   3 S :    1.244731
   4 H :   -0.102699
   5 H :   -0.016531
   6 F :   -0.385632
   7 O :   -0.609084
   8 H :   -0.031631
   9 H :   -0.219935
  10 O :   -0.589198
  11 H :   -0.172419
  12 H :   -0.112547
  13 H :   -0.213600
Sum of atomic charges:   -0.0000000

LOEWDIN ATOMIC CHARGES
----------------------
   0 C :    0.118945
   1 C :   -0.070686
   2 C :   -0.064111
   3 S :    1.069660
   4 H :    0.021079
   5 H :    0.030568
   6 F :   -0.231125
   7 O :   -0.463142
   8 H :    0.033494
   9 H :    0.037255
  10 O :   -0.441103
  11 H :   -0.032014
  12 H :   -0.002447
  13 H :   -0.006372

  Mayer bond orders larger than 0.100000
B(  0-C ,  1-C ) :   1.3152 B(  0-C ,  8-H ) :   0.1089 B(  0-C , 11-H ) :   0.7356
B(  0-C , 12-H ) :   0.6921 B(  0-C , 13-H ) :   0.6613 B(  1-C ,  2-C ) :   1.3075
B(  1-C ,  4-H ) :   0.1723 B(  1-C ,  5-H ) :   0.1488 B(  1-C ,  8-H ) :   0.8356
B(  1-C ,  9-H ) :   0.8161 B(  1-C , 11-H ) :   0.2234 B(  1-C , 12-H ) :   0.2342
B(  1-C , 13-H ) :   0.2603 B(  2-C ,  3-S ) :   0.9146 B(  2-C ,  4-H ) :   0.8439
B(  2-C ,  5-H ) :   0.8798 B(  2-C ,  8-H ) :   0.1314 B(  2-C ,  9-H ) :   0.1430
B(  3-S ,  6-F ) :   0.7981 B(  3-S ,  7-O ) :   1.5081 B(  3-S , 10-O ) :   1.5328

FINAL SINGLE POINT ENERGY      -765.573332117034

DIPOLE MOMENT
-------------
                                X             Y             Z
Electronic contribution:    -11.75455      -4.25677      -5.81465
Nuclear contribution   :     11.77809       5.83971       5.48704
                        -----------------------------------------
Total Dipole Moment    :      0.02353       1.58295      -0.32762
                        -----------------------------------------
Magnitude (a.u.)       :      1.61667
Magnitude (Debye)      :      4.10924

Rotational constants in cm-1:     0.133968     0.056186     0.052650
Rotational constants in MHz :  4016.256208  1684.422248  1578.415210

                             ****ORCA TERMINATED NORMALLY****
TOTAL RUN TIME: 0 days 0 hours 0 minutes 31 seconds 583 msec
