                         Program Version 5.0.0 -  RELEASE  -
|  1> !LC-BLYP RIJCOSX def2-SVPD def2/J TightSCF
|  2> *xyz 0 1
|  3> C          1.36401        0.46874       -2.81376
|  4> C          0.42884        0.32140       -1.65531
|  5> C          0.96805        1.63064       -3.71575
|  6> C         -0.50835        1.72268       -4.12430
|  7> H          0.74858       -0.40054       -1.00134
|  8> H         -0.46105        0.02333       -2.07773
|  9> H          0.31026        1.20137       -1.13495
| 10> H          1.29485       -0.46874       -3.36468
| 11> H          2.37622        0.59740       -2.43149
| 12> H          1.57869        1.52065       -4.61273
| 13> H          1.26665        2.57599       -3.25045
| 14> H         -0.65192        2.57663       -4.75283
| 15> H         -1.11549        1.81835       -3.24844
| 16> H         -0.78702        0.83723       -4.65648
| 17> *
| 18> %MaxCore 64000
| 19>
| 20> %pal nprocs 4
| 21> end
| 22>
| 23> %scf
| 24>   MaxIter 150
| 25> end
| 26>
| 27>
| 28>                          ****END OF INPUT****

CARTESIAN COORDINATES (ANGSTROEM)
---------------------------------
  C      1.364010    0.468740   -2.813760
  C      0.428840    0.321400   -1.655310
  C      0.968050    1.630640   -3.715750
  C     -0.508350    1.722680   -4.124300
  H      0.748580   -0.400540   -1.001340
  H     -0.461050    0.023330   -2.077730
  H      0.310260    1.201370   -1.134950
  H      1.294850   -0.468740   -3.364680
  H      2.376220    0.597400   -2.431490
  H      1.578690    1.520650   -4.612730
  H      1.266650    2.575990   -3.250450
  H     -0.651920    2.576630   -4.752830
  H     -1.115490    1.818350   -3.248440
  H     -0.787020    0.837230   -4.656480

 Total Charge           Charge          ....    0
 Multiplicity           Mult            ....    1
 Number of Electrons    NEL             ....   34
 Basis Dimension        Dim             ....  160

ORBITAL ENERGIES
----------------

  NO   OCC          E(Eh)            E(eV)
   0   2.0000     -10.074106      -274.1304
   1   2.0000     -10.070845      -274.0416
   2   2.0000     -10.065648      -273.9002
   3   2.0000     -10.046976      -273.3921
   4   2.0000      -0.906958       -24.6796
   5   2.0000      -0.830326       -22.5943
   6   2.0000      -0.751046       -20.4370
   7   2.0000      -0.664431       -18.0801
   8   2.0000      -0.577958       -15.7270
   9   2.0000      -0.569722       -15.5029
  10   2.0000      -0.528584       -14.3835
  11   2.0000      -0.488988       -13.3060
  12   2.0000      -0.485563       -13.2128
  13   2.0000      -0.465129       -12.6568
  14   2.0000      -0.424751       -11.5581
  15   2.0000      -0.415273       -11.3001
  16   2.0000      -0.413111       -11.2413
  17   0.0000       0.076598         2.0843
  18   0.0000       0.102340         2.7848
  19   0.0000       0.103144         2.8067
  20   0.0000       0.117698         3.2027
  21   0.0000       0.150569         4.0972

MULLIKEN ATOMIC CHARGES
-----------------------
   0 C :   -0.091681
   1 C :    1.235496
   2 C :   -0.182796
   3 C :    0.919322
   4 H :   -0.441123
   5 H :   -0.159219
   6 H :   -0.252815
   7 H :   -0.093419
   8 H :   -0.226824
   9 H :   -0.181747
  10 H :   -0.090179
  11 H :   -0.231023
  12 H :   -0.105623
  13 H :   -0.098369
Sum of atomic charges:    0.0000000

LOEWDIN ATOMIC CHARGES
----------------------
   0 C :   -0.089605
   1 C :    0.107811
   2 C :   -0.092052
   3 C :    0.112255
   4 H :   -0.030505
   5 H :   -0.035988
   6 H :   -0.019956
   7 H :    0.028904
   8 H :    0.025912
   9 H :    0.017308
  10 H :    0.026288
  11 H :   -0.015614
  12 H :   -0.024410
  13 H :   -0.010348

  Mayer bond orders larger than 0.100000
B(  0-C ,  1-C ) :   1.2615 B(  0-C ,  2-C ) :   1.2136 B(  0-C ,  4-H ) :   0.2628
B(  0-C ,  5-H ) :   0.3006 B(  0-C ,  6-H ) :   0.2571 B(  0-C ,  7-H ) :   0.8061
B(  0-C ,  8-H ) :   0.8876 B(  0-C ,  9-H ) :   0.1602 B(  0-C , 10-H ) :   0.1385
B(  1-C ,  4-H ) :   0.5910 B(  1-C ,  5-H ) :   0.6563 B(  1-C ,  6-H ) :   0.6240
B(  1-C ,  7-H ) :   0.1487 B(  2-C ,  3-C ) :   1.2992 B(  2-C ,  7-H ) :   0.1469
B(  2-C ,  9-H ) :   0.8759 B(  2-C , 10-H ) :   0.8745 B(  2-C , 11-H ) :   0.2604
B(  2-C , 12-H ) :   0.2079 B(  2-C , 13-H ) :   0.2178 B(  3-C , 10-H ) :   0.1045
B(  3-C , 11-H ) :   0.7024 B(  3-C , 12-H ) :   0.7880 B(  3-C , 13-H ) :   0.7545
B(  4-H ,  6-H ) :  -0.1219

FINAL SINGLE POINT ENERGY      -157.818145325691

DIPOLE MOMENT
-------------
                                X             Y             Z
Electronic contribution:      0.84890       0.05415      -0.19035
Nuclear contribution   :     -0.83100      -0.05970       0.18742
                        -----------------------------------------
Total Dipole Moment    :      0.01790      -0.00554      -0.00293
                        -----------------------------------------
Magnitude (a.u.)       :      0.01896
Magnitude (Debye)      :      0.04820

Rotational constants in cm-1:     0.433656     0.172838     0.140497
Rotational constants in MHz : 13000.688694  5181.547473  4211.992439

                             ****ORCA TERMINATED NORMALLY****
TOTAL RUN TIME: 0 days 0 hours 0 minutes 12 seconds 504 msec
