                         Program Version 5.0.0 -  RELEASE  -
|  1> !LC-BLYP RIJCOSX def2-SVPD def2/J TightSCF
|  2> *xyz 0 1
|  3> C          1.36401        0.46874       -2.81376
|  4> C          0.96805        1.63064       -3.71575
|  5> C         -0.50835        1.72268       -4.12430
|  6> S         -1.32861        0.14674       -4.43578
|  7> H         -0.59151        2.29496       -5.04722
|  8> H         -1.11411        2.23561       -3.37436
|  9> O         -2.57135        0.47573       -5.06834
| 10> F         -1.51496       -0.40051       -3.06342
| 11> H          1.57869        1.52065       -4.61273
| 12> H          1.26665        2.57599       -3.25045
| 13> O         -0.37793       -0.62756       -5.20114
| 14> H          1.07115       -0.45339       -3.27071
| 15> H          0.87480        0.56905       -1.86745
| 16> H          2.42423        0.47442       -2.66954
| 17> *
| 18> %MaxCore 64000
| 19>
| 20> %pal nprocs 4
| 21> end
| 22>
| 23> %scf
| 24>   MaxIter 150
| 25> end
| 26>
| 27>
| 28>                          ****END OF INPUT****

CARTESIAN COORDINATES (ANGSTROEM)
---------------------------------
  C      1.364010    0.468740   -2.813760
  C      0.968050    1.630640   -3.715750
  C     -0.508350    1.722680   -4.124300
  S     -1.328610    0.146740   -4.435780
  H     -0.591510    2.294960   -5.047220
  H     -1.114110    2.235610   -3.374360
  O     -2.571350    0.475730   -5.068340
  F     -1.514960   -0.400510   -3.063420
  H      1.578690    1.520650   -4.612730
  H      1.266650    2.575990   -3.250450
  O     -0.377930   -0.627560   -5.201140
  H      1.071150   -0.453390   -3.270710
  H      0.874800    0.569050   -1.867450
  H      2.424230    0.474420   -2.669540

 Total Charge           Charge          ....    0
 Multiplicity           Mult            ....    1
 Number of Electrons    NEL             ....   66
 Basis Dimension        Dim             ....  212

ORBITAL ENERGIES
----------------

  NO   OCC          E(Eh)            E(eV)
   0   2.0000     -88.566106     -2410.0063
   1   2.0000     -24.573328      -668.6743
   2   2.0000     -18.977475      -516.4033
   3   2.0000     -18.973867      -516.3052
   4   2.0000     -10.145996      -276.0866
   5   2.0000     -10.114362      -275.2258
   6   2.0000     -10.084937      -274.4251
   7   2.0000      -8.115539      -220.8351
   8   2.0000      -6.154219      -167.4648
   9   2.0000      -6.147740      -167.2885
  10   2.0000      -6.146240      -167.2477
  11   2.0000      -1.424288       -38.7569
  12   2.0000      -1.219701       -33.1897
  13   2.0000      -1.123660       -30.5763
  14   2.0000      -0.939435       -25.5633
  15   2.0000      -0.857840       -23.3430
  16   2.0000      -0.804666       -21.8961
  17   2.0000      -0.744214       -20.2511
  18   2.0000      -0.673957       -18.3393
  19   2.0000      -0.670021       -18.2322
  20   2.0000      -0.655275       -17.8310
  21   2.0000      -0.610253       -16.6058
  22   2.0000      -0.584122       -15.8948
  23   2.0000      -0.567842       -15.4518
  24   2.0000      -0.557655       -15.1746
  25   2.0000      -0.539631       -14.6841
  26   2.0000      -0.505230       -13.7480
  27   2.0000      -0.484200       -13.1757
  28   2.0000      -0.481193       -13.0939
  29   2.0000      -0.454798       -12.3757
  30   2.0000      -0.445877       -12.1329
  31   2.0000      -0.429510       -11.6876
  32   2.0000      -0.423068       -11.5123
  33   0.0000       0.049554         1.3484
  34   0.0000       0.071896         1.9564
  35   0.0000       0.079265         2.1569
  36   0.0000       0.079592         2.1658
  37   0.0000       0.105603         2.8736

MULLIKEN ATOMIC CHARGES
-----------------------
   0 C :    1.032825
   1 C :   -0.048410
   2 C :    0.270278
   3 S :    1.184660
   4 H :   -0.108010
   5 H :   -0.028987
   6 O :   -0.571303
   7 F :   -0.352308
   8 H :   -0.028106
   9 H :   -0.214960
  10 O :   -0.600120
  11 H :   -0.199458
  12 H :   -0.131122
  13 H :   -0.204980
Sum of atomic charges:   -0.0000000

LOEWDIN ATOMIC CHARGES
----------------------
   0 C :    0.114811
   1 C :   -0.079962
   2 C :   -0.053415
   3 S :    1.058072
   4 H :    0.035633
   5 H :    0.030050
   6 O :   -0.434673
   7 F :   -0.254869
   8 H :    0.034413
   9 H :    0.034751
  10 O :   -0.438836
  11 H :   -0.036120
  12 H :   -0.006057
  13 H :   -0.003798

  Mayer bond orders larger than 0.100000
B(  0-C ,  1-C ) :   1.3151 B(  0-C ,  8-H ) :   0.1111 B(  0-C , 11-H ) :   0.7395
B(  0-C , 12-H ) :   0.6888 B(  0-C , 13-H ) :   0.6781 B(  1-C ,  2-C ) :   1.2956
B(  1-C ,  4-H ) :   0.1527 B(  1-C ,  5-H ) :   0.1516 B(  1-C ,  8-H ) :   0.8392
B(  1-C ,  9-H ) :   0.8123 B(  1-C , 11-H ) :   0.2185 B(  1-C , 12-H ) :   0.2305
B(  1-C , 13-H ) :   0.2554 B(  2-C ,  3-S ) :   0.9421 B(  2-C ,  4-H ) :   0.8621
B(  2-C ,  5-H ) :   0.8838 B(  2-C ,  8-H ) :   0.1346 B(  2-C ,  9-H ) :   0.1322
B(  3-S ,  6-O ) :   1.6755 B(  3-S ,  7-F ) :   0.6836 B(  3-S , 10-O ) :   1.5651

FINAL SINGLE POINT ENERGY      -765.597784161347

DIPOLE MOMENT
-------------
                                X             Y             Z
Electronic contribution:     -9.87839      -5.75077      -2.33939
Nuclear contribution   :     10.64200       6.78206       3.33086
                        -----------------------------------------
Total Dipole Moment    :      0.76361       1.03129       0.99147
                        -----------------------------------------
Magnitude (a.u.)       :      1.62163
Magnitude (Debye)      :      4.12185

Rotational constants in cm-1:     0.128573     0.057881     0.053975
Rotational constants in MHz :  3854.523324  1735.233387  1618.120420

                             ****ORCA TERMINATED NORMALLY****
TOTAL RUN TIME: 0 days 0 hours 0 minutes 29 seconds 111 msec
