                         Program Version 5.0.0 -  RELEASE  -
|  1> !LC-BLYP RIJCOSX def2-SVPD def2/J TightSCF
|  2> *xyz 0 1
|  3> C          1.36401        0.46874       -2.81376
|  4> C          0.96805        1.63064       -3.71575
|  5> C         -0.50835        1.72268       -4.12430
|  6> S         -1.32861        0.14674       -4.43578
|  7> H         -0.59151        2.29496       -5.04722
|  8> H         -1.11411        2.23561       -3.37436
|  9> O         -2.57135        0.47573       -5.06834
| 10> O         -1.51496       -0.40051       -3.06342
| 11> H          1.57869        1.52065       -4.61273
| 12> H          1.26665        2.57599       -3.25045
| 13> F         -0.37793       -0.62756       -5.20114
| 14> H          1.07115       -0.45339       -3.27071
| 15> H          0.87480        0.56905       -1.86745
| 16> H          2.42423        0.47442       -2.66954
| 17> *
| 18> %MaxCore 64000
| 19>
| 20> %pal nprocs 4
| 21> end
| 22>
| 23> %scf
| 24>   MaxIter 150
| 25> end
| 26>
| 27>
| 28>                          ****END OF INPUT****

CARTESIAN COORDINATES (ANGSTROEM)
---------------------------------
  C      1.364010    0.468740   -2.813760
  C      0.968050    1.630640   -3.715750
  C     -0.508350    1.722680   -4.124300
  S     -1.328610    0.146740   -4.435780
  H     -0.591510    2.294960   -5.047220
  H     -1.114110    2.235610   -3.374360
  O     -2.571350    0.475730   -5.068340
  O     -1.514960   -0.400510   -3.063420
  H      1.578690    1.520650   -4.612730
  H      1.266650    2.575990   -3.250450
  F     -0.377930   -0.627560   -5.201140
  H      1.071150   -0.453390   -3.270710
  H      0.874800    0.569050   -1.867450
  H      2.424230    0.474420   -2.669540

 Total Charge           Charge          ....    0
 Multiplicity           Mult            ....    1
 Number of Electrons    NEL             ....   66
 Basis Dimension        Dim             ....  212

ORBITAL ENERGIES
----------------

  NO   OCC          E(Eh)            E(eV)
   0   2.0000     -88.567626     -2410.0476
   1   2.0000     -24.596445      -669.3033
   2   2.0000     -18.977620      -516.4073
   3   2.0000     -18.957139      -515.8500
   4   2.0000     -10.146448      -276.0989
   5   2.0000     -10.117485      -275.3108
   6   2.0000     -10.083711      -274.3917
   7   2.0000      -8.117205      -220.8804
   8   2.0000      -6.156180      -167.5182
   9   2.0000      -6.149092      -167.3253
  10   2.0000      -6.147677      -167.2868
  11   2.0000      -1.460917       -39.7536
  12   2.0000      -1.210996       -32.9529
  13   2.0000      -1.100038       -29.9335
  14   2.0000      -0.940864       -25.6022
  15   2.0000      -0.861157       -23.4333
  16   2.0000      -0.819053       -22.2876
  17   2.0000      -0.748207       -20.3597
  18   2.0000      -0.697981       -18.9930
  19   2.0000      -0.695534       -18.9265
  20   2.0000      -0.649259       -17.6672
  21   2.0000      -0.604837       -16.4584
  22   2.0000      -0.588237       -16.0067
  23   2.0000      -0.572200       -15.5703
  24   2.0000      -0.551581       -15.0093
  25   2.0000      -0.534701       -14.5500
  26   2.0000      -0.497782       -13.5453
  27   2.0000      -0.487601       -13.2683
  28   2.0000      -0.481060       -13.0903
  29   2.0000      -0.455252       -12.3880
  30   2.0000      -0.434561       -11.8250
  31   2.0000      -0.418783       -11.3957
  32   2.0000      -0.406489       -11.0611
  33   0.0000       0.044148         1.2013
  34   0.0000       0.071337         1.9412
  35   0.0000       0.078069         2.1244
  36   0.0000       0.080112         2.1800
  37   0.0000       0.105220         2.8632

MULLIKEN ATOMIC CHARGES
-----------------------
   0 C :    1.067549
   1 C :   -0.075106
   2 C :    0.284910
   3 S :    1.176924
   4 H :   -0.119482
   5 H :   -0.020344
   6 O :   -0.561609
   7 O :   -0.611562
   8 H :   -0.055475
   9 H :   -0.221775
  10 F :   -0.349811
  11 H :   -0.189881
  12 H :   -0.116126
  13 H :   -0.208211
Sum of atomic charges:   -0.0000000

LOEWDIN ATOMIC CHARGES
----------------------
   0 C :    0.114447
   1 C :   -0.084238
   2 C :   -0.051845
   3 S :    1.061183
   4 H :    0.024443
   5 H :    0.043319
   6 O :   -0.434432
   7 O :   -0.461924
   8 H :    0.027985
   9 H :    0.036129
  10 F :   -0.235217
  11 H :   -0.035127
  12 H :    0.000957
  13 H :   -0.005681

  Mayer bond orders larger than 0.100000
B(  0-C ,  1-C ) :   1.3111 B(  0-C ,  8-H ) :   0.1068 B(  0-C , 11-H ) :   0.7271
B(  0-C , 12-H ) :   0.6929 B(  0-C , 13-H ) :   0.6631 B(  1-C ,  2-C ) :   1.2659
B(  1-C ,  4-H ) :   0.1612 B(  1-C ,  5-H ) :   0.1569 B(  1-C ,  8-H ) :   0.8407
B(  1-C ,  9-H ) :   0.8177 B(  1-C , 11-H ) :   0.2265 B(  1-C , 12-H ) :   0.2420
B(  1-C , 13-H ) :   0.2605 B(  2-C ,  3-S ) :   0.9518 B(  2-C ,  4-H ) :   0.8812
B(  2-C ,  5-H ) :   0.8735 B(  2-C ,  8-H ) :   0.1255 B(  2-C ,  9-H ) :   0.1410
B(  3-S ,  6-O ) :   1.6732 B(  3-S ,  7-O ) :   1.5384 B(  3-S , 10-F ) :   0.7349

FINAL SINGLE POINT ENERGY      -765.577195332962

DIPOLE MOMENT
-------------
                                X             Y             Z
Electronic contribution:     -7.93773      -6.11688      -5.98591
Nuclear contribution   :      9.41919       7.02624       5.62986
                        -----------------------------------------
Total Dipole Moment    :      1.48146       0.90936      -0.35605
                        -----------------------------------------
Magnitude (a.u.)       :      1.77438
Magnitude (Debye)      :      4.51012

Rotational constants in cm-1:     0.128702     0.057313     0.054552
Rotational constants in MHz :  3858.395793  1718.208003  1635.420361

                             ****ORCA TERMINATED NORMALLY****
TOTAL RUN TIME: 0 days 0 hours 0 minutes 29 seconds 740 msec
