                         Program Version 5.0.0 -  RELEASE  -
|  1> !LC-PBE RIJCOSX def2-SVPD def2/J TightSCF
|  2> *xyz -1 1
|  3> C          1.44442        5.26658       -0.97546
|  4> O          1.56525        4.23349       -1.86489
|  5> C          0.14812        5.21087       -0.13809
|  6> H          1.47425        6.26464       -1.47692
|  7> H          2.28962        5.30327       -0.26445
|  8> H         -0.69779        5.17417       -0.79230
|  9> H          0.08430        6.08276        0.47887
| 10> H          0.15965        4.33708        0.47938
| 11> *
| 12> %MaxCore 64000
| 13>
| 14> %pal nprocs 4
| 15> end
| 16>
| 17> %scf
| 18>   MaxIter 150
| 19> end
| 20>
| 21>
| 22>                          ****END OF INPUT****

CARTESIAN COORDINATES (ANGSTROEM)
---------------------------------
  C      1.444420    5.266580   -0.975460
  O      1.565250    4.233490   -1.864890
  C      0.148120    5.210870   -0.138090
  H      1.474250    6.264640   -1.476920
  H      2.289620    5.303270   -0.264450
  H     -0.697790    5.174170   -0.792300
  H      0.084300    6.082760    0.478870
  H      0.159650    4.337080    0.479380

 Total Charge           Charge          ....   -1
 Multiplicity           Mult            ....    1
 Number of Electrons    NEL             ....   26
 Basis Dimension        Dim             ....  103

ORBITAL ENERGIES
----------------

  NO   OCC          E(Eh)            E(eV)
   0   2.0000     -18.647558      -507.4259
   1   2.0000      -9.939923      -270.4791
   2   2.0000      -9.917823      -269.8777
   3   2.0000      -0.832388       -22.6504
   4   2.0000      -0.688103       -18.7242
   5   2.0000      -0.522619       -14.2212
   6   2.0000      -0.394123       -10.7246
   7   2.0000      -0.367469        -9.9994
   8   2.0000      -0.309865        -8.4319
   9   2.0000      -0.288426        -7.8485
  10   2.0000      -0.242183        -6.5901
  11   2.0000      -0.092224        -2.5095
  12   2.0000      -0.088771        -2.4156
  13   0.0000       0.244450         6.6518
  14   0.0000       0.276933         7.5357
  15   0.0000       0.317515         8.6400
  16   0.0000       0.330231         8.9860
  17   0.0000       0.345142         9.3918

MULLIKEN ATOMIC CHARGES
-----------------------
   0 C :   -0.035228
   1 O :   -0.864885
   2 C :    0.141967
   3 H :   -0.076060
   4 H :   -0.102983
   5 H :   -0.031560
   6 H :   -0.003248
   7 H :   -0.028003
Sum of atomic charges:   -1.0000000

LOEWDIN ATOMIC CHARGES
----------------------
   0 C :   -0.292394
   1 O :   -0.596981
   2 C :    0.032157
   3 H :   -0.016115
   4 H :   -0.021314
   5 H :   -0.029705
   6 H :   -0.044947
   7 H :   -0.030702

  Mayer bond orders larger than 0.100000
B(  0-C ,  1-O ) :   1.2957 B(  0-C ,  2-C ) :   1.1794 B(  0-C ,  3-H ) :   0.9958
B(  0-C ,  4-H ) :   1.0039 B(  0-C ,  5-H ) :   0.1425 B(  0-C ,  7-H ) :   0.1331
B(  2-C ,  5-H ) :   0.9290 B(  2-C ,  6-H ) :   0.9032 B(  2-C ,  7-H ) :   0.9268

FINAL SINGLE POINT ENERGY      -153.847470155893

DIPOLE MOMENT
-------------
                                X             Y             Z
Electronic contribution:      1.11447      -1.47948      -1.89951
Nuclear contribution   :     -1.83256       2.47114       3.17273
                        -----------------------------------------
Total Dipole Moment    :     -0.71809       0.99166       1.27323
                        -----------------------------------------
Magnitude (a.u.)       :      1.76639
Magnitude (Debye)      :      4.48982

Rotational constants in cm-1:     1.286062     0.322579     0.284728
Rotational constants in MHz : 38555.180127  9670.683110  8535.939140

                             ****ORCA TERMINATED NORMALLY****
TOTAL RUN TIME: 0 days 0 hours 0 minutes 14 seconds 18 msec
