                         Program Version 5.0.0 -  RELEASE  -
|  1> !LC-PBE RIJCOSX def2-SVPD def2/J TightSCF
|  2> *xyz 1 1
|  3> C         -0.70169        4.07250       -4.00392
|  4> N          0.68053        4.61482       -4.04800
|  5> H          0.69993        5.58489       -4.38827
|  6> H          1.27804        4.05598       -4.66824
|  7> H          1.08573        4.53358       -3.10652
|  8> C         -1.70347        5.09320       -3.47740
|  9> H         -0.99590        3.74039       -5.00065
| 10> H         -0.64358        3.20191       -3.35153
| 11> H         -1.73704        5.93384       -4.13853
| 12> H         -1.40338        5.41759       -2.50291
| 13> H         -2.67335        4.64479       -3.42108
| 14> *
| 15> %MaxCore 64000
| 16>
| 17> %pal nprocs 4
| 18> end
| 19>
| 20> %scf
| 21>   MaxIter 150
| 22> end
| 23>
| 24>
| 25>                          ****END OF INPUT****

CARTESIAN COORDINATES (ANGSTROEM)
---------------------------------
  C     -0.701690    4.072500   -4.003920
  N      0.680530    4.614820   -4.048000
  H      0.699930    5.584890   -4.388270
  H      1.278040    4.055980   -4.668240
  H      1.085730    4.533580   -3.106520
  C     -1.703470    5.093200   -3.477400
  H     -0.995900    3.740390   -5.000650
  H     -0.643580    3.201910   -3.351530
  H     -1.737040    5.933840   -4.138530
  H     -1.403380    5.417590   -2.502910
  H     -2.673350    4.644790   -3.421080

 Total Charge           Charge          ....    1
 Multiplicity           Mult            ....    1
 Number of Electrons    NEL             ....   26
 Basis Dimension        Dim             ....  124

ORBITAL ENERGIES
----------------

  NO   OCC          E(Eh)            E(eV)
   0   2.0000     -14.566425      -396.3726
   1   2.0000     -10.382445      -282.5207
   2   2.0000     -10.301547      -280.3193
   3   2.0000      -1.384492       -37.6739
   4   2.0000      -1.134375       -30.8679
   5   2.0000      -1.003853       -27.3162
   6   2.0000      -0.955255       -25.9938
   7   2.0000      -0.935412       -25.4538
   8   2.0000      -0.840800       -22.8793
   9   2.0000      -0.785221       -21.3670
  10   2.0000      -0.719133       -19.5686
  11   2.0000      -0.701344       -19.0845
  12   2.0000      -0.681201       -18.5364
  13   0.0000      -0.109994        -2.9931
  14   0.0000      -0.050652        -1.3783
  15   0.0000      -0.049293        -1.3413
  16   0.0000      -0.043220        -1.1761
  17   0.0000      -0.011972        -0.3258

MULLIKEN ATOMIC CHARGES
-----------------------
   0 C :   -0.014140
   1 N :   -0.853803
   2 H :    0.433056
   3 H :    0.394856
   4 H :    0.446961
   5 C :    0.326782
   6 H :    0.036329
   7 H :    0.027198
   8 H :    0.048493
   9 H :    0.071876
  10 H :    0.082393
Sum of atomic charges:    1.0000000

LOEWDIN ATOMIC CHARGES
----------------------
   0 C :    0.025259
   1 N :    0.312364
   2 H :    0.116333
   3 H :    0.115463
   4 H :    0.118036
   5 C :    0.137860
   6 H :    0.064133
   7 H :    0.062564
   8 H :    0.011057
   9 H :    0.011355
  10 H :    0.025575

  Mayer bond orders larger than 0.100000
B(  0-C ,  1-N ) :   0.8065 B(  0-C ,  5-C ) :   1.3094 B(  0-C ,  6-H ) :   0.9784
B(  0-C ,  7-H ) :   0.9518 B(  0-C ,  8-H ) :   0.1188 B(  0-C ,  9-H ) :   0.1108
B(  0-C , 10-H ) :   0.1450 B(  1-N ,  2-H ) :   0.7052 B(  1-N ,  3-H ) :   0.7639
B(  1-N ,  4-H ) :   0.6989 B(  5-C ,  8-H ) :   0.8739 B(  5-C ,  9-H ) :   0.8659
B(  5-C , 10-H ) :   0.8565

FINAL SINGLE POINT ENERGY      -134.991876514201

DIPOLE MOMENT
-------------
                                X             Y             Z
Electronic contribution:      1.79276      -0.33076      -0.45942
Nuclear contribution   :     -0.23930       0.27560       0.19485
                        -----------------------------------------
Total Dipole Moment    :      1.55346      -0.05516      -0.26456
                        -----------------------------------------
Magnitude (a.u.)       :      1.57680
Magnitude (Debye)      :      4.00790

Rotational constants in cm-1:     1.018556     0.279088     0.248454
Rotational constants in MHz : 30535.536069  8366.847891  7448.451392

                             ****ORCA TERMINATED NORMALLY****
TOTAL RUN TIME: 0 days 0 hours 0 minutes 15 seconds 652 msec
