                         Program Version 5.0.0 -  RELEASE  -
|  1> !LC-PBE RIJCOSX def2-SVPD def2/J TightSCF
|  2> *xyz 0 1
|  3> C         -0.70169        4.07250       -4.00392
|  4> C          0.68053        4.61482       -4.04800
|  5> H          0.69993        5.58489       -4.38827
|  6> H          1.27804        4.05598       -4.66824
|  7> H          1.08573        4.53358       -3.10652
|  8> C         -1.70347        5.09320       -3.47740
|  9> H         -0.99590        3.74039       -5.00065
| 10> H         -0.64358        3.20191       -3.35153
| 11> H         -1.73704        5.93384       -4.13853
| 12> H         -1.40338        5.41759       -2.50291
| 13> H         -2.67335        4.64479       -3.42108
| 14> *
| 15> %MaxCore 64000
| 16>
| 17> %pal nprocs 4
| 18> end
| 19>
| 20> %scf
| 21>   MaxIter 150
| 22> end
| 23>
| 24>
| 25>                          ****END OF INPUT****

CARTESIAN COORDINATES (ANGSTROEM)
---------------------------------
  C     -0.701690    4.072500   -4.003920
  C      0.680530    4.614820   -4.048000
  H      0.699930    5.584890   -4.388270
  H      1.278040    4.055980   -4.668240
  H      1.085730    4.533580   -3.106520
  C     -1.703470    5.093200   -3.477400
  H     -0.995900    3.740390   -5.000650
  H     -0.643580    3.201910   -3.351530
  H     -1.737040    5.933840   -4.138530
  H     -1.403380    5.417590   -2.502910
  H     -2.673350    4.644790   -3.421080

 Total Charge           Charge          ....    0
 Multiplicity           Mult            ....    1
 Number of Electrons    NEL             ....   26
 Basis Dimension        Dim             ....  124

ORBITAL ENERGIES
----------------

  NO   OCC          E(Eh)            E(eV)
   0   2.0000     -10.113799      -275.2105
   1   2.0000     -10.104322      -274.9526
   2   2.0000     -10.086732      -274.4739
   3   2.0000      -0.965980       -26.2857
   4   2.0000      -0.854244       -23.2452
   5   2.0000      -0.739089       -20.1116
   6   2.0000      -0.617985       -16.8162
   7   2.0000      -0.590235       -16.0611
   8   2.0000      -0.541312       -14.7299
   9   2.0000      -0.527567       -14.3558
  10   2.0000      -0.467818       -12.7300
  11   2.0000      -0.463108       -12.6018
  12   2.0000      -0.452526       -12.3139
  13   0.0000       0.096217         2.6182
  14   0.0000       0.121613         3.3093
  15   0.0000       0.129519         3.5244
  16   0.0000       0.162116         4.4114
  17   0.0000       0.181116         4.9284

MULLIKEN ATOMIC CHARGES
-----------------------
   0 C :   -0.720999
   1 C :    0.661731
   2 H :   -0.144887
   3 H :   -0.097975
   4 H :   -0.071391
   5 C :    0.381920
   6 H :   -0.027162
   7 H :   -0.005425
   8 H :    0.025595
   9 H :    0.004970
  10 H :   -0.006376
Sum of atomic charges:   -0.0000000

LOEWDIN ATOMIC CHARGES
----------------------
   0 C :   -0.145796
   1 C :    0.080439
   2 H :   -0.019350
   3 H :   -0.023116
   4 H :   -0.017519
   5 C :    0.082574
   6 H :    0.031646
   7 H :    0.031435
   8 H :   -0.005701
   9 H :   -0.004184
  10 H :   -0.010427

  Mayer bond orders larger than 0.100000
B(  0-C ,  1-C ) :   1.2967 B(  0-C ,  2-H ) :   0.1600 B(  0-C ,  3-H ) :   0.1653
B(  0-C ,  4-H ) :   0.2194 B(  0-C ,  5-C ) :   1.2586 B(  0-C ,  6-H ) :   0.9944
B(  0-C ,  7-H ) :   0.9709 B(  0-C ,  8-H ) :   0.1248 B(  0-C ,  9-H ) :   0.1508
B(  0-C , 10-H ) :   0.1498 B(  1-C ,  2-H ) :   0.8193 B(  1-C ,  3-H ) :   0.7903
B(  1-C ,  4-H ) :   0.7564 B(  1-C ,  7-H ) :   0.1011 B(  5-C ,  8-H ) :   0.8697
B(  5-C ,  9-H ) :   0.8767 B(  5-C , 10-H ) :   0.8678

FINAL SINGLE POINT ENERGY      -118.613697554359

DIPOLE MOMENT
-------------
                                X             Y             Z
Electronic contribution:     -0.13581      -0.31209      -0.13610
Nuclear contribution   :      0.16058       0.27975       0.12812
                        -----------------------------------------
Total Dipole Moment    :      0.02477      -0.03234      -0.00799
                        -----------------------------------------
Magnitude (a.u.)       :      0.04151
Magnitude (Debye)      :      0.10551

Rotational constants in cm-1:     1.027122     0.293327     0.260229
Rotational constants in MHz : 30792.337141  8793.723318  7801.458329

                             ****ORCA TERMINATED NORMALLY****
TOTAL RUN TIME: 0 days 0 hours 0 minutes 12 seconds 340 msec
