                         Program Version 5.0.0 -  RELEASE  -
|  1> !LC-PBE RIJCOSX def2-SVPD def2/J TightSCF xyzfile
|  2>
|  3> *xyzfile 0 1 D.xyz
|  4>
|  5> %MaxCore 64000
|  6>
|  7> %pal nprocs 4
|  8> end
|  9>
| 10> %scf
| 11>   MaxIter 150
| 12> end
| 13>
| 14>
| 15>                          ****END OF INPUT****

CARTESIAN COORDINATES (ANGSTROEM)
---------------------------------
  C     -0.701686    4.072499   -4.003920
  C      0.680528    4.614820   -4.048005
  C      1.444422    5.266576   -0.975463
  F      1.565248    4.233493   -1.864885
  H      0.699926    5.584890   -4.388272
  H      1.278044    4.055977   -4.668235
  H      1.085729    4.533581   -3.106524
  C     -1.703475    5.093197   -3.477396
  H     -0.995895    3.740394   -5.000654
  H     -0.643580    3.201910   -3.351533
  C     -1.313997    5.785995   -2.169271
  H     -1.877057    5.850103   -4.251154
  H     -2.653264    4.564475   -3.354796
  H     -2.097137    6.509395   -1.929558
  H     -0.416875    6.387594   -2.339097
  C     -1.073895    4.844728   -0.979904
  H     -1.968893    4.809608   -0.352568
  C      0.148120    5.210874   -0.138092
  H     -0.909754    3.827531   -1.338975
  H      1.474250    6.264638   -1.476917
  H      2.289622    5.303267   -0.264450
  H      0.261827    4.450942    0.640711
  H     -0.002516    6.171031    0.371483

 Total Charge           Charge          ....    0
 Multiplicity           Mult            ....    1
 Number of Electrons    NEL             ....   66
 Basis Dimension        Dim             ....  283

ORBITAL ENERGIES
----------------

  NO   OCC          E(Eh)            E(eV)
   0   2.0000     -24.515544      -667.1019
   1   2.0000     -10.217894      -278.0430
   2   2.0000     -10.139362      -275.9061
   3   2.0000     -10.124039      -275.4891
   4   2.0000     -10.117374      -275.3077
   5   2.0000     -10.109954      -275.1058
   6   2.0000     -10.097288      -274.7612
   7   2.0000     -10.041520      -273.2436
   8   2.0000      -1.374361       -37.3983
   9   2.0000      -0.991540       -26.9812
  10   2.0000      -0.957730       -26.0611
  11   2.0000      -0.890482       -24.2312
  12   2.0000      -0.855546       -23.2806
  13   2.0000      -0.791283       -21.5319
  14   2.0000      -0.753458       -20.5026
  15   2.0000      -0.694775       -18.9058
  16   2.0000      -0.691120       -18.8063
  17   2.0000      -0.675094       -18.3702
  18   2.0000      -0.645520       -17.5655
  19   2.0000      -0.607078       -16.5194
  20   2.0000      -0.600030       -16.3276
  21   2.0000      -0.571396       -15.5485
  22   2.0000      -0.556030       -15.1304
  23   2.0000      -0.528077       -14.3697
  24   2.0000      -0.516913       -14.0659
  25   2.0000      -0.503368       -13.6973
  26   2.0000      -0.493160       -13.4196
  27   2.0000      -0.469446       -12.7743
  28   2.0000      -0.460172       -12.5219
  29   2.0000      -0.442974       -12.0539
  30   2.0000      -0.428927       -11.6717
  31   2.0000      -0.424873       -11.5614
  32   2.0000      -0.403154       -10.9704
  33   0.0000       0.089034         2.4227
  34   0.0000       0.103820         2.8251
  35   0.0000       0.108959         2.9649
  36   0.0000       0.116359         3.1663
  37   0.0000       0.134267         3.6536

MULLIKEN ATOMIC CHARGES
-----------------------
   0 C :   -0.324591
   1 C :    2.335037
   2 C :    0.525441
   3 F :   -0.528115
   4 H :   -0.123312
   5 H :    0.120313
   6 H :   -1.925012
   7 C :    0.088924
   8 H :   -0.250063
   9 H :    0.115422
  10 C :   -0.122845
  11 H :    0.170876
  12 H :   -0.046505
  13 H :   -0.098806
  14 H :    0.035144
  15 C :    0.034352
  16 H :   -0.133523
  17 C :   -0.069659
  18 H :    0.084550
  19 H :    0.282493
  20 H :   -0.210984
  21 H :    0.064835
  22 H :   -0.023971
Sum of atomic charges:   -0.0000000

LOEWDIN ATOMIC CHARGES
----------------------
   0 C :   -0.080732
   1 C :    0.110868
   2 C :    0.126653
   3 F :   -0.170206
   4 H :   -0.012581
   5 H :   -0.013251
   6 H :   -0.172787
   7 C :   -0.058766
   8 H :    0.030184
   9 H :    0.022704
  10 C :   -0.039078
  11 H :    0.036932
  12 H :    0.030438
  13 H :    0.030303
  14 H :    0.006603
  15 C :   -0.038590
  16 H :    0.033666
  17 C :   -0.036403
  18 H :    0.018151
  19 H :    0.050328
  20 H :    0.045942
  21 H :    0.034606
  22 H :    0.045015

  Mayer bond orders larger than 0.100000
B(  0-C ,  1-C ) :   0.8525 B(  0-C ,  4-H ) :   0.2920 B(  0-C ,  5-H ) :   0.1267
B(  0-C ,  6-H ) :   0.5823 B(  0-C ,  7-C ) :   1.1912 B(  0-C ,  8-H ) :   1.0789
B(  0-C ,  9-H ) :   0.7792 B(  0-C , 11-H ) :   0.1137 B(  0-C , 12-H ) :   0.1395
B(  1-C ,  3-F ) :  -0.2243 B(  1-C ,  5-H ) :   0.7071 B(  1-C ,  6-H ) :  -2.3532
B(  1-C ,  9-H ) :   0.1860 B(  2-C ,  3-F ) :   0.6659 B(  2-C ,  6-H ) :   0.1484
B(  2-C , 17-C ) :   1.2457 B(  2-C , 19-H ) :   0.7642 B(  2-C , 20-H ) :   1.0428
B(  3-F ,  6-H ) :   0.5058 B(  4-H ,  5-H ) :  -0.2014 B(  4-H ,  6-H ) :   0.7389
B(  4-H ,  8-H ) :   0.1816 B(  5-H ,  6-H ) :   0.1499 B(  5-H ,  8-H ) :  -0.1089
B(  7-C ,  9-H ) :   0.1443 B(  7-C , 10-C ) :   1.2791 B(  7-C , 11-H ) :   0.7324
B(  7-C , 12-H ) :   0.9160 B(  7-C , 13-H ) :   0.1187 B(  7-C , 14-H ) :   0.1157
B(  8-H ,  9-H ) :  -0.1606 B( 10-C , 11-H ) :   0.1742 B( 10-C , 12-H ) :   0.1244
B( 10-C , 13-H ) :   0.8626 B( 10-C , 14-H ) :   0.8996 B( 10-C , 15-C ) :   1.1968
B( 10-C , 16-H ) :   0.1865 B( 13-H , 15-C ) :   0.1343 B( 15-C , 16-H ) :   0.9091
B( 15-C , 17-C ) :   1.2420 B( 15-C , 18-H ) :   0.8567 B( 15-C , 21-H ) :   0.1652
B( 17-C , 20-H ) :   0.1303 B( 17-C , 21-H ) :   0.7990 B( 17-C , 22-H ) :   0.9526

FINAL SINGLE POINT ENERGY      -374.123610322619

DIPOLE MOMENT
-------------
                                X             Y             Z
Electronic contribution:      5.11700      -2.23158       2.81611
Nuclear contribution   :     -5.08831       2.68947      -1.99048
                        -----------------------------------------
Total Dipole Moment    :      0.02869       0.45790       0.82563
                        -----------------------------------------
Magnitude (a.u.)       :      0.94454
Magnitude (Debye)      :      2.40083

Rotational constants in cm-1:     0.084646     0.055672     0.038419
Rotational constants in MHz :  2537.625105  1668.992890  1151.781380

                             ****ORCA TERMINATED NORMALLY****
TOTAL RUN TIME: 0 days 0 hours 1 minutes 3 seconds 746 msec
