                         Program Version 5.0.0 -  RELEASE  -
|  1> !DLPNO-CCSD(T) aug-cc-pVTZ aug-cc-pVTZ/C TightSCF TightPNO RIJCOSX def2/J
|  2> *xyz -1 1
|  3> C          0.61188        1.65763       -4.50029
|  4> C          1.69499        1.54179       -5.57045
|  5> H          2.69733        1.73466       -5.18400
|  6> H          1.50666        2.27224       -6.35808
|  7> S          1.78029       -0.03313       -6.42874
|  8> O          2.56929        0.21366       -7.60736
|  9> O          0.41688       -0.46297       -6.61859
| 10> C          0.68036        0.65542       -3.34804
| 11> H         -0.35687        1.54923       -4.99113
| 12> H          0.65023        2.67544       -4.09600
| 13> O          2.50513       -0.93326       -5.48257
| 14> H          0.64318       -0.34009       -3.73853
| 15> H         -0.14865        0.81153       -2.68980
| 16> H          1.59447        0.79330       -2.80925
| 17> *
| 18> %MaxCore 64000
| 19>
| 20> %pal nprocs 2
| 21> end
| 22>
| 23> %scf
| 24>   MaxIter 150
| 25> end
| 26>
| 27>
| 28>                          ****END OF INPUT****

CARTESIAN COORDINATES (ANGSTROEM)
---------------------------------
  C      0.611880    1.657630   -4.500290
  C      1.694990    1.541790   -5.570450
  H      2.697330    1.734660   -5.184000
  H      1.506660    2.272240   -6.358080
  S      1.780290   -0.033130   -6.428740
  O      2.569290    0.213660   -7.607360
  O      0.416880   -0.462970   -6.618590
  C      0.680360    0.655420   -3.348040
  H     -0.356870    1.549230   -4.991130
  H      0.650230    2.675440   -4.096000
  O      2.505130   -0.933260   -5.482570
  H      0.643180   -0.340090   -3.738530
  H     -0.148650    0.811530   -2.689800
  H      1.594470    0.793300   -2.809250

 Total Charge           Charge          ....   -1
 Multiplicity           Mult            ....    1
 Number of Electrons    NEL             ....   66
 Basis Dimension        Dim             ....  487

ORBITAL ENERGIES
----------------

  NO   OCC          E(Eh)            E(eV)
   0   2.0000     -91.983663     -2503.0027
   1   2.0000     -20.336901      -553.3952
   2   2.0000     -20.335325      -553.3523
   3   2.0000     -20.315737      -552.8193
   4   2.0000     -11.096648      -301.9551
   5   2.0000     -11.093266      -301.8631
   6   2.0000     -11.074993      -301.3659
   7   2.0000      -8.947170      -243.4649
   8   2.0000      -6.633249      -180.4999
   9   2.0000      -6.632105      -180.4687
  10   2.0000      -6.631953      -180.4646
  11   2.0000      -1.275803       -34.7164
  12   2.0000      -1.137840       -30.9622
  13   2.0000      -1.100300       -29.9407
  14   2.0000      -0.933741       -25.4084
  15   2.0000      -0.822007       -22.3680
  16   2.0000      -0.696785       -18.9605
  17   2.0000      -0.594274       -16.1710
  18   2.0000      -0.513511       -13.9733
  19   2.0000      -0.489231       -13.3126
  20   2.0000      -0.471334       -12.8256
  21   2.0000      -0.455813       -12.4033
  22   2.0000      -0.445623       -12.1260
  23   2.0000      -0.420868       -11.4524
  24   2.0000      -0.375671       -10.2225
  25   2.0000      -0.361406        -9.8344
  26   2.0000      -0.347428        -9.4540
  27   2.0000      -0.324204        -8.8220
  28   2.0000      -0.320611        -8.7243
  29   2.0000      -0.284072        -7.7300
  30   2.0000      -0.265246        -7.2177
  31   2.0000      -0.246195        -6.6993
  32   2.0000      -0.229816        -6.2536
  33   0.0000       0.109098         2.9687
  34   0.0000       0.119396         3.2489
  35   0.0000       0.128130         3.4866
  36   0.0000       0.141256         3.8438
  37   0.0000       0.145599         3.9619

MULLIKEN ATOMIC CHARGES
-----------------------
   0 C :   -0.491489
   1 C :   -0.531713
   2 H :    0.253732
   3 H :    0.214644
   4 S :    2.257784
   5 O :   -1.056459
   6 O :   -1.074234
   7 C :   -1.002094
   8 H :    0.294543
   9 H :    0.295435
  10 O :   -1.066415
  11 H :    0.366721
  12 H :    0.253586
  13 H :    0.285958
Sum of atomic charges:   -1.0000000

LOEWDIN ATOMIC CHARGES
----------------------
   0 C :    0.202842
   1 C :    0.131881
   2 H :   -0.200979
   3 H :   -0.215343
   4 S :   -0.393093
   5 O :   -0.047346
   6 O :   -0.032355
   7 C :    0.568548
   8 H :   -0.175569
   9 H :   -0.165171
  10 O :   -0.070249
  11 H :   -0.216213
  12 H :   -0.197700
  13 H :   -0.189251

  Mayer bond orders larger than 0.100000
B(  0-C ,  1-C ) :   0.9196 B(  0-C ,  4-S ) :   0.1168 B(  0-C ,  7-C ) :   0.8152
B(  0-C ,  8-H ) :   0.9207 B(  0-C ,  9-H ) :   0.9331 B(  1-C ,  2-H ) :   0.9394
B(  1-C ,  3-H ) :   0.9736 B(  1-C ,  4-S ) :   0.7681 B(  1-C ,  6-O ) :   0.1057
B(  4-S ,  5-O ) :   1.2497 B(  4-S ,  6-O ) :   1.3257 B(  4-S , 10-O ) :   1.3067
B(  7-C , 11-H ) :   0.9004 B(  7-C , 12-H ) :   0.9971 B(  7-C , 13-H ) :   0.9458

E(0)                                       ...   -739.970055459
E(0)                                       ...   -739.970055459
E(CORR)(strong-pairs)                      ...     -1.490210602
E(CORR)(weak-pairs)                        ...     -0.001599827
E(CORR)(corrected)                         ...     -1.491810430
E(TOT)                                     ...   -741.461865889
E(CCSD(T))                                 ...   -741.525235853
FINAL SINGLE POINT ENERGY      -741.525235853417

DIPOLE MOMENT
-------------
                                X             Y             Z
Electronic contribution:      3.14061      -5.12602      -8.51796
Nuclear contribution   :     -3.81113       6.97418       9.97106
                        -----------------------------------------
Total Dipole Moment    :     -0.67053       1.84816       1.45310
                        -----------------------------------------
Magnitude (a.u.)       :      2.44475
Magnitude (Debye)      :      6.21406

Rotational constants in cm-1:     0.136135     0.055477     0.052562
Rotational constants in MHz :  4081.221574  1663.170947  1575.772362

                             ****ORCA TERMINATED NORMALLY****
TOTAL RUN TIME: 0 days 1 hours 41 minutes 9 seconds 513 msec
