                         Program Version 5.0.0 -  RELEASE  -
|  1> !DLPNO-CCSD(T) aug-cc-pVTZ aug-cc-pVTZ/C TightSCF TightPNO RIJCOSX def2/J
|  2> *xyz 1 1
|  3> C          1.96337       -1.74915       -1.89689
|  4> N          2.73849       -2.01517       -3.09711
|  5> C          4.04974       -2.15472       -3.15204
|  6> N          4.65821       -1.98629       -4.31866
|  7> N          4.76423       -2.45444       -2.05049
|  8> H          4.28736       -2.77626       -1.21750
|  9> H          5.75082       -2.65835       -2.12599
| 10> H          2.34518       -1.69027       -3.97145
| 11> H          4.10900       -1.59268       -5.07176
| 12> H          5.64910       -2.15646       -4.42724
| 13> C          2.08852       -0.30091       -1.41520
| 14> H          2.23127       -2.45162       -1.10264
| 15> H          0.93025       -1.97780       -2.15544
| 16> C          1.96899        0.73358       -2.53565
| 17> H          3.05136       -0.16860       -0.91187
| 18> H          1.31650       -0.13623       -0.65725
| 19> H          2.73046        0.55745       -3.26643
| 20> H          2.08619        1.71595       -2.12808
| 21> H          1.00672        0.65098       -2.99620
| 22> *
| 23> %MaxCore 64000
| 24>
| 25> %pal nprocs 2
| 26> end
| 27>
| 28> %scf
| 29>   MaxIter 150
| 30> end
| 31>
| 32>
| 33>                          ****END OF INPUT****

CARTESIAN COORDINATES (ANGSTROEM)
---------------------------------
  C      1.963370   -1.749150   -1.896890
  N      2.738490   -2.015170   -3.097110
  C      4.049740   -2.154720   -3.152040
  N      4.658210   -1.986290   -4.318660
  N      4.764230   -2.454440   -2.050490
  H      4.287360   -2.776260   -1.217500
  H      5.750820   -2.658350   -2.125990
  H      2.345180   -1.690270   -3.971450
  H      4.109000   -1.592680   -5.071760
  H      5.649100   -2.156460   -4.427240
  C      2.088520   -0.300910   -1.415200
  H      2.231270   -2.451620   -1.102640
  H      0.930250   -1.977800   -2.155440
  C      1.968990    0.733580   -2.535650
  H      3.051360   -0.168600   -0.911870
  H      1.316500   -0.136230   -0.657250
  H      2.730460    0.557450   -3.266430
  H      2.086190    1.715950   -2.128080
  H      1.006720    0.650980   -2.996200

 Total Charge           Charge          ....    1
 Multiplicity           Mult            ....    1
 Number of Electrons    NEL             ....   56
 Basis Dimension        Dim             ....  598

ORBITAL ENERGIES
----------------

  NO   OCC          E(Eh)            E(eV)
   0   2.0000     -15.786451      -429.5712
   1   2.0000     -15.783333      -429.4863
   2   2.0000     -15.779168      -429.3730
   3   2.0000     -11.585551      -315.2589
   4   2.0000     -11.428478      -310.9847
   5   2.0000     -11.363995      -309.2300
   6   2.0000     -11.340393      -308.5878
   7   2.0000      -1.541166       -41.9373
   8   2.0000      -1.404055       -38.2063
   9   2.0000      -1.388067       -37.7712
  10   2.0000      -1.206373       -32.8271
  11   2.0000      -1.108054       -30.1517
  12   2.0000      -1.041063       -28.3288
  13   2.0000      -0.977091       -26.5880
  14   2.0000      -0.967097       -26.3160
  15   2.0000      -0.922587       -25.1049
  16   2.0000      -0.863061       -23.4851
  17   2.0000      -0.854175       -23.2433
  18   2.0000      -0.826067       -22.4784
  19   2.0000      -0.788954       -21.4685
  20   2.0000      -0.761250       -20.7147
  21   2.0000      -0.744029       -20.2461
  22   2.0000      -0.702810       -19.1244
  23   2.0000      -0.655346       -17.8329
  24   2.0000      -0.636098       -17.3091
  25   2.0000      -0.626336       -17.0435
  26   2.0000      -0.615769       -16.7559
  27   2.0000      -0.578004       -15.7283
  28   0.0000      -0.091631        -2.4934
  29   0.0000      -0.074114        -2.0167
  30   0.0000      -0.066999        -1.8231
  31   0.0000      -0.057278        -1.5586
  32   0.0000      -0.047206        -1.2845

MULLIKEN ATOMIC CHARGES
-----------------------
   0 C :   -0.443776
   1 N :    0.009534
   2 C :    0.800007
   3 N :   -0.517201
   4 N :   -0.397932
   5 H :    0.194790
   6 H :    0.187575
   7 H :    0.133136
   8 H :    0.137334
   9 H :    0.170100
  10 C :   -0.370304
  11 H :    0.246725
  12 H :    0.383784
  13 C :   -1.021844
  14 H :    0.250664
  15 H :    0.340573
  16 H :    0.339880
  17 H :    0.260840
  18 H :    0.296116
Sum of atomic charges:    1.0000000

LOEWDIN ATOMIC CHARGES
----------------------
   0 C :    0.247570
   1 N :    0.612896
   2 C :   -0.367858
   3 N :    0.940421
   4 N :    0.947080
   5 H :   -0.265848
   6 H :   -0.241606
   7 H :   -0.251619
   8 H :   -0.243932
   9 H :   -0.232612
  10 C :    0.303715
  11 H :   -0.137242
  12 H :   -0.123069
  13 C :    0.617157
  14 H :   -0.143616
  15 H :   -0.130833
  16 H :   -0.196812
  17 H :   -0.163652
  18 H :   -0.170139

  Mayer bond orders larger than 0.100000
B(  0-C ,  1-N ) :   0.9725 B(  0-C , 10-C ) :   0.9323 B(  0-C , 11-H ) :   0.9441
B(  0-C , 12-H ) :   0.8771 B(  1-N ,  2-C ) :   0.7627 B(  1-N ,  3-N ) :  -0.1116
B(  1-N ,  7-H ) :   0.9988 B(  2-C ,  3-N ) :   1.0126 B(  2-C ,  4-N ) :   0.9608
B(  3-N ,  8-H ) :   1.1079 B(  3-N ,  9-H ) :   1.0624 B(  4-N ,  5-H ) :   1.0381
B(  4-N ,  6-H ) :   0.9884 B( 10-C , 13-C ) :   0.8250 B( 10-C , 14-H ) :   0.9495
B( 10-C , 15-H ) :   0.8818 B( 13-C , 16-H ) :   0.8782 B( 13-C , 17-H ) :   1.0308
B( 13-C , 18-H ) :   0.9332

E(0)                                       ...   -321.753286578
E(0)                                       ...   -321.753286578
E(CORR)(strong-pairs)                      ...     -1.370570837
E(CORR)(weak-pairs)                        ...     -0.001582158
E(CORR)(corrected)                         ...     -1.372152995
E(TOT)                                     ...   -323.125439573
E(CCSD(T))                                 ...   -323.180537944
FINAL SINGLE POINT ENERGY      -323.180537943646

DIPOLE MOMENT
-------------
                                X             Y             Z
Electronic contribution:      3.91602      -4.90870      -2.33423
Nuclear contribution   :     -2.72963       4.05673       1.67650
                        -----------------------------------------
Total Dipole Moment    :      1.18639      -0.85197      -0.65772
                        -----------------------------------------
Magnitude (a.u.)       :      1.60187
Magnitude (Debye)      :      4.07163

Rotational constants in cm-1:     0.140891     0.054763     0.048590
Rotational constants in MHz :  4223.814968  1641.764475  1456.690885

                             ****ORCA TERMINATED NORMALLY****
TOTAL RUN TIME: 0 days 2 hours 24 minutes 29 seconds 988 msec
