                         Program Version 5.0.0 -  RELEASE  -
|  1> !DLPNO-CCSD(T) aug-cc-pVTZ aug-cc-pVTZ/C TightSCF TightPNO RIJCOSX def2/J
|  2> *xyz 0 1
|  3> C          0.61188        1.65763       -4.50029
|  4> C          1.69499        1.54179       -5.57045
|  5> H          2.69733        1.73466       -5.18400
|  6> H          1.50666        2.27224       -6.35808
|  7> S          1.78029       -0.03313       -6.42874
|  8> F          2.56929        0.21366       -7.60736
|  9> O          0.41688       -0.46297       -6.61859
| 10> C          0.68036        0.65542       -3.34804
| 11> H         -0.35687        1.54923       -4.99113
| 12> H          0.65023        2.67544       -4.09600
| 13> O          2.50513       -0.93326       -5.48257
| 14> H          0.64318       -0.34009       -3.73853
| 15> H         -0.14865        0.81153       -2.68980
| 16> H          1.59447        0.79330       -2.80925
| 17> *
| 18> %MaxCore 64000
| 19>
| 20> %pal nprocs 2
| 21> end
| 22>
| 23> %scf
| 24>   MaxIter 150
| 25> end
| 26>
| 27>
| 28>                          ****END OF INPUT****

CARTESIAN COORDINATES (ANGSTROEM)
---------------------------------
  C      0.611880    1.657630   -4.500290
  C      1.694990    1.541790   -5.570450
  H      2.697330    1.734660   -5.184000
  H      1.506660    2.272240   -6.358080
  S      1.780290   -0.033130   -6.428740
  F      2.569290    0.213660   -7.607360
  O      0.416880   -0.462970   -6.618590
  C      0.680360    0.655420   -3.348040
  H     -0.356870    1.549230   -4.991130
  H      0.650230    2.675440   -4.096000
  O      2.505130   -0.933260   -5.482570
  H      0.643180   -0.340090   -3.738530
  H     -0.148650    0.811530   -2.689800
  H      1.594470    0.793300   -2.809250

 Total Charge           Charge          ....    0
 Multiplicity           Mult            ....    1
 Number of Electrons    NEL             ....   66
 Basis Dimension        Dim             ....  487

ORBITAL ENERGIES
----------------

  NO   OCC          E(Eh)            E(eV)
   0   2.0000     -92.250288     -2510.2580
   1   2.0000     -26.435532      -719.3474
   2   2.0000     -20.571205      -559.7709
   3   2.0000     -20.549756      -559.1873
   4   2.0000     -11.294025      -307.3261
   5   2.0000     -11.254349      -306.2464
   6   2.0000     -11.213068      -305.1231
   7   2.0000      -9.213943      -250.7241
   8   2.0000      -6.901340      -187.7950
   9   2.0000      -6.897545      -187.6917
  10   2.0000      -6.896748      -187.6701
  11   2.0000      -1.804906       -49.1140
  12   2.0000      -1.451382       -39.4941
  13   2.0000      -1.334720       -36.3196
  14   2.0000      -1.109240       -30.1840
  15   2.0000      -1.018067       -27.7030
  16   2.0000      -0.955353       -25.9965
  17   2.0000      -0.864642       -23.5281
  18   2.0000      -0.832371       -22.6500
  19   2.0000      -0.812434       -22.1075
  20   2.0000      -0.762052       -20.7365
  21   2.0000      -0.675274       -18.3751
  22   2.0000      -0.660154       -17.9637
  23   2.0000      -0.626191       -17.0395
  24   2.0000      -0.621377       -16.9085
  25   2.0000      -0.588049       -16.0016
  26   2.0000      -0.555537       -15.1169
  27   2.0000      -0.522717       -14.2239
  28   2.0000      -0.520671       -14.1682
  29   2.0000      -0.501541       -13.6476
  30   2.0000      -0.497825       -13.5465
  31   2.0000      -0.471277       -12.8241
  32   2.0000      -0.464868       -12.6497
  33   0.0000       0.022649         0.6163
  34   0.0000       0.035101         0.9551
  35   0.0000       0.038754         1.0545
  36   0.0000       0.045960         1.2506
  37   0.0000       0.058184         1.5833

MULLIKEN ATOMIC CHARGES
-----------------------
   0 C :   -0.470090
   1 C :   -0.489937
   2 H :    0.301324
   3 H :    0.263218
   4 S :    2.140061
   5 F :   -0.484463
   6 O :   -0.917404
   7 C :   -0.983107
   8 H :    0.304663
   9 H :    0.320636
  10 O :   -0.915919
  11 H :    0.355648
  12 H :    0.279290
  13 H :    0.296080
Sum of atomic charges:    0.0000000

LOEWDIN ATOMIC CHARGES
----------------------
   0 C :    0.238293
   1 C :    0.183641
   2 H :   -0.185567
   3 H :   -0.200133
   4 S :   -0.105335
   5 F :    0.292144
   6 O :    0.046185
   7 C :    0.593117
   8 H :   -0.163914
   9 H :   -0.141909
  10 O :    0.011811
  11 H :   -0.210266
  12 H :   -0.178320
  13 H :   -0.179746

  Mayer bond orders larger than 0.100000
B(  0-C ,  1-C ) :   0.9199 B(  0-C ,  4-S ) :   0.1261 B(  0-C ,  7-C ) :   0.8338
B(  0-C ,  8-H ) :   0.9134 B(  0-C ,  9-H ) :   0.9049 B(  1-C ,  2-H ) :   0.9074
B(  1-C ,  3-H ) :   0.9253 B(  1-C ,  4-S ) :   0.8308 B(  4-S ,  5-F ) :   0.5077
B(  4-S ,  6-O ) :   1.5508 B(  4-S , 10-O ) :   1.5202 B(  7-C , 11-H ) :   0.9142
B(  7-C , 12-H ) :   0.9781 B(  7-C , 13-H ) :   0.9343

E(0)                                       ...   -764.465371320
E(0)                                       ...   -764.465371320
E(CORR)(strong-pairs)                      ...     -1.495217466
E(CORR)(weak-pairs)                        ...     -0.001607674
E(CORR)(corrected)                         ...     -1.496825140
E(TOT)                                     ...   -765.962196460
E(CCSD(T))                                 ...   -766.023172592
FINAL SINGLE POINT ENERGY      -766.023172592194

DIPOLE MOMENT
-------------
                                X             Y             Z
Electronic contribution:      5.14779      -5.25924     -12.02044
Nuclear contribution   :     -4.93724       7.05784      11.92827
                        -----------------------------------------
Total Dipole Moment    :      0.21055       1.79860      -0.09217
                        -----------------------------------------
Magnitude (a.u.)       :      1.81323
Magnitude (Debye)      :      4.60886

Rotational constants in cm-1:     0.134572     0.053398     0.050578
Rotational constants in MHz :  4034.377338  1600.833917  1516.302250

                             ****ORCA TERMINATED NORMALLY****
TOTAL RUN TIME: 0 days 1 hours 20 minutes 59 seconds 21 msec
