                         Program Version 5.0.0 -  RELEASE  -
|  1> !DLPNO-CCSD(T) aug-cc-pVTZ aug-cc-pVTZ/C TightSCF TightPNO RIJCOSX def2/J
|  2> *xyz 0 1
|  3> C          1.96337       -1.74915       -1.89689
|  4> C          2.73849       -2.01517       -3.09711
|  5> C          4.04974       -2.15472       -3.15204
|  6> N          4.65821       -1.98629       -4.31866
|  7> N          4.76423       -2.45444       -2.05049
|  8> H          4.28736       -2.77626       -1.21750
|  9> H          5.75082       -2.65835       -2.12599
| 10> H          2.34518       -1.69027       -3.97145
| 11> H          4.10900       -1.59268       -5.07176
| 12> H          5.64910       -2.15646       -4.42724
| 13> C          2.08852       -0.30091       -1.41520
| 14> H          2.23127       -2.45162       -1.10264
| 15> H          0.93025       -1.97780       -2.15544
| 16> C          1.96899        0.73358       -2.53565
| 17> H          3.05136       -0.16860       -0.91187
| 18> H          1.31650       -0.13623       -0.65725
| 19> H          2.73046        0.55745       -3.26643
| 20> H          2.08619        1.71595       -2.12808
| 21> H          1.00672        0.65098       -2.99620
| 22> *
| 23> %MaxCore 64000
| 24>
| 25> %pal nprocs 2
| 26> end
| 27>
| 28> %scf
| 29>   MaxIter 150
| 30> end
| 31>
| 32>
| 33>                          ****END OF INPUT****

CARTESIAN COORDINATES (ANGSTROEM)
---------------------------------
  C      1.963370   -1.749150   -1.896890
  C      2.738490   -2.015170   -3.097110
  C      4.049740   -2.154720   -3.152040
  N      4.658210   -1.986290   -4.318660
  N      4.764230   -2.454440   -2.050490
  H      4.287360   -2.776260   -1.217500
  H      5.750820   -2.658350   -2.125990
  H      2.345180   -1.690270   -3.971450
  H      4.109000   -1.592680   -5.071760
  H      5.649100   -2.156460   -4.427240
  C      2.088520   -0.300910   -1.415200
  H      2.231270   -2.451620   -1.102640
  H      0.930250   -1.977800   -2.155440
  C      1.968990    0.733580   -2.535650
  H      3.051360   -0.168600   -0.911870
  H      1.316500   -0.136230   -0.657250
  H      2.730460    0.557450   -3.266430
  H      2.086190    1.715950   -2.128080
  H      1.006720    0.650980   -2.996200

 Total Charge           Charge          ....    0
 Multiplicity           Mult            ....    1
 Number of Electrons    NEL             ....   56
 Basis Dimension        Dim             ....  598

ORBITAL ENERGIES
----------------

  NO   OCC          E(Eh)            E(eV)
   0   2.0000     -15.562980      -423.4902
   1   2.0000     -15.561581      -423.4522
   2   2.0000     -11.282764      -307.0196
   3   2.0000     -11.197372      -304.6960
   4   2.0000     -11.194235      -304.6106
   5   2.0000     -11.187162      -304.4182
   6   2.0000     -11.134069      -302.9734
   7   2.0000      -1.277450       -34.7612
   8   2.0000      -1.165422       -31.7128
   9   2.0000      -1.063099       -28.9284
  10   2.0000      -0.980574       -26.6828
  11   2.0000      -0.900253       -24.4971
  12   2.0000      -0.809540       -22.0287
  13   2.0000      -0.769057       -20.9271
  14   2.0000      -0.723151       -19.6779
  15   2.0000      -0.689306       -18.7570
  16   2.0000      -0.640801       -17.4371
  17   2.0000      -0.610930       -16.6243
  18   2.0000      -0.599314       -16.3082
  19   2.0000      -0.567237       -15.4353
  20   2.0000      -0.547658       -14.9025
  21   2.0000      -0.524272       -14.2662
  22   2.0000      -0.507233       -13.8025
  23   2.0000      -0.469102       -12.7649
  24   2.0000      -0.452662       -12.3176
  25   2.0000      -0.446615       -12.1530
  26   2.0000      -0.414938       -11.2910
  27   2.0000      -0.258948        -7.0463
  28   0.0000       0.023513         0.6398
  29   0.0000       0.034279         0.9328
  30   0.0000       0.038807         1.0560
  31   0.0000       0.043540         1.1848
  32   0.0000       0.050956         1.3866

MULLIKEN ATOMIC CHARGES
-----------------------
   0 C :   -0.248476
   1 C :   -0.216540
   2 C :    0.644060
   3 N :   -0.591491
   4 N :   -0.523690
   5 H :    0.101156
   6 H :    0.137865
   7 H :    0.127601
   8 H :    0.063291
   9 H :    0.100394
  10 C :   -0.460007
  11 H :    0.184718
  12 H :    0.281859
  13 C :   -1.043346
  14 H :    0.249069
  15 H :    0.298728
  16 H :    0.379250
  17 H :    0.228228
  18 H :    0.287330
Sum of atomic charges:   -0.0000000

LOEWDIN ATOMIC CHARGES
----------------------
   0 C :    0.224982
   1 C :    0.173588
   2 C :   -0.425418
   3 N :    0.857467
   4 N :    0.872989
   5 H :   -0.290796
   6 H :   -0.282022
   7 H :   -0.280783
   8 H :   -0.275513
   9 H :   -0.275499
  10 C :    0.275625
  11 H :   -0.159899
  12 H :   -0.151838
  13 C :    0.596276
  14 H :   -0.148240
  15 H :   -0.151601
  16 H :   -0.198429
  17 H :   -0.183902
  18 H :   -0.176989

  Mayer bond orders larger than 0.100000
B(  0-C ,  1-C ) :   0.7202 B(  0-C , 10-C ) :   0.8883 B(  0-C , 11-H ) :   0.9551
B(  0-C , 12-H ) :   1.0344 B(  1-C ,  2-C ) :   1.1480 B(  1-C ,  3-N ) :  -0.2648
B(  1-C ,  4-N ) :  -0.1298 B(  1-C ,  7-H ) :   1.0972 B(  1-C , 10-C ) :   0.1051
B(  1-C , 12-H ) :  -0.1173 B(  2-C ,  3-N ) :   0.8718 B(  2-C ,  4-N ) :   0.7419
B(  2-C ,  7-H ) :   0.1114 B(  3-N ,  4-N ) :  -0.1261 B(  3-N ,  8-H ) :   1.1940
B(  3-N ,  9-H ) :   1.1163 B(  4-N ,  5-H ) :   1.1433 B(  4-N ,  6-H ) :   1.0453
B( 10-C , 13-C ) :   0.7923 B( 10-C , 14-H ) :   0.9437 B( 10-C , 15-H ) :   0.9343
B( 13-C , 16-H ) :   0.8584 B( 13-C , 17-H ) :   1.0473 B( 13-C , 18-H ) :   0.9584

E(0)                                       ...   -305.294906870
E(0)                                       ...   -305.294906870
E(CORR)(strong-pairs)                      ...     -1.354734896
E(CORR)(weak-pairs)                        ...     -0.001579761
E(CORR)(corrected)                         ...     -1.356314657
E(TOT)                                     ...   -306.651221528
E(CCSD(T))                                 ...   -306.706848877
FINAL SINGLE POINT ENERGY      -306.706848877190

DIPOLE MOMENT
-------------
                                X             Y             Z
Electronic contribution:      3.86559      -4.04115      -1.73155
Nuclear contribution   :     -2.83106       3.92601       1.57906
                        -----------------------------------------
Total Dipole Moment    :      1.03452      -0.11514      -0.15248
                        -----------------------------------------
Magnitude (a.u.)       :      1.05202
Magnitude (Debye)      :      2.67402

Rotational constants in cm-1:     0.142679     0.055043     0.048600
Rotational constants in MHz :  4277.395781  1650.135877  1456.977167

                             ****ORCA TERMINATED NORMALLY****
TOTAL RUN TIME: 0 days 2 hours 17 minutes 21 seconds 587 msec
