                         Program Version 5.0.0 -  RELEASE  -
|  1> !DLPNO-CCSD(T) aug-cc-pVTZ aug-cc-pVTZ/C TightSCF TightPNO RIJCOSX def2/J
|  2> *xyz 0 1
|  3> C          0.61188        1.65763       -4.50029
|  4> C          1.69499        1.54179       -5.57045
|  5> H          2.69733        1.73466       -5.18400
|  6> H          1.50666        2.27224       -6.35808
|  7> S          1.78029       -0.03313       -6.42874
|  8> O          2.56929        0.21366       -7.60736
|  9> F          0.41688       -0.46297       -6.61859
| 10> C          0.68036        0.65542       -3.34804
| 11> H         -0.35687        1.54923       -4.99113
| 12> H          0.65023        2.67544       -4.09600
| 13> O          2.50513       -0.93326       -5.48257
| 14> H          0.64318       -0.34009       -3.73853
| 15> H         -0.14865        0.81153       -2.68980
| 16> H          1.59447        0.79330       -2.80925
| 17> *
| 18> %MaxCore 64000
| 19>
| 20> %pal nprocs 2
| 21> end
| 22>
| 23> %scf
| 24>   MaxIter 150
| 25> end
| 26>
| 27>
| 28>                          ****END OF INPUT****

CARTESIAN COORDINATES (ANGSTROEM)
---------------------------------
  C      0.611880    1.657630   -4.500290
  C      1.694990    1.541790   -5.570450
  H      2.697330    1.734660   -5.184000
  H      1.506660    2.272240   -6.358080
  S      1.780290   -0.033130   -6.428740
  O      2.569290    0.213660   -7.607360
  F      0.416880   -0.462970   -6.618590
  C      0.680360    0.655420   -3.348040
  H     -0.356870    1.549230   -4.991130
  H      0.650230    2.675440   -4.096000
  O      2.505130   -0.933260   -5.482570
  H      0.643180   -0.340090   -3.738530
  H     -0.148650    0.811530   -2.689800
  H      1.594470    0.793300   -2.809250

 Total Charge           Charge          ....    0
 Multiplicity           Mult            ....    1
 Number of Electrons    NEL             ....   66
 Basis Dimension        Dim             ....  487

ORBITAL ENERGIES
----------------

  NO   OCC          E(Eh)            E(eV)
   0   2.0000     -92.249563     -2510.2382
   1   2.0000     -26.434918      -719.3307
   2   2.0000     -20.569943      -559.7366
   3   2.0000     -20.548923      -559.1646
   4   2.0000     -11.293678      -307.3166
   5   2.0000     -11.260694      -306.4191
   6   2.0000     -11.223688      -305.4121
   7   2.0000      -9.213220      -250.7045
   8   2.0000      -6.900879      -187.7825
   9   2.0000      -6.896631      -187.6669
  10   2.0000      -6.895925      -187.6477
  11   2.0000      -1.803467       -49.0748
  12   2.0000      -1.451448       -39.4959
  13   2.0000      -1.333779       -36.2940
  14   2.0000      -1.115639       -30.3581
  15   2.0000      -1.016519       -27.6609
  16   2.0000      -0.960309       -26.1313
  17   2.0000      -0.865388       -23.5484
  18   2.0000      -0.832265       -22.6471
  19   2.0000      -0.828135       -22.5347
  20   2.0000      -0.751611       -20.4524
  21   2.0000      -0.672056       -18.2876
  22   2.0000      -0.662561       -18.0292
  23   2.0000      -0.634421       -17.2635
  24   2.0000      -0.619575       -16.8595
  25   2.0000      -0.598358       -16.2822
  26   2.0000      -0.557002       -15.1568
  27   2.0000      -0.540703       -14.7133
  28   2.0000      -0.524832       -14.2814
  29   2.0000      -0.511181       -13.9099
  30   2.0000      -0.491037       -13.3618
  31   2.0000      -0.472664       -12.8618
  32   2.0000      -0.462735       -12.5917
  33   0.0000       0.022053         0.6001
  34   0.0000       0.033911         0.9228
  35   0.0000       0.035407         0.9635
  36   0.0000       0.044926         1.2225
  37   0.0000       0.056445         1.5359

MULLIKEN ATOMIC CHARGES
-----------------------
   0 C :   -0.489977
   1 C :   -0.467036
   2 H :    0.310342
   3 H :    0.264375
   4 S :    2.195835
   5 O :   -0.910083
   6 F :   -0.529756
   7 C :   -0.966008
   8 H :    0.294360
   9 H :    0.304036
  10 O :   -0.911849
  11 H :    0.323304
  12 H :    0.276626
  13 H :    0.305830
Sum of atomic charges:   -0.0000000

LOEWDIN ATOMIC CHARGES
----------------------
   0 C :    0.229726
   1 C :    0.185720
   2 H :   -0.169186
   3 H :   -0.197841
   4 S :   -0.108120
   5 O :    0.035005
   6 F :    0.297310
   7 C :    0.590773
   8 H :   -0.165211
   9 H :   -0.142023
  10 O :    0.012944
  11 H :   -0.213621
  12 H :   -0.179105
  13 H :   -0.176372

  Mayer bond orders larger than 0.100000
B(  0-C ,  1-C ) :   0.9131 B(  0-C ,  4-S ) :   0.1115 B(  0-C ,  7-C ) :   0.8309
B(  0-C ,  8-H ) :   0.9272 B(  0-C ,  9-H ) :   0.9257 B(  1-C ,  2-H ) :   0.9050
B(  1-C ,  3-H ) :   0.9391 B(  1-C ,  4-S ) :   0.8564 B(  1-C ,  6-F ) :   0.1107
B(  4-S ,  5-O ) :   1.4510 B(  4-S ,  6-F ) :   0.5500 B(  4-S , 10-O ) :   1.5096
B(  7-C , 11-H ) :   0.9299 B(  7-C , 12-H ) :   0.9797 B(  7-C , 13-H ) :   0.9280

E(0)                                       ...   -764.464806702
E(0)                                       ...   -764.464806702
E(CORR)(strong-pairs)                      ...     -1.494872333
E(CORR)(weak-pairs)                        ...     -0.001561689
E(CORR)(corrected)                         ...     -1.496434022
E(TOT)                                     ...   -765.961240724
E(CCSD(T))                                 ...   -766.022098736
FINAL SINGLE POINT ENERGY      -766.022098736031

DIPOLE MOMENT
-------------
                                X             Y             Z
Electronic contribution:      1.30302      -6.43849     -10.18526
Nuclear contribution   :     -2.62245       7.78551      10.86491
                        -----------------------------------------
Total Dipole Moment    :     -1.31943       1.34702       0.67965
                        -----------------------------------------
Magnitude (a.u.)       :      2.00432
Magnitude (Debye)      :      5.09457

Rotational constants in cm-1:     0.129509     0.054228     0.052367
Rotational constants in MHz :  3882.596420  1625.701900  1569.934536

                             ****ORCA TERMINATED NORMALLY****
TOTAL RUN TIME: 0 days 1 hours 21 minutes 58 seconds 319 msec
