                         Program Version 5.0.0 -  RELEASE  -
|  1> !DLPNO-CCSD(T) aug-cc-pVTZ aug-cc-pVTZ/C TightSCF TightPNO RIJCOSX def2/J
|  2> *xyz 0 1
|  3> C          1.96337       -1.74915       -1.89689
|  4> N          2.73849       -2.01517       -3.09711
|  5> C          4.04974       -2.15472       -3.15204
|  6> C          4.65821       -1.98629       -4.31866
|  7> N          4.76423       -2.45444       -2.05049
|  8> H          4.28736       -2.77626       -1.21750
|  9> H          5.75082       -2.65835       -2.12599
| 10> H          2.34518       -1.69027       -3.97145
| 11> H          4.10900       -1.59268       -5.07176
| 12> H          5.64910       -2.15646       -4.42724
| 13> C          2.08852       -0.30091       -1.41520
| 14> H          2.23127       -2.45162       -1.10264
| 15> H          0.93025       -1.97780       -2.15544
| 16> C          1.96899        0.73358       -2.53565
| 17> H          3.05136       -0.16860       -0.91187
| 18> H          1.31650       -0.13623       -0.65725
| 19> H          2.73046        0.55745       -3.26643
| 20> H          2.08619        1.71595       -2.12808
| 21> H          1.00672        0.65098       -2.99620
| 22> *
| 23> %MaxCore 64000
| 24>
| 25> %pal nprocs 2
| 26> end
| 27>
| 28> %scf
| 29>   MaxIter 150
| 30> end
| 31>
| 32>
| 33>                          ****END OF INPUT****

CARTESIAN COORDINATES (ANGSTROEM)
---------------------------------
  C      1.963370   -1.749150   -1.896890
  N      2.738490   -2.015170   -3.097110
  C      4.049740   -2.154720   -3.152040
  C      4.658210   -1.986290   -4.318660
  N      4.764230   -2.454440   -2.050490
  H      4.287360   -2.776260   -1.217500
  H      5.750820   -2.658350   -2.125990
  H      2.345180   -1.690270   -3.971450
  H      4.109000   -1.592680   -5.071760
  H      5.649100   -2.156460   -4.427240
  C      2.088520   -0.300910   -1.415200
  H      2.231270   -2.451620   -1.102640
  H      0.930250   -1.977800   -2.155440
  C      1.968990    0.733580   -2.535650
  H      3.051360   -0.168600   -0.911870
  H      1.316500   -0.136230   -0.657250
  H      2.730460    0.557450   -3.266430
  H      2.086190    1.715950   -2.128080
  H      1.006720    0.650980   -2.996200

 Total Charge           Charge          ....    0
 Multiplicity           Mult            ....    1
 Number of Electrons    NEL             ....   56
 Basis Dimension        Dim             ....  598

ORBITAL ENERGIES
----------------

  NO   OCC          E(Eh)            E(eV)
   0   2.0000     -15.561574      -423.4519
   1   2.0000     -15.556328      -423.3092
   2   2.0000     -11.285344      -307.0898
   3   2.0000     -11.265048      -306.5375
   4   2.0000     -11.221820      -305.3613
   5   2.0000     -11.206958      -304.9568
   6   2.0000     -11.129218      -302.8414
   7   2.0000      -1.287534       -35.0356
   8   2.0000      -1.181000       -32.1366
   9   2.0000      -1.058711       -28.8090
  10   2.0000      -0.984789       -26.7975
  11   2.0000      -0.916200       -24.9311
  12   2.0000      -0.823479       -22.4080
  13   2.0000      -0.790746       -21.5173
  14   2.0000      -0.717330       -19.5195
  15   2.0000      -0.670232       -18.2379
  16   2.0000      -0.648715       -17.6524
  17   2.0000      -0.628292       -17.0967
  18   2.0000      -0.607925       -16.5425
  19   2.0000      -0.560350       -15.2479
  20   2.0000      -0.554406       -15.0861
  21   2.0000      -0.548781       -14.9331
  22   2.0000      -0.527690       -14.3592
  23   2.0000      -0.496676       -13.5152
  24   2.0000      -0.491004       -13.3609
  25   2.0000      -0.479155       -13.0385
  26   2.0000      -0.396807       -10.7977
  27   2.0000      -0.264730        -7.2037
  28   0.0000       0.026174         0.7122
  29   0.0000       0.033539         0.9126
  30   0.0000       0.037732         1.0267
  31   0.0000       0.038983         1.0608
  32   0.0000       0.052325         1.4238

MULLIKEN ATOMIC CHARGES
-----------------------
   0 C :   -0.509329
   1 N :   -0.098688
   2 C :    0.798336
   3 C :   -1.343311
   4 N :   -0.546063
   5 H :    0.129860
   6 H :    0.072770
   7 H :    0.040210
   8 H :    0.241389
   9 H :    0.535342
  10 C :   -0.376082
  11 H :    0.247926
  12 H :    0.382480
  13 C :   -1.055724
  14 H :    0.247170
  15 H :    0.330012
  16 H :    0.391659
  17 H :    0.231741
  18 H :    0.280303
Sum of atomic charges:   -0.0000000

LOEWDIN ATOMIC CHARGES
----------------------
   0 C :    0.213171
   1 N :    0.558227
   2 C :   -0.460402
   3 C :    0.540513
   4 N :    0.868023
   5 H :   -0.304178
   6 H :   -0.269739
   7 H :   -0.275500
   8 H :   -0.311766
   9 H :   -0.305015
  10 C :    0.285011
  11 H :   -0.151083
  12 H :   -0.142021
  13 C :    0.603405
  14 H :   -0.148032
  15 H :   -0.149499
  16 H :   -0.193703
  17 H :   -0.178712
  18 H :   -0.178699

  Mayer bond orders larger than 0.100000
B(  0-C ,  1-N ) :   1.0499 B(  0-C , 10-C ) :   0.9230 B(  0-C , 11-H ) :   0.9504
B(  0-C , 12-H ) :   0.8916 B(  1-N ,  2-C ) :   0.5941 B(  1-N ,  3-C ) :  -0.2417
B(  1-N ,  7-H ) :   1.1207 B(  2-C ,  3-C ) :   1.1346 B(  2-C ,  4-N ) :   0.8051
B(  2-C ,  7-H ) :  -0.1096 B(  3-C ,  4-N ) :  -0.2505 B(  3-C ,  8-H ) :   1.2461
B(  3-C ,  9-H ) :   0.6796 B(  4-N ,  5-H ) :   1.0941 B(  4-N ,  6-H ) :   1.1156
B( 10-C , 13-C ) :   0.8066 B( 10-C , 14-H ) :   0.9540 B( 10-C , 15-H ) :   0.8886
B( 13-C , 16-H ) :   0.8475 B( 13-C , 17-H ) :   1.0537 B( 13-C , 18-H ) :   0.9435

E(0)                                       ...   -305.295383711
E(0)                                       ...   -305.295383711
E(CORR)(strong-pairs)                      ...     -1.350571204
E(CORR)(weak-pairs)                        ...     -0.001582855
E(CORR)(corrected)                         ...     -1.352154059
E(TOT)                                     ...   -306.647537770
E(CCSD(T))                                 ...   -306.702770323
FINAL SINGLE POINT ENERGY      -306.702770323316

DIPOLE MOMENT
-------------
                                X             Y             Z
Electronic contribution:      1.89677      -3.91117      -0.36160
Nuclear contribution   :     -2.41054       3.93233       1.31148
                        -----------------------------------------
Total Dipole Moment    :     -0.51377       0.02117       0.94988
                        -----------------------------------------
Magnitude (a.u.)       :      1.08013
Magnitude (Debye)      :      2.74547

Rotational constants in cm-1:     0.144008     0.056232     0.050126
Rotational constants in MHz :  4317.255215  1685.791221  1502.728769

                             ****ORCA TERMINATED NORMALLY****
TOTAL RUN TIME: 0 days 2 hours 14 minutes 1 seconds 972 msec
