                         Program Version 5.0.0 -  RELEASE  -
|  1> !DLPNO-CCSD(T) aug-cc-pVTZ aug-cc-pVTZ/C TightSCF TightPNO RIJCOSX def2/J
|  2> *xyz 0 1
|  3> C          0.61188        1.65763       -4.50029
|  4> C          1.69499        1.54179       -5.57045
|  5> H          2.69733        1.73466       -5.18400
|  6> H          1.50666        2.27224       -6.35808
|  7> S          1.78029       -0.03313       -6.42874
|  8> O          2.56929        0.21366       -7.60736
|  9> O          0.41688       -0.46297       -6.61859
| 10> C          0.68036        0.65542       -3.34804
| 11> H         -0.35687        1.54923       -4.99113
| 12> H          0.65023        2.67544       -4.09600
| 13> F          2.50513       -0.93326       -5.48257
| 14> H          0.64318       -0.34009       -3.73853
| 15> H         -0.14865        0.81153       -2.68980
| 16> H          1.59447        0.79330       -2.80925
| 17> *
| 18> %MaxCore 64000
| 19>
| 20> %pal nprocs 2
| 21> end
| 22>
| 23> %scf
| 24>   MaxIter 150
| 25> end
| 26>
| 27>
| 28>                          ****END OF INPUT****

CARTESIAN COORDINATES (ANGSTROEM)
---------------------------------
  C      0.611880    1.657630   -4.500290
  C      1.694990    1.541790   -5.570450
  H      2.697330    1.734660   -5.184000
  H      1.506660    2.272240   -6.358080
  S      1.780290   -0.033130   -6.428740
  O      2.569290    0.213660   -7.607360
  O      0.416880   -0.462970   -6.618590
  C      0.680360    0.655420   -3.348040
  H     -0.356870    1.549230   -4.991130
  H      0.650230    2.675440   -4.096000
  F      2.505130   -0.933260   -5.482570
  H      0.643180   -0.340090   -3.738530
  H     -0.148650    0.811530   -2.689800
  H      1.594470    0.793300   -2.809250

 Total Charge           Charge          ....    0
 Multiplicity           Mult            ....    1
 Number of Electrons    NEL             ....   66
 Basis Dimension        Dim             ....  487

ORBITAL ENERGIES
----------------

  NO   OCC          E(Eh)            E(eV)
   0   2.0000     -92.248394     -2510.2064
   1   2.0000     -26.405100      -718.5193
   2   2.0000     -20.569950      -559.7368
   3   2.0000     -20.569219      -559.7169
   4   2.0000     -11.292754      -307.2915
   5   2.0000     -11.255762      -306.2849
   6   2.0000     -11.228158      -305.5337
   7   2.0000      -9.211619      -250.6609
   8   2.0000      -6.899298      -187.7395
   9   2.0000      -6.895332      -187.6315
  10   2.0000      -6.894363      -187.6051
  11   2.0000      -1.755328       -47.7649
  12   2.0000      -1.466013       -39.8922
  13   2.0000      -1.365449       -37.1558
  14   2.0000      -1.112858       -30.2824
  15   2.0000      -1.011096       -27.5133
  16   2.0000      -0.939022       -25.5521
  17   2.0000      -0.860078       -23.4039
  18   2.0000      -0.798144       -21.7186
  19   2.0000      -0.792521       -21.5656
  20   2.0000      -0.758093       -20.6288
  21   2.0000      -0.682987       -18.5850
  22   2.0000      -0.654436       -17.8081
  23   2.0000      -0.643259       -17.5040
  24   2.0000      -0.627846       -17.0846
  25   2.0000      -0.601312       -16.3625
  26   2.0000      -0.565579       -15.3902
  27   2.0000      -0.541932       -14.7467
  28   2.0000      -0.524372       -14.2689
  29   2.0000      -0.509576       -13.8663
  30   2.0000      -0.504548       -13.7295
  31   2.0000      -0.490804       -13.3555
  32   2.0000      -0.477793       -13.0014
  33   0.0000       0.023371         0.6360
  34   0.0000       0.034987         0.9521
  35   0.0000       0.035521         0.9666
  36   0.0000       0.045633         1.2417
  37   0.0000       0.057437         1.5629

MULLIKEN ATOMIC CHARGES
-----------------------
   0 C :   -0.483805
   1 C :   -0.490921
   2 H :    0.280445
   3 H :    0.273902
   4 S :    2.242639
   5 O :   -0.915552
   6 O :   -0.928602
   7 C :   -0.990858
   8 H :    0.310626
   9 H :    0.323236
  10 F :   -0.528671
  11 H :    0.335490
  12 H :    0.279463
  13 H :    0.292610
Sum of atomic charges:   -0.0000000

LOEWDIN ATOMIC CHARGES
----------------------
   0 C :    0.230595
   1 C :    0.187434
   2 H :   -0.185247
   3 H :   -0.183817
   4 S :   -0.107376
   5 O :    0.035035
   6 O :    0.047535
   7 C :    0.592140
   8 H :   -0.163644
   9 H :   -0.143297
  10 F :    0.255220
  11 H :   -0.206764
  12 H :   -0.175110
  13 H :   -0.182704

  Mayer bond orders larger than 0.100000
B(  0-C ,  1-C ) :   0.9386 B(  0-C ,  4-S ) :   0.1168 B(  0-C ,  7-C ) :   0.8264
B(  0-C ,  8-H ) :   0.9150 B(  0-C ,  9-H ) :   0.9049 B(  1-C ,  2-H ) :   0.9116
B(  1-C ,  3-H ) :   0.9344 B(  1-C ,  4-S ) :   0.8368 B(  4-S ,  5-O ) :   1.4491
B(  4-S ,  6-O ) :   1.5183 B(  4-S , 10-F ) :   0.5797 B(  7-C , 11-H ) :   0.9213
B(  7-C , 12-H ) :   0.9862 B(  7-C , 13-H ) :   0.9364

E(0)                                       ...   -764.489746258
E(0)                                       ...   -764.489746258
E(CORR)(strong-pairs)                      ...     -1.493731933
E(CORR)(weak-pairs)                        ...     -0.001550132
E(CORR)(corrected)                         ...     -1.495282066
E(TOT)                                     ...   -765.985028324
E(CCSD(T))                                 ...   -766.045575229
FINAL SINGLE POINT ENERGY      -766.045575228806

DIPOLE MOMENT
-------------
                                X             Y             Z
Electronic contribution:      5.01793      -7.29537      -8.14113
Nuclear contribution   :     -4.86824       8.29128       9.64318
                        -----------------------------------------
Total Dipole Moment    :      0.14969       0.99592       1.50205
                        -----------------------------------------
Magnitude (a.u.)       :      1.80843
Magnitude (Debye)      :      4.59666

Rotational constants in cm-1:     0.129339     0.055092     0.051542
Rotational constants in MHz :  3877.477482  1651.602611  1545.182728

                             ****ORCA TERMINATED NORMALLY****
TOTAL RUN TIME: 0 days 1 hours 20 minutes 31 seconds 661 msec
