                         Program Version 5.0.0 -  RELEASE  -
|  1> !DLPNO-CCSD(T) aug-cc-pVTZ aug-cc-pVTZ/C TightSCF TightPNO RIJCOSX def2/J
|  2> *xyz 0 1
|  3> C          1.96337       -1.74915       -1.89689
|  4> N          2.73849       -2.01517       -3.09711
|  5> C          4.04974       -2.15472       -3.15204
|  6> N          4.65821       -1.98629       -4.31866
|  7> C          4.76423       -2.45444       -2.05049
|  8> H          4.28736       -2.77626       -1.21750
|  9> H          5.75082       -2.65835       -2.12599
| 10> H          2.34518       -1.69027       -3.97145
| 11> H          4.10900       -1.59268       -5.07176
| 12> H          5.64910       -2.15646       -4.42724
| 13> C          2.08852       -0.30091       -1.41520
| 14> H          2.23127       -2.45162       -1.10264
| 15> H          0.93025       -1.97780       -2.15544
| 16> C          1.96899        0.73358       -2.53565
| 17> H          3.05136       -0.16860       -0.91187
| 18> H          1.31650       -0.13623       -0.65725
| 19> H          2.73046        0.55745       -3.26643
| 20> H          2.08619        1.71595       -2.12808
| 21> H          1.00672        0.65098       -2.99620
| 22> *
| 23> %MaxCore 64000
| 24>
| 25> %pal nprocs 2
| 26> end
| 27>
| 28> %scf
| 29>   MaxIter 150
| 30> end
| 31>
| 32>
| 33>                          ****END OF INPUT****

CARTESIAN COORDINATES (ANGSTROEM)
---------------------------------
  C      1.963370   -1.749150   -1.896890
  N      2.738490   -2.015170   -3.097110
  C      4.049740   -2.154720   -3.152040
  N      4.658210   -1.986290   -4.318660
  C      4.764230   -2.454440   -2.050490
  H      4.287360   -2.776260   -1.217500
  H      5.750820   -2.658350   -2.125990
  H      2.345180   -1.690270   -3.971450
  H      4.109000   -1.592680   -5.071760
  H      5.649100   -2.156460   -4.427240
  C      2.088520   -0.300910   -1.415200
  H      2.231270   -2.451620   -1.102640
  H      0.930250   -1.977800   -2.155440
  C      1.968990    0.733580   -2.535650
  H      3.051360   -0.168600   -0.911870
  H      1.316500   -0.136230   -0.657250
  H      2.730460    0.557450   -3.266430
  H      2.086190    1.715950   -2.128080
  H      1.006720    0.650980   -2.996200

 Total Charge           Charge          ....    0
 Multiplicity           Mult            ....    1
 Number of Electrons    NEL             ....   56
 Basis Dimension        Dim             ....  598

ORBITAL ENERGIES
----------------

  NO   OCC          E(Eh)            E(eV)
   0   2.0000     -15.564686      -423.5366
   1   2.0000     -15.560482      -423.4222
   2   2.0000     -11.287407      -307.1460
   3   2.0000     -11.258656      -306.3636
   4   2.0000     -11.215397      -305.1865
   5   2.0000     -11.206645      -304.9483
   6   2.0000     -11.128195      -302.8136
   7   2.0000      -1.294249       -35.2183
   8   2.0000      -1.186140       -32.2765
   9   2.0000      -1.047938       -28.5158
  10   2.0000      -0.969851       -26.3910
  11   2.0000      -0.935774       -25.4637
  12   2.0000      -0.825609       -22.4660
  13   2.0000      -0.756165       -20.5763
  14   2.0000      -0.728381       -19.8203
  15   2.0000      -0.706036       -19.2122
  16   2.0000      -0.643153       -17.5011
  17   2.0000      -0.617646       -16.8070
  18   2.0000      -0.598324       -16.2812
  19   2.0000      -0.563908       -15.3447
  20   2.0000      -0.552199       -15.0261
  21   2.0000      -0.538841       -14.6626
  22   2.0000      -0.527004       -14.3405
  23   2.0000      -0.496962       -13.5230
  24   2.0000      -0.488079       -13.2813
  25   2.0000      -0.471664       -12.8346
  26   2.0000      -0.393278       -10.7016
  27   2.0000      -0.264311        -7.1923
  28   0.0000       0.024921         0.6781
  29   0.0000       0.033606         0.9145
  30   0.0000       0.039007         1.0614
  31   0.0000       0.040018         1.0889
  32   0.0000       0.051025         1.3884

MULLIKEN ATOMIC CHARGES
-----------------------
   0 C :   -0.461437
   1 N :   -0.246041
   2 C :    0.975147
   3 N :   -0.654385
   4 C :   -1.396278
   5 H :    0.623581
   6 H :    0.226178
   7 H :    0.081829
   8 H :    0.138721
   9 H :    0.076721
  10 C :   -0.425002
  11 H :    0.242087
  12 H :    0.400942
  13 C :   -1.067626
  14 H :    0.259759
  15 H :    0.331989
  16 H :    0.380274
  17 H :    0.233769
  18 H :    0.279771
Sum of atomic charges:    0.0000000

LOEWDIN ATOMIC CHARGES
----------------------
   0 C :    0.217561
   1 N :    0.557787
   2 C :   -0.461131
   3 N :    0.860715
   4 C :    0.549182
   5 H :   -0.326418
   6 H :   -0.312780
   7 H :   -0.279904
   8 H :   -0.284280
   9 H :   -0.261114
  10 C :    0.286333
  11 H :   -0.149394
  12 H :   -0.142652
  13 C :    0.598870
  14 H :   -0.149014
  15 H :   -0.147946
  16 H :   -0.195990
  17 H :   -0.179155
  18 H :   -0.180668

  Mayer bond orders larger than 0.100000
B(  0-C ,  1-N ) :   1.0577 B(  0-C ,  4-C ) :  -0.1001 B(  0-C , 10-C ) :   0.9393
B(  0-C , 11-H ) :   0.9552 B(  0-C , 12-H ) :   0.8656 B(  1-N ,  2-C ) :   0.6534
B(  1-N ,  3-N ) :  -0.1496 B(  1-N ,  4-C ) :  -0.1327 B(  1-N ,  7-H ) :   1.0630
B(  2-C ,  3-N ) :   0.7997 B(  2-C ,  4-C ) :   1.0092 B(  2-C ,  7-H ) :  -0.1445
B(  2-C ,  8-H ) :  -0.1130 B(  3-N ,  8-H ) :   1.0898 B(  3-N ,  9-H ) :   1.1571
B(  4-C ,  5-H ) :   0.5496 B(  4-C ,  6-H ) :   1.2191 B( 10-C , 13-C ) :   0.8037
B( 10-C , 14-H ) :   0.9492 B( 10-C , 15-H ) :   0.8743 B( 13-C , 16-H ) :   0.8537
B( 13-C , 17-H ) :   1.0528 B( 13-C , 18-H ) :   0.9422

E(0)                                       ...   -305.293708012
E(0)                                       ...   -305.293708012
E(CORR)(strong-pairs)                      ...     -1.351287384
E(CORR)(weak-pairs)                        ...     -0.001586005
E(CORR)(corrected)                         ...     -1.352873389
E(TOT)                                     ...   -306.646581400
E(CCSD(T))                                 ...   -306.702029597
FINAL SINGLE POINT ENERGY      -306.702029596853

DIPOLE MOMENT
-------------
                                X             Y             Z
Electronic contribution:      1.81889      -3.38335      -2.66054
Nuclear contribution   :     -2.38731       3.82978       1.80833
                        -----------------------------------------
Total Dipole Moment    :     -0.56843       0.44643      -0.85220
                        -----------------------------------------
Magnitude (a.u.)       :      1.11744
Magnitude (Debye)      :      2.84030

Rotational constants in cm-1:     0.144922     0.055791     0.049560
Rotational constants in MHz :  4344.653038  1672.561873  1485.775629

                             ****ORCA TERMINATED NORMALLY****
TOTAL RUN TIME: 0 days 2 hours 17 minutes 0 seconds 537 msec
