                         Program Version 5.0.0 -  RELEASE  -
|  1> !DLPNO-CCSD(T) aug-cc-pVTZ aug-cc-pVTZ/C TightSCF TightPNO RIJCOSX def2/J
|  2>
|  3> *xyzfile 0 1 D4.xyz
|  4>
|  5> %MaxCore 64000
|  6>
|  7> %pal nprocs 18
|  8> end
|  9>
| 10> %scf
| 11>   MaxIter 150
| 12> end
| 13>
| 14>
| 15>                          ****END OF INPUT****

CARTESIAN COORDINATES (ANGSTROEM)
---------------------------------
  C      1.963365   -1.749150   -1.896887
  C      2.738490   -2.015170   -3.097113
  C      0.611877    1.657634   -4.500288
  C      1.694991    1.541794   -5.570447
  H      2.697326    1.734659   -5.183996
  H      1.506656    2.272239   -6.358076
  S      1.780287   -0.033128   -6.428739
  C      4.049736   -2.154717   -3.152044
  N      4.658206   -1.986293   -4.318655
  N      4.764231   -2.454435   -2.050491
  H      4.287363   -2.776259   -1.217496
  H      5.750825   -2.658351   -2.125988
  H      2.345176   -1.690274   -3.971447
  H      4.109004   -1.592677   -5.071760
  H      5.649095   -2.156462   -4.427237
  O      2.569287    0.213657   -7.607360
  F      0.416880   -0.462969   -6.618595
  C      2.088520   -0.300912   -1.415204
  H      2.231272   -2.451616   -1.102643
  H      0.930249   -1.977801   -2.155438
  C      0.680356    0.655418   -3.348038
  H     -0.356865    1.549231   -4.991128
  H      0.650228    2.675438   -4.096000
  C      1.968993    0.733582   -2.535654
  H      3.051356   -0.168602   -0.911868
  H      1.316501   -0.136231   -0.657252
  O      2.505129   -0.933263   -5.482570
  H      2.824195    0.624726   -3.208464
  H      2.058919    1.730331   -2.093112
  H      0.542252   -0.344731   -3.766662
  H     -0.174219    0.829692   -2.685182

 Total Charge           Charge          ....    0
 Multiplicity           Mult            ....    1
 Number of Electrons    NEL             ....  120
 Basis Dimension        Dim             .... 1039

ORBITAL ENERGIES
----------------

  NO   OCC          E(Eh)            E(eV)
   0   2.0000     -92.260975     -2510.5488
   1   2.0000     -26.443044      -719.5518
   2   2.0000     -20.579236      -559.9895
   3   2.0000     -20.560520      -559.4802
   4   2.0000     -15.543944      -422.9722
   5   2.0000     -15.525628      -422.4738
   6   2.0000     -11.297080      -307.4092
   7   2.0000     -11.257445      -306.3307
   8   2.0000     -11.257193      -306.3238
   9   2.0000     -11.226822      -305.4974
  10   2.0000     -11.209849      -305.0355
  11   2.0000     -11.197548      -304.7008
  12   2.0000     -11.183806      -304.3268
  13   2.0000     -11.099107      -302.0221
  14   2.0000      -9.224532      -251.0123
  15   2.0000      -6.912062      -188.0868
  16   2.0000      -6.907892      -187.9733
  17   2.0000      -6.907376      -187.9593
  18   2.0000      -1.811405       -49.2908
  19   2.0000      -1.464599       -39.8538
  20   2.0000      -1.353883       -36.8410
  21   2.0000      -1.252042       -34.0698
  22   2.0000      -1.140824       -31.0434
  23   2.0000      -1.123881       -30.5824
  24   2.0000      -1.069646       -29.1065
  25   2.0000      -1.019181       -27.7333
  26   2.0000      -0.983151       -26.7529
  27   2.0000      -0.944856       -25.7108
  28   2.0000      -0.892870       -24.2962
  29   2.0000      -0.851986       -23.1837
  30   2.0000      -0.841509       -22.8986
  31   2.0000      -0.829227       -22.5644
  32   2.0000      -0.797554       -21.7025
  33   2.0000      -0.760906       -20.7053
  34   2.0000      -0.743883       -20.2421
  35   2.0000      -0.704285       -19.1646
  36   2.0000      -0.677970       -18.4485
  37   2.0000      -0.674043       -18.3417
  38   2.0000      -0.661532       -18.0012
  39   2.0000      -0.647267       -17.6130
  40   2.0000      -0.643357       -17.5066
  41   2.0000      -0.615454       -16.7473
  42   2.0000      -0.600529       -16.3412
  43   2.0000      -0.593979       -16.1630
  44   2.0000      -0.579815       -15.7776
  45   2.0000      -0.560525       -15.2527
  46   2.0000      -0.543936       -14.8013
  47   2.0000      -0.535925       -14.5833
  48   2.0000      -0.524957       -14.2848
  49   2.0000      -0.520744       -14.1702
  50   2.0000      -0.511907       -13.9297
  51   2.0000      -0.501737       -13.6529
  52   2.0000      -0.483142       -13.1470
  53   2.0000      -0.474847       -12.9213
  54   2.0000      -0.465463       -12.6659
  55   2.0000      -0.452715       -12.3190
  56   2.0000      -0.440793       -11.9946
  57   2.0000      -0.422935       -11.5086
  58   2.0000      -0.389590       -10.6013
  59   2.0000      -0.233938        -6.3658
  60   0.0000       0.021579         0.5872
  61   0.0000       0.030332         0.8254
  62   0.0000       0.033071         0.8999
  63   0.0000       0.036087         0.9820
  64   0.0000       0.044354         1.2069

MULLIKEN ATOMIC CHARGES
-----------------------
   0 C :   -0.369233
   1 C :   -0.474417
   2 C :   -0.586591
   3 C :   -0.513321
   4 H :    0.169873
   5 H :    0.350092
   6 S :    2.263484
   7 C :    0.853624
   8 N :   -0.750680
   9 N :   -0.655456
  10 H :    0.100557
  11 H :    0.117840
  12 H :    0.793637
  13 H :    0.227103
  14 H :    0.098893
  15 O :   -1.021281
  16 F :   -0.563858
  17 C :   -0.726374
  18 H :    0.334203
  19 H :    0.124810
  20 C :   -0.324861
  21 H :    0.233538
  22 H :    0.208238
  23 C :   -0.315236
  24 H :    0.136827
  25 H :    0.181164
  26 O :   -0.904120
  27 H :    0.273355
  28 H :    0.327643
  29 H :    0.071259
  30 H :    0.339290
Sum of atomic charges:   -0.0000000

LOEWDIN ATOMIC CHARGES
----------------------
   0 C :    0.231912
   1 C :    0.172605
   2 C :    0.261224
   3 C :    0.209620
   4 H :   -0.171381
   5 H :   -0.190282
   6 S :    0.034282
   7 C :   -0.408894
   8 N :    0.864183
   9 N :    0.868409
  10 H :   -0.295188
  11 H :   -0.285965
  12 H :   -0.548332
  13 H :   -0.487249
  14 H :   -0.274198
  15 O :    0.050127
  16 F :    0.314145
  17 C :    0.305190
  18 H :   -0.157614
  19 H :   -0.157109
  20 C :    0.277658
  21 H :   -0.158327
  22 H :   -0.134373
  23 C :    0.284384
  24 H :   -0.139991
  25 H :   -0.146879
  26 O :    0.292492
  27 H :   -0.169303
  28 H :   -0.136556
  29 H :   -0.178721
  30 H :   -0.125869

  Mayer bond orders larger than 0.100000
B(  0-C ,  1-C ) :   0.8678 B(  0-C , 17-C ) :   0.9774 B(  0-C , 18-H ) :   0.8498
B(  0-C , 19-H ) :   1.1712 B(  1-C ,  7-C ) :   1.1802 B(  1-C ,  8-N ) :  -0.1870
B(  1-C ,  9-N ) :  -0.2205 B(  1-C , 12-H ) :   0.5256 B(  2-C ,  3-C ) :   0.9378
B(  2-C ,  6-S ) :   0.1124 B(  2-C , 20-C ) :   0.8475 B(  2-C , 21-H ) :   1.0379
B(  2-C , 22-H ) :   0.9937 B(  3-C ,  4-H ) :   1.0280 B(  3-C ,  5-H ) :   0.8521
B(  3-C ,  6-S ) :   0.8263 B(  3-C , 16-F ) :   0.1728 B(  4-H ,  6-S ) :   0.1147
B(  6-S , 15-O ) :   1.2074 B(  6-S , 16-F ) :   0.3522 B(  6-S , 26-O ) :   1.6015
B(  7-C ,  8-N ) :   0.5716 B(  7-C ,  9-N ) :   0.5774 B(  8-N , 13-H ) :   1.0407
B(  8-N , 14-H ) :   1.1029 B(  9-N , 10-H ) :   1.1592 B(  9-N , 11-H ) :   1.0732
B( 12-H , 26-O ) :  -0.3419 B( 16-F , 26-O ) :   0.1112 B( 17-C , 23-C ) :   0.8722
B( 17-C , 24-H ) :   1.0444 B( 17-C , 25-H ) :   1.0195 B( 20-C , 23-C ) :   0.8352
B( 20-C , 29-H ) :   1.0937 B( 20-C , 30-H ) :   0.8969 B( 23-C , 27-H ) :   0.9923
B( 23-C , 28-H ) :   0.8873

E(0)                                       ...  -1068.570843916
E(0)                                       ...  -1068.570843916
E(CORR)(strong-pairs)                      ...     -2.831246328
E(CORR)(weak-pairs)                        ...     -0.004911331
E(CORR)(corrected)                         ...     -2.836157658
E(TOT)                                     ...  -1071.407001574
E(CCSD(T))                                 ...  -1071.527187160
FINAL SINGLE POINT ENERGY     -1071.527187160124

DIPOLE MOMENT
-------------
                                X             Y             Z
Electronic contribution:     -3.10998      -2.01968     -21.69494
Nuclear contribution   :      2.64598       3.36033      21.85869
                        -----------------------------------------
Total Dipole Moment    :     -0.46400       1.34065       0.16375
                        -----------------------------------------
Magnitude (a.u.)       :      1.42810
Magnitude (Debye)      :      3.62993

Rotational constants in cm-1:     0.028973     0.014435     0.011026
Rotational constants in MHz :   868.588266   432.748309   330.548534

                             ****ORCA TERMINATED NORMALLY****
TOTAL RUN TIME: 0 days 4 hours 51 minutes 52 seconds 61 msec
