                         Program Version 5.0.0 -  RELEASE  -
|  1> !DLPNO-CCSD(T) aug-cc-pVTZ aug-cc-pVTZ/C TightSCF TightPNO RIJCOSX def2/J
|  2>
|  3> *xyzfile 0 1 D5.xyz
|  4>
|  5> %MaxCore 64000
|  6>
|  7> %pal nprocs 18
|  8> end
|  9>
| 10> %scf
| 11>   MaxIter 150
| 12> end
| 13>
| 14>
| 15>                          ****END OF INPUT****

CARTESIAN COORDINATES (ANGSTROEM)
---------------------------------
  C      1.963365   -1.749150   -1.896887
  N      2.738490   -2.015170   -3.097113
  C      0.611877    1.657634   -4.500288
  C      1.694991    1.541794   -5.570447
  H      2.697326    1.734659   -5.183996
  H      1.506656    2.272239   -6.358076
  S      1.780287   -0.033128   -6.428739
  C      4.049736   -2.154717   -3.152044
  C      4.658206   -1.986293   -4.318655
  N      4.764231   -2.454435   -2.050491
  H      4.287363   -2.776259   -1.217496
  H      5.750825   -2.658351   -2.125988
  H      2.345176   -1.690274   -3.971447
  H      4.109004   -1.592677   -5.071760
  H      5.649095   -2.156462   -4.427237
  O      2.569287    0.213657   -7.607360
  F      0.416880   -0.462969   -6.618595
  C      2.088520   -0.300912   -1.415204
  H      2.231272   -2.451616   -1.102643
  H      0.930249   -1.977801   -2.155438
  C      0.680356    0.655418   -3.348038
  H     -0.356865    1.549231   -4.991128
  H      0.650228    2.675438   -4.096000
  C      1.968993    0.733582   -2.535654
  H      3.051356   -0.168602   -0.911868
  H      1.316501   -0.136231   -0.657252
  O      2.505129   -0.933263   -5.482570
  H      2.824195    0.624726   -3.208464
  H      2.058919    1.730331   -2.093112
  H      0.542252   -0.344731   -3.766662
  H     -0.174219    0.829692   -2.685182

 Total Charge           Charge          ....    0
 Multiplicity           Mult            ....    1
 Number of Electrons    NEL             ....  120
 Basis Dimension        Dim             .... 1039

ORBITAL ENERGIES
----------------

  NO   OCC          E(Eh)            E(eV)
   0   2.0000     -92.261896     -2510.5738
   1   2.0000     -26.444424      -719.5893
   2   2.0000     -20.579741      -560.0032
   3   2.0000     -20.562770      -559.5414
   4   2.0000     -15.540926      -422.8901
   5   2.0000     -15.521456      -422.3603
   6   2.0000     -11.299971      -307.4878
   7   2.0000     -11.265094      -306.5388
   8   2.0000     -11.257513      -306.3325
   9   2.0000     -11.252351      -306.1920
  10   2.0000     -11.241104      -305.8860
  11   2.0000     -11.225744      -305.4680
  12   2.0000     -11.219594      -305.3007
  13   2.0000     -11.094362      -301.8929
  14   2.0000      -9.225402      -251.0359
  15   2.0000      -6.913023      -188.1129
  16   2.0000      -6.908858      -187.9996
  17   2.0000      -6.908086      -187.9786
  18   2.0000      -1.813192       -49.3395
  19   2.0000      -1.464850       -39.8606
  20   2.0000      -1.354910       -36.8690
  21   2.0000      -1.262506       -34.3545
  22   2.0000      -1.160236       -31.5716
  23   2.0000      -1.130786       -30.7702
  24   2.0000      -1.069101       -29.0917
  25   2.0000      -1.021689       -27.8016
  26   2.0000      -0.977897       -26.6099
  27   2.0000      -0.950815       -25.8730
  28   2.0000      -0.903315       -24.5805
  29   2.0000      -0.858690       -23.3661
  30   2.0000      -0.843440       -22.9512
  31   2.0000      -0.836268       -22.7560
  32   2.0000      -0.804025       -21.8786
  33   2.0000      -0.779025       -21.1984
  34   2.0000      -0.752328       -20.4719
  35   2.0000      -0.700267       -19.0552
  36   2.0000      -0.680162       -18.5082
  37   2.0000      -0.675909       -18.3924
  38   2.0000      -0.657628       -17.8950
  39   2.0000      -0.648842       -17.6559
  40   2.0000      -0.644837       -17.5469
  41   2.0000      -0.628483       -17.1019
  42   2.0000      -0.610160       -16.6033
  43   2.0000      -0.593220       -16.1423
  44   2.0000      -0.590176       -16.0595
  45   2.0000      -0.562409       -15.3039
  46   2.0000      -0.556742       -15.1497
  47   2.0000      -0.538924       -14.6649
  48   2.0000      -0.532113       -14.4795
  49   2.0000      -0.520673       -14.1682
  50   2.0000      -0.515301       -14.0221
  51   2.0000      -0.507040       -13.7973
  52   2.0000      -0.493817       -13.4374
  53   2.0000      -0.484123       -13.1737
  54   2.0000      -0.474907       -12.9229
  55   2.0000      -0.470114       -12.7925
  56   2.0000      -0.464338       -12.6353
  57   2.0000      -0.461351       -12.5540
  58   2.0000      -0.373789       -10.1713
  59   2.0000      -0.236237        -6.4283
  60   0.0000       0.018434         0.5016
  61   0.0000       0.027127         0.7382
  62   0.0000       0.029698         0.8081
  63   0.0000       0.035725         0.9721
  64   0.0000       0.043791         1.1916

MULLIKEN ATOMIC CHARGES
-----------------------
   0 C :   -0.580732
   1 N :   -0.331070
   2 C :   -0.563725
   3 C :   -0.539965
   4 H :    0.196543
   5 H :    0.335746
   6 S :    2.294876
   7 C :    0.644950
   8 C :   -1.595962
   9 N :   -0.637938
  10 H :    0.035820
  11 H :    0.064813
  12 H :    0.834939
  13 H :    0.810344
  14 H :    0.232880
  15 O :   -1.012978
  16 F :   -0.562602
  17 C :   -0.561053
  18 H :    0.393182
  19 H :    0.172691
  20 C :   -0.366130
  21 H :    0.245117
  22 H :    0.210082
  23 C :   -0.397292
  24 H :    0.185398
  25 H :    0.270577
  26 O :   -0.817527
  27 H :    0.283921
  28 H :    0.332419
  29 H :    0.081925
  30 H :    0.340749
Sum of atomic charges:   -0.0000000

LOEWDIN ATOMIC CHARGES
----------------------
   0 C :    0.217859
   1 N :    0.571945
   2 C :    0.262285
   3 C :    0.210586
   4 H :   -0.169978
   5 H :   -0.189351
   6 S :    0.035795
   7 C :   -0.444643
   8 C :    0.537728
   9 N :    0.861788
  10 H :   -0.309145
  11 H :   -0.274343
  12 H :   -0.555855
  13 H :   -0.508919
  14 H :   -0.302074
  15 O :    0.058167
  16 F :    0.310512
  17 C :    0.313659
  18 H :   -0.148852
  19 H :   -0.148623
  20 C :    0.273988
  21 H :   -0.157531
  22 H :   -0.133411
  23 C :    0.286559
  24 H :   -0.140171
  25 H :   -0.145007
  26 O :    0.294416
  27 H :   -0.167387
  28 H :   -0.133069
  29 H :   -0.180507
  30 H :   -0.126421

  Mayer bond orders larger than 0.100000
B(  0-C ,  1-N ) :   1.2505 B(  0-C , 12-H ) :  -0.1379 B(  0-C , 17-C ) :   0.8924
B(  0-C , 18-H ) :   0.8524 B(  0-C , 19-H ) :   1.0889 B(  1-N ,  7-C ) :   0.8398
B(  1-N ,  8-C ) :  -0.1214 B(  1-N ,  9-N ) :  -0.1652 B(  1-N , 12-H ) :   0.2104
B(  1-N , 18-H ) :  -0.1058 B(  1-N , 19-H ) :   0.1037 B(  1-N , 26-O ) :  -0.1485
B(  2-C ,  3-C ) :   0.9282 B(  2-C ,  6-S ) :   0.1012 B(  2-C , 20-C ) :   0.8792
B(  2-C , 21-H ) :   1.0263 B(  2-C , 22-H ) :   0.9847 B(  3-C ,  4-H ) :   1.0058
B(  3-C ,  5-H ) :   0.8674 B(  3-C ,  6-S ) :   0.8455 B(  3-C , 16-F ) :   0.1790
B(  6-S , 15-O ) :   1.2173 B(  6-S , 16-F ) :   0.3335 B(  6-S , 26-O ) :   1.5717
B(  7-C ,  8-C ) :   1.1865 B(  7-C ,  9-N ) :   0.7164 B(  7-C , 10-H ) :  -0.1090
B(  7-C , 12-H ) :  -0.1714 B(  7-C , 14-H ) :  -0.1047 B(  8-C ,  9-N ) :  -0.3372
B(  8-C , 13-H ) :   0.2155 B(  8-C , 14-H ) :   1.2848 B(  9-N , 10-H ) :   1.2409
B(  9-N , 11-H ) :   1.1294 B( 12-H , 26-O ) :  -0.2258 B( 16-F , 26-O ) :   0.1297
B( 17-C , 23-C ) :   0.8987 B( 17-C , 24-H ) :   1.0390 B( 17-C , 25-H ) :   0.9283
B( 20-C , 23-C ) :   0.8605 B( 20-C , 29-H ) :   1.1026 B( 20-C , 30-H ) :   0.8780
B( 23-C , 27-H ) :   0.9720 B( 23-C , 28-H ) :   0.8895

E(0)                                       ...  -1068.570576908
E(0)                                       ...  -1068.570576908
E(CORR)(strong-pairs)                      ...     -2.827646134
E(CORR)(weak-pairs)                        ...     -0.004947271
E(CORR)(corrected)                         ...     -2.832593405
E(TOT)                                     ...  -1071.403170313
E(CCSD(T))                                 ...  -1071.523067010
FINAL SINGLE POINT ENERGY     -1071.523067009659

DIPOLE MOMENT
-------------
                                X             Y             Z
Electronic contribution:     -4.80251      -1.85352     -20.60808
Nuclear contribution   :      2.89225       3.36404      21.70199
                        -----------------------------------------
Total Dipole Moment    :     -1.91026       1.51052       1.09391
                        -----------------------------------------
Magnitude (a.u.)       :      2.66971
Magnitude (Debye)      :      6.78587

Rotational constants in cm-1:     0.029431     0.014408     0.011084
Rotational constants in MHz :   882.306106   431.946714   332.288152

                             ****ORCA TERMINATED NORMALLY****
TOTAL RUN TIME: 0 days 3 hours 51 minutes 3 seconds 763 msec
