                         Program Version 5.0.0 -  RELEASE  -
|  1> !DLPNO-CCSD(T) aug-cc-pVTZ aug-cc-pVTZ/C TightSCF TightPNO RIJCOSX def2/J
|  2>
|  3> *xyzfile 0 1 D7.xyz
|  4>
|  5> %MaxCore 64000
|  6>
|  7> %pal nprocs 18
|  8> end
|  9>
| 10> %scf
| 11>   MaxIter 150
| 12> end
| 13>
| 14>
| 15>                          ****END OF INPUT****

CARTESIAN COORDINATES (ANGSTROEM)
---------------------------------
  C      1.963365   -1.749150   -1.896887
  C      2.738490   -2.015170   -3.097113
  C      0.611877    1.657634   -4.500288
  C      1.694991    1.541794   -5.570447
  H      2.697326    1.734659   -5.183996
  H      1.506656    2.272239   -6.358076
  S      1.780287   -0.033128   -6.428739
  C      4.049736   -2.154717   -3.152044
  N      4.658206   -1.986293   -4.318655
  N      4.764231   -2.454435   -2.050491
  H      4.287363   -2.776259   -1.217496
  H      5.750825   -2.658351   -2.125988
  H      2.345176   -1.690274   -3.971447
  H      4.109004   -1.592677   -5.071760
  H      5.649095   -2.156462   -4.427237
  O      2.569287    0.213657   -7.607360
  O      0.416880   -0.462969   -6.618595
  C      2.088520   -0.300912   -1.415204
  H      2.231272   -2.451616   -1.102643
  H      0.930249   -1.977801   -2.155438
  C      0.680356    0.655418   -3.348038
  H     -0.356865    1.549231   -4.991128
  H      0.650228    2.675438   -4.096000
  C      1.968993    0.733582   -2.535654
  H      3.051356   -0.168602   -0.911868
  H      1.316501   -0.136231   -0.657252
  F      2.505129   -0.933263   -5.482570
  H      2.824195    0.624726   -3.208464
  H      2.058919    1.730331   -2.093112
  H      0.542252   -0.344731   -3.766662
  H     -0.174219    0.829692   -2.685182

 Total Charge           Charge          ....    0
 Multiplicity           Mult            ....    1
 Number of Electrons    NEL             ....  120
 Basis Dimension        Dim             .... 1039

ORBITAL ENERGIES
----------------

  NO   OCC          E(Eh)            E(eV)
   0   2.0000     -92.251725     -2510.2971
   1   2.0000     -26.415080      -718.7909
   2   2.0000     -20.573474      -559.8327
   3   2.0000     -20.572275      -559.8001
   4   2.0000     -15.564778      -423.5391
   5   2.0000     -15.559452      -423.3942
   6   2.0000     -11.291461      -307.2563
   7   2.0000     -11.284436      -307.0651
   8   2.0000     -11.249410      -306.1120
   9   2.0000     -11.227975      -305.5287
  10   2.0000     -11.218996      -305.2844
  11   2.0000     -11.208857      -305.0085
  12   2.0000     -11.199764      -304.7611
  13   2.0000     -11.130588      -302.8787
  14   2.0000      -9.215226      -250.7590
  15   2.0000      -6.902981      -187.8397
  16   2.0000      -6.898794      -187.7257
  17   2.0000      -6.897845      -187.6999
  18   2.0000      -1.773330       -48.2548
  19   2.0000      -1.470620       -40.0176
  20   2.0000      -1.368777       -37.2463
  21   2.0000      -1.279226       -34.8095
  22   2.0000      -1.167750       -31.7761
  23   2.0000      -1.120077       -30.4788
  24   2.0000      -1.078414       -29.3451
  25   2.0000      -1.022508       -27.8238
  26   2.0000      -0.989040       -26.9132
  27   2.0000      -0.943394       -25.6711
  28   2.0000      -0.905914       -24.6512
  29   2.0000      -0.852031       -23.1849
  30   2.0000      -0.822662       -22.3858
  31   2.0000      -0.808902       -22.0114
  32   2.0000      -0.789414       -21.4811
  33   2.0000      -0.777955       -21.1692
  34   2.0000      -0.749163       -20.3858
  35   2.0000      -0.724036       -19.7020
  36   2.0000      -0.692399       -18.8411
  37   2.0000      -0.680385       -18.5142
  38   2.0000      -0.662848       -18.0370
  39   2.0000      -0.650551       -17.7024
  40   2.0000      -0.640067       -17.4171
  41   2.0000      -0.637058       -17.3352
  42   2.0000      -0.612337       -16.6625
  43   2.0000      -0.596211       -16.2237
  44   2.0000      -0.582720       -15.8566
  45   2.0000      -0.564787       -15.3686
  46   2.0000      -0.558333       -15.1930
  47   2.0000      -0.550085       -14.9686
  48   2.0000      -0.541277       -14.7289
  49   2.0000      -0.519269       -14.1300
  50   2.0000      -0.517122       -14.0716
  51   2.0000      -0.496059       -13.4985
  52   2.0000      -0.493610       -13.4318
  53   2.0000      -0.488534       -13.2937
  54   2.0000      -0.478420       -13.0185
  55   2.0000      -0.463381       -12.6092
  56   2.0000      -0.453195       -12.3321
  57   2.0000      -0.446246       -12.1430
  58   2.0000      -0.416124       -11.3233
  59   2.0000      -0.261003        -7.1022
  60   0.0000       0.021669         0.5896
  61   0.0000       0.026758         0.7281
  62   0.0000       0.032075         0.8728
  63   0.0000       0.037415         1.0181
  64   0.0000       0.041758         1.1363

MULLIKEN ATOMIC CHARGES
-----------------------
   0 C :   -0.383676
   1 C :   -0.457828
   2 C :   -0.613028
   3 C :   -0.504585
   4 H :    0.139757
   5 H :    0.359781
   6 S :    2.560121
   7 C :    0.830716
   8 N :   -0.751588
   9 N :   -0.648174
  10 H :    0.105037
  11 H :    0.120491
  12 H :    0.789658
  13 H :    0.287473
  14 H :    0.118434
  15 O :   -1.024517
  16 O :   -1.015881
  17 C :   -0.719509
  18 H :    0.336051
  19 H :    0.105741
  20 C :   -0.289942
  21 H :    0.232852
  22 H :    0.246533
  23 C :   -0.298057
  24 H :    0.134432
  25 H :    0.186625
  26 F :   -0.811988
  27 H :    0.241414
  28 H :    0.315779
  29 H :    0.108912
  30 H :    0.298966
Sum of atomic charges:   -0.0000000

LOEWDIN ATOMIC CHARGES
----------------------
   0 C :    0.237101
   1 C :    0.175731
   2 C :    0.261808
   3 C :    0.204721
   4 H :   -0.188992
   5 H :   -0.177546
   6 S :   -0.020940
   7 C :   -0.409079
   8 N :    0.864050
   9 N :    0.875676
  10 H :   -0.290824
  11 H :   -0.281734
  12 H :   -0.495110
  13 H :   -0.440275
  14 H :   -0.268214
  15 O :    0.045901
  16 O :    0.064843
  17 C :    0.306590
  18 H :   -0.154453
  19 H :   -0.153779
  20 C :    0.279184
  21 H :   -0.156878
  22 H :   -0.136232
  23 C :    0.280292
  24 H :   -0.140059
  25 H :   -0.143810
  26 F :    0.468997
  27 H :   -0.171584
  28 H :   -0.134484
  29 H :   -0.177850
  30 H :   -0.123053

  Mayer bond orders larger than 0.100000
B(  0-C ,  1-C ) :   0.8608 B(  0-C , 17-C ) :   0.9834 B(  0-C , 18-H ) :   0.8532
B(  0-C , 19-H ) :   1.1800 B(  1-C ,  7-C ) :   1.1662 B(  1-C ,  8-N ) :  -0.1801
B(  1-C ,  9-N ) :  -0.2095 B(  1-C , 12-H ) :   0.5084 B(  2-C ,  3-C ) :   0.9846
B(  2-C ,  6-S ) :   0.1409 B(  2-C , 20-C ) :   0.8739 B(  2-C , 21-H ) :   1.0484
B(  2-C , 22-H ) :   0.9536 B(  3-C ,  4-H ) :   1.0610 B(  3-C ,  5-H ) :   0.8169
B(  3-C ,  6-S ) :   0.7978 B(  3-C , 16-O ) :   0.1445 B(  6-S , 15-O ) :   1.1209
B(  6-S , 16-O ) :   1.3428 B(  6-S , 26-F ) :   0.6224 B(  7-C ,  8-N ) :   0.6729
B(  7-C ,  9-N ) :   0.5904 B(  8-N , 13-H ) :   1.0524 B(  8-N , 14-H ) :   1.0839
B(  9-N , 10-H ) :   1.1566 B(  9-N , 11-H ) :   1.0688 B( 12-H , 26-F ) :  -0.2768
B( 13-H , 26-F ) :  -0.1201 B( 15-O , 26-F ) :   0.1525 B( 17-C , 23-C ) :   0.8711
B( 17-C , 24-H ) :   1.0466 B( 17-C , 25-H ) :   1.0187 B( 20-C , 23-C ) :   0.8172
B( 20-C , 29-H ) :   1.0909 B( 20-C , 30-H ) :   0.9343 B( 23-C , 27-H ) :   1.0173
B( 23-C , 28-H ) :   0.9000

E(0)                                       ...  -1068.590718121
E(0)                                       ...  -1068.590718121
E(CORR)(strong-pairs)                      ...     -2.828960833
E(CORR)(weak-pairs)                        ...     -0.004864330
E(CORR)(corrected)                         ...     -2.833825163
E(TOT)                                     ...  -1071.424543284
E(CCSD(T))                                 ...  -1071.544144506
FINAL SINGLE POINT ENERGY     -1071.544144505610

DIPOLE MOMENT
-------------
                                X             Y             Z
Electronic contribution:      0.83881      -3.03008     -19.25341
Nuclear contribution   :      0.26049       3.89757      20.56096
                        -----------------------------------------
Total Dipole Moment    :      1.09930       0.86749       1.30756
                        -----------------------------------------
Magnitude (a.u.)       :      1.91591
Magnitude (Debye)      :      4.86985

Rotational constants in cm-1:     0.029090     0.014735     0.011139
Rotational constants in MHz :   872.086433   441.731892   333.928051

                             ****ORCA TERMINATED NORMALLY****
TOTAL RUN TIME: 0 days 3 hours 57 minutes 12 seconds 628 msec
