                         Program Version 5.0.0 -  RELEASE  -
|  1> !DLPNO-CCSD(T) aug-cc-pVTZ aug-cc-pVTZ/C TightSCF TightPNO RIJCOSX def2/J
|  2>
|  3> *xyzfile 0 1 D9.xyz
|  4>
|  5> %MaxCore 64000
|  6>
|  7> %pal nprocs 18
|  8> end
|  9>
| 10> %scf
| 11>   MaxIter 150
| 12> end
| 13>
| 14>
| 15>                          ****END OF INPUT****

CARTESIAN COORDINATES (ANGSTROEM)
---------------------------------
  C      1.963365   -1.749150   -1.896887
  N      2.738490   -2.015170   -3.097113
  C      0.611877    1.657634   -4.500288
  C      1.694991    1.541794   -5.570447
  H      2.697326    1.734659   -5.183996
  H      1.506656    2.272239   -6.358076
  S      1.780287   -0.033128   -6.428739
  C      4.049736   -2.154717   -3.152044
  N      4.658206   -1.986293   -4.318655
  C      4.764231   -2.454435   -2.050491
  H      4.287363   -2.776259   -1.217496
  H      5.750825   -2.658351   -2.125988
  H      2.345176   -1.690274   -3.971447
  H      4.109004   -1.592677   -5.071760
  H      5.649095   -2.156462   -4.427237
  O      2.569287    0.213657   -7.607360
  O      0.416880   -0.462969   -6.618595
  C      2.088520   -0.300912   -1.415204
  H      2.231272   -2.451616   -1.102643
  H      0.930249   -1.977801   -2.155438
  C      0.680356    0.655418   -3.348038
  H     -0.356865    1.549231   -4.991128
  H      0.650228    2.675438   -4.096000
  C      1.968993    0.733582   -2.535654
  H      3.051356   -0.168602   -0.911868
  H      1.316501   -0.136231   -0.657252
  F      2.505129   -0.933263   -5.482570
  H      2.824195    0.624726   -3.208464
  H      2.058919    1.730331   -2.093112
  H      0.542252   -0.344731   -3.766662
  H     -0.174219    0.829692   -2.685182

 Total Charge           Charge          ....    0
 Multiplicity           Mult            ....    1
 Number of Electrons    NEL             ....  120
 Basis Dimension        Dim             .... 1039

ORBITAL ENERGIES
----------------

  NO   OCC          E(Eh)            E(eV)
   0   2.0000     -92.267355     -2510.7224
   1   2.0000     -26.439423      -719.4533
   2   2.0000     -20.587686      -560.2194
   3   2.0000     -20.587629      -560.2179
   4   2.0000     -15.559724      -423.4016
   5   2.0000     -15.556077      -423.3024
   6   2.0000     -11.305082      -307.6269
   7   2.0000     -11.287027      -307.1356
   8   2.0000     -11.263387      -306.4923
   9   2.0000     -11.262369      -306.4646
  10   2.0000     -11.245854      -306.0152
  11   2.0000     -11.236260      -305.7542
  12   2.0000     -11.225367      -305.4578
  13   2.0000     -11.127752      -302.8015
  14   2.0000      -9.230977      -251.1877
  15   2.0000      -6.918850      -188.2715
  16   2.0000      -6.914418      -188.1509
  17   2.0000      -6.913458      -188.1248
  18   2.0000      -1.797248       -48.9056
  19   2.0000      -1.485702       -40.4280
  20   2.0000      -1.383203       -37.6389
  21   2.0000      -1.294906       -35.2362
  22   2.0000      -1.187200       -32.3053
  23   2.0000      -1.133694       -30.8494
  24   2.0000      -1.075785       -29.2736
  25   2.0000      -1.023448       -27.8494
  26   2.0000      -0.990050       -26.9406
  27   2.0000      -0.953876       -25.9563
  28   2.0000      -0.935172       -25.4473
  29   2.0000      -0.868784       -23.6408
  30   2.0000      -0.846707       -23.0401
  31   2.0000      -0.830583       -22.6013
  32   2.0000      -0.807598       -21.9759
  33   2.0000      -0.776968       -21.1424
  34   2.0000      -0.751801       -20.4575
  35   2.0000      -0.727489       -19.7960
  36   2.0000      -0.702437       -19.1143
  37   2.0000      -0.695014       -18.9123
  38   2.0000      -0.677728       -18.4419
  39   2.0000      -0.665753       -18.1161
  40   2.0000      -0.656120       -17.8539
  41   2.0000      -0.631741       -17.1905
  42   2.0000      -0.614486       -16.7210
  43   2.0000      -0.602815       -16.4034
  44   2.0000      -0.590313       -16.0632
  45   2.0000      -0.578948       -15.7540
  46   2.0000      -0.562794       -15.3144
  47   2.0000      -0.560662       -15.2564
  48   2.0000      -0.539617       -14.6837
  49   2.0000      -0.529052       -14.3963
  50   2.0000      -0.527546       -14.3552
  51   2.0000      -0.521437       -14.1890
  52   2.0000      -0.518367       -14.1055
  53   2.0000      -0.508626       -13.8404
  54   2.0000      -0.495583       -13.4855
  55   2.0000      -0.486764       -13.2455
  56   2.0000      -0.479471       -13.0471
  57   2.0000      -0.466967       -12.7068
  58   2.0000      -0.392562       -10.6822
  59   2.0000      -0.264200        -7.1893
  60   0.0000       0.020163         0.5487
  61   0.0000       0.028317         0.7706
  62   0.0000       0.032143         0.8746
  63   0.0000       0.035495         0.9659
  64   0.0000       0.042237         1.1493

MULLIKEN ATOMIC CHARGES
-----------------------
   0 C :   -0.467272
   1 N :   -0.427872
   2 C :   -0.580858
   3 C :   -0.500630
   4 H :    0.165996
   5 H :    0.344044
   6 S :    2.554235
   7 C :    0.992781
   8 N :   -0.827761
   9 C :   -1.637732
  10 H :    0.601098
  11 H :    0.207023
  12 H :    0.884476
  13 H :    0.372301
  14 H :    0.055561
  15 O :   -1.012349
  16 O :   -1.004315
  17 C :   -0.590762
  18 H :    0.282722
  19 H :    0.213820
  20 C :   -0.305681
  21 H :    0.253650
  22 H :    0.248246
  23 C :   -0.401290
  24 H :    0.209363
  25 H :    0.248284
  26 F :   -0.830934
  27 H :    0.239730
  28 H :    0.314559
  29 H :    0.099213
  30 H :    0.300351
Sum of atomic charges:    0.0000000

LOEWDIN ATOMIC CHARGES
----------------------
   0 C :    0.227440
   1 N :    0.570217
   2 C :    0.263481
   3 C :    0.206545
   4 H :   -0.188198
   5 H :   -0.175163
   6 S :   -0.019854
   7 C :   -0.449301
   8 N :    0.865765
   9 C :    0.551981
  10 H :   -0.326801
  11 H :   -0.312927
  12 H :   -0.505048
  13 H :   -0.451608
  14 H :   -0.254712
  15 O :    0.052607
  16 O :    0.066935
  17 C :    0.316739
  18 H :   -0.144197
  19 H :   -0.145919
  20 C :    0.275502
  21 H :   -0.155859
  22 H :   -0.134164
  23 C :    0.281052
  24 H :   -0.141253
  25 H :   -0.140421
  26 F :    0.468830
  27 H :   -0.169071
  28 H :   -0.130719
  29 H :   -0.179791
  30 H :   -0.122085

  Mayer bond orders larger than 0.100000
B(  0-C ,  1-N ) :   1.3413 B(  0-C ,  9-C ) :  -0.1029 B(  0-C , 12-H ) :  -0.1449
B(  0-C , 17-C ) :   0.9176 B(  0-C , 18-H ) :   0.9245 B(  0-C , 19-H ) :   1.0209
B(  1-N ,  7-C ) :   0.7058 B(  1-N ,  8-N ) :  -0.1666 B(  1-N , 12-H ) :   0.1432
B(  1-N , 26-F ) :  -0.1746 B(  2-C ,  3-C ) :   0.9791 B(  2-C ,  6-S ) :   0.1376
B(  2-C , 20-C ) :   0.9008 B(  2-C , 21-H ) :   1.0278 B(  2-C , 22-H ) :   0.9438
B(  3-C ,  4-H ) :   1.0458 B(  3-C ,  5-H ) :   0.8219 B(  3-C ,  6-S ) :   0.8042
B(  3-C , 16-O ) :   0.1394 B(  6-S , 15-O ) :   1.1595 B(  6-S , 16-O ) :   1.3608
B(  6-S , 26-F ) :   0.5984 B(  7-C ,  8-N ) :   0.6837 B(  7-C ,  9-C ) :   0.7429
B(  7-C , 12-H ) :  -0.2767 B(  7-C , 13-H ) :  -0.1521 B(  7-C , 14-H ) :  -0.1304
B(  8-N , 12-H ) :  -0.1272 B(  8-N , 13-H ) :   0.8568 B(  8-N , 14-H ) :   1.2213
B(  9-C , 10-H ) :   0.5720 B(  9-C , 11-H ) :   1.2708 B( 12-H , 26-F ) :  -0.3555
B( 13-H , 26-F ) :  -0.1045 B( 15-O , 26-F ) :   0.1291 B( 16-O , 26-F ) :   0.1069
B( 17-C , 23-C ) :   0.9081 B( 17-C , 24-H ) :   1.0263 B( 17-C , 25-H ) :   0.9349
B( 20-C , 23-C ) :   0.8268 B( 20-C , 29-H ) :   1.0940 B( 20-C , 30-H ) :   0.9184
B( 23-C , 27-H ) :   1.0129 B( 23-C , 28-H ) :   0.9105

E(0)                                       ...  -1068.593952306
E(0)                                       ...  -1068.593952306
E(CORR)(strong-pairs)                      ...     -2.824792401
E(CORR)(weak-pairs)                        ...     -0.005032182
E(CORR)(corrected)                         ...     -2.829824584
E(TOT)                                     ...  -1071.423776890
E(CCSD(T))                                 ...  -1071.543150953
FINAL SINGLE POINT ENERGY     -1071.543150953172

DIPOLE MOMENT
-------------
                                X             Y             Z
Electronic contribution:     -1.06941      -2.27950     -20.21798
Nuclear contribution   :      0.52036       3.84122      20.69523
                        -----------------------------------------
Total Dipole Moment    :     -0.54906       1.56172       0.47725
                        -----------------------------------------
Magnitude (a.u.)       :      1.72285
Magnitude (Debye)      :      4.37914

Rotational constants in cm-1:     0.029184     0.014996     0.011314
Rotational constants in MHz :   874.907122   449.569665   339.178205

                             ****ORCA TERMINATED NORMALLY****
TOTAL RUN TIME: 0 days 3 hours 54 minutes 55 seconds 30 msec
