                         Program Version 5.0.0 -  RELEASE  -
|  1> !PBE0 D3BJ RIJCOSX def2-SVPD def2/J TightSCF
|  2> *xyz -1 1
|  3> C          2.09343        1.86104       -4.65684
|  4> S          1.87964        0.07859       -4.46297
|  5> O          3.20757       -0.46611       -4.42026
|  6> O          1.07506       -0.05616       -3.26876
|  7> O          1.13166       -0.31996       -5.67903
|  8> H          2.68437        2.05681       -5.52711
|  9> H          2.58708        2.25699       -3.79404
| 10> H          1.13553        2.32556       -4.76426
| 11> *
| 12>
| 13> %MaxCore 64000
| 14>
| 15> %pal nprocs 8
| 16> end
| 17>
| 18> %scf
| 19>   MaxIter 150
| 20> end
| 21>
| 22>
| 23>                          ****END OF INPUT****

CARTESIAN COORDINATES (ANGSTROEM)
---------------------------------
  C      2.093430    1.861040   -4.656840
  S      1.879640    0.078590   -4.462970
  O      3.207570   -0.466110   -4.420260
  O      1.075060   -0.056160   -3.268760
  O      1.131660   -0.319960   -5.679030
  H      2.684370    2.056810   -5.527110
  H      2.587080    2.256990   -3.794040
  H      1.135530    2.325560   -4.764260

 Total Charge           Charge          ....   -1
 Multiplicity           Mult            ....    1
 Number of Electrons    NEL             ....   50
 Basis Dimension        Dim             ....  140

ORBITAL ENERGIES
----------------

  NO   OCC          E(Eh)            E(eV)
   0   2.0000     -89.037535     -2422.8345
   1   2.0000     -18.999413      -517.0003
   2   2.0000     -18.995304      -516.8885
   3   2.0000     -18.984273      -516.5883
   4   2.0000     -10.081089      -274.3204
   5   2.0000      -7.996926      -217.6074
   6   2.0000      -5.939146      -161.6124
   7   2.0000      -5.938983      -161.6080
   8   2.0000      -5.938765      -161.6020
   9   2.0000      -0.959260       -26.1028
  10   2.0000      -0.820977       -22.3399
  11   2.0000      -0.794862       -21.6293
  12   2.0000      -0.595355       -16.2004
  13   2.0000      -0.402205       -10.9446
  14   2.0000      -0.319806        -8.7024
  15   2.0000      -0.302533        -8.2324
  16   2.0000      -0.301913        -8.2155
  17   2.0000      -0.263621        -7.1735
  18   2.0000      -0.261261        -7.1093
  19   2.0000      -0.167345        -4.5537
  20   2.0000      -0.166555        -4.5322
  21   2.0000      -0.131245        -3.5714
  22   2.0000      -0.122304        -3.3280
  23   2.0000      -0.113652        -3.0926
  24   2.0000      -0.078529        -2.1369
  25   0.0000       0.158672         4.3177
  26   0.0000       0.190419         5.1816
  27   0.0000       0.190860         5.1936
  28   0.0000       0.193513         5.2658
  29   0.0000       0.220248         5.9933

MULLIKEN ATOMIC CHARGES
-----------------------
   0 C :    0.301605
   1 S :    1.183634
   2 O :   -0.784656
   3 O :   -0.797151
   4 O :   -0.832096
   5 H :   -0.025886
   6 H :   -0.025914
   7 H :   -0.019537
Sum of atomic charges:   -1.0000000

LOEWDIN ATOMIC CHARGES
----------------------
   0 C :    0.050102
   1 S :    0.841695
   2 O :   -0.580529
   3 O :   -0.587679
   4 O :   -0.606267
   5 H :   -0.039018
   6 H :   -0.040466
   7 H :   -0.037838

  Mayer bond orders larger than 0.100000
B(  0-C ,  1-S ) :   0.9527 B(  0-C ,  5-H ) :   0.9453 B(  0-C ,  6-H ) :   0.9423
B(  0-C ,  7-H ) :   0.9439 B(  1-S ,  2-O ) :   1.3182 B(  1-S ,  3-O ) :   1.3114
B(  1-S ,  4-O ) :   1.2851 B(  1-S ,  5-H ) :   0.1036 B(  1-S ,  7-H ) :   0.1052

Dispersion correction           -0.005345423
FINAL SINGLE POINT ENERGY      -663.076799541807

DIPOLE MOMENT
-------------
                                X             Y             Z
Electronic contribution:     -0.42611      -4.29686       0.56587
Nuclear contribution   :      0.72475       5.67579      -0.57287
                        -----------------------------------------
Total Dipole Moment    :      0.29863       1.37893      -0.00700
                        -----------------------------------------
Magnitude (a.u.)       :      1.41092
Magnitude (Debye)      :      3.58626

Rotational constants in cm-1:     0.171646     0.157781     0.155534
Rotational constants in MHz :  5145.813281  4730.160232  4662.792719

                             ****ORCA TERMINATED NORMALLY****
TOTAL RUN TIME: 0 days 0 hours 0 minutes 7 seconds 214 msec
