                         Program Version 5.0.0 -  RELEASE  -
|  1> !PBE0 D3BJ RIJCOSX def2-SVPD def2/J TightSCF
|  2> *xyz 1 1
|  3> C         -0.46129        2.23469       -4.98962
|  4> C         -0.42384        2.39877       -6.47432
|  5> N         -0.95947        3.49265       -7.00740
|  6> N          0.14558        1.48689       -7.20399
|  7> H          0.56537        0.69681       -6.72386
|  8> H          0.22068        1.58177       -8.20752
|  9> H         -1.40624        4.18151       -6.40326
| 10> H         -0.93421        3.68160       -7.99947
| 11> H          0.00645        1.31059       -4.72100
| 12> H         -1.47822        2.22967       -4.65687
| 13> H          0.06109        3.04632       -4.52779
| 14> *
| 15>
| 16> %MaxCore 64000
| 17>
| 18> %pal nprocs 8
| 19> end
| 20>
| 21> %scf
| 22>   MaxIter 150
| 23> end
| 24>
| 25>
| 26>                          ****END OF INPUT****

CARTESIAN COORDINATES (ANGSTROEM)
---------------------------------
  C     -0.461290    2.234690   -4.989620
  C     -0.423840    2.398770   -6.474320
  N     -0.959470    3.492650   -7.007400
  N      0.145580    1.486890   -7.203990
  H      0.565370    0.696810   -6.723860
  H      0.220680    1.581770   -8.207520
  H     -1.406240    4.181510   -6.403260
  H     -0.934210    3.681600   -7.999470
  H      0.006450    1.310590   -4.721000
  H     -1.478220    2.229670   -4.656870
  H      0.061090    3.046320   -4.527790

 Total Charge           Charge          ....    1
 Multiplicity           Mult            ....    1
 Number of Electrons    NEL             ....   32
 Basis Dimension        Dim             ....  136

ORBITAL ENERGIES
----------------

  NO   OCC          E(Eh)            E(eV)
   0   2.0000     -14.652403      -398.7121
   1   2.0000     -14.645348      -398.5202
   2   2.0000     -10.565970      -287.5147
   3   2.0000     -10.432359      -283.8789
   4   2.0000      -1.231202       -33.5027
   5   2.0000      -1.133351       -30.8401
   6   2.0000      -0.973932       -26.5020
   7   2.0000      -0.861346       -23.4384
   8   2.0000      -0.803672       -21.8690
   9   2.0000      -0.787349       -21.4249
  10   2.0000      -0.723510       -19.6877
  11   2.0000      -0.678437       -18.4612
  12   2.0000      -0.634313       -17.2605
  13   2.0000      -0.617277       -16.7969
  14   2.0000      -0.592472       -16.1220
  15   2.0000      -0.513360       -13.9692
  16   0.0000      -0.210954        -5.7404
  17   0.0000      -0.156057        -4.2465
  18   0.0000      -0.109967        -2.9923
  19   0.0000      -0.107405        -2.9226
  20   0.0000      -0.087256        -2.3744

MULLIKEN ATOMIC CHARGES
-----------------------
   0 C :    0.433989
   1 C :    0.562533
   2 N :   -0.037126
   3 N :   -0.091148
   4 H :    0.108175
   5 H :   -0.110659
   6 H :    0.047835
   7 H :   -0.129374
   8 H :    0.073838
   9 H :    0.075769
  10 H :    0.066167
Sum of atomic charges:    1.0000000

LOEWDIN ATOMIC CHARGES
----------------------
   0 C :    0.230407
   1 C :   -0.061218
   2 N :    0.270184
   3 N :    0.278123
   4 H :    0.058178
   5 H :    0.056349
   6 H :    0.060791
   7 H :    0.045511
   8 H :    0.008596
   9 H :    0.026238
  10 H :    0.026842

  Mayer bond orders larger than 0.100000
B(  0-C ,  1-C ) :   1.2601 B(  0-C ,  8-H ) :   0.8108 B(  0-C ,  9-H ) :   0.7823
B(  0-C , 10-H ) :   0.8004 B(  1-C ,  2-N ) :   1.0391 B(  1-C ,  3-N ) :   0.9786
B(  1-C ,  5-H ) :  -0.2460 B(  1-C ,  7-H ) :  -0.1798 B(  1-C ,  8-H ) :   0.2012
B(  1-C ,  9-H ) :   0.1512 B(  1-C , 10-H ) :   0.1414 B(  2-N ,  3-N ) :   0.1684
B(  2-N ,  6-H ) :   1.1061 B(  2-N ,  7-H ) :   1.2778 B(  3-N ,  4-H ) :   1.0283
B(  3-N ,  5-H ) :   1.3698 B(  4-H ,  5-H ) :  -0.1691 B(  6-H ,  7-H ) :  -0.1574

Dispersion correction           -0.005726898
FINAL SINGLE POINT ENERGY      -189.376755607086

DIPOLE MOMENT
-------------
                                X             Y             Z
Electronic contribution:      0.06301       0.17634      -2.17724
Nuclear contribution   :     -0.00094      -0.11553       1.69525
                        -----------------------------------------
Total Dipole Moment    :      0.06207       0.06081      -0.48199
                        -----------------------------------------
Magnitude (a.u.)       :      0.48976
Magnitude (Debye)      :      1.24486

Rotational constants in cm-1:     0.329971     0.303414     0.162776
Rotational constants in MHz :  9892.292308  9096.128349  4879.901854

                             ****ORCA TERMINATED NORMALLY****
TOTAL RUN TIME: 0 days 0 hours 0 minutes 6 seconds 52 msec
