                         Program Version 5.0.0 -  RELEASE  -
|  1> !PBE0 D3BJ RIJCOSX def2-SVPD def2/J TightSCF
|  2> *xyz 0 1
|  3> C          2.09343        1.86104       -4.65684
|  4> S          1.87964        0.07859       -4.46297
|  5> F          3.20757       -0.46611       -4.42026
|  6> O          1.07506       -0.05616       -3.26876
|  7> O          1.13166       -0.31996       -5.67903
|  8> H          2.68437        2.05681       -5.52711
|  9> H          2.58708        2.25699       -3.79404
| 10> H          1.13553        2.32556       -4.76426
| 11> *
| 12>
| 13> %MaxCore 64000
| 14>
| 15> %pal nprocs 8
| 16> end
| 17>
| 18> %scf
| 19>   MaxIter 150
| 20> end
| 21>
| 22>
| 23>                          ****END OF INPUT****

CARTESIAN COORDINATES (ANGSTROEM)
---------------------------------
  C      2.093430    1.861040   -4.656840
  S      1.879640    0.078590   -4.462970
  F      3.207570   -0.466110   -4.420260
  O      1.075060   -0.056160   -3.268760
  O      1.131660   -0.319960   -5.679030
  H      2.684370    2.056810   -5.527110
  H      2.587080    2.256990   -3.794040
  H      1.135530    2.325560   -4.764260

 Total Charge           Charge          ....    0
 Multiplicity           Mult            ....    1
 Number of Electrons    NEL             ....   50
 Basis Dimension        Dim             ....  140

ORBITAL ENERGIES
----------------

  NO   OCC          E(Eh)            E(eV)
   0   2.0000     -89.305243     -2430.1192
   1   2.0000     -24.912948      -677.9158
   2   2.0000     -19.235834      -523.4336
   3   2.0000     -19.224444      -523.1237
   4   2.0000     -10.292113      -280.0626
   5   2.0000      -8.265275      -224.9096
   6   2.0000      -6.211587      -169.0259
   7   2.0000      -6.205045      -168.8479
   8   2.0000      -6.204112      -168.8225
   9   2.0000      -1.421681       -38.6859
  10   2.0000      -1.140622       -31.0379
  11   2.0000      -1.035033       -28.1647
  12   2.0000      -0.821384       -22.3510
  13   2.0000      -0.747958       -20.3530
  14   2.0000      -0.631712       -17.1898
  15   2.0000      -0.618925       -16.8418
  16   2.0000      -0.579114       -15.7585
  17   2.0000      -0.497483       -13.5372
  18   2.0000      -0.494772       -13.4634
  19   2.0000      -0.482471       -13.1287
  20   2.0000      -0.458192       -12.4680
  21   2.0000      -0.407158       -11.0793
  22   2.0000      -0.355636        -9.6773
  23   2.0000      -0.344371        -9.3708
  24   2.0000      -0.326002        -8.8710
  25   0.0000      -0.004103        -0.1116
  26   0.0000       0.035131         0.9560
  27   0.0000       0.041018         1.1162
  28   0.0000       0.050228         1.3668
  29   0.0000       0.051276         1.3953

MULLIKEN ATOMIC CHARGES
-----------------------
   0 C :    0.285162
   1 S :    1.337914
   2 F :   -0.386024
   3 O :   -0.656012
   4 O :   -0.688413
   5 H :    0.036606
   6 H :    0.039113
   7 H :    0.031653
Sum of atomic charges:   -0.0000000

LOEWDIN ATOMIC CHARGES
----------------------
   0 C :    0.119738
   1 S :    1.113859
   2 F :   -0.255004
   3 O :   -0.468528
   4 O :   -0.485743
   5 H :   -0.012868
   6 H :   -0.013434
   7 H :    0.001981

  Mayer bond orders larger than 0.100000
B(  0-C ,  1-S ) :   1.0126 B(  0-C ,  5-H ) :   0.9309 B(  0-C ,  6-H ) :   0.9280
B(  0-C ,  7-H ) :   0.9334 B(  1-S ,  2-F ) :   0.6865 B(  1-S ,  3-O ) :   1.5193
B(  1-S ,  4-O ) :   1.4929 B(  1-S ,  7-H ) :   0.1041

Dispersion correction           -0.005009959
FINAL SINGLE POINT ENERGY      -687.543953147682

DIPOLE MOMENT
-------------
                                X             Y             Z
Electronic contribution:      1.80067      -5.17343       0.65743
Nuclear contribution   :     -0.60459       6.33153      -0.64388
                        -----------------------------------------
Total Dipole Moment    :      1.19609       1.15810       0.01355
                        -----------------------------------------
Magnitude (a.u.)       :      1.66494
Magnitude (Debye)      :      4.23193

Rotational constants in cm-1:     0.163601     0.155191     0.147098
Rotational constants in MHz :  4904.622287  4652.507792  4409.891356

                             ****ORCA TERMINATED NORMALLY****
TOTAL RUN TIME: 0 days 0 hours 0 minutes 7 seconds 516 msec
