                         Program Version 5.0.0 -  RELEASE  -
|  1> !PBE0 D3BJ RIJCOSX def2-SVPD def2/J TightSCF
|  2> *xyz 0 1
|  3> C         -0.46129        2.23469       -4.98962
|  4> C         -0.42384        2.39877       -6.47432
|  5> C         -0.95947        3.49265       -7.00740
|  6> N          0.14558        1.48689       -7.20399
|  7> H          0.56537        0.69681       -6.72386
|  8> H          0.22068        1.58177       -8.20752
|  9> H         -1.40624        4.18151       -6.40326
| 10> H         -0.93421        3.68160       -7.99947
| 11> H          0.00645        1.31059       -4.72100
| 12> H         -1.47822        2.22967       -4.65687
| 13> H          0.06109        3.04632       -4.52779
| 14> *
| 15>
| 16> %MaxCore 64000
| 17>
| 18> %pal nprocs 8
| 19> end
| 20>
| 21> %scf
| 22>   MaxIter 150
| 23> end
| 24>
| 25>
| 26>                          ****END OF INPUT****

CARTESIAN COORDINATES (ANGSTROEM)
---------------------------------
  C     -0.461290    2.234690   -4.989620
  C     -0.423840    2.398770   -6.474320
  C     -0.959470    3.492650   -7.007400
  N      0.145580    1.486890   -7.203990
  H      0.565370    0.696810   -6.723860
  H      0.220680    1.581770   -8.207520
  H     -1.406240    4.181510   -6.403260
  H     -0.934210    3.681600   -7.999470
  H      0.006450    1.310590   -4.721000
  H     -1.478220    2.229670   -4.656870
  H      0.061090    3.046320   -4.527790

 Total Charge           Charge          ....    0
 Multiplicity           Mult            ....    1
 Number of Electrons    NEL             ....   32
 Basis Dimension        Dim             ....  136

ORBITAL ENERGIES
----------------

  NO   OCC          E(Eh)            E(eV)
   0   2.0000     -14.400783      -391.8652
   1   2.0000     -10.254202      -279.0310
   2   2.0000     -10.223292      -278.1899
   3   2.0000     -10.160174      -276.4724
   4   2.0000      -0.955179       -25.9917
   5   2.0000      -0.772844       -21.0302
   6   2.0000      -0.701579       -19.0909
   7   2.0000      -0.591269       -16.0892
   8   2.0000      -0.547443       -14.8967
   9   2.0000      -0.487925       -13.2771
  10   2.0000      -0.445770       -12.1300
  11   2.0000      -0.410882       -11.1807
  12   2.0000      -0.402062       -10.9407
  13   2.0000      -0.366129        -9.9629
  14   2.0000      -0.353903        -9.6302
  15   2.0000      -0.194959        -5.3051
  16   0.0000       0.025543         0.6951
  17   0.0000       0.051401         1.3987
  18   0.0000       0.062322         1.6959
  19   0.0000       0.069676         1.8960
  20   0.0000       0.095550         2.6001

MULLIKEN ATOMIC CHARGES
-----------------------
   0 C :    0.642167
   1 C :   -0.308358
   2 C :    0.315739
   3 N :    0.063646
   4 H :   -0.046598
   5 H :   -0.170168
   6 H :   -0.130318
   7 H :   -0.389250
   8 H :   -0.076245
   9 H :    0.057612
  10 H :    0.041774
Sum of atomic charges:   -0.0000000

LOEWDIN ATOMIC CHARGES
----------------------
   0 C :    0.162277
   1 C :   -0.293353
   2 C :    0.156438
   3 N :    0.157312
   4 H :    0.002746
   5 H :    0.015574
   6 H :   -0.077699
   7 H :   -0.092163
   8 H :   -0.025872
   9 H :   -0.002769
  10 H :   -0.002491

  Mayer bond orders larger than 0.100000
B(  0-C ,  1-C ) :   1.1094 B(  0-C ,  8-H ) :   0.7643 B(  0-C ,  9-H ) :   0.7616
B(  0-C , 10-H ) :   0.7849 B(  1-C ,  2-C ) :   1.7843 B(  1-C ,  3-N ) :   1.0255
B(  1-C ,  5-H ) :  -0.1598 B(  1-C ,  6-H ) :   0.1001 B(  1-C ,  7-H ) :   0.1530
B(  1-C ,  8-H ) :   0.2419 B(  1-C ,  9-H ) :   0.1662 B(  1-C , 10-H ) :   0.1530
B(  2-C ,  3-N ) :   0.2402 B(  2-C ,  6-H ) :   0.8750 B(  2-C ,  7-H ) :   0.8734
B(  3-N ,  4-H ) :   1.0814 B(  3-N ,  5-H ) :   1.3275 B(  4-H ,  5-H ) :  -0.1479

Dispersion correction           -0.006019816
FINAL SINGLE POINT ENERGY      -172.928502130840

DIPOLE MOMENT
-------------
                                X             Y             Z
Electronic contribution:      0.54537      -0.82518      -1.53841
Nuclear contribution   :     -0.12116       0.12783       1.56719
                        -----------------------------------------
Total Dipole Moment    :      0.42421      -0.69734       0.02878
                        -----------------------------------------
Magnitude (a.u.)       :      0.81674
Magnitude (Debye)      :      2.07599

Rotational constants in cm-1:     0.350065     0.307664     0.168807
Rotational constants in MHz : 10494.676477  9223.531181  5060.697310

                             ****ORCA TERMINATED NORMALLY****
TOTAL RUN TIME: 0 days 0 hours 0 minutes 6 seconds 403 msec
