                         Program Version 5.0.0 -  RELEASE  -
|  1> !PBE0 D3BJ RIJCOSX def2-SVPD def2/J TightSCF
|  2> *xyz 0 1
|  3> C          2.09343        1.86104       -4.65684
|  4> S          1.87964        0.07859       -4.46297
|  5> O          3.20757       -0.46611       -4.42026
|  6> F          1.07506       -0.05616       -3.26876
|  7> O          1.13166       -0.31996       -5.67903
|  8> H          2.68437        2.05681       -5.52711
|  9> H          2.58708        2.25699       -3.79404
| 10> H          1.13553        2.32556       -4.76426
| 11> *
| 12>
| 13> %MaxCore 64000
| 14>
| 15> %pal nprocs 8
| 16> end
| 17>
| 18> %scf
| 19>   MaxIter 150
| 20> end
| 21>
| 22>
| 23>                          ****END OF INPUT****

CARTESIAN COORDINATES (ANGSTROEM)
---------------------------------
  C      2.093430    1.861040   -4.656840
  S      1.879640    0.078590   -4.462970
  O      3.207570   -0.466110   -4.420260
  F      1.075060   -0.056160   -3.268760
  O      1.131660   -0.319960   -5.679030
  H      2.684370    2.056810   -5.527110
  H      2.587080    2.256990   -3.794040
  H      1.135530    2.325560   -4.764260

 Total Charge           Charge          ....    0
 Multiplicity           Mult            ....    1
 Number of Electrons    NEL             ....   50
 Basis Dimension        Dim             ....  140

ORBITAL ENERGIES
----------------

  NO   OCC          E(Eh)            E(eV)
   0   2.0000     -89.304691     -2430.1042
   1   2.0000     -24.907151      -677.7580
   2   2.0000     -19.239882      -523.5438
   3   2.0000     -19.224238      -523.1181
   4   2.0000     -10.291916      -280.0573
   5   2.0000      -8.264716      -224.8944
   6   2.0000      -6.210965      -169.0089
   7   2.0000      -6.204579      -168.8352
   8   2.0000      -6.203589      -168.8082
   9   2.0000      -1.412212       -38.4282
  10   2.0000      -1.145342       -31.1663
  11   2.0000      -1.038506       -28.2592
  12   2.0000      -0.821144       -22.3445
  13   2.0000      -0.743067       -20.2199
  14   2.0000      -0.626545       -17.0492
  15   2.0000      -0.612298       -16.6615
  16   2.0000      -0.578715       -15.7476
  17   2.0000      -0.499102       -13.5813
  18   2.0000      -0.495038       -13.4707
  19   2.0000      -0.481631       -13.1058
  20   2.0000      -0.460108       -12.5202
  21   2.0000      -0.409932       -11.1548
  22   2.0000      -0.360246        -9.8028
  23   2.0000      -0.344792        -9.3823
  24   2.0000      -0.328729        -8.9452
  25   0.0000      -0.003259        -0.0887
  26   0.0000       0.035567         0.9678
  27   0.0000       0.042021         1.1434
  28   0.0000       0.050747         1.3809
  29   0.0000       0.051426         1.3994

MULLIKEN ATOMIC CHARGES
-----------------------
   0 C :    0.283881
   1 S :    1.339710
   2 O :   -0.647277
   3 F :   -0.391513
   4 O :   -0.691367
   5 H :    0.026011
   6 H :    0.037655
   7 H :    0.042899
Sum of atomic charges:    0.0000000

LOEWDIN ATOMIC CHARGES
----------------------
   0 C :    0.119867
   1 S :    1.112991
   2 O :   -0.461915
   3 F :   -0.260804
   4 O :   -0.485891
   5 H :    0.001176
   6 H :   -0.013950
   7 H :   -0.011473

  Mayer bond orders larger than 0.100000
B(  0-C ,  1-S ) :   1.0117 B(  0-C ,  5-H ) :   0.9349 B(  0-C ,  6-H ) :   0.9278
B(  0-C ,  7-H ) :   0.9309 B(  1-S ,  2-O ) :   1.5259 B(  1-S ,  3-F ) :   0.6774
B(  1-S ,  4-O ) :   1.4927 B(  1-S ,  5-H ) :   0.1033

Dispersion correction           -0.005009252
FINAL SINGLE POINT ENERGY      -687.549151487685

DIPOLE MOMENT
-------------
                                X             Y             Z
Electronic contribution:     -1.73518      -4.49539       2.57126
Nuclear contribution   :      1.52593       5.92196      -1.79430
                        -----------------------------------------
Total Dipole Moment    :     -0.20925       1.42657       0.77696
                        -----------------------------------------
Magnitude (a.u.)       :      1.63785
Magnitude (Debye)      :      4.16308

Rotational constants in cm-1:     0.162837     0.155564     0.147443
Rotational constants in MHz :  4881.731197  4663.686927  4420.233103

                             ****ORCA TERMINATED NORMALLY****
TOTAL RUN TIME: 0 days 0 hours 0 minutes 7 seconds 482 msec
