                         Program Version 5.0.0 -  RELEASE  -
|  1> !PBE0 D3BJ RIJCOSX def2-SVPD def2/J TightSCF
|  2> *xyz 0 1
|  3> C         -0.46129        2.23469       -4.98962
|  4> C         -0.42384        2.39877       -6.47432
|  5> N         -0.95947        3.49265       -7.00740
|  6> C          0.14558        1.48689       -7.20399
|  7> H          0.56537        0.69681       -6.72386
|  8> H          0.22068        1.58177       -8.20752
|  9> H         -1.40624        4.18151       -6.40326
| 10> H         -0.93421        3.68160       -7.99947
| 11> H          0.00645        1.31059       -4.72100
| 12> H         -1.47822        2.22967       -4.65687
| 13> H          0.06109        3.04632       -4.52779
| 14> *
| 15>
| 16> %MaxCore 64000
| 17>
| 18> %pal nprocs 8
| 19> end
| 20>
| 21> %scf
| 22>   MaxIter 150
| 23> end
| 24>
| 25>
| 26>                          ****END OF INPUT****

CARTESIAN COORDINATES (ANGSTROEM)
---------------------------------
  C     -0.461290    2.234690   -4.989620
  C     -0.423840    2.398770   -6.474320
  N     -0.959470    3.492650   -7.007400
  C      0.145580    1.486890   -7.203990
  H      0.565370    0.696810   -6.723860
  H      0.220680    1.581770   -8.207520
  H     -1.406240    4.181510   -6.403260
  H     -0.934210    3.681600   -7.999470
  H      0.006450    1.310590   -4.721000
  H     -1.478220    2.229670   -4.656870
  H      0.061090    3.046320   -4.527790

 Total Charge           Charge          ....    0
 Multiplicity           Mult            ....    1
 Number of Electrons    NEL             ....   32
 Basis Dimension        Dim             ....  136

ORBITAL ENERGIES
----------------

  NO   OCC          E(Eh)            E(eV)
   0   2.0000     -14.396170      -391.7397
   1   2.0000     -10.252841      -278.9940
   2   2.0000     -10.221712      -278.1469
   3   2.0000     -10.164431      -276.5882
   4   2.0000      -0.942062       -25.6348
   5   2.0000      -0.777115       -21.1464
   6   2.0000      -0.705443       -19.1961
   7   2.0000      -0.587068       -15.9749
   8   2.0000      -0.537555       -14.6276
   9   2.0000      -0.490495       -13.3470
  10   2.0000      -0.445566       -12.1245
  11   2.0000      -0.408944       -11.1279
  12   2.0000      -0.408003       -11.1023
  13   2.0000      -0.366445        -9.9715
  14   2.0000      -0.346003        -9.4152
  15   2.0000      -0.204994        -5.5782
  16   0.0000       0.026702         0.7266
  17   0.0000       0.057073         1.5530
  18   0.0000       0.062899         1.7116
  19   0.0000       0.071666         1.9501
  20   0.0000       0.098836         2.6895

MULLIKEN ATOMIC CHARGES
-----------------------
   0 C :    0.665322
   1 C :   -0.391108
   2 N :    0.089812
   3 C :    0.321883
   4 H :   -0.025503
   5 H :   -0.383442
   6 H :   -0.126151
   7 H :   -0.194454
   8 H :    0.052400
   9 H :    0.000438
  10 H :   -0.009196
Sum of atomic charges:    0.0000000

LOEWDIN ATOMIC CHARGES
----------------------
   0 C :    0.158934
   1 C :   -0.296389
   2 N :    0.155372
   3 C :    0.161371
   4 H :   -0.077419
   5 H :   -0.078209
   6 H :    0.003961
   7 H :    0.003757
   8 H :   -0.012431
   9 H :   -0.009921
  10 H :   -0.009026

  Mayer bond orders larger than 0.100000
B(  0-C ,  1-C ) :   1.2915 B(  0-C ,  8-H ) :   0.8230 B(  0-C ,  9-H ) :   0.7125
B(  0-C , 10-H ) :   0.7124 B(  1-C ,  2-N ) :   1.0754 B(  1-C ,  3-C ) :   1.7676
B(  1-C ,  5-H ) :   0.1645 B(  1-C ,  8-H ) :   0.1905 B(  1-C ,  9-H ) :   0.2422
B(  1-C , 10-H ) :   0.2474 B(  2-N ,  3-C ) :   0.2474 B(  2-N ,  6-H ) :   1.1761
B(  2-N ,  7-H ) :   1.2484 B(  3-C ,  4-H ) :   0.9325 B(  3-C ,  5-H ) :   0.8157
B(  6-H ,  7-H ) :  -0.1370

Dispersion correction           -0.006019264
FINAL SINGLE POINT ENERGY      -172.932150628889

DIPOLE MOMENT
-------------
                                X             Y             Z
Electronic contribution:     -0.44518       0.95711      -1.39966
Nuclear contribution   :      0.12666      -0.32199       1.52310
                        -----------------------------------------
Total Dipole Moment    :     -0.31852       0.63511       0.12345
                        -----------------------------------------
Magnitude (a.u.)       :      0.72115
Magnitude (Debye)      :      1.83303

Rotational constants in cm-1:     0.352483     0.305471     0.168700
Rotational constants in MHz : 10567.165953  9157.779739  5057.501411

                             ****ORCA TERMINATED NORMALLY****
TOTAL RUN TIME: 0 days 0 hours 0 minutes 6 seconds 275 msec
