                         Program Version 5.0.0 -  RELEASE  -
|  1> !PBE0 D3BJ RIJCOSX def2-SVPD def2/J TightSCF
|  2> *xyz 0 1
|  3> C          2.09343        1.86104       -4.65684
|  4> S          1.87964        0.07859       -4.46297
|  5> O          3.20757       -0.46611       -4.42026
|  6> O          1.07506       -0.05616       -3.26876
|  7> F          1.13166       -0.31996       -5.67903
|  8> H          2.68437        2.05681       -5.52711
|  9> H          2.58708        2.25699       -3.79404
| 10> H          1.13553        2.32556       -4.76426
| 11> *
| 12>
| 13> %MaxCore 64000
| 14>
| 15> %pal nprocs 8
| 16> end
| 17>
| 18> %scf
| 19>   MaxIter 150
| 20> end
| 21>
| 22>
| 23>                          ****END OF INPUT****

CARTESIAN COORDINATES (ANGSTROEM)
---------------------------------
  C      2.093430    1.861040   -4.656840
  S      1.879640    0.078590   -4.462970
  O      3.207570   -0.466110   -4.420260
  O      1.075060   -0.056160   -3.268760
  F      1.131660   -0.319960   -5.679030
  H      2.684370    2.056810   -5.527110
  H      2.587080    2.256990   -3.794040
  H      1.135530    2.325560   -4.764260

 Total Charge           Charge          ....    0
 Multiplicity           Mult            ....    1
 Number of Electrons    NEL             ....   50
 Basis Dimension        Dim             ....  140

ORBITAL ENERGIES
----------------

  NO   OCC          E(Eh)            E(eV)
   0   2.0000     -89.302794     -2430.0526
   1   2.0000     -24.889619      -677.2810
   2   2.0000     -19.239558      -523.5350
   3   2.0000     -19.235249      -523.4177
   4   2.0000     -10.291043      -280.0335
   5   2.0000      -8.262785      -224.8418
   6   2.0000      -6.208798      -168.9500
   7   2.0000      -6.202849      -168.7881
   8   2.0000      -6.201864      -168.7613
   9   2.0000      -1.381955       -37.6049
  10   2.0000      -1.153194       -31.3800
  11   2.0000      -1.057409       -28.7736
  12   2.0000      -0.818431       -22.2706
  13   2.0000      -0.728160       -19.8143
  14   2.0000      -0.612141       -16.6572
  15   2.0000      -0.591410       -16.0931
  16   2.0000      -0.575986       -15.6734
  17   2.0000      -0.500595       -13.6219
  18   2.0000      -0.495424       -13.4812
  19   2.0000      -0.480416       -13.0728
  20   2.0000      -0.464858       -12.6494
  21   2.0000      -0.414575       -11.2812
  22   2.0000      -0.364367        -9.9149
  23   2.0000      -0.355416        -9.6714
  24   2.0000      -0.342071        -9.3082
  25   0.0000      -0.001250        -0.0340
  26   0.0000       0.036923         1.0047
  27   0.0000       0.040456         1.1009
  28   0.0000       0.051513         1.4017
  29   0.0000       0.052081         1.4172

MULLIKEN ATOMIC CHARGES
-----------------------
   0 C :    0.282318
   1 S :    1.349264
   2 O :   -0.657814
   3 O :   -0.669380
   4 F :   -0.409074
   5 H :    0.036404
   6 H :    0.026863
   7 H :    0.041419
Sum of atomic charges:    0.0000000

LOEWDIN ATOMIC CHARGES
----------------------
   0 C :    0.120198
   1 S :    1.111015
   2 O :   -0.462179
   3 O :   -0.469163
   4 F :   -0.275496
   5 H :   -0.012584
   6 H :    0.000159
   7 H :   -0.011950

  Mayer bond orders larger than 0.100000
B(  0-C ,  1-S ) :   1.0118 B(  0-C ,  5-H ) :   0.9333 B(  0-C ,  6-H ) :   0.9308
B(  0-C ,  7-H ) :   0.9309 B(  1-S ,  2-O ) :   1.5224 B(  1-S ,  3-O ) :   1.5163
B(  1-S ,  4-F ) :   0.6390

Dispersion correction           -0.005009757
FINAL SINGLE POINT ENERGY      -687.564129213881

DIPOLE MOMENT
-------------
                                X             Y             Z
Electronic contribution:     -1.65215      -4.93692      -1.45297
Nuclear contribution   :      1.46938       6.18552       0.61372
                        -----------------------------------------
Total Dipole Moment    :     -0.18277       1.24860      -0.83925
                        -----------------------------------------
Magnitude (a.u.)       :      1.51550
Magnitude (Debye)      :      3.85210

Rotational constants in cm-1:     0.163578     0.153284     0.148718
Rotational constants in MHz :  4903.939615  4595.352658  4458.447794

                             ****ORCA TERMINATED NORMALLY****
TOTAL RUN TIME: 0 days 0 hours 0 minutes 6 seconds 872 msec
