                         Program Version 5.0.0 -  RELEASE  -
|  1> !PBE0 D3BJ RIJCOSX def2-SVPD def2/J TightSCF xyzfile
|  2>
|  3> *xyzfile 0 1 D2.xyz
|  4>
|  5> %MaxCore 64000
|  6>
|  7> %pal nprocs 4
|  8> end
|  9>
| 10> %scf
| 11>   MaxIter 150
| 12> end
| 13>
| 14>
| 15>                          ****END OF INPUT****

CARTESIAN COORDINATES (ANGSTROEM)
---------------------------------
  C     -0.461293    2.234686   -4.989619
  C      0.848883    2.667967   -4.302351
  C      2.093434    1.861037   -4.656845
  H      2.444814    2.041567   -5.674990
  H      2.901748    2.137864   -3.980338
  S      1.879644    0.078594   -4.462965
  C     -0.423841    2.398772   -6.474317
  N     -0.959467    3.492647   -7.007401
  C      0.145585    1.486891   -7.203987
  H      0.565371    0.696807   -6.723858
  H      0.220682    1.581768   -8.207520
  H     -1.406243    4.181507   -6.403261
  H     -0.934215    3.681601   -7.999468
  F      3.207574   -0.466111   -4.420259
  O      1.075064   -0.056160   -3.268758
  O      1.131661   -0.319960   -5.679031
  H      0.668432    2.559427   -3.232850
  H      1.034074    3.729426   -4.497081
  H     -1.288884    2.826737   -4.594997
  H     -0.651696    1.186343   -4.756552

 Total Charge           Charge          ....    0
 Multiplicity           Mult            ....    1
 Number of Electrons    NEL             ....   88
 Basis Dimension        Dim             ....  296

ORBITAL ENERGIES
----------------

  NO   OCC          E(Eh)            E(eV)
   0   2.0000     -89.300369     -2429.9866
   1   2.0000     -24.909140      -677.8122
   2   2.0000     -19.234172      -523.3884
   3   2.0000     -19.223550      -523.0994
   4   2.0000     -14.391802      -391.6208
   5   2.0000     -10.291562      -280.0476
   6   2.0000     -10.261423      -279.2275
   7   2.0000     -10.242436      -278.7109
   8   2.0000     -10.235580      -278.5243
   9   2.0000     -10.141121      -275.9539
  10   2.0000      -8.260125      -224.7694
  11   2.0000      -6.206381      -168.8842
  12   2.0000      -6.200314      -168.7191
  13   2.0000      -6.198608      -168.6727
  14   2.0000      -1.417159       -38.5628
  15   2.0000      -1.140898       -31.0454
  16   2.0000      -1.038257       -28.2524
  17   2.0000      -0.938024       -25.5249
  18   2.0000      -0.848522       -23.0895
  19   2.0000      -0.788507       -21.4564
  20   2.0000      -0.746152       -20.3038
  21   2.0000      -0.719514       -19.5790
  22   2.0000      -0.658118       -17.9083
  23   2.0000      -0.617536       -16.8040
  24   2.0000      -0.608626       -16.5616
  25   2.0000      -0.581892       -15.8341
  26   2.0000      -0.578277       -15.7357
  27   2.0000      -0.530354       -14.4317
  28   2.0000      -0.514179       -13.9915
  29   2.0000      -0.503466       -13.7000
  30   2.0000      -0.489694       -13.3253
  31   2.0000      -0.475595       -12.9416
  32   2.0000      -0.457656       -12.4535
  33   2.0000      -0.421293       -11.4640
  34   2.0000      -0.415479       -11.3058
  35   2.0000      -0.404154       -10.9976
  36   2.0000      -0.388947       -10.5838
  37   2.0000      -0.374598       -10.1933
  38   2.0000      -0.352508        -9.5922
  39   2.0000      -0.351532        -9.5657
  40   2.0000      -0.335766        -9.1367
  41   2.0000      -0.330469        -8.9925
  42   2.0000      -0.308275        -8.3886
  43   2.0000      -0.194741        -5.2992
  44   0.0000       0.004353         0.1185
  45   0.0000       0.019688         0.5357
  46   0.0000       0.033708         0.9172
  47   0.0000       0.038188         1.0391
  48   0.0000       0.052431         1.4267

MULLIKEN ATOMIC CHARGES
-----------------------
   0 C :    0.157270
   1 C :    0.034579
   2 C :   -0.098922
   3 H :    0.292729
   4 H :   -0.071196
   5 S :    1.694300
   6 C :    0.260875
   7 N :   -0.135893
   8 C :    0.638425
   9 H :    0.077480
  10 H :   -0.624297
  11 H :   -0.095240
  12 H :   -0.191616
  13 F :   -0.488402
  14 O :   -0.722098
  15 O :   -0.868420
  16 H :    0.207565
  17 H :   -0.131554
  18 H :   -0.128895
  19 H :    0.193309
Sum of atomic charges:   -0.0000000

LOEWDIN ATOMIC CHARGES
----------------------
   0 C :    0.027929
   1 C :   -0.011134
   2 C :   -0.042274
   3 H :    0.024992
   4 H :    0.016891
   5 S :    1.176681
   6 C :   -0.234897
   7 N :    0.156652
   8 C :    0.197352
   9 H :   -0.181948
  10 H :   -0.068898
  11 H :   -0.003199
  12 H :    0.003334
  13 F :   -0.249459
  14 O :   -0.457006
  15 O :   -0.464887
  16 H :    0.027222
  17 H :    0.037984
  18 H :    0.023339
  19 H :    0.021326

  Mayer bond orders larger than 0.100000
B(  0-C ,  1-C ) :   1.2238 B(  0-C ,  6-C ) :   1.0588 B(  0-C ,  7-N ) :   0.1122
B(  0-C ,  8-C ) :   0.1822 B(  0-C , 16-H ) :   0.1066 B(  0-C , 18-H ) :   0.8075
B(  0-C , 19-H ) :   0.8521 B(  1-C ,  2-C ) :   1.4019 B(  1-C ,  3-H ) :   0.1055
B(  1-C ,  4-H ) :   0.1926 B(  1-C , 16-H ) :   0.7648 B(  1-C , 17-H ) :   0.9184
B(  1-C , 18-H ) :   0.1478 B(  1-C , 19-H ) :   0.1246 B(  2-C ,  3-H ) :   0.8350
B(  2-C ,  4-H ) :   0.8548 B(  2-C ,  5-S ) :   0.9635 B(  2-C , 15-O ) :   0.1633
B(  2-C , 16-H ) :   0.1095 B(  5-S , 13-F ) :   0.5992 B(  5-S , 14-O ) :   1.4769
B(  5-S , 15-O ) :   1.3693 B(  6-C ,  7-N ) :   0.8446 B(  6-C ,  8-C ) :   1.8497
B(  6-C ,  9-H ) :   0.2705 B(  6-C , 10-H ) :   0.2008 B(  6-C , 12-H ) :  -0.1488
B(  6-C , 18-H ) :   0.1297 B(  7-N ,  8-C ) :   0.3026 B(  7-N , 11-H ) :   1.1893
B(  7-N , 12-H ) :   1.3738 B(  8-C ,  9-H ) :   0.6476 B(  8-C , 10-H ) :   0.8486
B(  9-H , 10-H ) :  -0.2379 B( 11-H , 12-H ) :  -0.1552

Dispersion correction           -0.019997319
FINAL SINGLE POINT ENERGY      -898.513816813558

DIPOLE MOMENT
-------------
                                X             Y             Z
Electronic contribution:      9.23950     -12.40717       5.38288
Nuclear contribution   :     -8.42493      13.96425      -5.19491
                        -----------------------------------------
Total Dipole Moment    :      0.81457       1.55708       0.18798
                        -----------------------------------------
Magnitude (a.u.)       :      1.76730
Magnitude (Debye)      :      4.49212

Rotational constants in cm-1:     0.082815     0.024151     0.022015
Rotational constants in MHz :  2482.732265   724.035221   660.002136

                             ****ORCA TERMINATED NORMALLY****
TOTAL RUN TIME: 0 days 0 hours 1 minutes 11 seconds 302 msec
