                         Program Version 5.0.0 -  RELEASE  -
|  1> !PBE0 D3BJ RIJCOSX def2-SVPD def2/J TightSCF xyzfile
|  2>
|  3> *xyzfile 0 1 D3.xyz
|  4>
|  5> %MaxCore 64000
|  6>
|  7> %pal nprocs 4
|  8> end
|  9>
| 10> %scf
| 11>   MaxIter 150
| 12> end
| 13>
| 14>
| 15>                          ****END OF INPUT****

CARTESIAN COORDINATES (ANGSTROEM)
---------------------------------
  C     -0.461293    2.234686   -4.989619
  C      0.848883    2.667967   -4.302351
  C      2.093434    1.861037   -4.656845
  H      2.444814    2.041567   -5.674990
  H      2.901748    2.137864   -3.980338
  S      1.879644    0.078594   -4.462965
  C     -0.423841    2.398772   -6.474317
  C     -0.959467    3.492647   -7.007401
  N      0.145585    1.486891   -7.203987
  H      0.565371    0.696807   -6.723858
  H      0.220682    1.581768   -8.207520
  H     -1.406243    4.181507   -6.403261
  H     -0.934215    3.681601   -7.999468
  O      3.207574   -0.466111   -4.420259
  F      1.075064   -0.056160   -3.268758
  O      1.131661   -0.319960   -5.679031
  H      0.668432    2.559427   -3.232850
  H      1.034074    3.729426   -4.497081
  H     -1.288884    2.826737   -4.594997
  H     -0.651696    1.186343   -4.756552

 Total Charge           Charge          ....    0
 Multiplicity           Mult            ....    1
 Number of Electrons    NEL             ....   88
 Basis Dimension        Dim             ....  296

ORBITAL ENERGIES
----------------

  NO   OCC          E(Eh)            E(eV)
   0   2.0000     -89.317453     -2430.4515
   1   2.0000     -24.918870      -678.0769
   2   2.0000     -19.252505      -523.8873
   3   2.0000     -19.245044      -523.6843
   4   2.0000     -14.373903      -391.1338
   5   2.0000     -10.302277      -280.3392
   6   2.0000     -10.269596      -279.4499
   7   2.0000     -10.251397      -278.9547
   8   2.0000     -10.246213      -278.8136
   9   2.0000     -10.162181      -276.5270
  10   2.0000      -8.277126      -225.2320
  11   2.0000      -6.223447      -169.3486
  12   2.0000      -6.217350      -169.1827
  13   2.0000      -6.215544      -169.1336
  14   2.0000      -1.423365       -38.7317
  15   2.0000      -1.161305       -31.6007
  16   2.0000      -1.061429       -28.8830
  17   2.0000      -0.943433       -25.6721
  18   2.0000      -0.862157       -23.4605
  19   2.0000      -0.789680       -21.4883
  20   2.0000      -0.759408       -20.6646
  21   2.0000      -0.717691       -19.5294
  22   2.0000      -0.666901       -18.1473
  23   2.0000      -0.628689       -17.1075
  24   2.0000      -0.627381       -17.0719
  25   2.0000      -0.595310       -16.1992
  26   2.0000      -0.580015       -15.7830
  27   2.0000      -0.537455       -14.6249
  28   2.0000      -0.519168       -14.1273
  29   2.0000      -0.513096       -13.9621
  30   2.0000      -0.495020       -13.4702
  31   2.0000      -0.478997       -13.0342
  32   2.0000      -0.470847       -12.8124
  33   2.0000      -0.437946       -11.9171
  34   2.0000      -0.421731       -11.4759
  35   2.0000      -0.415151       -11.2968
  36   2.0000      -0.398504       -10.8438
  37   2.0000      -0.393920       -10.7191
  38   2.0000      -0.364811        -9.9270
  39   2.0000      -0.360919        -9.8211
  40   2.0000      -0.354963        -9.6590
  41   2.0000      -0.344193        -9.3660
  42   2.0000      -0.336558        -9.1582
  43   2.0000      -0.192714        -5.2440
  44   0.0000      -0.009407        -0.2560
  45   0.0000       0.023674         0.6442
  46   0.0000       0.028984         0.7887
  47   0.0000       0.039033         1.0621
  48   0.0000       0.039649         1.0789

MULLIKEN ATOMIC CHARGES
-----------------------
   0 C :    0.299951
   1 C :    0.032313
   2 C :   -0.047068
   3 H :    0.221595
   4 H :   -0.056112
   5 S :    1.661075
   6 C :    0.010134
   7 C :    0.256346
   8 N :    0.430400
   9 H :   -0.273724
  10 H :   -0.219277
  11 H :   -0.055237
  12 H :   -0.379131
  13 O :   -0.712093
  14 F :   -0.439939
  15 O :   -0.865184
  16 H :    0.200663
  17 H :   -0.124670
  18 H :    0.049154
  19 H :    0.010804
Sum of atomic charges:   -0.0000000

LOEWDIN ATOMIC CHARGES
----------------------
   0 C :    0.020504
   1 C :   -0.022613
   2 C :   -0.029438
   3 H :    0.038835
   4 H :    0.022845
   5 S :    1.175344
   6 C :   -0.246648
   7 C :    0.167641
   8 N :    0.196542
   9 H :   -0.132689
  10 H :    0.020872
  11 H :   -0.085147
  12 H :   -0.088427
  13 O :   -0.442381
  14 F :   -0.244626
  15 O :   -0.456285
  16 H :    0.022952
  17 H :    0.039832
  18 H :    0.032739
  19 H :    0.010149

  Mayer bond orders larger than 0.100000
B(  0-C ,  1-C ) :   1.1995 B(  0-C ,  6-C ) :   1.1506 B(  0-C ,  8-N ) :   0.1232
B(  0-C , 16-H ) :   0.1208 B(  0-C , 17-H ) :   0.1048 B(  0-C , 18-H ) :   0.7742
B(  0-C , 19-H ) :   0.7592 B(  1-C ,  2-C ) :   1.3560 B(  1-C ,  3-H ) :   0.1122
B(  1-C ,  4-H ) :   0.1766 B(  1-C , 16-H ) :   0.7775 B(  1-C , 17-H ) :   0.9415
B(  1-C , 18-H ) :   0.1366 B(  1-C , 19-H ) :   0.1272 B(  2-C ,  3-H ) :   0.8567
B(  2-C ,  4-H ) :   0.8910 B(  2-C ,  5-S ) :   0.9881 B(  2-C , 15-O ) :   0.1147
B(  2-C , 16-H ) :   0.1118 B(  5-S , 13-O ) :   1.5245 B(  5-S , 14-F ) :   0.6220
B(  5-S , 15-O ) :   1.3615 B(  6-C ,  7-C ) :   1.6935 B(  6-C ,  8-N ) :   1.0669
B(  6-C , 10-H ) :  -0.1531 B(  6-C , 12-H ) :   0.1685 B(  6-C , 18-H ) :   0.1314
B(  6-C , 19-H ) :   0.1635 B(  7-C ,  8-N ) :   0.2058 B(  7-C , 11-H ) :   0.9456
B(  7-C , 12-H ) :   0.7318 B(  8-N ,  9-H ) :   1.0033 B(  8-N , 10-H ) :   1.2815
B(  9-H , 10-H ) :  -0.2201

Dispersion correction           -0.019757934
FINAL SINGLE POINT ENERGY      -898.538178414895

DIPOLE MOMENT
-------------
                                X             Y             Z
Electronic contribution:      6.46202     -13.12373       7.36179
Nuclear contribution   :     -6.19944      13.70770      -6.43483
                        -----------------------------------------
Total Dipole Moment    :      0.26259       0.58396       0.92696
                        -----------------------------------------
Magnitude (a.u.)       :      1.12660
Magnitude (Debye)      :      2.86358

Rotational constants in cm-1:     0.079903     0.025241     0.022805
Rotational constants in MHz :  2395.439281   756.708181   683.680583

                             ****ORCA TERMINATED NORMALLY****
TOTAL RUN TIME: 0 days 0 hours 1 minutes 3 seconds 625 msec
