                         Program Version 5.0.0 -  RELEASE  -
|  1> !PBE0 D3BJ RIJCOSX def2-SVPD def2/J TightSCF xyzfile
|  2>
|  3> *xyzfile 0 1 D4.xyz
|  4>
|  5> %MaxCore 64000
|  6>
|  7> %pal nprocs 4
|  8> end
|  9>
| 10> %scf
| 11>   MaxIter 150
| 12> end
| 13>
| 14>
| 15>                          ****END OF INPUT****

CARTESIAN COORDINATES (ANGSTROEM)
---------------------------------
  C     -0.461293    2.234686   -4.989619
  C      0.848883    2.667967   -4.302351
  C      2.093434    1.861037   -4.656845
  H      2.444814    2.041567   -5.674990
  H      2.901748    2.137864   -3.980338
  S      1.879644    0.078594   -4.462965
  C     -0.423841    2.398772   -6.474317
  N     -0.959467    3.492647   -7.007401
  C      0.145585    1.486891   -7.203987
  H      0.565371    0.696807   -6.723858
  H      0.220682    1.581768   -8.207520
  H     -1.406243    4.181507   -6.403261
  H     -0.934215    3.681601   -7.999468
  O      3.207574   -0.466111   -4.420259
  F      1.075064   -0.056160   -3.268758
  O      1.131661   -0.319960   -5.679031
  H      0.668432    2.559427   -3.232850
  H      1.034074    3.729426   -4.497081
  H     -1.288884    2.826737   -4.594997
  H     -0.651696    1.186343   -4.756552

 Total Charge           Charge          ....    0
 Multiplicity           Mult            ....    1
 Number of Electrons    NEL             ....   88
 Basis Dimension        Dim             ....  296

ORBITAL ENERGIES
----------------

  NO   OCC          E(Eh)            E(eV)
   0   2.0000     -89.299508     -2429.9632
   1   2.0000     -24.904559      -677.6875
   2   2.0000     -19.236332      -523.4472
   3   2.0000     -19.222344      -523.0666
   4   2.0000     -14.395652      -391.7256
   5   2.0000     -10.291241      -280.0389
   6   2.0000     -10.267127      -279.3827
   7   2.0000     -10.247337      -278.8442
   8   2.0000     -10.246259      -278.8149
   9   2.0000     -10.144869      -276.0559
  10   2.0000      -8.259192      -224.7440
  11   2.0000      -6.205635      -168.8639
  12   2.0000      -6.199299      -168.6915
  13   2.0000      -6.197617      -168.6457
  14   2.0000      -1.409107       -38.3437
  15   2.0000      -1.143385       -31.1131
  16   2.0000      -1.041065       -28.3288
  17   2.0000      -0.942462       -25.6457
  18   2.0000      -0.855205       -23.2713
  19   2.0000      -0.787651       -21.4331
  20   2.0000      -0.745376       -20.2827
  21   2.0000      -0.723698       -19.6928
  22   2.0000      -0.659606       -17.9488
  23   2.0000      -0.619425       -16.8554
  24   2.0000      -0.611961       -16.6523
  25   2.0000      -0.584404       -15.9024
  26   2.0000      -0.574110       -15.6223
  27   2.0000      -0.533230       -14.5099
  28   2.0000      -0.513567       -13.9749
  29   2.0000      -0.499254       -13.5854
  30   2.0000      -0.495272       -13.4770
  31   2.0000      -0.480601       -13.0778
  32   2.0000      -0.461961       -12.5706
  33   2.0000      -0.427797       -11.6409
  34   2.0000      -0.418347       -11.3838
  35   2.0000      -0.410479       -11.1697
  36   2.0000      -0.393772       -10.7151
  37   2.0000      -0.388424       -10.5696
  38   2.0000      -0.358042        -9.7428
  39   2.0000      -0.348416        -9.4809
  40   2.0000      -0.341434        -9.2909
  41   2.0000      -0.336573        -9.1586
  42   2.0000      -0.305649        -8.3171
  43   2.0000      -0.198672        -5.4061
  44   0.0000       0.000074         0.0020
  45   0.0000       0.022834         0.6213
  46   0.0000       0.032780         0.8920
  47   0.0000       0.036564         0.9950
  48   0.0000       0.048138         1.3099

MULLIKEN ATOMIC CHARGES
-----------------------
   0 C :    0.200688
   1 C :    0.064599
   2 C :   -0.069644
   3 H :    0.278543
   4 H :   -0.087868
   5 S :    1.628420
   6 C :    0.244891
   7 N :   -0.139524
   8 C :    0.621887
   9 H :    0.105419
  10 H :   -0.621709
  11 H :   -0.095499
  12 H :   -0.188088
  13 O :   -0.720865
  14 F :   -0.449700
  15 O :   -0.850443
  16 H :    0.180198
  17 H :   -0.140567
  18 H :   -0.137859
  19 H :    0.177120
Sum of atomic charges:   -0.0000000

LOEWDIN ATOMIC CHARGES
----------------------
   0 C :    0.020394
   1 C :   -0.026424
   2 C :   -0.029306
   3 H :    0.037473
   4 H :    0.020932
   5 S :    1.168866
   6 C :   -0.234846
   7 N :    0.156893
   8 C :    0.201039
   9 H :   -0.180456
  10 H :   -0.066671
  11 H :   -0.003167
  12 H :    0.004513
  13 O :   -0.451220
  14 F :   -0.251991
  15 O :   -0.462690
  16 H :    0.022049
  17 H :    0.036074
  18 H :    0.022624
  19 H :    0.015912

  Mayer bond orders larger than 0.100000
B(  0-C ,  1-C ) :   1.2073 B(  0-C ,  6-C ) :   1.0676 B(  0-C ,  7-N ) :   0.1129
B(  0-C ,  8-C ) :   0.1899 B(  0-C , 16-H ) :   0.1023 B(  0-C , 18-H ) :   0.8108
B(  0-C , 19-H ) :   0.8405 B(  1-C ,  2-C ) :   1.3535 B(  1-C ,  3-H ) :   0.1073
B(  1-C ,  4-H ) :   0.1715 B(  1-C , 16-H ) :   0.7726 B(  1-C , 17-H ) :   0.9181
B(  1-C , 18-H ) :   0.1507 B(  1-C , 19-H ) :   0.1153 B(  2-C ,  3-H ) :   0.8354
B(  2-C ,  4-H ) :   0.9138 B(  2-C ,  5-S ) :   0.9971 B(  2-C , 15-O ) :   0.1331
B(  2-C , 16-H ) :   0.1054 B(  5-S , 13-O ) :   1.5041 B(  5-S , 14-F ) :   0.6116
B(  5-S , 15-O ) :   1.4056 B(  6-C ,  7-N ) :   0.8386 B(  6-C ,  8-C ) :   1.8385
B(  6-C ,  9-H ) :   0.2797 B(  6-C , 10-H ) :   0.2069 B(  6-C , 12-H ) :  -0.1483
B(  6-C , 18-H ) :   0.1292 B(  7-N ,  8-C ) :   0.3030 B(  7-N , 11-H ) :   1.1925
B(  7-N , 12-H ) :   1.3709 B(  8-C ,  9-H ) :   0.6527 B(  8-C , 10-H ) :   0.8328
B(  9-H , 10-H ) :  -0.2407 B( 11-H , 12-H ) :  -0.1556

Dispersion correction           -0.019882813
FINAL SINGLE POINT ENERGY      -898.517152078380

DIPOLE MOMENT
-------------
                                X             Y             Z
Electronic contribution:      5.54319     -11.65409       7.30230
Nuclear contribution   :     -6.09390      13.51614      -6.45360
                        -----------------------------------------
Total Dipole Moment    :     -0.55070       1.86204       0.84870
                        -----------------------------------------
Magnitude (a.u.)       :      2.11914
Magnitude (Debye)      :      5.38643

Rotational constants in cm-1:     0.081469     0.024519     0.022336
Rotational constants in MHz :  2442.393231   735.066768   669.628729

                             ****ORCA TERMINATED NORMALLY****
TOTAL RUN TIME: 0 days 0 hours 1 minutes 7 seconds 867 msec
