                         Program Version 5.0.0 -  RELEASE  -
|  1> !PBE0 D3BJ RIJCOSX def2-SVPD def2/J TightSCF xyzfile
|  2>
|  3> *xyzfile 0 1 D5.xyz
|  4>
|  5> %MaxCore 64000
|  6>
|  7> %pal nprocs 4
|  8> end
|  9>
| 10> %scf
| 11>   MaxIter 150
| 12> end
| 13>
| 14>
| 15>                          ****END OF INPUT****

CARTESIAN COORDINATES (ANGSTROEM)
---------------------------------
  C     -0.461293    2.234686   -4.989619
  C      0.848883    2.667967   -4.302351
  C      2.093434    1.861037   -4.656845
  H      2.444814    2.041567   -5.674990
  H      2.901748    2.137864   -3.980338
  S      1.879644    0.078594   -4.462965
  C     -0.423841    2.398772   -6.474317
  C     -0.959467    3.492647   -7.007401
  N      0.145585    1.486891   -7.203987
  H      0.565371    0.696807   -6.723858
  H      0.220682    1.581768   -8.207520
  H     -1.406243    4.181507   -6.403261
  H     -0.934215    3.681601   -7.999468
  O      3.207574   -0.466111   -4.420259
  O      1.075064   -0.056160   -3.268758
  F      1.131661   -0.319960   -5.679031
  H      0.668432    2.559427   -3.232850
  H      1.034074    3.729426   -4.497081
  H     -1.288884    2.826737   -4.594997
  H     -0.651696    1.186343   -4.756552

 Total Charge           Charge          ....    0
 Multiplicity           Mult            ....    1
 Number of Electrons    NEL             ....   88
 Basis Dimension        Dim             ....  296

ORBITAL ENERGIES
----------------

  NO   OCC          E(Eh)            E(eV)
   0   2.0000     -89.308219     -2430.2002
   1   2.0000     -24.910892      -677.8598
   2   2.0000     -19.247450      -523.7497
   3   2.0000     -19.243562      -523.6439
   4   2.0000     -14.402007      -391.8985
   5   2.0000     -10.299110      -280.2530
   6   2.0000     -10.264602      -279.3140
   7   2.0000     -10.263256      -279.2774
   8   2.0000     -10.249515      -278.9035
   9   2.0000     -10.174531      -276.8631
  10   2.0000      -8.268313      -224.9922
  11   2.0000      -6.214741      -169.1117
  12   2.0000      -6.208308      -168.9366
  13   2.0000      -6.206789      -168.8953
  14   2.0000      -1.406038       -38.2602
  15   2.0000      -1.162464       -31.6323
  16   2.0000      -1.065149       -28.9842
  17   2.0000      -0.965817       -26.2812
  18   2.0000      -0.858133       -23.3510
  19   2.0000      -0.791334       -21.5333
  20   2.0000      -0.770296       -20.9608
  21   2.0000      -0.719141       -19.5688
  22   2.0000      -0.677468       -18.4348
  23   2.0000      -0.624901       -17.0044
  24   2.0000      -0.613819       -16.7029
  25   2.0000      -0.593637       -16.1537
  26   2.0000      -0.576177       -15.6786
  27   2.0000      -0.554587       -15.0911
  28   2.0000      -0.520804       -14.1718
  29   2.0000      -0.505804       -13.7636
  30   2.0000      -0.494821       -13.4648
  31   2.0000      -0.490096       -13.3362
  32   2.0000      -0.467423       -12.7192
  33   2.0000      -0.440419       -11.9844
  34   2.0000      -0.422428       -11.4949
  35   2.0000      -0.413200       -11.2437
  36   2.0000      -0.404685       -11.0120
  37   2.0000      -0.393265       -10.7013
  38   2.0000      -0.369488       -10.0543
  39   2.0000      -0.366309        -9.9678
  40   2.0000      -0.356976        -9.7138
  41   2.0000      -0.350742        -9.5442
  42   2.0000      -0.345662        -9.4059
  43   2.0000      -0.208279        -5.6676
  44   0.0000      -0.002674        -0.0728
  45   0.0000       0.024812         0.6752
  46   0.0000       0.025910         0.7050
  47   0.0000       0.032864         0.8943
  48   0.0000       0.041448         1.1279

MULLIKEN ATOMIC CHARGES
-----------------------
   0 C :    0.245058
   1 C :    0.057553
   2 C :   -0.033153
   3 H :    0.221395
   4 H :   -0.052548
   5 S :    1.591540
   6 C :    0.065322
   7 C :    0.265923
   8 N :    0.427644
   9 H :   -0.275771
  10 H :   -0.209540
  11 H :   -0.042883
  12 H :   -0.386225
  13 O :   -0.724638
  14 O :   -0.725445
  15 F :   -0.576584
  16 H :    0.235630
  17 H :   -0.117189
  18 H :    0.058144
  19 H :   -0.024233
Sum of atomic charges:    0.0000000

LOEWDIN ATOMIC CHARGES
----------------------
   0 C :    0.024421
   1 C :   -0.016534
   2 C :   -0.036000
   3 H :    0.023872
   4 H :    0.032565
   5 S :    1.141271
   6 C :   -0.248602
   7 C :    0.176078
   8 N :    0.192456
   9 H :   -0.090667
  10 H :    0.024166
  11 H :   -0.078972
  12 H :   -0.085820
  13 O :   -0.447671
  14 O :   -0.449222
  15 F :   -0.277161
  16 H :    0.029160
  17 H :    0.039179
  18 H :    0.035583
  19 H :    0.011899

  Mayer bond orders larger than 0.100000
B(  0-C ,  1-C ) :   1.2167 B(  0-C ,  6-C ) :   1.1345 B(  0-C ,  8-N ) :   0.1198
B(  0-C , 16-H ) :   0.1227 B(  0-C , 17-H ) :   0.1150 B(  0-C , 18-H ) :   0.7745
B(  0-C , 19-H ) :   0.7990 B(  1-C ,  2-C ) :   1.3823 B(  1-C ,  3-H ) :   0.1140
B(  1-C ,  4-H ) :   0.1657 B(  1-C , 16-H ) :   0.7682 B(  1-C , 17-H ) :   0.9261
B(  1-C , 18-H ) :   0.1312 B(  1-C , 19-H ) :   0.1391 B(  2-C ,  3-H ) :   0.8608
B(  2-C ,  4-H ) :   0.8753 B(  2-C ,  5-S ) :   0.9995 B(  2-C , 15-F ) :   0.1010
B(  2-C , 16-H ) :   0.1219 B(  5-S , 13-O ) :   1.5099 B(  5-S , 14-O ) :   1.5099
B(  5-S , 15-F ) :   0.6147 B(  6-C ,  7-C ) :   1.6987 B(  6-C ,  8-N ) :   1.0455
B(  6-C , 10-H ) :  -0.1600 B(  6-C , 12-H ) :   0.1653 B(  6-C , 18-H ) :   0.1368
B(  6-C , 19-H ) :   0.1244 B(  7-C ,  8-N ) :   0.2062 B(  7-C , 11-H ) :   0.9522
B(  7-C , 12-H ) :   0.7228 B(  8-N ,  9-H ) :   1.0220 B(  8-N , 10-H ) :   1.2904
B(  9-H , 10-H ) :  -0.2053

Dispersion correction           -0.019667590
FINAL SINGLE POINT ENERGY      -898.541489451374

DIPOLE MOMENT
-------------
                                X             Y             Z
Electronic contribution:      6.41201     -13.38691       3.15135
Nuclear contribution   :     -6.26130      13.99605      -3.80018
                        -----------------------------------------
Total Dipole Moment    :      0.15071       0.60914      -0.64882
                        -----------------------------------------
Magnitude (a.u.)       :      0.90263
Magnitude (Debye)      :      2.29430

Rotational constants in cm-1:     0.079895     0.025630     0.022948
Rotational constants in MHz :  2395.188639   768.373696   687.955250

                             ****ORCA TERMINATED NORMALLY****
TOTAL RUN TIME: 0 days 0 hours 1 minutes 3 seconds 100 msec
