                         Program Version 5.0.0 -  RELEASE  -
|  1> !PBE0 D3BJ RIJCOSX def2-SVPD def2/J TightSCF xyzfile
|  2>
|  3> *xyzfile 0 1 D6.xyz
|  4>
|  5> %MaxCore 64000
|  6>
|  7> %pal nprocs 4
|  8> end
|  9>
| 10> %scf
| 11>   MaxIter 150
| 12> end
| 13>
| 14>
| 15>                          ****END OF INPUT****

CARTESIAN COORDINATES (ANGSTROEM)
---------------------------------
  C     -0.461293    2.234686   -4.989619
  C      0.848883    2.667967   -4.302351
  C      2.093434    1.861037   -4.656845
  H      2.444814    2.041567   -5.674990
  H      2.901748    2.137864   -3.980338
  S      1.879644    0.078594   -4.462965
  C     -0.423841    2.398772   -6.474317
  N     -0.959467    3.492647   -7.007401
  C      0.145585    1.486891   -7.203987
  H      0.565371    0.696807   -6.723858
  H      0.220682    1.581768   -8.207520
  H     -1.406243    4.181507   -6.403261
  H     -0.934215    3.681601   -7.999468
  O      3.207574   -0.466111   -4.420259
  O      1.075064   -0.056160   -3.268758
  F      1.131661   -0.319960   -5.679031
  H      0.668432    2.559427   -3.232850
  H      1.034074    3.729426   -4.497081
  H     -1.288884    2.826737   -4.594997
  H     -0.651696    1.186343   -4.756552

 Total Charge           Charge          ....    0
 Multiplicity           Mult            ....    1
 Number of Electrons    NEL             ....   88
 Basis Dimension        Dim             ....  296

ORBITAL ENERGIES
----------------

  NO   OCC          E(Eh)            E(eV)
   0   2.0000     -89.295338     -2429.8497
   1   2.0000     -24.885787      -677.1767
   2   2.0000     -19.234441      -523.3957
   3   2.0000     -19.231515      -523.3161
   4   2.0000     -14.408040      -392.0627
   5   2.0000     -10.288788      -279.9722
   6   2.0000     -10.263080      -279.2726
   7   2.0000     -10.262821      -279.2656
   8   2.0000     -10.249941      -278.9151
   9   2.0000     -10.167372      -276.6683
  10   2.0000      -8.255032      -224.6308
  11   2.0000      -6.201243      -168.7444
  12   2.0000      -6.195190      -168.5797
  13   2.0000      -6.193757      -168.5407
  14   2.0000      -1.382419       -37.6175
  15   2.0000      -1.149039       -31.2669
  16   2.0000      -1.052938       -28.6519
  17   2.0000      -0.954716       -25.9791
  18   2.0000      -0.852887       -23.2082
  19   2.0000      -0.791790       -21.5457
  20   2.0000      -0.743347       -20.2275
  21   2.0000      -0.734375       -19.9834
  22   2.0000      -0.658505       -17.9188
  23   2.0000      -0.620196       -16.8764
  24   2.0000      -0.591219       -16.0879
  25   2.0000      -0.577227       -15.7071
  26   2.0000      -0.569659       -15.5012
  27   2.0000      -0.549810       -14.9611
  28   2.0000      -0.517207       -14.0739
  29   2.0000      -0.505692       -13.7606
  30   2.0000      -0.487903       -13.2765
  31   2.0000      -0.477373       -12.9900
  32   2.0000      -0.467794       -12.7293
  33   2.0000      -0.427935       -11.6447
  34   2.0000      -0.420685       -11.4474
  35   2.0000      -0.410805       -11.1786
  36   2.0000      -0.395524       -10.7628
  37   2.0000      -0.388875       -10.5818
  38   2.0000      -0.362152        -9.8547
  39   2.0000      -0.356226        -9.6934
  40   2.0000      -0.352877        -9.6023
  41   2.0000      -0.341127        -9.2826
  42   2.0000      -0.337432        -9.1820
  43   2.0000      -0.214859        -5.8466
  44   0.0000       0.007611         0.2071
  45   0.0000       0.022062         0.6003
  46   0.0000       0.028111         0.7649
  47   0.0000       0.036230         0.9859
  48   0.0000       0.049263         1.3405

MULLIKEN ATOMIC CHARGES
-----------------------
   0 C :    0.138270
   1 C :    0.076310
   2 C :   -0.040264
   3 H :    0.297472
   4 H :   -0.098265
   5 S :    1.580173
   6 C :    0.337975
   7 N :   -0.132172
   8 C :    0.704702
   9 H :    0.009509
  10 H :   -0.623743
  11 H :   -0.088060
  12 H :   -0.189781
  13 O :   -0.737742
  14 O :   -0.743796
  15 F :   -0.604769
  16 H :    0.214395
  17 H :   -0.126685
  18 H :   -0.127026
  19 H :    0.153497
Sum of atomic charges:    0.0000000

LOEWDIN ATOMIC CHARGES
----------------------
   0 C :    0.024454
   1 C :   -0.019614
   2 C :   -0.035038
   3 H :    0.023628
   4 H :    0.030828
   5 S :    1.141616
   6 C :   -0.232580
   7 N :    0.165246
   8 C :    0.194207
   9 H :   -0.146496
  10 H :   -0.066813
  11 H :    0.002440
  12 H :    0.007242
  13 O :   -0.452897
  14 O :   -0.456597
  15 F :   -0.287357
  16 H :    0.028478
  17 H :    0.035426
  18 H :    0.025697
  19 H :    0.018129

  Mayer bond orders larger than 0.100000
B(  0-C ,  1-C ) :   1.2248 B(  0-C ,  6-C ) :   1.0479 B(  0-C ,  7-N ) :   0.1134
B(  0-C ,  8-C ) :   0.1563 B(  0-C , 16-H ) :   0.1032 B(  0-C , 18-H ) :   0.8214
B(  0-C , 19-H ) :   0.8710 B(  1-C ,  2-C ) :   1.3742 B(  1-C ,  3-H ) :   0.1115
B(  1-C ,  4-H ) :   0.1661 B(  1-C , 16-H ) :   0.7654 B(  1-C , 17-H ) :   0.9071
B(  1-C , 18-H ) :   0.1458 B(  1-C , 19-H ) :   0.1258 B(  2-C ,  3-H ) :   0.8325
B(  2-C ,  4-H ) :   0.8938 B(  2-C ,  5-S ) :   1.0129 B(  2-C , 15-F ) :   0.1309
B(  2-C , 16-H ) :   0.1159 B(  4-H ,  9-H ) :  -0.1052 B(  5-S , 13-O ) :   1.4927
B(  5-S , 14-O ) :   1.4919 B(  5-S , 15-F ) :   0.6538 B(  6-C ,  7-N ) :   0.8574
B(  6-C ,  8-C ) :   1.8147 B(  6-C ,  9-H ) :   0.2864 B(  6-C , 10-H ) :   0.2140
B(  6-C , 12-H ) :  -0.1504 B(  6-C , 18-H ) :   0.1295 B(  7-N ,  8-C ) :   0.2879
B(  7-N , 11-H ) :   1.1824 B(  7-N , 12-H ) :   1.3737 B(  8-C ,  9-H ) :   0.5559
B(  8-C , 10-H ) :   0.8502 B(  9-H , 10-H ) :  -0.2714 B( 11-H , 12-H ) :  -0.1559

Dispersion correction           -0.019787813
FINAL SINGLE POINT ENERGY      -898.533430667023

DIPOLE MOMENT
-------------
                                X             Y             Z
Electronic contribution:      5.53141     -11.93201       3.16319
Nuclear contribution   :     -6.15577      13.80449      -3.81895
                        -----------------------------------------
Total Dipole Moment    :     -0.62436       1.87249      -0.65576
                        -----------------------------------------
Magnitude (a.u.)       :      2.07992
Magnitude (Debye)      :      5.28673

Rotational constants in cm-1:     0.081431     0.024887     0.022470
Rotational constants in MHz :  2441.231544   746.086417   673.646914

                             ****ORCA TERMINATED NORMALLY****
TOTAL RUN TIME: 0 days 0 hours 1 minutes 4 seconds 320 msec
