                         Program Version 5.0.0 -  RELEASE  -
|  1> !PBE0 D3BJ RIJCOSX def2-TZVP def2/J TightSCF
|  2> *xyz -1 1
|  3> C         -0.90349       -0.87394       -1.98739
|  4> C         -0.96015       -0.52236       -0.48987
|  5> H         -1.69039       -1.20813       -0.02168
|  6> H         -1.41449        0.48633       -0.40668
|  7> O          0.26170       -0.58031        0.13861
|  8> H         -1.88568       -0.80774       -2.40670
|  9> H         -0.53143       -1.87013       -2.10605
| 10> H         -0.25399       -0.18836       -2.49039
| 11> *
| 12>
| 13> %MaxCore 64000
| 14>
| 15> %pal nprocs 4
| 16> end
| 17>
| 18> %scf
| 19>   MaxIter 150
| 20> end
| 21>
| 22>
| 23>                          ****END OF INPUT****

CARTESIAN COORDINATES (ANGSTROEM)
---------------------------------
  C     -0.903490   -0.873940   -1.987390
  C     -0.960150   -0.522360   -0.489870
  H     -1.690390   -1.208130   -0.021680
  H     -1.414490    0.486330   -0.406680
  O      0.261700   -0.580310    0.138610
  H     -1.885680   -0.807740   -2.406700
  H     -0.531430   -1.870130   -2.106050
  H     -0.253990   -0.188360   -2.490390

 Total Charge           Charge          ....   -1
 Multiplicity           Mult            ....    1
 Number of Electrons    NEL             ....   26
 Basis Dimension        Dim             ....  123

ORBITAL ENERGIES
----------------

  NO   OCC          E(Eh)            E(eV)
   0   2.0000     -18.848696      -512.8991
   1   2.0000     -10.022127      -272.7159
   2   2.0000     -10.003055      -272.1970
   3   2.0000      -0.688027       -18.7222
   4   2.0000      -0.540164       -14.6986
   5   2.0000      -0.381418       -10.3789
   6   2.0000      -0.255799        -6.9607
   7   2.0000      -0.233646        -6.3578
   8   2.0000      -0.176264        -4.7964
   9   2.0000      -0.160020        -4.3544
  10   2.0000      -0.110160        -2.9976
  11   2.0000       0.034831         0.9478
  12   2.0000       0.037790         1.0283
  13   0.0000       0.225990         6.1495
  14   0.0000       0.263099         7.1593
  15   0.0000       0.288239         7.8434
  16   0.0000       0.289647         7.8817
  17   0.0000       0.323420         8.8007

MULLIKEN ATOMIC CHARGES
-----------------------
   0 C :   -0.164191
   1 C :    0.024830
   2 H :   -0.060041
   3 H :   -0.062137
   4 O :   -0.777184
   5 H :   -0.024294
   6 H :    0.031483
   7 H :    0.031534
Sum of atomic charges:   -1.0000000

LOEWDIN ATOMIC CHARGES
----------------------
   0 C :   -0.368111
   1 C :   -0.553861
   2 H :    0.054870
   3 H :    0.054494
   4 O :   -0.436316
   5 H :    0.073984
   6 H :    0.087472
   7 H :    0.087469

  Mayer bond orders larger than 0.100000
B(  0-C ,  1-C ) :   0.9008 B(  0-C ,  4-O ) :  -0.2522 B(  0-C ,  5-H ) :   0.9225
B(  0-C ,  6-H ) :   0.9626 B(  0-C ,  7-H ) :   0.9626 B(  1-C ,  2-H ) :   0.9243
B(  1-C ,  3-H ) :   0.9230 B(  1-C ,  4-O ) :   1.6155

Dispersion correction           -0.003046785
FINAL SINGLE POINT ENERGY      -154.296639000807

DIPOLE MOMENT
-------------
                                X             Y             Z
Electronic contribution:      2.05643       0.16666       2.23339
Nuclear contribution   :     -2.90669      -0.27617      -3.31210
                        -----------------------------------------
Total Dipole Moment    :     -0.85027      -0.10951      -1.07871
                        -----------------------------------------
Magnitude (a.u.)       :      1.37788
Magnitude (Debye)      :      3.50229

Rotational constants in cm-1:     1.291883     0.321656     0.284469
Rotational constants in MHz : 38729.676116  9643.011620  8528.167295

                             ****ORCA TERMINATED NORMALLY****
TOTAL RUN TIME: 0 days 0 hours 0 minutes 17 seconds 105 msec
