                         Program Version 5.0.0 -  RELEASE  -
|  1> !PBE0 D3BJ RIJCOSX def2-TZVP def2/J TightSCF
|  2> *xyz 1 1
|  3> C          4.36645       -0.13321       -1.41606
|  4> C          4.50829       -0.93187       -2.72425
|  5> C          3.05650       -0.32080       -0.70738
|  6> N          2.38983        0.71129       -0.24391
|  7> N          2.51600       -1.50772       -0.55023
|  8> H          2.96768       -2.32291       -0.95631
|  9> H          1.54987       -1.49063       -0.24988
| 10> H          2.74307        1.64947       -0.41280
| 11> H          1.44036        0.50278        0.03703
| 12> H          4.48784        0.93300       -1.61157
| 13> H          5.16967       -0.41443       -0.72982
| 14> H          5.46700       -0.73824       -3.15818
| 15> H          3.74074       -0.63528       -3.40821
| 16> H          4.41574       -1.97727       -2.51573
| 17> *
| 18>
| 19> %MaxCore 64000
| 20>
| 21> %pal nprocs 4
| 22> end
| 23>
| 24> %scf
| 25>   MaxIter 150
| 26> end
| 27>
| 28>
| 29>                          ****END OF INPUT****

CARTESIAN COORDINATES (ANGSTROEM)
---------------------------------
  C      4.366450   -0.133210   -1.416060
  C      4.508290   -0.931870   -2.724250
  C      3.056500   -0.320800   -0.707380
  N      2.389830    0.711290   -0.243910
  N      2.516000   -1.507720   -0.550230
  H      2.967680   -2.322910   -0.956310
  H      1.549870   -1.490630   -0.249880
  H      2.743070    1.649470   -0.412800
  H      1.440360    0.502780    0.037030
  H      4.487840    0.933000   -1.611570
  H      5.169670   -0.414430   -0.729820
  H      5.467000   -0.738240   -3.158180
  H      3.740740   -0.635280   -3.408210
  H      4.415740   -1.977270   -2.515730

 Total Charge           Charge          ....    1
 Multiplicity           Mult            ....    1
 Number of Electrons    NEL             ....   40
 Basis Dimension        Dim             ....  209

ORBITAL ENERGIES
----------------

  NO   OCC          E(Eh)            E(eV)
   0   2.0000     -14.629655      -398.0931
   1   2.0000     -14.628244      -398.0548
   2   2.0000     -10.542532      -286.8769
   3   2.0000     -10.423680      -283.6428
   4   2.0000     -10.378728      -282.4195
   5   2.0000      -1.240353       -33.7517
   6   2.0000      -1.132952       -30.8292
   7   2.0000      -0.994322       -27.0569
   8   2.0000      -0.881330       -23.9822
   9   2.0000      -0.837211       -22.7817
  10   2.0000      -0.785925       -21.3861
  11   2.0000      -0.772725       -21.0269
  12   2.0000      -0.718619       -19.5546
  13   2.0000      -0.675020       -18.3682
  14   2.0000      -0.642175       -17.4745
  15   2.0000      -0.615851       -16.7582
  16   2.0000      -0.568172       -15.4608
  17   2.0000      -0.553909       -15.0726
  18   2.0000      -0.539578       -14.6827
  19   2.0000      -0.506075       -13.7710
  20   0.0000      -0.206477        -5.6185
  21   0.0000      -0.154408        -4.2017
  22   0.0000      -0.108560        -2.9541
  23   0.0000      -0.105588        -2.8732
  24   0.0000      -0.070164        -1.9093

MULLIKEN ATOMIC CHARGES
-----------------------
   0 C :   -0.207586
   1 C :   -0.368724
   2 C :    0.279596
   3 N :   -0.320099
   4 N :   -0.322200
   5 H :    0.301190
   6 H :    0.274433
   7 H :    0.305727
   8 H :    0.271890
   9 H :    0.140577
  10 H :    0.187482
  11 H :    0.179653
  12 H :    0.157472
  13 H :    0.120587
Sum of atomic charges:    1.0000000

LOEWDIN ATOMIC CHARGES
----------------------
   0 C :   -0.219892
   1 C :   -0.264878
   2 C :   -0.298783
   3 N :    0.113577
   4 N :    0.113757
   5 H :    0.209695
   6 H :    0.201438
   7 H :    0.212036
   8 H :    0.200662
   9 H :    0.161126
  10 H :    0.176349
  11 H :    0.141597
  12 H :    0.132179
  13 H :    0.121136

  Mayer bond orders larger than 0.100000
B(  0-C ,  1-C ) :   0.9986 B(  0-C ,  2-C ) :   1.0121 B(  0-C ,  9-H ) :   0.9487
B(  0-C , 10-H ) :   0.9186 B(  1-C , 11-H ) :   0.9561 B(  1-C , 12-H ) :   0.9613
B(  1-C , 13-H ) :   0.9638 B(  2-C ,  3-N ) :   1.4825 B(  2-C ,  4-N ) :   1.4552
B(  3-N ,  7-H ) :   0.8750 B(  3-N ,  8-H ) :   0.8863 B(  4-N ,  5-H ) :   0.8816
B(  4-N ,  6-H ) :   0.8851

Dispersion correction           -0.008492465
FINAL SINGLE POINT ENERGY      -228.847168961113

DIPOLE MOMENT
-------------
                                X             Y             Z
Electronic contribution:     -2.67209       0.63021       3.11323
Nuclear contribution   :      1.78847      -0.48174      -2.67127
                        -----------------------------------------
Total Dipole Moment    :     -0.88362       0.14847       0.44195
                        -----------------------------------------
Magnitude (a.u.)       :      0.99908
Magnitude (Debye)      :      2.53945

Rotational constants in cm-1:     0.286883     0.123210     0.094446
Rotational constants in MHz :  8600.540572  3693.747366  2831.415242

                             ****ORCA TERMINATED NORMALLY****
TOTAL RUN TIME: 0 days 0 hours 0 minutes 29 seconds 544 msec
