                         Program Version 5.0.0 -  RELEASE  -
|  1> !PBE0 D3BJ RIJCOSX def2-TZVP def2/J TightSCF xyzfile
|  2>
|  3> *xyzfile 0 1 B.xyz
|  4>
|  5> %MaxCore 64000
|  6>
|  7> %pal nprocs 18
|  8> end
|  9>
| 10> %scf
| 11>   MaxIter 150
| 12> end
| 13>
| 14>
| 15>                          ****END OF INPUT****

CARTESIAN COORDINATES (ANGSTROEM)
---------------------------------
  C      4.366454   -0.133215   -1.416062
  C      4.508292   -0.931872   -2.724249
  H      4.753716   -1.972051   -2.488408
  C      3.294164   -0.918214   -3.656570
  H      5.385637   -0.536236   -3.242640
  H      2.483463   -1.477378   -3.185764
  H      3.553092   -1.478495   -4.560331
  C      2.772335    0.460100   -4.051448
  H      2.608762    1.065107   -3.155194
  C      1.465354    0.410537   -4.853644
  H      3.532940    0.988848   -4.635671
  C      0.326171   -0.375613   -4.192580
  H      1.666704   -0.022269   -5.839323
  H      1.138198    1.439246   -5.035449
  C     -0.017405    0.080588   -2.778406
  H      0.585573   -1.439385   -4.168057
  H     -0.560005   -0.311425   -4.831461
  H      0.902090    0.201296   -2.206729
  C     -0.903495   -0.873945   -1.987388
  H     -0.479549    1.074657   -2.811915
  H     -0.502554   -1.892096   -2.081204
  H     -1.917039   -0.895427   -2.406277
  C     -0.960148   -0.522365   -0.489867
  H     -1.690392   -1.208130   -0.021677
  H     -1.414490    0.486329   -0.406677
  O      0.261703   -0.580307    0.138611
  C      3.056503   -0.320797   -0.707384
  N      2.389825    0.711285   -0.243909
  N      2.515999   -1.507721   -0.550229
  H      2.967683   -2.322915   -0.956305
  H      1.549872   -1.490634   -0.249876
  H      2.743071    1.649471   -0.412802
  H      1.440364    0.502778    0.037031
  H      4.487835    0.932997   -1.611569
  H      5.169672   -0.414432   -0.729817

 Total Charge           Charge          ....    0
 Multiplicity           Mult            ....    1
 Number of Electrons    NEL             ....  104
 Basis Dimension        Dim             ....  535

ORBITAL ENERGIES
----------------

  NO   OCC          E(Eh)            E(eV)
   0   2.0000     -19.077015      -519.1120
   1   2.0000     -14.411014      -392.1436
   2   2.0000     -14.410530      -392.1305
   3   2.0000     -10.343953      -281.4733
   4   2.0000     -10.266371      -279.3622
   5   2.0000     -10.251301      -278.9521
   6   2.0000     -10.229720      -278.3648
   7   2.0000     -10.223315      -278.1905
   8   2.0000     -10.214581      -277.9529
   9   2.0000     -10.203681      -277.6563
  10   2.0000     -10.199515      -277.5429
  11   2.0000     -10.189724      -277.2765
  12   2.0000     -10.176698      -276.9220
  13   2.0000      -1.034820       -28.1589
  14   2.0000      -0.926171       -25.2024
  15   2.0000      -0.914515       -24.8852
  16   2.0000      -0.858279       -23.3550
  17   2.0000      -0.821622       -22.3575
  18   2.0000      -0.781519       -21.2662
  19   2.0000      -0.741209       -20.1693
  20   2.0000      -0.702282       -19.1101
  21   2.0000      -0.658815       -17.9273
  22   2.0000      -0.641241       -17.4491
  23   2.0000      -0.627789       -17.0830
  24   2.0000      -0.584995       -15.9185
  25   2.0000      -0.569465       -15.4959
  26   2.0000      -0.566387       -15.4122
  27   2.0000      -0.542328       -14.7575
  28   2.0000      -0.516776       -14.0622
  29   2.0000      -0.516298       -14.0492
  30   2.0000      -0.497685       -13.5427
  31   2.0000      -0.476704       -12.9718
  32   2.0000      -0.461035       -12.5454
  33   2.0000      -0.442726       -12.0472
  34   2.0000      -0.432677       -11.7737
  35   2.0000      -0.425961       -11.5910
  36   2.0000      -0.419691       -11.4204
  37   2.0000      -0.414865       -11.2891
  38   2.0000      -0.392433       -10.6786
  39   2.0000      -0.383120       -10.4252
  40   2.0000      -0.373845       -10.1728
  41   2.0000      -0.364735        -9.9249
  42   2.0000      -0.354101        -9.6356
  43   2.0000      -0.349916        -9.5217
  44   2.0000      -0.331234        -9.0133
  45   2.0000      -0.324285        -8.8242
  46   2.0000      -0.313814        -8.5393
  47   2.0000      -0.310507        -8.4493
  48   2.0000      -0.305851        -8.3226
  49   2.0000      -0.296420        -8.0660
  50   2.0000      -0.192480        -5.2376
  51   2.0000      -0.187183        -5.0935
  52   0.0000      -0.017987        -0.4894
  53   0.0000       0.012651         0.3442
  54   0.0000       0.030396         0.8271
  55   0.0000       0.049841         1.3563
  56   0.0000       0.058315         1.5868

MULLIKEN ATOMIC CHARGES
-----------------------
   0 C :   -0.180291
   1 C :   -0.275150
   2 H :    0.132600
   3 C :   -0.183254
   4 H :    0.119304
   5 H :    0.109291
   6 H :    0.110883
   7 C :   -0.255608
   8 H :    0.101112
   9 C :   -0.129796
  10 H :    0.103890
  11 C :   -0.203544
  12 H :    0.099226
  13 H :    0.097400
  14 C :   -0.192087
  15 H :    0.102523
  16 H :    0.101978
  17 H :    0.045992
  18 C :   -0.142893
  19 H :    0.075242
  20 H :    0.055832
  21 H :    0.069288
  22 C :    0.055340
  23 H :    0.050491
  24 H :    0.028410
  25 O :   -0.743543
  26 C :    0.179429
  27 N :   -0.331489
  28 N :   -0.318038
  29 H :    0.242894
  30 H :    0.272749
  31 H :    0.237649
  32 H :    0.290769
  33 H :    0.124110
  34 H :    0.149292
Sum of atomic charges:   -0.0000000

LOEWDIN ATOMIC CHARGES
----------------------
   0 C :   -0.220816
   1 C :   -0.263386
   2 H :    0.138611
   3 C :   -0.272197
   4 H :    0.145408
   5 H :    0.140881
   6 H :    0.142296
   7 C :   -0.274052
   8 H :    0.133356
   9 C :   -0.268421
  10 H :    0.135766
  11 C :   -0.276666
  12 H :    0.136183
  13 H :    0.137821
  14 C :   -0.279974
  15 H :    0.133109
  16 H :    0.136407
  17 H :    0.135644
  18 C :   -0.291264
  19 H :    0.133969
  20 H :    0.125234
  21 H :    0.128016
  22 C :   -0.465684
  23 H :    0.103223
  24 H :    0.099644
  25 O :   -0.301523
  26 C :   -0.339858
  27 N :    0.089631
  28 N :    0.094218
  29 H :    0.179173
  30 H :    0.149844
  31 H :    0.177737
  32 H :    0.147868
  33 H :    0.150124
  34 H :    0.159676

  Mayer bond orders larger than 0.100000
B(  0-C ,  1-C ) :   0.9746 B(  0-C , 26-C ) :   1.0189 B(  0-C , 33-H ) :   0.9608
B(  0-C , 34-H ) :   0.9387 B(  1-C ,  2-H ) :   0.9737 B(  1-C ,  3-C ) :   0.9811
B(  1-C ,  4-H ) :   0.9519 B(  3-C ,  5-H ) :   0.9651 B(  3-C ,  6-H ) :   0.9529
B(  3-C ,  7-C ) :   0.9794 B(  7-C ,  8-H ) :   0.9682 B(  7-C ,  9-C ) :   0.9999
B(  7-C , 10-H ) :   0.9516 B(  9-C , 11-C ) :   0.9915 B(  9-C , 12-H ) :   0.9604
B(  9-C , 13-H ) :   0.9599 B( 11-C , 14-C ) :   1.0012 B( 11-C , 15-H ) :   0.9700
B( 11-C , 16-H ) :   0.9582 B( 14-C , 17-H ) :   0.9726 B( 14-C , 18-C ) :   1.0259
B( 14-C , 19-H ) :   0.9451 B( 18-C , 20-H ) :   0.9512 B( 18-C , 21-H ) :   0.9418
B( 18-C , 22-C ) :   0.9745 B( 22-C , 23-H ) :   0.9520 B( 22-C , 24-H ) :   0.9553
B( 22-C , 25-O ) :   1.1768 B( 25-O , 30-H ) :   0.2514 B( 25-O , 32-H ) :   0.2480
B( 26-C , 27-N ) :   1.5175 B( 26-C , 28-N ) :   1.4939 B( 27-N , 31-H ) :   0.9034
B( 27-N , 32-H ) :   0.7227 B( 28-N , 29-H ) :   0.9033 B( 28-N , 30-H ) :   0.7278

Dispersion correction           -0.034612361
FINAL SINGLE POINT ENERGY      -578.582483202636

DIPOLE MOMENT
-------------
                                X             Y             Z
Electronic contribution:      2.79542      -0.26975       7.58164
Nuclear contribution   :     -0.17996       0.53390      -8.68067
                        -----------------------------------------
Total Dipole Moment    :      2.61546       0.26415      -1.09903
                        -----------------------------------------
Magnitude (a.u.)       :      2.84926
Magnitude (Debye)      :      7.24224

Rotational constants in cm-1:     0.028240     0.022734     0.014600
Rotational constants in MHz :   846.611263   681.554306   437.693928

                             ****ORCA TERMINATED NORMALLY****
TOTAL RUN TIME: 0 days 0 hours 1 minutes 8 seconds 503 msec
