                         Program Version 5.0.0 -  RELEASE  -
|  1> !PBE0 D3BJ RIJCOSX def2-TZVP def2/J TightSCF
|  2> *xyz 0 1
|  3> C          4.36645       -0.13321       -1.41606
|  4> C          4.50829       -0.93187       -2.72425
|  5> C          3.05650       -0.32080       -0.70738
|  6> C          2.38983        0.71129       -0.24391
|  7> N          2.51600       -1.50772       -0.55023
|  8> H          2.96768       -2.32291       -0.95631
|  9> H          1.54987       -1.49063       -0.24988
| 10> H          2.74307        1.64947       -0.41280
| 11> H          1.44036        0.50278        0.03703
| 12> H          4.48784        0.93300       -1.61157
| 13> H          5.16967       -0.41443       -0.72982
| 14> H          5.46700       -0.73824       -3.15818
| 15> H          3.74074       -0.63528       -3.40821
| 16> H          4.41574       -1.97727       -2.51573
| 17> *
| 18>
| 19> %MaxCore 64000
| 20>
| 21> %pal nprocs 4
| 22> end
| 23>
| 24> %scf
| 25>   MaxIter 150
| 26> end
| 27>
| 28>
| 29>                          ****END OF INPUT****

CARTESIAN COORDINATES (ANGSTROEM)
---------------------------------
  C      4.366450   -0.133210   -1.416060
  C      4.508290   -0.931870   -2.724250
  C      3.056500   -0.320800   -0.707380
  C      2.389830    0.711290   -0.243910
  N      2.516000   -1.507720   -0.550230
  H      2.967680   -2.322910   -0.956310
  H      1.549870   -1.490630   -0.249880
  H      2.743070    1.649470   -0.412800
  H      1.440360    0.502780    0.037030
  H      4.487840    0.933000   -1.611570
  H      5.169670   -0.414430   -0.729820
  H      5.467000   -0.738240   -3.158180
  H      3.740740   -0.635280   -3.408210
  H      4.415740   -1.977270   -2.515730

 Total Charge           Charge          ....    0
 Multiplicity           Mult            ....    1
 Number of Electrons    NEL             ....   40
 Basis Dimension        Dim             ....  209

ORBITAL ENERGIES
----------------

  NO   OCC          E(Eh)            E(eV)
   0   2.0000     -14.380071      -391.3016
   1   2.0000     -10.237191      -278.5681
   2   2.0000     -10.222164      -278.1592
   3   2.0000     -10.210854      -277.8515
   4   2.0000     -10.148269      -276.1484
   5   2.0000      -0.959025       -26.0964
   6   2.0000      -0.800980       -21.7958
   7   2.0000      -0.743951       -20.2439
   8   2.0000      -0.655333       -17.8325
   9   2.0000      -0.578575       -15.7438
  10   2.0000      -0.549140       -14.9429
  11   2.0000      -0.483903       -13.1677
  12   2.0000      -0.453794       -12.3484
  13   2.0000      -0.443101       -12.0574
  14   2.0000      -0.405437       -11.0325
  15   2.0000      -0.392744       -10.6871
  16   2.0000      -0.369270       -10.0483
  17   2.0000      -0.355286        -9.6678
  18   2.0000      -0.336959        -9.1691
  19   2.0000      -0.198068        -5.3897
  20   0.0000       0.033979         0.9246
  21   0.0000       0.049641         1.3508
  22   0.0000       0.079348         2.1592
  23   0.0000       0.082499         2.2449
  24   0.0000       0.102502         2.7892

MULLIKEN ATOMIC CHARGES
-----------------------
   0 C :   -0.183043
   1 C :   -0.356543
   2 C :    0.175787
   3 C :   -0.402106
   4 N :   -0.440430
   5 H :    0.228592
   6 H :    0.232607
   7 H :    0.101934
   8 H :    0.071549
   9 H :    0.110051
  10 H :    0.112402
  11 H :    0.127099
  12 H :    0.127525
  13 H :    0.094576
Sum of atomic charges:   -0.0000000

LOEWDIN ATOMIC CHARGES
----------------------
   0 C :   -0.238797
   1 C :   -0.299969
   2 C :   -0.377894
   3 C :   -0.280594
   4 N :    0.000699
   5 H :    0.169252
   6 H :    0.179328
   7 H :    0.105906
   8 H :    0.100601
   9 H :    0.148747
  10 H :    0.143476
  11 H :    0.118783
  12 H :    0.120810
  13 H :    0.109653

  Mayer bond orders larger than 0.100000
B(  0-C ,  1-C ) :   0.9858 B(  0-C ,  2-C ) :   1.0058 B(  0-C ,  9-H ) :   0.9602
B(  0-C , 10-H ) :   0.9602 B(  1-C , 11-H ) :   0.9717 B(  1-C , 12-H ) :   0.9699
B(  1-C , 13-H ) :   0.9745 B(  2-C ,  3-C ) :   1.7840 B(  2-C ,  4-N ) :   1.1751
B(  3-C ,  7-H ) :   0.9892 B(  3-C ,  8-H ) :   0.9744 B(  4-N ,  5-H ) :   0.9203
B(  4-N ,  6-H ) :   0.9093

Dispersion correction           -0.008822803
FINAL SINGLE POINT ENERGY      -212.383417540989

DIPOLE MOMENT
-------------
                                X             Y             Z
Electronic contribution:     -1.49487      -0.46358       2.06976
Nuclear contribution   :      1.56827      -0.21459      -2.46657
                        -----------------------------------------
Total Dipole Moment    :      0.07340      -0.67817      -0.39681
                        -----------------------------------------
Magnitude (a.u.)       :      0.78915
Magnitude (Debye)      :      2.00586

Rotational constants in cm-1:     0.294070     0.127722     0.097792
Rotational constants in MHz :  8815.983970  3829.010547  2931.715816

                             ****ORCA TERMINATED NORMALLY****
TOTAL RUN TIME: 0 days 0 hours 0 minutes 26 seconds 508 msec
