                         Program Version 5.0.0 -  RELEASE  -
|  1> !PBE0 D3BJ RIJCOSX def2-TZVP def2/J TightSCF
|  2> *xyz 0 1
|  3> C          4.36645       -0.13321       -1.41606
|  4> C          4.50829       -0.93187       -2.72425
|  5> C          3.05650       -0.32080       -0.70738
|  6> N          2.38983        0.71129       -0.24391
|  7> C          2.51600       -1.50772       -0.55023
|  8> H          2.96768       -2.32291       -0.95631
|  9> H          1.54987       -1.49063       -0.24988
| 10> H          2.74307        1.64947       -0.41280
| 11> H          1.44036        0.50278        0.03703
| 12> H          4.48784        0.93300       -1.61157
| 13> H          5.16967       -0.41443       -0.72982
| 14> H          5.46700       -0.73824       -3.15818
| 15> H          3.74074       -0.63528       -3.40821
| 16> H          4.41574       -1.97727       -2.51573
| 17> *
| 18>
| 19> %MaxCore 64000
| 20>
| 21> %pal nprocs 4
| 22> end
| 23>
| 24> %scf
| 25>   MaxIter 150
| 26> end
| 27>
| 28>
| 29>                          ****END OF INPUT****

CARTESIAN COORDINATES (ANGSTROEM)
---------------------------------
  C      4.366450   -0.133210   -1.416060
  C      4.508290   -0.931870   -2.724250
  C      3.056500   -0.320800   -0.707380
  N      2.389830    0.711290   -0.243910
  C      2.516000   -1.507720   -0.550230
  H      2.967680   -2.322910   -0.956310
  H      1.549870   -1.490630   -0.249880
  H      2.743070    1.649470   -0.412800
  H      1.440360    0.502780    0.037030
  H      4.487840    0.933000   -1.611570
  H      5.169670   -0.414430   -0.729820
  H      5.467000   -0.738240   -3.158180
  H      3.740740   -0.635280   -3.408210
  H      4.415740   -1.977270   -2.515730

 Total Charge           Charge          ....    0
 Multiplicity           Mult            ....    1
 Number of Electrons    NEL             ....   40
 Basis Dimension        Dim             ....  209

ORBITAL ENERGIES
----------------

  NO   OCC          E(Eh)            E(eV)
   0   2.0000     -14.380671      -391.3180
   1   2.0000     -10.237308      -278.5713
   2   2.0000     -10.223516      -278.1960
   3   2.0000     -10.204389      -277.6756
   4   2.0000     -10.146356      -276.0964
   5   2.0000      -0.959342       -26.1050
   6   2.0000      -0.802356       -21.8332
   7   2.0000      -0.732890       -19.9430
   8   2.0000      -0.664572       -18.0839
   9   2.0000      -0.569421       -15.4947
  10   2.0000      -0.546362       -14.8673
  11   2.0000      -0.492051       -13.3894
  12   2.0000      -0.463433       -12.6107
  13   2.0000      -0.419856       -11.4249
  14   2.0000      -0.402840       -10.9618
  15   2.0000      -0.392301       -10.6750
  16   2.0000      -0.369948       -10.0668
  17   2.0000      -0.352977        -9.6050
  18   2.0000      -0.338375        -9.2077
  19   2.0000      -0.196324        -5.3422
  20   0.0000       0.038469         1.0468
  21   0.0000       0.046928         1.2770
  22   0.0000       0.076828         2.0906
  23   0.0000       0.082321         2.2401
  24   0.0000       0.105166         2.8617

MULLIKEN ATOMIC CHARGES
-----------------------
   0 C :   -0.173956
   1 C :   -0.351963
   2 C :    0.169045
   3 N :   -0.435600
   4 C :   -0.401908
   5 H :    0.098511
   6 H :    0.073188
   7 H :    0.229944
   8 H :    0.230037
   9 H :    0.081246
  10 H :    0.122519
  11 H :    0.118141
  12 H :    0.121324
  13 H :    0.119473
Sum of atomic charges:    0.0000000

LOEWDIN ATOMIC CHARGES
----------------------
   0 C :   -0.239032
   1 C :   -0.291327
   2 C :   -0.377132
   3 N :   -0.000686
   4 C :   -0.283152
   5 H :    0.105029
   6 H :    0.101064
   7 H :    0.169474
   8 H :    0.178612
   9 H :    0.134080
  10 H :    0.149231
  11 H :    0.115041
  12 H :    0.119924
  13 H :    0.118873

  Mayer bond orders larger than 0.100000
B(  0-C ,  1-C ) :   1.0084 B(  0-C ,  2-C ) :   0.9740 B(  0-C ,  9-H ) :   0.9571
B(  0-C , 10-H ) :   0.9644 B(  1-C , 11-H ) :   0.9681 B(  1-C , 12-H ) :   0.9722
B(  1-C , 13-H ) :   0.9745 B(  2-C ,  3-N ) :   1.1940 B(  2-C ,  4-C ) :   1.7595
B(  3-N ,  7-H ) :   0.9132 B(  3-N ,  8-H ) :   0.9087 B(  4-C ,  5-H ) :   1.0004
B(  4-C ,  6-H ) :   0.9706

Dispersion correction           -0.008849645
FINAL SINGLE POINT ENERGY      -212.382121458428

DIPOLE MOMENT
-------------
                                X             Y             Z
Electronic contribution:     -1.61054       1.49911       2.35422
Nuclear contribution   :      1.59749      -0.72853      -2.53752
                        -----------------------------------------
Total Dipole Moment    :     -0.01306       0.77058      -0.18330
                        -----------------------------------------
Magnitude (a.u.)       :      0.79219
Magnitude (Debye)      :      2.01357

Rotational constants in cm-1:     0.304597     0.124127     0.096828
Rotational constants in MHz :  9131.600925  3721.227051  2902.830760

                             ****ORCA TERMINATED NORMALLY****
TOTAL RUN TIME: 0 days 0 hours 0 minutes 24 seconds 877 msec
