                         Program Version 5.0.0 -  RELEASE  -
|  1> !PBE0 D3BJ RIJCOSX def2-TZVP def2/J TightSCF xyzfile
|  2>
|  3> *xyzfile 0 1 D2.xyz
|  4>
|  5> %MaxCore 64000
|  6>
|  7> %pal nprocs 18
|  8> end
|  9>
| 10> %scf
| 11>   MaxIter 150
| 12> end
| 13>
| 14>
| 15>                          ****END OF INPUT****

CARTESIAN COORDINATES (ANGSTROEM)
---------------------------------
  C      4.366454   -0.133215   -1.416062
  C      4.508292   -0.931872   -2.724249
  H      4.753716   -1.972051   -2.488408
  C      3.294164   -0.918214   -3.656570
  H      5.385637   -0.536236   -3.242640
  H      2.483463   -1.477378   -3.185764
  H      3.553092   -1.478495   -4.560331
  C      2.772335    0.460100   -4.051448
  H      2.608762    1.065107   -3.155194
  C      1.465354    0.410537   -4.853644
  H      3.532940    0.988848   -4.635671
  C      0.326171   -0.375613   -4.192580
  H      1.666704   -0.022269   -5.839323
  H      1.138198    1.439246   -5.035449
  C     -0.017405    0.080588   -2.778406
  H      0.585573   -1.439385   -4.168057
  H     -0.560005   -0.311425   -4.831461
  H      0.902090    0.201296   -2.206729
  C     -0.903495   -0.873945   -1.987388
  H     -0.479549    1.074657   -2.811915
  H     -0.502554   -1.892096   -2.081204
  H     -1.917039   -0.895427   -2.406277
  C     -0.960148   -0.522365   -0.489867
  H     -1.690392   -1.208130   -0.021677
  H     -1.414490    0.486329   -0.406677
  F      0.261703   -0.580307    0.138611
  C      3.056503   -0.320797   -0.707384
  N      2.389825    0.711285   -0.243909
  C      2.515999   -1.507721   -0.550229
  H      2.967683   -2.322915   -0.956305
  H      1.549872   -1.490634   -0.249876
  H      2.743071    1.649471   -0.412802
  H      1.440364    0.502778    0.037031
  H      4.487835    0.932997   -1.611569
  H      5.169672   -0.414432   -0.729817

 Total Charge           Charge          ....    0
 Multiplicity           Mult            ....    1
 Number of Electrons    NEL             ....  104
 Basis Dimension        Dim             ....  535

ORBITAL ENERGIES
----------------

  NO   OCC          E(Eh)            E(eV)
   0   2.0000     -24.789148      -674.5470
   1   2.0000     -14.356932      -390.6720
   2   2.0000     -10.311091      -280.5791
   3   2.0000     -10.231132      -278.4033
   4   2.0000     -10.220444      -278.1124
   5   2.0000     -10.213232      -277.9162
   6   2.0000     -10.212986      -277.9095
   7   2.0000     -10.211537      -277.8700
   8   2.0000     -10.210340      -277.8375
   9   2.0000     -10.209341      -277.8103
  10   2.0000     -10.206303      -277.7276
  11   2.0000     -10.200441      -277.5681
  12   2.0000     -10.122362      -275.4435
  13   2.0000      -1.269642       -34.5487
  14   2.0000      -0.942433       -25.6449
  15   2.0000      -0.842037       -22.9130
  16   2.0000      -0.819397       -22.2969
  17   2.0000      -0.793859       -21.6020
  18   2.0000      -0.751641       -20.4532
  19   2.0000      -0.720294       -19.6002
  20   2.0000      -0.707052       -19.2399
  21   2.0000      -0.661148       -17.9908
  22   2.0000      -0.635718       -17.2988
  23   2.0000      -0.604520       -16.4498
  24   2.0000      -0.570985       -15.5373
  25   2.0000      -0.561124       -15.2690
  26   2.0000      -0.547447       -14.8968
  27   2.0000      -0.538544       -14.6545
  28   2.0000      -0.525347       -14.2954
  29   2.0000      -0.498669       -13.5695
  30   2.0000      -0.489547       -13.3212
  31   2.0000      -0.475223       -12.9315
  32   2.0000      -0.463146       -12.6028
  33   2.0000      -0.449162       -12.2223
  34   2.0000      -0.441571       -12.0158
  35   2.0000      -0.427019       -11.6198
  36   2.0000      -0.410403       -11.1676
  37   2.0000      -0.401242       -10.9183
  38   2.0000      -0.392571       -10.6824
  39   2.0000      -0.379230       -10.3194
  40   2.0000      -0.375642       -10.2217
  41   2.0000      -0.370159       -10.0725
  42   2.0000      -0.362299        -9.8587
  43   2.0000      -0.358665        -9.7598
  44   2.0000      -0.343530        -9.3479
  45   2.0000      -0.337741        -9.1904
  46   2.0000      -0.326142        -8.8748
  47   2.0000      -0.318931        -8.6785
  48   2.0000      -0.317666        -8.6441
  49   2.0000      -0.311222        -8.4688
  50   2.0000      -0.308798        -8.4028
  51   2.0000      -0.179897        -4.8952
  52   0.0000       0.038651         1.0517
  53   0.0000       0.047166         1.2834
  54   0.0000       0.054636         1.4867
  55   0.0000       0.057158         1.5553
  56   0.0000       0.063039         1.7154

MULLIKEN ATOMIC CHARGES
-----------------------
   0 C :   -0.182935
   1 C :   -0.228035
   2 H :    0.117879
   3 C :   -0.148681
   4 H :    0.096517
   5 H :    0.105250
   6 H :    0.092401
   7 C :   -0.253306
   8 H :    0.100604
   9 C :   -0.133710
  10 H :    0.099362
  11 C :   -0.216592
  12 H :    0.098922
  13 H :    0.094057
  14 C :   -0.225550
  15 H :    0.113374
  16 H :    0.099634
  17 H :    0.097367
  18 C :   -0.191147
  19 H :    0.085817
  20 H :    0.115176
  21 H :    0.112826
  22 C :    0.007832
  23 H :    0.123626
  24 H :    0.105639
  25 F :   -0.219744
  26 C :    0.076071
  27 N :   -0.436196
  28 C :   -0.435727
  29 H :    0.099161
  30 H :    0.141395
  31 H :    0.218228
  32 H :    0.252693
  33 H :    0.093576
  34 H :    0.124216
Sum of atomic charges:   -0.0000000

LOEWDIN ATOMIC CHARGES
----------------------
   0 C :   -0.221785
   1 C :   -0.259856
   2 H :    0.139688
   3 C :   -0.272094
   4 H :    0.136399
   5 H :    0.141786
   6 H :    0.135700
   7 C :   -0.272043
   8 H :    0.134407
   9 C :   -0.268001
  10 H :    0.135141
  11 C :   -0.273040
  12 H :    0.137277
  13 H :    0.135819
  14 C :   -0.276982
  15 H :    0.137968
  16 H :    0.134899
  17 H :    0.148616
  18 C :   -0.276199
  19 H :    0.134998
  20 H :    0.144096
  21 H :    0.143761
  22 C :   -0.337145
  23 H :    0.128441
  24 H :    0.127077
  25 F :    0.142376
  26 C :   -0.390106
  27 N :   -0.005207
  28 C :   -0.290352
  29 H :    0.102607
  30 H :    0.096451
  31 H :    0.162484
  32 H :    0.155963
  33 H :    0.136009
  34 H :    0.150847

  Mayer bond orders larger than 0.100000
B(  0-C ,  1-C ) :   1.0003 B(  0-C , 26-C ) :   0.9739 B(  0-C , 33-H ) :   0.9633
B(  0-C , 34-H ) :   0.9549 B(  1-C ,  2-H ) :   0.9641 B(  1-C ,  3-C ) :   1.0083
B(  1-C ,  4-H ) :   0.9574 B(  3-C ,  5-H ) :   0.9533 B(  3-C ,  6-H ) :   0.9511
B(  3-C ,  7-C ) :   0.9778 B(  7-C ,  8-H ) :   0.9683 B(  7-C ,  9-C ) :   1.0005
B(  7-C , 10-H ) :   0.9546 B(  9-C , 11-C ) :   1.0011 B(  9-C , 12-H ) :   0.9586
B(  9-C , 13-H ) :   0.9617 B( 11-C , 14-C ) :   1.0117 B( 11-C , 15-H ) :   0.9668
B( 11-C , 16-H ) :   0.9569 B( 14-C , 17-H ) :   0.9828 B( 14-C , 18-C ) :   0.9981
B( 14-C , 19-H ) :   0.9512 B( 18-C , 20-H ) :   0.9515 B( 18-C , 21-H ) :   0.9438
B( 18-C , 22-C ) :   1.0062 B( 22-C , 23-H ) :   0.9676 B( 22-C , 24-H ) :   0.9687
B( 22-C , 25-F ) :   0.9336 B( 26-C , 27-N ) :   1.1873 B( 26-C , 28-C ) :   1.7575
B( 27-N , 31-H ) :   0.9174 B( 27-N , 32-H ) :   0.8735 B( 28-C , 29-H ) :   0.9921
B( 28-C , 30-H ) :   0.9537

Dispersion correction           -0.034623063
FINAL SINGLE POINT ENERGY      -586.509146124703

DIPOLE MOMENT
-------------
                                X             Y             Z
Electronic contribution:     -2.78206       0.03291      10.70380
Nuclear contribution   :      1.85154       0.58682     -11.15333
                        -----------------------------------------
Total Dipole Moment    :     -0.93052       0.61973      -0.44952
                        -----------------------------------------
Magnitude (a.u.)       :      1.20499
Magnitude (Debye)      :      3.06285

Rotational constants in cm-1:     0.028379     0.022321     0.014415
Rotational constants in MHz :   850.785777   669.176075   432.155504

                             ****ORCA TERMINATED NORMALLY****
TOTAL RUN TIME: 0 days 0 hours 1 minutes 6 seconds 410 msec
