                         Program Version 5.0.0 -  RELEASE  -
|  1> !BLYP D3BJ RIJCOSX def2-SVPD def2/J TightSCF
|  2> *xyz -1 1
|  3> C         -0.10608        1.76991       -4.08984
|  4> C         -0.25875        1.00432       -5.40983
|  5> C          0.39596       -0.37070       -5.33994
|  6> H          0.23915        1.56939       -6.20125
|  7> H         -1.30936        0.88869       -5.68245
|  8> O         -0.32633       -1.39040       -5.49128
|  9> O          1.61941       -0.40073       -5.03683
| 10> H         -0.57627        2.72718       -4.17630
| 11> H          0.93321        1.90140       -3.87192
| 12> H         -0.56868        1.21534       -3.30031
| 13> *
| 14> %MaxCore 64000
| 15>
| 16> %pal nprocs 4
| 17> end
| 18>
| 19> %scf
| 20>   MaxIter 150
| 21> end
| 22>
| 23>
| 24>                          ****END OF INPUT****

CARTESIAN COORDINATES (ANGSTROEM)
---------------------------------
  C     -0.106080    1.769910   -4.089840
  C     -0.258750    1.004320   -5.409830
  C      0.395960   -0.370700   -5.339940
  H      0.239150    1.569390   -6.201250
  H     -1.309360    0.888690   -5.682450
  O     -0.326330   -1.390400   -5.491280
  O      1.619410   -0.400730   -5.036830
  H     -0.576270    2.727180   -4.176300
  H      0.933210    1.901400   -3.871920
  H     -0.568680    1.215340   -3.300310

 Total Charge           Charge          ....   -1
 Multiplicity           Mult            ....    1
 Number of Electrons    NEL             ....   40
 Basis Dimension        Dim             ....  146

ORBITAL ENERGIES
----------------

  NO   OCC          E(Eh)            E(eV)
   0   2.0000     -18.532171      -504.2860
   1   2.0000     -18.531055      -504.2556
   2   2.0000      -9.802507      -266.7398
   3   2.0000      -9.761291      -265.6182
   4   2.0000      -9.749285      -265.2915
   5   2.0000      -0.716546       -19.4982
   6   2.0000      -0.627883       -17.0856
   7   2.0000      -0.521897       -14.2015
   8   2.0000      -0.400944       -10.9102
   9   2.0000      -0.261699        -7.1212
  10   2.0000      -0.240255        -6.5377
  11   2.0000      -0.203509        -5.5377
  12   2.0000      -0.179745        -4.8911
  13   2.0000      -0.164279        -4.4702
  14   2.0000      -0.156419        -4.2564
  15   2.0000      -0.128208        -3.4887
  16   2.0000      -0.116398        -3.1673
  17   2.0000      -0.009529        -0.2593
  18   2.0000       0.002272         0.0618
  19   2.0000       0.020917         0.5692
  20   0.0000       0.138357         3.7649
  21   0.0000       0.171330         4.6621
  22   0.0000       0.187909         5.1133
  23   0.0000       0.197933         5.3860
  24   0.0000       0.215414         5.8617

MULLIKEN ATOMIC CHARGES
-----------------------
   0 C :    0.902998
   1 C :    0.027230
   2 C :    0.224719
   3 H :   -0.132143
   4 H :   -0.209295
   5 O :   -0.587692
   6 O :   -0.634494
   7 H :   -0.228171
   8 H :   -0.152477
   9 H :   -0.210674
Sum of atomic charges:   -1.0000000

LOEWDIN ATOMIC CHARGES
----------------------
   0 C :    0.113475
   1 C :   -0.032100
   2 C :   -0.330968
   3 H :   -0.000700
   4 H :   -0.008766
   5 O :   -0.314362
   6 O :   -0.310072
   7 H :   -0.052133
   8 H :   -0.035363
   9 H :   -0.029010

  Mayer bond orders larger than 0.100000
B(  0-C ,  1-C ) :   1.2821 B(  0-C ,  3-H ) :   0.1213 B(  0-C ,  4-H ) :   0.1209
B(  0-C ,  7-H ) :   0.7634 B(  0-C ,  8-H ) :   0.7530 B(  0-C ,  9-H ) :   0.7585
B(  1-C ,  2-C ) :   1.0522 B(  1-C ,  3-H ) :   0.8077 B(  1-C ,  4-H ) :   0.9056
B(  1-C ,  7-H ) :   0.2154 B(  1-C ,  8-H ) :   0.2427 B(  1-C ,  9-H ) :   0.2171
B(  2-C ,  3-H ) :   0.1137 B(  2-C ,  4-H ) :   0.2158 B(  2-C ,  5-O ) :   1.5290
B(  2-C ,  6-O ) :   1.5546

Dispersion correction           -0.013584565
FINAL SINGLE POINT ENERGY      -267.590850135444

DIPOLE MOMENT
-------------
                                X             Y             Z
Electronic contribution:      1.76219      -5.34922      -1.70438
Nuclear contribution   :     -2.46071       7.20791       1.95694
                        -----------------------------------------
Total Dipole Moment    :     -0.69852       1.85869       0.25255
                        -----------------------------------------
Magnitude (a.u.)       :      2.00161
Magnitude (Debye)      :      5.08769

Rotational constants in cm-1:     0.309435     0.135317     0.107436
Rotational constants in MHz :  9276.637721  4056.700783  3220.846587

                             ****ORCA TERMINATED NORMALLY****
TOTAL RUN TIME: 0 days 0 hours 0 minutes 8 seconds 886 msec
