                         Program Version 5.0.0 -  RELEASE  -
|  1> !BLYP D3BJ RIJCOSX def2-SVPD def2/J TightSCF
|  2> *xyz 1 1
|  3> C          0.81607       -2.10149       -2.18655
|  4> H          1.69623       -2.36869       -1.60046
|  5> N          1.10055       -2.46749       -3.59927
|  6> C          0.51624       -0.61363       -2.03937
|  7> H         -0.02007       -2.71285       -1.84084
|  8> H          1.70061       -1.75723       -4.07838
|  9> H          0.29386       -2.35977       -4.25632
| 10> H          1.50132       -3.42848       -3.69491
| 11> H         -0.34841       -0.36504       -2.61858
| 12> H          1.35358       -0.04503       -2.38643
| 13> H          0.33317       -0.38682       -1.00984
| 14> *
| 15> %MaxCore 64000
| 16>
| 17> %pal nprocs 4
| 18> end
| 19>
| 20> %scf
| 21>   MaxIter 150
| 22> end
| 23>
| 24>
| 25>                          ****END OF INPUT****

CARTESIAN COORDINATES (ANGSTROEM)
---------------------------------
  C      0.816070   -2.101490   -2.186550
  H      1.696230   -2.368690   -1.600460
  N      1.100550   -2.467490   -3.599270
  C      0.516240   -0.613630   -2.039370
  H     -0.020070   -2.712850   -1.840840
  H      1.700610   -1.757230   -4.078380
  H      0.293860   -2.359770   -4.256320
  H      1.501320   -3.428480   -3.694910
  H     -0.348410   -0.365040   -2.618580
  H      1.353580   -0.045030   -2.386430
  H      0.333170   -0.386820   -1.009840

 Total Charge           Charge          ....    1
 Multiplicity           Mult            ....    1
 Number of Electrons    NEL             ....   26
 Basis Dimension        Dim             ....  124

ORBITAL ENERGIES
----------------

  NO   OCC          E(Eh)            E(eV)
   0   2.0000     -14.360828      -390.7780
   1   2.0000     -10.177069      -276.9321
   2   2.0000     -10.101217      -274.8681
   3   2.0000      -1.116507       -30.3817
   4   2.0000      -0.886090       -24.1117
   5   2.0000      -0.783948       -21.3323
   6   2.0000      -0.733568       -19.9614
   7   2.0000      -0.718363       -19.5477
   8   2.0000      -0.651107       -17.7175
   9   2.0000      -0.588678       -16.0187
  10   2.0000      -0.537992       -14.6395
  11   2.0000      -0.524622       -14.2757
  12   2.0000      -0.507127       -13.7996
  13   0.0000      -0.223734        -6.0881
  14   0.0000      -0.168519        -4.5856
  15   0.0000      -0.164939        -4.4882
  16   0.0000      -0.149025        -4.0552
  17   0.0000      -0.111757        -3.0411

MULLIKEN ATOMIC CHARGES
-----------------------
   0 C :    0.562692
   1 H :   -0.207237
   2 N :   -0.792871
   3 C :    1.004605
   4 H :   -0.225446
   5 H :    0.386713
   6 H :    0.345229
   7 H :    0.347998
   8 H :   -0.105113
   9 H :   -0.142506
  10 H :   -0.174065
Sum of atomic charges:    1.0000000

LOEWDIN ATOMIC CHARGES
----------------------
   0 C :    0.054473
   1 H :    0.049260
   2 N :    0.317799
   3 C :    0.187989
   4 H :    0.050459
   5 H :    0.107346
   6 H :    0.112299
   7 H :    0.117492
   8 H :   -0.003728
   9 H :   -0.004955
  10 H :    0.011566

  Mayer bond orders larger than 0.100000
B(  0-C ,  1-H ) :   0.8119 B(  0-C ,  2-N ) :   0.7030 B(  0-C ,  3-C ) :   1.3233
B(  0-C ,  4-H ) :   0.8308 B(  0-C ,  8-H ) :   0.1908 B(  0-C ,  9-H ) :   0.2045
B(  0-C , 10-H ) :   0.2430 B(  1-H ,  2-N ) :   0.1278 B(  2-N ,  4-H ) :   0.1458
B(  2-N ,  5-H ) :   0.6890 B(  2-N ,  6-H ) :   0.7651 B(  2-N ,  7-H ) :   0.7057
B(  3-C ,  8-H ) :   0.7496 B(  3-C ,  9-H ) :   0.7643 B(  3-C , 10-H ) :   0.7327

Dispersion correction           -0.012413137
FINAL SINGLE POINT ENERGY      -135.368587657533

DIPOLE MOMENT
-------------
                                X             Y             Z
Electronic contribution:      0.41482      -1.42380      -1.05292
Nuclear contribution   :     -0.07506       0.54337      -0.16191
                        -----------------------------------------
Total Dipole Moment    :      0.33977      -0.88044      -1.21483
                        -----------------------------------------
Magnitude (a.u.)       :      1.53832
Magnitude (Debye)      :      3.91009

Rotational constants in cm-1:     0.999557     0.280801     0.246932
Rotational constants in MHz : 29965.963633  8418.199581  7402.841054

                             ****ORCA TERMINATED NORMALLY****
TOTAL RUN TIME: 0 days 0 hours 0 minutes 7 seconds 358 msec
