                         Program Version 5.0.0 -  RELEASE  -
|  1> !BLYP D3BJ RIJCOSX def2-SVPD def2/J TightSCF
|  2> *xyz 0 1
|  3> C         -0.10608        1.76991       -4.08984
|  4> C         -0.25875        1.00432       -5.40983
|  5> C          0.39596       -0.37070       -5.33994
|  6> H          0.23915        1.56939       -6.20125
|  7> H         -1.30936        0.88869       -5.68245
|  8> F         -0.32633       -1.39040       -5.49128
|  9> O          1.61941       -0.40073       -5.03683
| 10> H         -0.57627        2.72718       -4.17630
| 11> H          0.93321        1.90140       -3.87192
| 12> H         -0.56868        1.21534       -3.30031
| 13> *
| 14> %MaxCore 64000
| 15>
| 16> %pal nprocs 4
| 17> end
| 18>
| 19> %scf
| 20>   MaxIter 150
| 21> end
| 22>
| 23>
| 24>                          ****END OF INPUT****

CARTESIAN COORDINATES (ANGSTROEM)
---------------------------------
  C     -0.106080    1.769910   -4.089840
  C     -0.258750    1.004320   -5.409830
  C      0.395960   -0.370700   -5.339940
  H      0.239150    1.569390   -6.201250
  H     -1.309360    0.888690   -5.682450
  F     -0.326330   -1.390400   -5.491280
  O      1.619410   -0.400730   -5.036830
  H     -0.576270    2.727180   -4.176300
  H      0.933210    1.901400   -3.871920
  H     -0.568680    1.215340   -3.300310

 Total Charge           Charge          ....    0
 Multiplicity           Mult            ....    1
 Number of Electrons    NEL             ....   40
 Basis Dimension        Dim             ....  146

ORBITAL ENERGIES
----------------

  NO   OCC          E(Eh)            E(eV)
   0   2.0000     -24.375310      -663.2859
   1   2.0000     -18.798446      -511.5317
   2   2.0000     -10.096812      -274.7482
   3   2.0000      -9.956389      -270.9271
   4   2.0000      -9.930653      -270.2268
   5   2.0000      -1.195623       -32.5345
   6   2.0000      -0.929737       -25.2994
   7   2.0000      -0.717606       -19.5270
   8   2.0000      -0.614706       -16.7270
   9   2.0000      -0.570845       -15.5335
  10   2.0000      -0.487806       -13.2739
  11   2.0000      -0.471937       -12.8421
  12   2.0000      -0.446144       -12.1402
  13   2.0000      -0.414095       -11.2681
  14   2.0000      -0.382261       -10.4018
  15   2.0000      -0.354126        -9.6363
  16   2.0000      -0.332606        -9.0507
  17   2.0000      -0.329562        -8.9678
  18   2.0000      -0.305101        -8.3022
  19   2.0000      -0.244282        -6.6472
  20   0.0000      -0.071030        -1.9328
  21   0.0000      -0.005153        -0.1402
  22   0.0000       0.026524         0.7217
  23   0.0000       0.038872         1.0578
  24   0.0000       0.051568         1.4032

MULLIKEN ATOMIC CHARGES
-----------------------
   0 C :    0.946151
   1 C :   -0.003582
   2 C :    0.547357
   3 H :   -0.073482
   4 H :   -0.188664
   5 F :   -0.297857
   6 O :   -0.408491
   7 H :   -0.191398
   8 H :   -0.142111
   9 H :   -0.187923
Sum of atomic charges:    0.0000000

LOEWDIN ATOMIC CHARGES
----------------------
   0 C :    0.156686
   1 C :    0.012261
   2 C :   -0.041080
   3 H :    0.034224
   4 H :    0.016692
   5 F :   -0.016001
   6 O :   -0.117108
   7 H :   -0.017898
   8 H :   -0.013950
   9 H :   -0.013824

  Mayer bond orders larger than 0.100000
B(  0-C ,  1-C ) :   1.3201 B(  0-C ,  3-H ) :   0.1126 B(  0-C ,  4-H ) :   0.1179
B(  0-C ,  7-H ) :   0.7590 B(  0-C ,  8-H ) :   0.7512 B(  0-C ,  9-H ) :   0.7568
B(  1-C ,  2-C ) :   1.0863 B(  1-C ,  3-H ) :   0.7951 B(  1-C ,  4-H ) :   0.9059
B(  1-C ,  7-H ) :   0.2045 B(  1-C ,  8-H ) :   0.2203 B(  1-C ,  9-H ) :   0.2010
B(  2-C ,  3-H ) :   0.1003 B(  2-C ,  4-H ) :   0.1147 B(  2-C ,  5-F ) :   0.8274
B(  2-C ,  6-O ) :   1.8698 B(  5-F ,  6-O ) :   0.1216

Dispersion correction           -0.012887732
FINAL SINGLE POINT ENERGY      -292.127085541717

DIPOLE MOMENT
-------------
                                X             Y             Z
Electronic contribution:      0.86841      -8.18980      -2.56357
Nuclear contribution   :     -1.80992       8.85192       2.42184
                        -----------------------------------------
Total Dipole Moment    :     -0.94151       0.66213      -0.14173
                        -----------------------------------------
Magnitude (a.u.)       :      1.15972
Magnitude (Debye)      :      2.94776

Rotational constants in cm-1:     0.298360     0.128849     0.102271
Rotational constants in MHz :  8944.606599  3862.796179  3066.020510

                             ****ORCA TERMINATED NORMALLY****
TOTAL RUN TIME: 0 days 0 hours 0 minutes 8 seconds 453 msec
