                         Program Version 5.0.0 -  RELEASE  -
|  1> !BLYP D3BJ RIJCOSX def2-SVPD def2/J TightSCF
|  2> *xyz 0 1
|  3> C          0.81607       -2.10149       -2.18655
|  4> H          1.69623       -2.36869       -1.60046
|  5> C          1.10055       -2.46749       -3.59927
|  6> C          0.51624       -0.61363       -2.03937
|  7> H         -0.02007       -2.71285       -1.84084
|  8> H          1.70061       -1.75723       -4.07838
|  9> H          0.29386       -2.35977       -4.25632
| 10> H          1.50132       -3.42848       -3.69491
| 11> H         -0.34841       -0.36504       -2.61858
| 12> H          1.35358       -0.04503       -2.38643
| 13> H          0.33317       -0.38682       -1.00984
| 14> *
| 15> %MaxCore 64000
| 16>
| 17> %pal nprocs 4
| 18> end
| 19>
| 20> %scf
| 21>   MaxIter 150
| 22> end
| 23>
| 24>
| 25>                          ****END OF INPUT****

CARTESIAN COORDINATES (ANGSTROEM)
---------------------------------
  C      0.816070   -2.101490   -2.186550
  H      1.696230   -2.368690   -1.600460
  C      1.100550   -2.467490   -3.599270
  C      0.516240   -0.613630   -2.039370
  H     -0.020070   -2.712850   -1.840840
  H      1.700610   -1.757230   -4.078380
  H      0.293860   -2.359770   -4.256320
  H      1.501320   -3.428480   -3.694910
  H     -0.348410   -0.365040   -2.618580
  H      1.353580   -0.045030   -2.386430
  H      0.333170   -0.386820   -1.009840

 Total Charge           Charge          ....    0
 Multiplicity           Mult            ....    1
 Number of Electrons    NEL             ....   26
 Basis Dimension        Dim             ....  124

ORBITAL ENERGIES
----------------

  NO   OCC          E(Eh)            E(eV)
   0   2.0000      -9.911995      -269.7191
   1   2.0000      -9.903365      -269.4843
   2   2.0000      -9.891886      -269.1719
   3   2.0000      -0.704317       -19.1654
   4   2.0000      -0.610311       -16.6074
   5   2.0000      -0.520407       -14.1610
   6   2.0000      -0.407207       -11.0807
   7   2.0000      -0.393948       -10.7199
   8   2.0000      -0.363505        -9.8915
   9   2.0000      -0.328910        -8.9501
  10   2.0000      -0.298042        -8.1101
  11   2.0000      -0.293678        -7.9914
  12   2.0000      -0.277626        -7.5546
  13   0.0000       0.008035         0.2186
  14   0.0000       0.037267         1.0141
  15   0.0000       0.042324         1.1517
  16   0.0000       0.062988         1.7140
  17   0.0000       0.083648         2.2762

MULLIKEN ATOMIC CHARGES
-----------------------
   0 C :   -0.210546
   1 H :   -0.213416
   2 C :    1.169997
   3 C :    0.993994
   4 H :   -0.240142
   5 H :   -0.319078
   6 H :   -0.304189
   7 H :   -0.313941
   8 H :   -0.161785
   9 H :   -0.151530
  10 H :   -0.249365
Sum of atomic charges:   -0.0000000

LOEWDIN ATOMIC CHARGES
----------------------
   0 C :   -0.108151
   1 H :    0.015974
   2 C :    0.114444
   3 C :    0.130345
   4 H :    0.016660
   5 H :   -0.035971
   6 H :   -0.033216
   7 H :   -0.028433
   8 H :   -0.021180
   9 H :   -0.022670
  10 H :   -0.027802

  Mayer bond orders larger than 0.100000
B(  0-C ,  1-H ) :   0.8193 B(  0-C ,  2-C ) :   1.3078 B(  0-C ,  3-C ) :   1.2975
B(  0-C ,  4-H ) :   0.8439 B(  0-C ,  5-H ) :   0.2209 B(  0-C ,  6-H ) :   0.2273
B(  0-C ,  7-H ) :   0.2438 B(  0-C ,  8-H ) :   0.2317 B(  0-C ,  9-H ) :   0.2168
B(  0-C , 10-H ) :   0.2393 B(  1-H ,  2-C ) :   0.1269 B(  2-C ,  4-H ) :   0.1392
B(  2-C ,  5-H ) :   0.5755 B(  2-C ,  6-H ) :   0.5556 B(  2-C ,  7-H ) :   0.6522
B(  3-C ,  8-H ) :   0.7393 B(  3-C ,  9-H ) :   0.7550 B(  3-C , 10-H ) :   0.7259
B(  5-H ,  6-H ) :   0.3640

Dispersion correction           -0.012496733
FINAL SINGLE POINT ENERGY      -118.965857211074

DIPOLE MOMENT
-------------
                                X             Y             Z
Electronic contribution:     -0.01810      -0.31147       0.46712
Nuclear contribution   :      0.01737       0.30387      -0.47422
                        -----------------------------------------
Total Dipole Moment    :     -0.00072      -0.00760      -0.00709
                        -----------------------------------------
Magnitude (a.u.)       :      0.01042
Magnitude (Debye)      :      0.02648

Rotational constants in cm-1:     1.006891     0.295208     0.258491
Rotational constants in MHz : 30185.831813  8850.104914  7749.351732

                             ****ORCA TERMINATED NORMALLY****
TOTAL RUN TIME: 0 days 0 hours 0 minutes 7 seconds 596 msec
