                         Program Version 5.0.0 -  RELEASE  -
|  1> !BLYP D3BJ RIJCOSX def2-SVPD def2/J TightSCF
|  2> *xyz 0 1
|  3> C         -0.10608        1.76991       -4.08984
|  4> C         -0.25875        1.00432       -5.40983
|  5> C          0.39596       -0.37070       -5.33994
|  6> H          0.23915        1.56939       -6.20125
|  7> H         -1.30936        0.88869       -5.68245
|  8> O         -0.32633       -1.39040       -5.49128
|  9> F          1.61941       -0.40073       -5.03683
| 10> H         -0.57627        2.72718       -4.17630
| 11> H          0.93321        1.90140       -3.87192
| 12> H         -0.56868        1.21534       -3.30031
| 13> *
| 14> %MaxCore 64000
| 15>
| 16> %pal nprocs 4
| 17> end
| 18>
| 19> %scf
| 20>   MaxIter 150
| 21> end
| 22>
| 23>
| 24>                          ****END OF INPUT****

CARTESIAN COORDINATES (ANGSTROEM)
---------------------------------
  C     -0.106080    1.769910   -4.089840
  C     -0.258750    1.004320   -5.409830
  C      0.395960   -0.370700   -5.339940
  H      0.239150    1.569390   -6.201250
  H     -1.309360    0.888690   -5.682450
  O     -0.326330   -1.390400   -5.491280
  F      1.619410   -0.400730   -5.036830
  H     -0.576270    2.727180   -4.176300
  H      0.933210    1.901400   -3.871920
  H     -0.568680    1.215340   -3.300310

 Total Charge           Charge          ....    0
 Multiplicity           Mult            ....    1
 Number of Electrons    NEL             ....   40
 Basis Dimension        Dim             ....  146

ORBITAL ENERGIES
----------------

  NO   OCC          E(Eh)            E(eV)
   0   2.0000     -24.374105      -663.2531
   1   2.0000     -18.798994      -511.5466
   2   2.0000     -10.096109      -274.7291
   3   2.0000      -9.956198      -270.9219
   4   2.0000      -9.935626      -270.3621
   5   2.0000      -1.194338       -32.4996
   6   2.0000      -0.929574       -25.2950
   7   2.0000      -0.722025       -19.6473
   8   2.0000      -0.612200       -16.6588
   9   2.0000      -0.574077       -15.6214
  10   2.0000      -0.488799       -13.3009
  11   2.0000      -0.475380       -12.9358
  12   2.0000      -0.440986       -11.9998
  13   2.0000      -0.413664       -11.2564
  14   2.0000      -0.383992       -10.4490
  15   2.0000      -0.356536        -9.7018
  16   2.0000      -0.336765        -9.1638
  17   2.0000      -0.333743        -9.0816
  18   2.0000      -0.310280        -8.4431
  19   2.0000      -0.241232        -6.5642
  20   0.0000      -0.067997        -1.8503
  21   0.0000      -0.007395        -0.2012
  22   0.0000       0.027303         0.7429
  23   0.0000       0.038159         1.0383
  24   0.0000       0.052465         1.4277

MULLIKEN ATOMIC CHARGES
-----------------------
   0 C :    0.932617
   1 C :    0.025273
   2 C :    0.551522
   3 H :   -0.088777
   4 H :   -0.195080
   5 O :   -0.369414
   6 F :   -0.326843
   7 H :   -0.187614
   8 H :   -0.153872
   9 H :   -0.187812
Sum of atomic charges:   -0.0000000

LOEWDIN ATOMIC CHARGES
----------------------
   0 C :    0.152092
   1 C :    0.017062
   2 C :   -0.046544
   3 H :    0.028894
   4 H :    0.029493
   5 O :   -0.115052
   6 F :   -0.017383
   7 H :   -0.017372
   8 H :   -0.019099
   9 H :   -0.012090

  Mayer bond orders larger than 0.100000
B(  0-C ,  1-C ) :   1.3017 B(  0-C ,  3-H ) :   0.1110 B(  0-C ,  4-H ) :   0.1046
B(  0-C ,  7-H ) :   0.7696 B(  0-C ,  8-H ) :   0.7431 B(  0-C ,  9-H ) :   0.7694
B(  1-C ,  2-C ) :   1.0632 B(  1-C ,  3-H ) :   0.7981 B(  1-C ,  4-H ) :   0.9129
B(  1-C ,  7-H ) :   0.2019 B(  1-C ,  8-H ) :   0.2146 B(  1-C ,  9-H ) :   0.1960
B(  2-C ,  4-H ) :   0.1646 B(  2-C ,  5-O ) :   1.8748 B(  2-C ,  6-F ) :   0.7948
B(  5-O ,  6-F ) :   0.1306

Dispersion correction           -0.012797336
FINAL SINGLE POINT ENERGY      -292.128354104262

DIPOLE MOMENT
-------------
                                X             Y             Z
Electronic contribution:      4.07197      -6.52637      -1.80796
Nuclear contribution   :     -3.93139       7.77287       1.92635
                        -----------------------------------------
Total Dipole Moment    :      0.14058       1.24650       0.11840
                        -----------------------------------------
Magnitude (a.u.)       :      1.25998
Magnitude (Debye)      :      3.20261

Rotational constants in cm-1:     0.286068     0.133630     0.103472
Rotational constants in MHz :  8576.109806  4006.118234  3102.010802

                             ****ORCA TERMINATED NORMALLY****
TOTAL RUN TIME: 0 days 0 hours 0 minutes 8 seconds 749 msec
