                         Program Version 5.0.0 -  RELEASE  -
|  1> !BLYP D3BJ RIJCOSX def2-TZVPD def2/J TightSCF
|  2> *xyz -1 1
|  3> C          0.61188        1.65763       -4.50029
|  4> C          1.69499        1.54179       -5.57045
|  5> H          2.69733        1.73466       -5.18400
|  6> H          1.50666        2.27224       -6.35808
|  7> S          1.78029       -0.03313       -6.42874
|  8> O          2.56929        0.21366       -7.60736
|  9> O          0.41688       -0.46297       -6.61859
| 10> O          2.50513       -0.93326       -5.48257
| 11> H         -0.34424        1.45871       -4.93752
| 12> H          0.61845        2.64655       -4.09174
| 13> H          0.80247        0.94882       -3.72173
| 14> *
| 15> %MaxCore 64000
| 16>
| 17> %pal nprocs 4
| 18> end
| 19>
| 20> %scf
| 21>   MaxIter 150
| 22> end
| 23>
| 24>
| 25>                          ****END OF INPUT****

CARTESIAN COORDINATES (ANGSTROEM)
---------------------------------
  C      0.611880    1.657630   -4.500290
  C      1.694990    1.541790   -5.570450
  H      2.697330    1.734660   -5.184000
  H      1.506660    2.272240   -6.358080
  S      1.780290   -0.033130   -6.428740
  O      2.569290    0.213660   -7.607360
  O      0.416880   -0.462970   -6.618590
  O      2.505130   -0.933260   -5.482570
  H     -0.344240    1.458710   -4.937520
  H      0.618450    2.646550   -4.091740
  H      0.802470    0.948820   -3.721730

 Total Charge           Charge          ....   -1
 Multiplicity           Mult            ....    1
 Number of Electrons    NEL             ....   58
 Basis Dimension        Dim             ....  285

ORBITAL ENERGIES
----------------

  NO   OCC          E(Eh)            E(eV)
   0   2.0000     -88.078209     -2396.7299
   1   2.0000     -18.554516      -504.8941
   2   2.0000     -18.553746      -504.8731
   3   2.0000     -18.536316      -504.3988
   4   2.0000      -9.763066      -265.6665
   5   2.0000      -9.758588      -265.5447
   6   2.0000      -7.609403      -207.0624
   7   2.0000      -5.637905      -153.4152
   8   2.0000      -5.637180      -153.3955
   9   2.0000      -5.636823      -153.3858
  10   2.0000      -0.826984       -22.5034
  11   2.0000      -0.706068       -19.2131
  12   2.0000      -0.673973       -18.3397
  13   2.0000      -0.552503       -15.0344
  14   2.0000      -0.436833       -11.8868
  15   2.0000      -0.317504        -8.6397
  16   2.0000      -0.264048        -7.1851
  17   2.0000      -0.255662        -6.9569
  18   2.0000      -0.220433        -5.9983
  19   2.0000      -0.203499        -5.5375
  20   2.0000      -0.200110        -5.4453
  21   2.0000      -0.180227        -4.9042
  22   2.0000      -0.166936        -4.5426
  23   2.0000      -0.099907        -2.7186
  24   2.0000      -0.098751        -2.6871
  25   2.0000      -0.069234        -1.8840
  26   2.0000      -0.066219        -1.8019
  27   2.0000      -0.046972        -1.2782
  28   2.0000      -0.014261        -0.3881
  29   0.0000       0.109148         2.9701
  30   0.0000       0.134688         3.6651
  31   0.0000       0.142943         3.8897
  32   0.0000       0.152237         4.1426
  33   0.0000       0.168715         4.5910

MULLIKEN ATOMIC CHARGES
-----------------------
   0 C :   -1.187670
   1 C :   -0.369541
   2 H :    0.254064
   3 H :    0.268861
   4 S :    1.243133
   5 O :   -0.689496
   6 O :   -0.703055
   7 O :   -0.762146
   8 H :    0.296801
   9 H :    0.337462
  10 H :    0.311586
Sum of atomic charges:   -1.0000000

LOEWDIN ATOMIC CHARGES
----------------------
   0 C :   -0.141023
   1 C :   -0.331678
   2 H :    0.079099
   3 H :    0.073310
   4 S :    0.318137
   5 O :   -0.372739
   6 O :   -0.366246
   7 O :   -0.413091
   8 H :    0.051889
   9 H :    0.044120
  10 H :    0.058223

  Mayer bond orders larger than 0.100000
B(  0-C ,  1-C ) :   0.5898 B(  0-C ,  8-H ) :   0.9874 B(  0-C ,  9-H ) :   0.9074
B(  0-C , 10-H ) :   0.9654 B(  1-C ,  2-H ) :   0.9609 B(  1-C ,  3-H ) :   0.9500
B(  1-C ,  4-S ) :   0.8876 B(  1-C ,  5-O ) :   0.1580 B(  1-C ,  6-O ) :   0.1166
B(  1-C ,  7-O ) :   0.1364 B(  4-S ,  5-O ) :   1.4688 B(  4-S ,  6-O ) :   1.4629
B(  4-S ,  7-O ) :   1.4200

Dispersion correction           -0.020473827
FINAL SINGLE POINT ENERGY      -703.247562851755

DIPOLE MOMENT
-------------
                                X             Y             Z
Electronic contribution:      2.24652      -5.69445      -5.03358
Nuclear contribution   :     -2.69163       7.29476       5.86550
                        -----------------------------------------
Total Dipole Moment    :     -0.44511       1.60030       0.83192
                        -----------------------------------------
Magnitude (a.u.)       :      1.85774
Magnitude (Debye)      :      4.72199

Rotational constants in cm-1:     0.163060     0.082831     0.081111
Rotational constants in MHz :  4888.419330  2483.225008  2431.646841

                             ****ORCA TERMINATED NORMALLY****
TOTAL RUN TIME: 0 days 0 hours 0 minutes 10 seconds 202 msec
