                         Program Version 5.0.0 -  RELEASE  -
|  1> !BLYP D3BJ RIJCOSX def2-TZVPD def2/J TightSCF
|  2> *xyz 1 1
|  3> C          1.96337       -1.74915       -1.89689
|  4> N          2.73849       -2.01517       -3.09711
|  5> C          4.04974       -2.15472       -3.15204
|  6> N          4.65821       -1.98629       -4.31866
|  7> N          4.76423       -2.45444       -2.05049
|  8> H          4.28736       -2.77626       -1.21750
|  9> H          5.75082       -2.65835       -2.12599
| 10> H          2.34518       -1.69027       -3.97145
| 11> H          4.10900       -1.59268       -5.07176
| 12> H          5.64910       -2.15646       -4.42724
| 13> C          2.08852       -0.30091       -1.41520
| 14> H          2.23127       -2.45162       -1.10264
| 15> H          0.93025       -1.97780       -2.15544
| 16> H          1.82118        0.36368       -2.21003
| 17> H          3.09792       -0.11068       -1.11551
| 18> H          1.43391       -0.14382       -0.58352
| 19> *
| 20> %MaxCore 64000
| 21>
| 22> %pal nprocs 4
| 23> end
| 24>
| 25> %scf
| 26>   MaxIter 150
| 27> end
| 28>
| 29>
| 30>                          ****END OF INPUT****

CARTESIAN COORDINATES (ANGSTROEM)
---------------------------------
  C      1.963370   -1.749150   -1.896890
  N      2.738490   -2.015170   -3.097110
  C      4.049740   -2.154720   -3.152040
  N      4.658210   -1.986290   -4.318660
  N      4.764230   -2.454440   -2.050490
  H      4.287360   -2.776260   -1.217500
  H      5.750820   -2.658350   -2.125990
  H      2.345180   -1.690270   -3.971450
  H      4.109000   -1.592680   -5.071760
  H      5.649100   -2.156460   -4.427240
  C      2.088520   -0.300910   -1.415200
  H      2.231270   -2.451620   -1.102640
  H      0.930250   -1.977800   -2.155440
  H      1.821180    0.363680   -2.210030
  H      3.097920   -0.110680   -1.115510
  H      1.433910   -0.143820   -0.583520

 Total Charge           Charge          ....    1
 Multiplicity           Mult            ....    1
 Number of Electrons    NEL             ....   48
 Basis Dimension        Dim             ....  312

ORBITAL ENERGIES
----------------

  NO   OCC          E(Eh)            E(eV)
   0   2.0000     -14.228331      -387.1726
   1   2.0000     -14.227348      -387.1458
   2   2.0000     -14.226425      -387.1207
   3   2.0000     -10.228724      -278.3377
   4   2.0000     -10.111147      -275.1383
   5   2.0000     -10.040286      -273.2101
   6   2.0000      -1.123532       -30.5729
   7   2.0000      -1.020161       -27.7600
   8   2.0000      -1.008689       -27.4478
   9   2.0000      -0.854620       -23.2554
  10   2.0000      -0.775563       -21.1041
  11   2.0000      -0.740759       -20.1571
  12   2.0000      -0.724037       -19.7021
  13   2.0000      -0.687034       -18.6951
  14   2.0000      -0.641428       -17.4541
  15   2.0000      -0.634493       -17.2654
  16   2.0000      -0.603173       -16.4132
  17   2.0000      -0.574032       -15.6202
  18   2.0000      -0.550466       -14.9789
  19   2.0000      -0.515090       -14.0163
  20   2.0000      -0.486324       -13.2335
  21   2.0000      -0.468468       -12.7476
  22   2.0000      -0.432318       -11.7640
  23   2.0000      -0.408649       -11.1199
  24   0.0000      -0.199675        -5.4334
  25   0.0000      -0.187425        -5.1001
  26   0.0000      -0.154978        -4.2172
  27   0.0000      -0.144926        -3.9436
  28   0.0000      -0.122158        -3.3241

MULLIKEN ATOMIC CHARGES
-----------------------
   0 C :   -0.412163
   1 N :   -0.137161
   2 C :    0.685862
   3 N :   -0.265319
   4 N :   -0.268698
   5 H :    0.185165
   6 H :    0.168410
   7 H :    0.162312
   8 H :    0.167842
   9 H :    0.167961
  10 C :   -1.125100
  11 H :    0.303382
  12 H :    0.322119
  13 H :    0.332061
  14 H :    0.344313
  15 H :    0.369013
Sum of atomic charges:    1.0000000

LOEWDIN ATOMIC CHARGES
----------------------
   0 C :   -0.198358
   1 N :    0.090430
   2 C :   -0.450960
   3 N :    0.221074
   4 N :    0.229670
   5 H :    0.123325
   6 H :    0.132547
   7 H :    0.161060
   8 H :    0.134924
   9 H :    0.137291
  10 C :   -0.046330
  11 H :    0.115883
  12 H :    0.127481
  13 H :    0.074553
  14 H :    0.067156
  15 H :    0.080253

  Mayer bond orders larger than 0.100000
B(  0-C ,  1-N ) :   0.8259 B(  0-C , 10-C ) :   0.6110 B(  0-C , 11-H ) :   0.8785
B(  0-C , 12-H ) :   0.9080 B(  1-N ,  2-C ) :   1.2521 B(  1-N ,  3-N ) :   0.1072
B(  1-N ,  7-H ) :   0.9912 B(  2-C ,  3-N ) :   1.0492 B(  2-C ,  4-N ) :   1.1349
B(  3-N ,  8-H ) :   0.9978 B(  3-N ,  9-H ) :   1.0240 B(  4-N ,  5-H ) :   0.9530
B(  4-N ,  6-H ) :   1.0262 B( 10-C , 13-H ) :   0.9644 B( 10-C , 14-H ) :   0.9403
B( 10-C , 15-H ) :   0.9351

Dispersion correction           -0.025068199
FINAL SINGLE POINT ENERGY      -284.408302759520

DIPOLE MOMENT
-------------
                                X             Y             Z
Electronic contribution:      2.99197      -2.69848      -3.06859
Nuclear contribution   :     -2.17768       2.37118       2.44574
                        -----------------------------------------
Total Dipole Moment    :      0.81428      -0.32730      -0.62285
                        -----------------------------------------
Magnitude (a.u.)       :      1.07616
Magnitude (Debye)      :      2.73538

Rotational constants in cm-1:     0.215650     0.075183     0.066454
Rotational constants in MHz :  6465.033740  2253.919004  1992.232519

                             ****ORCA TERMINATED NORMALLY****
TOTAL RUN TIME: 0 days 0 hours 0 minutes 14 seconds 107 msec
