                         Program Version 5.0.0 -  RELEASE  -
|  1> !BLYP D3BJ RIJCOSX def2-TZVPD def2/J TightSCF xyzfile
|  2>
|  3> *xyzfile 0 1 B.xyz
|  4>
|  5> %MaxCore 64000
|  6>
|  7> %pal nprocs 4
|  8> end
|  9>
| 10> %scf
| 11>   MaxIter 150
| 12> end
| 13>
| 14>
| 15>                          ****END OF INPUT****

CARTESIAN COORDINATES (ANGSTROEM)
---------------------------------
  C      1.963365   -1.749150   -1.896887
  N      2.738490   -2.015170   -3.097113
  C      0.611877    1.657634   -4.500288
  C      1.694991    1.541794   -5.570447
  H      2.697326    1.734659   -5.183996
  H      1.506656    2.272239   -6.358076
  S      1.780287   -0.033128   -6.428739
  C      4.049736   -2.154717   -3.152044
  N      4.658206   -1.986293   -4.318655
  N      4.764231   -2.454435   -2.050491
  H      4.287363   -2.776259   -1.217496
  H      5.750825   -2.658351   -2.125988
  H      2.345176   -1.690274   -3.971447
  H      4.109004   -1.592677   -5.071760
  H      5.649095   -2.156462   -4.427237
  O      2.569287    0.213657   -7.607360
  O      0.416880   -0.462969   -6.618595
  C      2.088520   -0.300912   -1.415204
  H      2.231272   -2.451616   -1.102643
  H      0.930249   -1.977801   -2.155438
  C      0.680356    0.655418   -3.348038
  H     -0.356865    1.549231   -4.991128
  H      0.650228    2.675438   -4.096000
  C      1.968993    0.733582   -2.535654
  H      3.051356   -0.168602   -0.911868
  H      1.316501   -0.136231   -0.657252
  O      2.505129   -0.933263   -5.482570
  H      2.824195    0.624726   -3.208464
  H      2.058919    1.730331   -2.093112
  H      0.542252   -0.344731   -3.766662
  H     -0.174219    0.829692   -2.685182

 Total Charge           Charge          ....    0
 Multiplicity           Mult            ....    1
 Number of Electrons    NEL             ....  120
 Basis Dimension        Dim             ....  689

ORBITAL ENERGIES
----------------

  NO   OCC          E(Eh)            E(eV)
   0   2.0000     -88.225961     -2400.7504
   1   2.0000     -18.712182      -509.1843
   2   2.0000     -18.692540      -508.6499
   3   2.0000     -18.691208      -508.6136
   4   2.0000     -14.090150      -383.4125
   5   2.0000     -14.061939      -382.6448
   6   2.0000     -14.058214      -382.5435
   7   2.0000     -10.076088      -274.1843
   8   2.0000      -9.975747      -271.4539
   9   2.0000      -9.926870      -270.1239
  10   2.0000      -9.907546      -269.5980
  11   2.0000      -9.895621      -269.2735
  12   2.0000      -9.891324      -269.1566
  13   2.0000      -9.891205      -269.1534
  14   2.0000      -7.757468      -211.0914
  15   2.0000      -5.786656      -157.4629
  16   2.0000      -5.785144      -157.4218
  17   2.0000      -5.784217      -157.3965
  18   2.0000      -0.976638       -26.5757
  19   2.0000      -0.969831       -26.3904
  20   2.0000      -0.871073       -23.7031
  21   2.0000      -0.857413       -23.3314
  22   2.0000      -0.844004       -22.9665
  23   2.0000      -0.843155       -22.9434
  24   2.0000      -0.741212       -20.1694
  25   2.0000      -0.703902       -19.1541
  26   2.0000      -0.660779       -17.9807
  27   2.0000      -0.627510       -17.0754
  28   2.0000      -0.602817       -16.4035
  29   2.0000      -0.574267       -15.6266
  30   2.0000      -0.564481       -15.3603
  31   2.0000      -0.534153       -14.5350
  32   2.0000      -0.511660       -13.9230
  33   2.0000      -0.497926       -13.5493
  34   2.0000      -0.487729       -13.2718
  35   2.0000      -0.464084       -12.6284
  36   2.0000      -0.446247       -12.1430
  37   2.0000      -0.429086       -11.6760
  38   2.0000      -0.423990       -11.5374
  39   2.0000      -0.415203       -11.2983
  40   2.0000      -0.399540       -10.8720
  41   2.0000      -0.385209       -10.4821
  42   2.0000      -0.373075       -10.1519
  43   2.0000      -0.366100        -9.9621
  44   2.0000      -0.348023        -9.4702
  45   2.0000      -0.341085        -9.2814
  46   2.0000      -0.331296        -9.0150
  47   2.0000      -0.323525        -8.8036
  48   2.0000      -0.318334        -8.6623
  49   2.0000      -0.291799        -7.9403
  50   2.0000      -0.289119        -7.8673
  51   2.0000      -0.285365        -7.7652
  52   2.0000      -0.272107        -7.4044
  53   2.0000      -0.256958        -6.9922
  54   2.0000      -0.253912        -6.9093
  55   2.0000      -0.246215        -6.6998
  56   2.0000      -0.216102        -5.8804
  57   2.0000      -0.205147        -5.5823
  58   2.0000      -0.203097        -5.5266
  59   2.0000      -0.172235        -4.6868
  60   0.0000      -0.063431        -1.7260
  61   0.0000      -0.052063        -1.4167
  62   0.0000      -0.032441        -0.8828
  63   0.0000      -0.007301        -0.1987
  64   0.0000      -0.002036        -0.0554

MULLIKEN ATOMIC CHARGES
-----------------------
   0 C :   -0.943296
   1 N :   -0.165847
   2 C :   -0.663244
   3 C :   -0.728182
   4 H :    0.286518
   5 H :    0.299934
   6 S :    1.203679
   7 C :    0.567075
   8 N :   -0.251811
   9 N :   -0.281577
  10 H :    0.168361
  11 H :    0.143402
  12 H :    0.589775
  13 H :    0.379626
  14 H :    0.073586
  15 O :   -0.700268
  16 O :   -0.712140
  17 C :   -0.363503
  18 H :    0.324708
  19 H :    0.370844
  20 C :   -0.469549
  21 H :    0.255487
  22 H :    0.281739
  23 C :   -0.408192
  24 H :    0.243933
  25 H :    0.316418
  26 O :   -0.900799
  27 H :    0.193463
  28 H :    0.318576
  29 H :    0.317098
  30 H :    0.254187
Sum of atomic charges:    0.0000000

LOEWDIN ATOMIC CHARGES
----------------------
   0 C :   -0.164719
   1 N :    0.101592
   2 C :   -0.221837
   3 C :   -0.252266
   4 H :    0.088428
   5 H :    0.095300
   6 S :    0.417540
   7 C :   -0.457410
   8 N :    0.215080
   9 N :    0.199028
  10 H :    0.107143
  11 H :    0.115220
  12 H :    0.080577
  13 H :    0.074409
  14 H :    0.124094
  15 O :   -0.316202
  16 O :   -0.306474
  17 C :   -0.174876
  18 H :    0.106589
  19 H :    0.122980
  20 C :   -0.208807
  21 H :    0.106968
  22 H :    0.108258
  23 C :   -0.202114
  24 H :    0.101631
  25 H :    0.112056
  26 O :   -0.397489
  27 H :    0.098341
  28 H :    0.116520
  29 H :    0.094564
  30 H :    0.115877

  Mayer bond orders larger than 0.100000
B(  0-C ,  1-N ) :   0.9355 B(  0-C ,  7-C ) :  -0.1234 B(  0-C , 12-H ) :  -0.1358
B(  0-C , 17-C ) :   0.6905 B(  0-C , 18-H ) :   0.8305 B(  0-C , 19-H ) :   0.8745
B(  0-C , 20-C ) :   0.1762 B(  1-N ,  7-C ) :   1.2706 B(  1-N , 12-H ) :   0.6996
B(  2-C ,  3-C ) :   0.8724 B(  2-C , 20-C ) :   0.9489 B(  2-C , 21-H ) :   0.9410
B(  2-C , 22-H ) :   0.9364 B(  2-C , 23-C ) :   0.1777 B(  3-C ,  4-H ) :   0.8839
B(  3-C ,  5-H ) :   0.9169 B(  3-C ,  6-S ) :   0.8279 B(  3-C , 15-O ) :   0.1923
B(  3-C , 16-O ) :   0.1449 B(  3-C , 23-C ) :   0.1135 B(  3-C , 26-O ) :   0.1141
B(  6-S , 15-O ) :   1.3648 B(  6-S , 16-O ) :   1.4316 B(  6-S , 26-O ) :   1.5643
B(  7-C ,  8-N ) :   1.1224 B(  7-C ,  9-N ) :   1.0434 B(  8-N , 13-H ) :   0.8031
B(  8-N , 14-H ) :   1.0960 B(  9-N , 10-H ) :   0.9642 B(  9-N , 11-H ) :   1.0401
B( 12-H , 26-O ) :  -0.1462 B( 17-C , 23-C ) :   0.8856 B( 17-C , 24-H ) :   0.9432
B( 17-C , 25-H ) :   0.9432 B( 20-C , 23-C ) :   0.2692 B( 20-C , 29-H ) :   0.8957
B( 20-C , 30-H ) :   0.9173 B( 23-C , 27-H ) :   1.0523 B( 23-C , 28-H ) :   0.8777
B( 23-C , 29-H ) :  -0.1094 B( 23-C , 30-H ) :  -0.1187

Dispersion correction           -0.075566865
FINAL SINGLE POINT ENERGY     -1065.238371027390

DIPOLE MOMENT
-------------
                                X             Y             Z
Electronic contribution:      2.18382      -4.97117     -14.32791
Nuclear contribution   :      0.44641       3.59123      19.13564
                        -----------------------------------------
Total Dipole Moment    :      2.63023      -1.37994       4.80773
                        -----------------------------------------
Magnitude (a.u.)       :      5.65125
Magnitude (Debye)      :     14.36434

Rotational constants in cm-1:     0.029186     0.014646     0.011115
Rotational constants in MHz :   874.975540   439.070287   333.231642

                             ****ORCA TERMINATED NORMALLY****
TOTAL RUN TIME: 0 days 0 hours 1 minutes 31 seconds 14 msec
