                         Program Version 5.0.0 -  RELEASE  -
|  1> !BLYP D3BJ RIJCOSX def2-TZVPD def2/J TightSCF
|  2> *xyz 0 1
|  3> C          0.61188        1.65763       -4.50029
|  4> C          1.69499        1.54179       -5.57045
|  5> H          2.69733        1.73466       -5.18400
|  6> H          1.50666        2.27224       -6.35808
|  7> S          1.78029       -0.03313       -6.42874
|  8> F          2.56929        0.21366       -7.60736
|  9> O          0.41688       -0.46297       -6.61859
| 10> O          2.50513       -0.93326       -5.48257
| 11> H         -0.34424        1.45871       -4.93752
| 12> H          0.61845        2.64655       -4.09174
| 13> H          0.80247        0.94882       -3.72173
| 14> *
| 15> %MaxCore 64000
| 16>
| 17> %pal nprocs 4
| 18> end
| 19>
| 20> %scf
| 21>   MaxIter 150
| 22> end
| 23>
| 24>
| 25>                          ****END OF INPUT****

CARTESIAN COORDINATES (ANGSTROEM)
---------------------------------
  C      0.611880    1.657630   -4.500290
  C      1.694990    1.541790   -5.570450
  H      2.697330    1.734660   -5.184000
  H      1.506660    2.272240   -6.358080
  S      1.780290   -0.033130   -6.428740
  F      2.569290    0.213660   -7.607360
  O      0.416880   -0.462970   -6.618590
  O      2.505130   -0.933260   -5.482570
  H     -0.344240    1.458710   -4.937520
  H      0.618450    2.646550   -4.091740
  H      0.802470    0.948820   -3.721730

 Total Charge           Charge          ....    0
 Multiplicity           Mult            ....    1
 Number of Electrons    NEL             ....   58
 Basis Dimension        Dim             ....  285

ORBITAL ENERGIES
----------------

  NO   OCC          E(Eh)            E(eV)
   0   2.0000     -88.336406     -2403.7558
   1   2.0000     -24.402226      -664.0183
   2   2.0000     -18.786063      -511.1948
   3   2.0000     -18.767795      -510.6977
   4   2.0000      -9.963578      -271.1228
   5   2.0000      -9.922199      -269.9968
   6   2.0000      -7.868092      -214.1017
   7   2.0000      -5.900223      -160.5532
   8   2.0000      -5.893638      -160.3740
   9   2.0000      -5.893414      -160.3680
  10   2.0000      -1.273342       -34.6494
  11   2.0000      -1.006810       -27.3967
  12   2.0000      -0.907315       -24.6893
  13   2.0000      -0.742360       -20.2006
  14   2.0000      -0.664587       -18.0843
  15   2.0000      -0.607255       -16.5242
  16   2.0000      -0.520850       -14.1730
  17   2.0000      -0.518371       -14.1056
  18   2.0000      -0.493125       -13.4186
  19   2.0000      -0.440594       -11.9892
  20   2.0000      -0.425294       -11.5728
  21   2.0000      -0.387685       -10.5494
  22   2.0000      -0.381162       -10.3719
  23   2.0000      -0.361180        -9.8282
  24   2.0000      -0.343973        -9.3600
  25   2.0000      -0.331577        -9.0227
  26   2.0000      -0.288363        -7.8468
  27   2.0000      -0.269779        -7.3411
  28   2.0000      -0.252978        -6.8839
  29   0.0000      -0.030569        -0.8318
  30   0.0000      -0.012379        -0.3368
  31   0.0000       0.006592         0.1794
  32   0.0000       0.013064         0.3555
  33   0.0000       0.022272         0.6060

MULLIKEN ATOMIC CHARGES
-----------------------
   0 C :   -1.205145
   1 C :   -0.371382
   2 H :    0.314979
   3 H :    0.326814
   4 S :    1.179933
   5 F :   -0.118844
   6 O :   -0.554566
   7 O :   -0.597056
   8 H :    0.337539
   9 H :    0.338995
  10 H :    0.348733
Sum of atomic charges:   -0.0000000

LOEWDIN ATOMIC CHARGES
----------------------
   0 C :   -0.093539
   1 C :   -0.288519
   2 H :    0.098457
   3 H :    0.091338
   4 S :    0.563919
   5 F :   -0.041109
   6 O :   -0.253576
   7 O :   -0.293141
   8 H :    0.068570
   9 H :    0.072144
  10 H :    0.075457

  Mayer bond orders larger than 0.100000
B(  0-C ,  1-C ) :   0.6652 B(  0-C ,  8-H ) :   0.9479 B(  0-C ,  9-H ) :   0.9119
B(  0-C , 10-H ) :   0.9309 B(  1-C ,  2-H ) :   0.9123 B(  1-C ,  3-H ) :   0.8758
B(  1-C ,  4-S ) :   0.8745 B(  1-C ,  6-O ) :   0.1006 B(  1-C ,  7-O ) :   0.1046
B(  4-S ,  5-F ) :   1.0165 B(  4-S ,  6-O ) :   1.6681 B(  4-S ,  7-O ) :   1.6193
B(  6-O ,  7-O ) :   0.1196

Dispersion correction           -0.019568230
FINAL SINGLE POINT ENERGY      -727.771303118551

DIPOLE MOMENT
-------------
                                X             Y             Z
Electronic contribution:      3.85083      -5.70523      -7.52624
Nuclear contribution   :     -3.66946       7.33549       7.42434
                        -----------------------------------------
Total Dipole Moment    :      0.18137       1.63026      -0.10189
                        -----------------------------------------
Magnitude (a.u.)       :      1.64348
Magnitude (Debye)      :      4.17739

Rotational constants in cm-1:     0.158379     0.080294     0.077843
Rotational constants in MHz :  4748.076444  2407.152850  2333.668303

                             ****ORCA TERMINATED NORMALLY****
TOTAL RUN TIME: 0 days 0 hours 0 minutes 10 seconds 866 msec
