                         Program Version 5.0.0 -  RELEASE  -
|  1> !BLYP D3BJ RIJCOSX def2-TZVPD def2/J TightSCF
|  2> *xyz 0 1
|  3> C          1.96337       -1.74915       -1.89689
|  4> C          2.73849       -2.01517       -3.09711
|  5> C          4.04974       -2.15472       -3.15204
|  6> N          4.65821       -1.98629       -4.31866
|  7> N          4.76423       -2.45444       -2.05049
|  8> H          4.28736       -2.77626       -1.21750
|  9> H          5.75082       -2.65835       -2.12599
| 10> H          2.34518       -1.69027       -3.97145
| 11> H          4.10900       -1.59268       -5.07176
| 12> H          5.64910       -2.15646       -4.42724
| 13> C          2.08852       -0.30091       -1.41520
| 14> H          2.23127       -2.45162       -1.10264
| 15> H          0.93025       -1.97780       -2.15544
| 16> H          1.82118        0.36368       -2.21003
| 17> H          3.09792       -0.11068       -1.11551
| 18> H          1.43391       -0.14382       -0.58352
| 19> *
| 20> %MaxCore 64000
| 21>
| 22> %pal nprocs 4
| 23> end
| 24>
| 25> %scf
| 26>   MaxIter 150
| 27> end
| 28>
| 29>
| 30>                          ****END OF INPUT****

CARTESIAN COORDINATES (ANGSTROEM)
---------------------------------
  C      1.963370   -1.749150   -1.896890
  C      2.738490   -2.015170   -3.097110
  C      4.049740   -2.154720   -3.152040
  N      4.658210   -1.986290   -4.318660
  N      4.764230   -2.454440   -2.050490
  H      4.287360   -2.776260   -1.217500
  H      5.750820   -2.658350   -2.125990
  H      2.345180   -1.690270   -3.971450
  H      4.109000   -1.592680   -5.071760
  H      5.649100   -2.156460   -4.427240
  C      2.088520   -0.300910   -1.415200
  H      2.231270   -2.451620   -1.102640
  H      0.930250   -1.977800   -2.155440
  H      1.821180    0.363680   -2.210030
  H      3.097920   -0.110680   -1.115510
  H      1.433910   -0.143820   -0.583520

 Total Charge           Charge          ....    0
 Multiplicity           Mult            ....    1
 Number of Electrons    NEL             ....   48
 Basis Dimension        Dim             ....  312

ORBITAL ENERGIES
----------------

  NO   OCC          E(Eh)            E(eV)
   0   2.0000     -14.008257      -381.1840
   1   2.0000     -14.005890      -381.1197
   2   2.0000      -9.942429      -270.5472
   3   2.0000      -9.878360      -268.8039
   4   2.0000      -9.867177      -268.4995
   5   2.0000      -9.825608      -267.3684
   6   2.0000      -0.870730       -23.6938
   7   2.0000      -0.789102       -21.4725
   8   2.0000      -0.692910       -18.8551
   9   2.0000      -0.620161       -16.8754
  10   2.0000      -0.551097       -14.9961
  11   2.0000      -0.518986       -14.1223
  12   2.0000      -0.486417       -13.2361
  13   2.0000      -0.454317       -12.3626
  14   2.0000      -0.423186       -11.5155
  15   2.0000      -0.387193       -10.5361
  16   2.0000      -0.367536       -10.0012
  17   2.0000      -0.335044        -9.1170
  18   2.0000      -0.331458        -9.0194
  19   2.0000      -0.308393        -8.3918
  20   2.0000      -0.283375        -7.7110
  21   2.0000      -0.274750        -7.4763
  22   2.0000      -0.220014        -5.9869
  23   2.0000      -0.126273        -3.4361
  24   0.0000      -0.022123        -0.6020
  25   0.0000       0.005638         0.1534
  26   0.0000       0.012707         0.3458
  27   0.0000       0.023742         0.6460
  28   0.0000       0.039533         1.0757

MULLIKEN ATOMIC CHARGES
-----------------------
   0 C :   -0.349471
   1 C :   -0.389559
   2 C :    0.334916
   3 N :   -0.309555
   4 N :   -0.327814
   5 H :    0.148009
   6 H :    0.098638
   7 H :    0.259071
   8 H :    0.133596
   9 H :    0.111311
  10 C :   -1.178700
  11 H :    0.304277
  12 H :    0.201081
  13 H :    0.331555
  14 H :    0.312300
  15 H :    0.320346
Sum of atomic charges:    0.0000000

LOEWDIN ATOMIC CHARGES
----------------------
   0 C :   -0.277640
   1 C :   -0.150218
   2 C :   -0.550771
   3 N :    0.123267
   4 N :    0.143168
   5 H :    0.096071
   6 H :    0.090308
   7 H :    0.062729
   8 H :    0.105305
   9 H :    0.093449
  10 C :   -0.094371
  11 H :    0.089956
  12 H :    0.096792
  13 H :    0.062023
  14 H :    0.057153
  15 H :    0.052779

  Mayer bond orders larger than 0.100000
B(  0-C ,  1-C ) :   0.6528 B(  0-C , 10-C ) :   0.4813 B(  0-C , 11-H ) :   0.9405
B(  0-C , 12-H ) :   1.1144 B(  1-C ,  2-C ) :   1.3541 B(  1-C ,  7-H ) :   1.0987
B(  2-C ,  3-N ) :   1.0437 B(  2-C ,  4-N ) :   0.9520 B(  2-C ,  7-H ) :  -0.2079
B(  3-N ,  8-H ) :   1.0123 B(  3-N ,  9-H ) :   1.0734 B(  4-N ,  5-H ) :   0.9840
B(  4-N ,  6-H ) :   1.0903 B( 10-C , 13-H ) :   0.9741 B( 10-C , 14-H ) :   0.9643
B( 10-C , 15-H ) :   0.9482

Dispersion correction           -0.026191687
FINAL SINGLE POINT ENERGY      -267.911923690276

DIPOLE MOMENT
-------------
                                X             Y             Z
Electronic contribution:      3.27984      -2.43938      -2.53570
Nuclear contribution   :     -2.31778       2.31977       2.35294
                        -----------------------------------------
Total Dipole Moment    :      0.96207      -0.11961      -0.18276
                        -----------------------------------------
Magnitude (a.u.)       :      0.98655
Magnitude (Debye)      :      2.50761

Rotational constants in cm-1:     0.219415     0.075373     0.066689
Rotational constants in MHz :  6577.897266  2259.621393  1999.290981

                             ****ORCA TERMINATED NORMALLY****
TOTAL RUN TIME: 0 days 0 hours 0 minutes 15 seconds 56 msec
