                         Program Version 5.0.0 -  RELEASE  -
|  1> !BLYP D3BJ RIJCOSX def2-TZVPD def2/J TightSCF
|  2> *xyz 0 1
|  3> C          0.61188        1.65763       -4.50029
|  4> C          1.69499        1.54179       -5.57045
|  5> H          2.69733        1.73466       -5.18400
|  6> H          1.50666        2.27224       -6.35808
|  7> S          1.78029       -0.03313       -6.42874
|  8> O          2.56929        0.21366       -7.60736
|  9> F          0.41688       -0.46297       -6.61859
| 10> O          2.50513       -0.93326       -5.48257
| 11> H         -0.34424        1.45871       -4.93752
| 12> H          0.61845        2.64655       -4.09174
| 13> H          0.80247        0.94882       -3.72173
| 14> *
| 15> %MaxCore 64000
| 16>
| 17> %pal nprocs 4
| 18> end
| 19>
| 20> %scf
| 21>   MaxIter 150
| 22> end
| 23>
| 24>
| 25>                          ****END OF INPUT****

CARTESIAN COORDINATES (ANGSTROEM)
---------------------------------
  C      0.611880    1.657630   -4.500290
  C      1.694990    1.541790   -5.570450
  H      2.697330    1.734660   -5.184000
  H      1.506660    2.272240   -6.358080
  S      1.780290   -0.033130   -6.428740
  O      2.569290    0.213660   -7.607360
  F      0.416880   -0.462970   -6.618590
  O      2.505130   -0.933260   -5.482570
  H     -0.344240    1.458710   -4.937520
  H      0.618450    2.646550   -4.091740
  H      0.802470    0.948820   -3.721730

 Total Charge           Charge          ....    0
 Multiplicity           Mult            ....    1
 Number of Electrons    NEL             ....   58
 Basis Dimension        Dim             ....  285

ORBITAL ENERGIES
----------------

  NO   OCC          E(Eh)            E(eV)
   0   2.0000     -88.336245     -2403.7514
   1   2.0000     -24.401983      -664.0117
   2   2.0000     -18.785717      -511.1854
   3   2.0000     -18.768071      -510.7052
   4   2.0000      -9.963370      -271.1171
   5   2.0000      -9.927060      -270.1290
   6   2.0000      -7.867951      -214.0978
   7   2.0000      -5.900263      -160.5543
   8   2.0000      -5.893431      -160.3684
   9   2.0000      -5.893172      -160.3614
  10   2.0000      -1.272158       -34.6172
  11   2.0000      -1.007760       -27.4226
  12   2.0000      -0.907186       -24.6858
  13   2.0000      -0.745867       -20.2961
  14   2.0000      -0.661307       -17.9951
  15   2.0000      -0.611744       -16.6464
  16   2.0000      -0.531244       -14.4559
  17   2.0000      -0.517149       -14.0723
  18   2.0000      -0.484691       -13.1891
  19   2.0000      -0.441971       -12.0266
  20   2.0000      -0.420804       -11.4507
  21   2.0000      -0.397347       -10.8124
  22   2.0000      -0.385060       -10.4780
  23   2.0000      -0.364861        -9.9284
  24   2.0000      -0.349686        -9.5154
  25   2.0000      -0.330454        -8.9921
  26   2.0000      -0.287938        -7.8352
  27   2.0000      -0.269454        -7.3322
  28   2.0000      -0.253171        -6.8891
  29   0.0000      -0.036943        -1.0053
  30   0.0000      -0.004810        -0.1309
  31   0.0000       0.006972         0.1897
  32   0.0000       0.010644         0.2896
  33   0.0000       0.019757         0.5376

MULLIKEN ATOMIC CHARGES
-----------------------
   0 C :   -1.230878
   1 C :   -0.322411
   2 H :    0.298367
   3 H :    0.322117
   4 S :    1.172838
   5 O :   -0.538501
   6 F :   -0.141775
   7 O :   -0.598156
   8 H :    0.348761
   9 H :    0.334761
  10 H :    0.354877
Sum of atomic charges:   -0.0000000

LOEWDIN ATOMIC CHARGES
----------------------
   0 C :   -0.104617
   1 C :   -0.279841
   2 H :    0.108409
   3 H :    0.094549
   4 S :    0.561802
   5 O :   -0.254924
   6 F :   -0.039924
   7 O :   -0.292089
   8 H :    0.063771
   9 H :    0.070773
  10 H :    0.072091

  Mayer bond orders larger than 0.100000
B(  0-C ,  1-C ) :   0.5868 B(  0-C ,  8-H ) :   0.9191 B(  0-C ,  9-H ) :   0.9341
B(  0-C , 10-H ) :   0.9471 B(  1-C ,  2-H ) :   0.9270 B(  1-C ,  3-H ) :   0.9130
B(  1-C ,  4-S ) :   0.8695 B(  1-C ,  5-O ) :   0.1236 B(  4-S ,  5-O ) :   1.6764
B(  4-S ,  6-F ) :   1.0212 B(  4-S ,  7-O ) :   1.6244 B(  5-O ,  7-O ) :   0.1104

Dispersion correction           -0.019446236
FINAL SINGLE POINT ENERGY      -727.770980751346

DIPOLE MOMENT
-------------
                                X             Y             Z
Electronic contribution:      0.29084      -6.81430      -5.86790
Nuclear contribution   :     -1.42658       8.04056       6.39401
                        -----------------------------------------
Total Dipole Moment    :     -1.13574       1.22626       0.52611
                        -----------------------------------------
Magnitude (a.u.)       :      1.75226
Magnitude (Debye)      :      4.45390

Rotational constants in cm-1:     0.153659     0.082363     0.078978
Rotational constants in MHz :  4606.587369  2469.179541  2367.702074

                             ****ORCA TERMINATED NORMALLY****
TOTAL RUN TIME: 0 days 0 hours 0 minutes 10 seconds 827 msec
