                         Program Version 5.0.0 -  RELEASE  -
|  1> !BLYP D3BJ RIJCOSX def2-TZVPD def2/J TightSCF
|  2> *xyz 0 1
|  3> C          1.96337       -1.74915       -1.89689
|  4> N          2.73849       -2.01517       -3.09711
|  5> C          4.04974       -2.15472       -3.15204
|  6> C          4.65821       -1.98629       -4.31866
|  7> N          4.76423       -2.45444       -2.05049
|  8> H          4.28736       -2.77626       -1.21750
|  9> H          5.75082       -2.65835       -2.12599
| 10> H          2.34518       -1.69027       -3.97145
| 11> H          4.10900       -1.59268       -5.07176
| 12> H          5.64910       -2.15646       -4.42724
| 13> C          2.08852       -0.30091       -1.41520
| 14> H          2.23127       -2.45162       -1.10264
| 15> H          0.93025       -1.97780       -2.15544
| 16> H          1.82118        0.36368       -2.21003
| 17> H          3.09792       -0.11068       -1.11551
| 18> H          1.43391       -0.14382       -0.58352
| 19> *
| 20> %MaxCore 64000
| 21>
| 22> %pal nprocs 4
| 23> end
| 24>
| 25> %scf
| 26>   MaxIter 150
| 27> end
| 28>
| 29>
| 30>                          ****END OF INPUT****

CARTESIAN COORDINATES (ANGSTROEM)
---------------------------------
  C      1.963370   -1.749150   -1.896890
  N      2.738490   -2.015170   -3.097110
  C      4.049740   -2.154720   -3.152040
  C      4.658210   -1.986290   -4.318660
  N      4.764230   -2.454440   -2.050490
  H      4.287360   -2.776260   -1.217500
  H      5.750820   -2.658350   -2.125990
  H      2.345180   -1.690270   -3.971450
  H      4.109000   -1.592680   -5.071760
  H      5.649100   -2.156460   -4.427240
  C      2.088520   -0.300910   -1.415200
  H      2.231270   -2.451620   -1.102640
  H      0.930250   -1.977800   -2.155440
  H      1.821180    0.363680   -2.210030
  H      3.097920   -0.110680   -1.115510
  H      1.433910   -0.143820   -0.583520

 Total Charge           Charge          ....    0
 Multiplicity           Mult            ....    1
 Number of Electrons    NEL             ....   48
 Basis Dimension        Dim             ....  312

ORBITAL ENERGIES
----------------

  NO   OCC          E(Eh)            E(eV)
   0   2.0000     -14.006172      -381.1273
   1   2.0000     -14.004989      -381.0951
   2   2.0000      -9.943158      -270.5671
   3   2.0000      -9.943058      -270.5644
   4   2.0000      -9.892112      -269.1781
   5   2.0000      -9.817767      -267.1550
   6   2.0000      -0.878290       -23.8995
   7   2.0000      -0.799824       -21.7643
   8   2.0000      -0.692997       -18.8574
   9   2.0000      -0.627069       -17.0634
  10   2.0000      -0.562934       -15.3182
  11   2.0000      -0.537758       -14.6331
  12   2.0000      -0.479264       -13.0414
  13   2.0000      -0.441679       -12.0187
  14   2.0000      -0.427956       -11.6453
  15   2.0000      -0.387253       -10.5377
  16   2.0000      -0.380423       -10.3518
  17   2.0000      -0.352245        -9.5851
  18   2.0000      -0.335189        -9.1210
  19   2.0000      -0.328129        -8.9288
  20   2.0000      -0.313876        -8.5410
  21   2.0000      -0.310076        -8.4376
  22   2.0000      -0.209947        -5.7129
  23   2.0000      -0.128719        -3.5026
  24   0.0000      -0.019864        -0.5405
  25   0.0000       0.005370         0.1461
  26   0.0000       0.011319         0.3080
  27   0.0000       0.015435         0.4200
  28   0.0000       0.042695         1.1618

MULLIKEN ATOMIC CHARGES
-----------------------
   0 C :   -0.372962
   1 N :   -0.172908
   2 C :    0.812438
   3 C :   -1.269888
   4 N :   -0.325912
   5 H :    0.132265
   6 H :    0.120325
   7 H :    0.124044
   8 H :    0.273444
   9 H :    0.270959
  10 C :   -1.130291
  11 H :    0.267456
  12 H :    0.290131
  13 H :    0.290799
  14 H :    0.325672
  15 H :    0.364428
Sum of atomic charges:   -0.0000000

LOEWDIN ATOMIC CHARGES
----------------------
   0 C :   -0.237548
   1 N :    0.022120
   2 C :   -0.573739
   3 C :    0.007467
   4 N :    0.137608
   5 H :    0.084331
   6 H :    0.103254
   7 H :    0.137388
   8 H :    0.004163
   9 H :    0.002597
  10 C :   -0.075451
  11 H :    0.099376
  12 H :    0.106989
  13 H :    0.063523
  14 H :    0.059529
  15 H :    0.058393

  Mayer bond orders larger than 0.100000
B(  0-C ,  1-N ) :   0.8207 B(  0-C , 10-C ) :   0.5827 B(  0-C , 11-H ) :   0.9045
B(  0-C , 12-H ) :   0.9327 B(  1-N ,  2-C ) :   1.0888 B(  1-N ,  7-H ) :   0.9564
B(  2-C ,  3-C ) :   0.9591 B(  2-C ,  4-N ) :   0.9108 B(  2-C ,  9-H ) :  -0.1084
B(  3-C ,  8-H ) :   0.9898 B(  3-C ,  9-H ) :   1.0994 B(  4-N ,  5-H ) :   1.0157
B(  4-N ,  6-H ) :   1.0439 B( 10-C , 13-H ) :   0.9916 B( 10-C , 14-H ) :   0.9644
B( 10-C , 15-H ) :   0.9374

Dispersion correction           -0.025905936
FINAL SINGLE POINT ENERGY      -267.907888548669

DIPOLE MOMENT
-------------
                                X             Y             Z
Electronic contribution:      1.40742      -2.34021      -1.22466
Nuclear contribution   :     -1.91052       2.32590       2.09379
                        -----------------------------------------
Total Dipole Moment    :     -0.50310      -0.01432       0.86913
                        -----------------------------------------
Magnitude (a.u.)       :      1.00434
Magnitude (Debye)      :      2.55283

Rotational constants in cm-1:     0.219448     0.077923     0.068804
Rotational constants in MHz :  6578.886179  2336.083179  2062.700476

                             ****ORCA TERMINATED NORMALLY****
TOTAL RUN TIME: 0 days 0 hours 0 minutes 15 seconds 122 msec
