                         Program Version 5.0.0 -  RELEASE  -
|  1> !BLYP D3BJ RIJCOSX def2-TZVPD def2/J TightSCF
|  2> *xyz 0 1
|  3> C          0.61188        1.65763       -4.50029
|  4> C          1.69499        1.54179       -5.57045
|  5> H          2.69733        1.73466       -5.18400
|  6> H          1.50666        2.27224       -6.35808
|  7> S          1.78029       -0.03313       -6.42874
|  8> O          2.56929        0.21366       -7.60736
|  9> O          0.41688       -0.46297       -6.61859
| 10> F          2.50513       -0.93326       -5.48257
| 11> H         -0.34424        1.45871       -4.93752
| 12> H          0.61845        2.64655       -4.09174
| 13> H          0.80247        0.94882       -3.72173
| 14> *
| 15> %MaxCore 64000
| 16>
| 17> %pal nprocs 4
| 18> end
| 19>
| 20> %scf
| 21>   MaxIter 150
| 22> end
| 23>
| 24>
| 25>                          ****END OF INPUT****

CARTESIAN COORDINATES (ANGSTROEM)
---------------------------------
  C      0.611880    1.657630   -4.500290
  C      1.694990    1.541790   -5.570450
  H      2.697330    1.734660   -5.184000
  H      1.506660    2.272240   -6.358080
  S      1.780290   -0.033130   -6.428740
  O      2.569290    0.213660   -7.607360
  O      0.416880   -0.462970   -6.618590
  F      2.505130   -0.933260   -5.482570
  H     -0.344240    1.458710   -4.937520
  H      0.618450    2.646550   -4.091740
  H      0.802470    0.948820   -3.721730

 Total Charge           Charge          ....    0
 Multiplicity           Mult            ....    1
 Number of Electrons    NEL             ....   58
 Basis Dimension        Dim             ....  285

ORBITAL ENERGIES
----------------

  NO   OCC          E(Eh)            E(eV)
   0   2.0000     -88.333322     -2403.6719
   1   2.0000     -24.375039      -663.2785
   2   2.0000     -18.785894      -511.1902
   3   2.0000     -18.785074      -511.1678
   4   2.0000      -9.962298      -271.0879
   5   2.0000      -9.922309      -269.9998
   6   2.0000      -7.865135      -214.0212
   7   2.0000      -5.897449      -160.4777
   8   2.0000      -5.890747      -160.2954
   9   2.0000      -5.890364      -160.2849
  10   2.0000      -1.229796       -33.4644
  11   2.0000      -1.018804       -27.7231
  12   2.0000      -0.933772       -25.4092
  13   2.0000      -0.742507       -20.2046
  14   2.0000      -0.647064       -17.6075
  15   2.0000      -0.599948       -16.3254
  16   2.0000      -0.508800       -13.8452
  17   2.0000      -0.487881       -13.2759
  18   2.0000      -0.483042       -13.1442
  19   2.0000      -0.439333       -11.9549
  20   2.0000      -0.421511       -11.4699
  21   2.0000      -0.400932       -10.9099
  22   2.0000      -0.382275       -10.4022
  23   2.0000      -0.357881        -9.7384
  24   2.0000      -0.354125        -9.6362
  25   2.0000      -0.333570        -9.0769
  26   2.0000      -0.292114        -7.9488
  27   2.0000      -0.289162        -7.8685
  28   2.0000      -0.273428        -7.4403
  29   0.0000      -0.031529        -0.8580
  30   0.0000      -0.003404        -0.0926
  31   0.0000       0.007002         0.1905
  32   0.0000       0.010433         0.2839
  33   0.0000       0.021213         0.5772

MULLIKEN ATOMIC CHARGES
-----------------------
   0 C :   -1.177584
   1 C :   -0.373681
   2 H :    0.329410
   3 H :    0.308778
   4 S :    1.184917
   5 O :   -0.548037
   6 O :   -0.557126
   7 F :   -0.186044
   8 H :    0.333815
   9 H :    0.340208
  10 H :    0.345343
Sum of atomic charges:   -0.0000000

LOEWDIN ATOMIC CHARGES
----------------------
   0 C :   -0.103604
   1 C :   -0.280131
   2 H :    0.097557
   3 H :    0.103015
   4 S :    0.565000
   5 O :   -0.256388
   6 O :   -0.251609
   7 F :   -0.081118
   8 H :    0.067555
   9 H :    0.070144
  10 H :    0.069579

  Mayer bond orders larger than 0.100000
B(  0-C ,  1-C ) :   0.6287 B(  0-C ,  8-H ) :   0.9733 B(  0-C ,  9-H ) :   0.9238
B(  0-C , 10-H ) :   0.9166 B(  1-C ,  2-H ) :   0.8923 B(  1-C ,  3-H ) :   0.9209
B(  1-C ,  4-S ) :   0.8769 B(  1-C ,  5-O ) :   0.1307 B(  4-S ,  5-O ) :   1.6638
B(  4-S ,  6-O ) :   1.6664 B(  4-S ,  7-F ) :   0.9612 B(  5-O ,  6-O ) :   0.1144

Dispersion correction           -0.019503040
FINAL SINGLE POINT ENERGY      -727.793780464924

DIPOLE MOMENT
-------------
                                X             Y             Z
Electronic contribution:      3.76489      -7.63154      -3.96983
Nuclear contribution   :     -3.60260       8.53062       5.21025
                        -----------------------------------------
Total Dipole Moment    :      0.16228       0.89908       1.24042
                        -----------------------------------------
Magnitude (a.u.)       :      1.54056
Magnitude (Debye)      :      3.91579

Rotational constants in cm-1:     0.154011     0.080858     0.079602
Rotational constants in MHz :  4617.134198  2424.070332  2386.404775

                             ****ORCA TERMINATED NORMALLY****
TOTAL RUN TIME: 0 days 0 hours 0 minutes 10 seconds 558 msec
