                         Program Version 5.0.0 -  RELEASE  -
|  1> !BLYP D3BJ RIJCOSX def2-TZVPD def2/J TightSCF
|  2> *xyz 0 1
|  3> C          1.96337       -1.74915       -1.89689
|  4> N          2.73849       -2.01517       -3.09711
|  5> C          4.04974       -2.15472       -3.15204
|  6> N          4.65821       -1.98629       -4.31866
|  7> C          4.76423       -2.45444       -2.05049
|  8> H          4.28736       -2.77626       -1.21750
|  9> H          5.75082       -2.65835       -2.12599
| 10> H          2.34518       -1.69027       -3.97145
| 11> H          4.10900       -1.59268       -5.07176
| 12> H          5.64910       -2.15646       -4.42724
| 13> C          2.08852       -0.30091       -1.41520
| 14> H          2.23127       -2.45162       -1.10264
| 15> H          0.93025       -1.97780       -2.15544
| 16> H          1.82118        0.36368       -2.21003
| 17> H          3.09792       -0.11068       -1.11551
| 18> H          1.43391       -0.14382       -0.58352
| 19> *
| 20> %MaxCore 64000
| 21>
| 22> %pal nprocs 4
| 23> end
| 24>
| 25> %scf
| 26>   MaxIter 150
| 27> end
| 28>
| 29>
| 30>                          ****END OF INPUT****

CARTESIAN COORDINATES (ANGSTROEM)
---------------------------------
  C      1.963370   -1.749150   -1.896890
  N      2.738490   -2.015170   -3.097110
  C      4.049740   -2.154720   -3.152040
  N      4.658210   -1.986290   -4.318660
  C      4.764230   -2.454440   -2.050490
  H      4.287360   -2.776260   -1.217500
  H      5.750820   -2.658350   -2.125990
  H      2.345180   -1.690270   -3.971450
  H      4.109000   -1.592680   -5.071760
  H      5.649100   -2.156460   -4.427240
  C      2.088520   -0.300910   -1.415200
  H      2.231270   -2.451620   -1.102640
  H      0.930250   -1.977800   -2.155440
  H      1.821180    0.363680   -2.210030
  H      3.097920   -0.110680   -1.115510
  H      1.433910   -0.143820   -0.583520

 Total Charge           Charge          ....    0
 Multiplicity           Mult            ....    1
 Number of Electrons    NEL             ....   48
 Basis Dimension        Dim             ....  312

ORBITAL ENERGIES
----------------

  NO   OCC          E(Eh)            E(eV)
   0   2.0000     -14.009135      -381.2079
   1   2.0000     -14.008094      -381.1796
   2   2.0000      -9.944578      -270.6057
   3   2.0000      -9.937230      -270.4058
   4   2.0000      -9.885824      -269.0069
   5   2.0000      -9.818147      -267.1654
   6   2.0000      -0.883850       -24.0508
   7   2.0000      -0.803415       -21.8620
   8   2.0000      -0.677653       -18.4399
   9   2.0000      -0.632025       -17.1983
  10   2.0000      -0.575930       -15.6718
  11   2.0000      -0.502494       -13.6735
  12   2.0000      -0.489991       -13.3333
  13   2.0000      -0.469418       -12.7735
  14   2.0000      -0.415896       -11.3171
  15   2.0000      -0.388712       -10.5774
  16   2.0000      -0.366209        -9.9651
  17   2.0000      -0.349102        -9.4995
  18   2.0000      -0.333913        -9.0862
  19   2.0000      -0.321346        -8.7443
  20   2.0000      -0.314444        -8.5565
  21   2.0000      -0.302978        -8.2444
  22   2.0000      -0.207723        -5.6524
  23   2.0000      -0.130633        -3.5547
  24   0.0000      -0.021330        -0.5804
  25   0.0000       0.003272         0.0890
  26   0.0000       0.014881         0.4049
  27   0.0000       0.018172         0.4945
  28   0.0000       0.044165         1.2018

MULLIKEN ATOMIC CHARGES
-----------------------
   0 C :   -0.321420
   1 N :   -0.206317
   2 C :    0.770246
   3 N :   -0.278386
   4 C :   -1.293331
   5 H :    0.258963
   6 H :    0.320114
   7 H :    0.121638
   8 H :    0.117464
   9 H :    0.126509
  10 C :   -1.186430
  11 H :    0.264405
  12 H :    0.296242
  13 H :    0.302246
  14 H :    0.345064
  15 H :    0.362994
Sum of atomic charges:    0.0000000

LOEWDIN ATOMIC CHARGES
----------------------
   0 C :   -0.231853
   1 N :    0.019625
   2 C :   -0.575974
   3 N :    0.129158
   4 C :    0.015000
   5 H :   -0.002697
   6 H :    0.000448
   7 H :    0.128563
   8 H :    0.092790
   9 H :    0.108045
  10 C :   -0.074419
  11 H :    0.105543
  12 H :    0.106825
  13 H :    0.060276
  14 H :    0.058712
  15 H :    0.059959

  Mayer bond orders larger than 0.100000
B(  0-C ,  1-N ) :   0.7783 B(  0-C , 10-C ) :   0.5755 B(  0-C , 11-H ) :   0.8976
B(  0-C , 12-H ) :   0.8898 B(  1-N ,  2-C ) :   1.0044 B(  1-N ,  7-H ) :   1.0173
B(  2-C ,  3-N ) :   0.9019 B(  2-C ,  4-C ) :   1.1307 B(  3-N ,  8-H ) :   1.0482
B(  3-N ,  9-H ) :   1.0355 B(  4-C ,  5-H ) :   0.9942 B(  4-C ,  6-H ) :   0.9949
B( 10-C , 13-H ) :   0.9709 B( 10-C , 14-H ) :   0.9768 B( 10-C , 15-H ) :   0.9173

Dispersion correction           -0.026075669
FINAL SINGLE POINT ENERGY      -267.907486929866

DIPOLE MOMENT
-------------
                                X             Y             Z
Electronic contribution:      1.34202      -1.83791      -3.39915
Nuclear contribution   :     -1.88803       2.22658       2.57497
                        -----------------------------------------
Total Dipole Moment    :     -0.54601       0.38867      -0.82417
                        -----------------------------------------
Magnitude (a.u.)       :      1.06229
Magnitude (Debye)      :      2.70012

Rotational constants in cm-1:     0.226509     0.075782     0.067928
Rotational constants in MHz :  6790.555051  2271.890226  2036.439218

                             ****ORCA TERMINATED NORMALLY****
TOTAL RUN TIME: 0 days 0 hours 0 minutes 14 seconds 987 msec
