                         Program Version 5.0.0 -  RELEASE  -
|  1> !BLYP D3BJ RIJCOSX def2-TZVPD def2/J TightSCF xyzfile
|  2>
|  3> *xyzfile 0 1 D1.xyz
|  4>
|  5> %MaxCore 64000
|  6>
|  7> %pal nprocs 4
|  8> end
|  9>
| 10> %scf
| 11>   MaxIter 150
| 12> end
| 13>
| 14>
| 15>                          ****END OF INPUT****

CARTESIAN COORDINATES (ANGSTROEM)
---------------------------------
  C      1.963365   -1.749150   -1.896887
  C      2.738490   -2.015170   -3.097113
  C      0.611877    1.657634   -4.500288
  C      1.694991    1.541794   -5.570447
  H      2.697326    1.734659   -5.183996
  H      1.506656    2.272239   -6.358076
  S      1.780287   -0.033128   -6.428739
  C      4.049736   -2.154717   -3.152044
  N      4.658206   -1.986293   -4.318655
  N      4.764231   -2.454435   -2.050491
  H      4.287363   -2.776259   -1.217496
  H      5.750825   -2.658351   -2.125988
  H      2.345176   -1.690274   -3.971447
  H      4.109004   -1.592677   -5.071760
  H      5.649095   -2.156462   -4.427237
  F      2.569287    0.213657   -7.607360
  O      0.416880   -0.462969   -6.618595
  C      2.088520   -0.300912   -1.415204
  H      2.231272   -2.451616   -1.102643
  H      0.930249   -1.977801   -2.155438
  C      0.680356    0.655418   -3.348038
  H     -0.356865    1.549231   -4.991128
  H      0.650228    2.675438   -4.096000
  C      1.968993    0.733582   -2.535654
  H      3.051356   -0.168602   -0.911868
  H      1.316501   -0.136231   -0.657252
  O      2.505129   -0.933263   -5.482570
  H      2.824195    0.624726   -3.208464
  H      2.058919    1.730331   -2.093112
  H      0.542252   -0.344731   -3.766662
  H     -0.174219    0.829692   -2.685182

 Total Charge           Charge          ....    0
 Multiplicity           Mult            ....    1
 Number of Electrons    NEL             ....  120
 Basis Dimension        Dim             ....  689

ORBITAL ENERGIES
----------------

  NO   OCC          E(Eh)            E(eV)
   0   2.0000     -88.344799     -2403.9842
   1   2.0000     -24.408991      -664.2024
   2   2.0000     -18.794134      -511.4144
   3   2.0000     -18.781267      -511.0643
   4   2.0000     -13.991199      -380.7199
   5   2.0000     -13.976701      -380.3254
   6   2.0000      -9.963906      -271.1317
   7   2.0000      -9.927331      -270.1364
   8   2.0000      -9.921207      -269.9698
   9   2.0000      -9.897278      -269.3186
  10   2.0000      -9.886458      -269.0242
  11   2.0000      -9.876419      -268.7510
  12   2.0000      -9.865643      -268.4578
  13   2.0000      -9.796404      -266.5737
  14   2.0000      -7.877032      -214.3449
  15   2.0000      -5.909208      -160.7977
  16   2.0000      -5.902664      -160.6196
  17   2.0000      -5.902165      -160.6061
  18   2.0000      -1.280677       -34.8490
  19   2.0000      -1.018054       -27.7026
  20   2.0000      -0.924615       -25.1601
  21   2.0000      -0.849583       -23.1183
  22   2.0000      -0.768271       -20.9057
  23   2.0000      -0.753791       -20.5117
  24   2.0000      -0.710993       -19.3471
  25   2.0000      -0.678198       -18.4547
  26   2.0000      -0.650735       -17.7074
  27   2.0000      -0.618784       -16.8380
  28   2.0000      -0.583070       -15.8661
  29   2.0000      -0.551995       -15.0205
  30   2.0000      -0.534109       -14.5338
  31   2.0000      -0.522622       -14.2213
  32   2.0000      -0.518435       -14.1073
  33   2.0000      -0.490308       -13.3420
  34   2.0000      -0.487760       -13.2726
  35   2.0000      -0.468830       -12.7575
  36   2.0000      -0.443063       -12.0564
  37   2.0000      -0.437082       -11.8936
  38   2.0000      -0.429655       -11.6915
  39   2.0000      -0.413038       -11.2393
  40   2.0000      -0.408975       -11.1288
  41   2.0000      -0.392299       -10.6750
  42   2.0000      -0.382256       -10.4017
  43   2.0000      -0.374934       -10.2025
  44   2.0000      -0.363231        -9.8840
  45   2.0000      -0.347365        -9.4523
  46   2.0000      -0.336223        -9.1491
  47   2.0000      -0.330396        -8.9905
  48   2.0000      -0.319933        -8.7058
  49   2.0000      -0.311493        -8.4762
  50   2.0000      -0.300549        -8.1783
  51   2.0000      -0.291902        -7.9430
  52   2.0000      -0.284899        -7.7525
  53   2.0000      -0.279118        -7.5952
  54   2.0000      -0.271462        -7.3868
  55   2.0000      -0.269195        -7.3252
  56   2.0000      -0.256721        -6.9857
  57   2.0000      -0.243361        -6.6222
  58   2.0000      -0.199568        -5.4305
  59   2.0000      -0.106345        -2.8938
  60   0.0000      -0.033671        -0.9162
  61   0.0000      -0.016823        -0.4578
  62   0.0000      -0.009958        -0.2710
  63   0.0000       0.001075         0.0292
  64   0.0000       0.009327         0.2538

MULLIKEN ATOMIC CHARGES
-----------------------
   0 C :   -0.495555
   1 C :   -0.632461
   2 C :   -0.647130
   3 C :   -0.726049
   4 H :    0.369654
   5 H :    0.356397
   6 S :    1.084606
   7 C :   -0.287004
   8 N :   -0.304485
   9 N :   -0.314145
  10 H :    0.160629
  11 H :    0.087736
  12 H :    1.077956
  13 H :    0.333525
  14 H :    0.031209
  15 F :   -0.122480
  16 O :   -0.608950
  17 C :   -0.576143
  18 H :    0.439747
  19 H :    0.198272
  20 C :   -0.421126
  21 H :    0.252722
  22 H :    0.293627
  23 C :   -0.461489
  24 H :    0.221476
  25 H :    0.273215
  26 O :   -0.704370
  27 H :    0.276033
  28 H :    0.303904
  29 H :    0.242204
  30 H :    0.298476
Sum of atomic charges:    0.0000000

LOEWDIN ATOMIC CHARGES
----------------------
   0 C :   -0.220392
   1 C :   -0.143967
   2 C :   -0.208474
   3 C :   -0.226661
   4 H :    0.102083
   5 H :    0.097883
   6 S :    0.625772
   7 C :   -0.534155
   8 N :    0.129756
   9 N :    0.140292
  10 H :    0.092238
  11 H :    0.085962
  12 H :    0.019470
  13 H :    0.055049
  14 H :    0.091787
  15 F :   -0.030549
  16 O :   -0.228016
  17 C :   -0.190521
  18 H :    0.093200
  19 H :    0.100042
  20 C :   -0.199467
  21 H :    0.108858
  22 H :    0.118863
  23 C :   -0.204073
  24 H :    0.102855
  25 H :    0.099982
  26 O :   -0.308692
  27 H :    0.099700
  28 H :    0.109917
  29 H :    0.101278
  30 H :    0.119978

  Mayer bond orders larger than 0.100000
B(  0-C ,  1-C ) :   0.4276 B(  0-C ,  7-C ) :   0.2500 B(  0-C , 17-C ) :   0.6899
B(  0-C , 18-H ) :   0.8418 B(  0-C , 19-H ) :   1.0282 B(  0-C , 20-C ) :   0.1275
B(  0-C , 23-C ) :  -0.1210 B(  1-C ,  7-C ) :   1.6199 B(  1-C ,  8-N ) :  -0.1317
B(  1-C , 12-H ) :   0.3841 B(  1-C , 17-C ) :  -0.1770 B(  1-C , 18-H ) :  -0.1362
B(  1-C , 23-C ) :   0.2030 B(  1-C , 26-O ) :   0.2442 B(  2-C ,  3-C ) :   0.9422
B(  2-C , 20-C ) :   0.8942 B(  2-C , 21-H ) :   0.9459 B(  2-C , 22-H ) :   0.9187
B(  2-C , 23-C ) :   0.1517 B(  3-C ,  4-H ) :   0.8399 B(  3-C ,  5-H ) :   0.8296
B(  3-C ,  6-S ) :   0.8162 B(  3-C , 15-F ) :   0.1038 B(  3-C , 16-O ) :   0.1388
B(  3-C , 23-C ) :   0.1391 B(  3-C , 26-O ) :   0.1009 B(  6-S , 15-F ) :   0.9293
B(  6-S , 16-O ) :   1.6312 B(  6-S , 26-O ) :   1.8066 B(  7-C ,  8-N ) :   1.0842
B(  7-C ,  9-N ) :   0.9820 B(  7-C , 12-H ) :  -0.3941 B(  7-C , 17-C ) :   0.1657
B(  8-N , 13-H ) :   0.8551 B(  8-N , 14-H ) :   1.1403 B(  9-N , 10-H ) :   0.9796
B(  9-N , 11-H ) :   1.0876 B( 12-H , 26-O ) :  -0.4376 B( 17-C , 20-C ) :   0.1601
B( 17-C , 23-C ) :   0.9065 B( 17-C , 24-H ) :   0.9676 B( 17-C , 25-H ) :   0.9152
B( 20-C , 23-C ) :   0.2780 B( 20-C , 29-H ) :   0.9705 B( 20-C , 30-H ) :   0.8767
B( 23-C , 27-H ) :   1.0165 B( 23-C , 28-H ) :   0.9151

Dispersion correction           -0.076237429
FINAL SINGLE POINT ENERGY     -1073.094012979559

DIPOLE MOMENT
-------------
                                X             Y             Z
Electronic contribution:      0.70150      -1.08418     -23.53214
Nuclear contribution   :      0.18720       2.58739      22.98820
                        -----------------------------------------
Total Dipole Moment    :      0.88870       1.50322      -0.54394
                        -----------------------------------------
Magnitude (a.u.)       :      1.82902
Magnitude (Debye)      :      4.64901

Rotational constants in cm-1:     0.028798     0.014448     0.010940
Rotational constants in MHz :   863.355869   433.126694   327.985023

                             ****ORCA TERMINATED NORMALLY****
TOTAL RUN TIME: 0 days 0 hours 1 minutes 40 seconds 957 msec
