                         Program Version 5.0.0 -  RELEASE  -
|  1> !BLYP D3BJ RIJCOSX def2-TZVPD def2/J TightSCF xyzfile
|  2>
|  3> *xyzfile 0 1 D2.xyz
|  4>
|  5> %MaxCore 64000
|  6>
|  7> %pal nprocs 4
|  8> end
|  9>
| 10> %scf
| 11>   MaxIter 150
| 12> end
| 13>
| 14>
| 15>                          ****END OF INPUT****

CARTESIAN COORDINATES (ANGSTROEM)
---------------------------------
  C      1.963365   -1.749150   -1.896887
  N      2.738490   -2.015170   -3.097113
  C      0.611877    1.657634   -4.500288
  C      1.694991    1.541794   -5.570447
  H      2.697326    1.734659   -5.183996
  H      1.506656    2.272239   -6.358076
  S      1.780287   -0.033128   -6.428739
  C      4.049736   -2.154717   -3.152044
  C      4.658206   -1.986293   -4.318655
  N      4.764231   -2.454435   -2.050491
  H      4.287363   -2.776259   -1.217496
  H      5.750825   -2.658351   -2.125988
  H      2.345176   -1.690274   -3.971447
  H      4.109004   -1.592677   -5.071760
  H      5.649095   -2.156462   -4.427237
  F      2.569287    0.213657   -7.607360
  O      0.416880   -0.462969   -6.618595
  C      2.088520   -0.300912   -1.415204
  H      2.231272   -2.451616   -1.102643
  H      0.930249   -1.977801   -2.155438
  C      0.680356    0.655418   -3.348038
  H     -0.356865    1.549231   -4.991128
  H      0.650228    2.675438   -4.096000
  C      1.968993    0.733582   -2.535654
  H      3.051356   -0.168602   -0.911868
  H      1.316501   -0.136231   -0.657252
  O      2.505129   -0.933263   -5.482570
  H      2.824195    0.624726   -3.208464
  H      2.058919    1.730331   -2.093112
  H      0.542252   -0.344731   -3.766662
  H     -0.174219    0.829692   -2.685182

 Total Charge           Charge          ....    0
 Multiplicity           Mult            ....    1
 Number of Electrons    NEL             ....  120
 Basis Dimension        Dim             ....  689

ORBITAL ENERGIES
----------------

  NO   OCC          E(Eh)            E(eV)
   0   2.0000     -88.347680     -2404.0626
   1   2.0000     -24.411004      -664.2572
   2   2.0000     -18.795845      -511.4609
   3   2.0000     -18.780769      -511.0507
   4   2.0000     -13.988132      -380.6364
   5   2.0000     -13.974335      -380.2610
   6   2.0000      -9.967238      -271.2223
   7   2.0000      -9.934982      -270.3446
   8   2.0000      -9.926800      -270.1220
   9   2.0000      -9.921039      -269.9652
  10   2.0000      -9.910754      -269.6853
  11   2.0000      -9.901361      -269.4297
  12   2.0000      -9.896616      -269.3006
  13   2.0000      -9.789302      -266.3804
  14   2.0000      -7.879685      -214.4171
  15   2.0000      -5.911619      -160.8633
  16   2.0000      -5.905481      -160.6963
  17   2.0000      -5.904911      -160.6808
  18   2.0000      -1.282141       -34.8888
  19   2.0000      -1.019733       -27.7483
  20   2.0000      -0.925474       -25.1834
  21   2.0000      -0.856641       -23.3104
  22   2.0000      -0.781494       -21.2655
  23   2.0000      -0.760019       -20.6812
  24   2.0000      -0.714270       -19.4363
  25   2.0000      -0.683910       -18.6101
  26   2.0000      -0.649893       -17.6845
  27   2.0000      -0.624536       -16.9945
  28   2.0000      -0.589482       -16.0406
  29   2.0000      -0.559629       -15.2283
  30   2.0000      -0.537385       -14.6230
  31   2.0000      -0.528101       -14.3704
  32   2.0000      -0.521014       -14.1775
  33   2.0000      -0.503084       -13.6896
  34   2.0000      -0.496086       -13.4992
  35   2.0000      -0.460456       -12.5296
  36   2.0000      -0.445558       -12.1242
  37   2.0000      -0.443864       -12.0781
  38   2.0000      -0.423188       -11.5155
  39   2.0000      -0.418468       -11.3871
  40   2.0000      -0.412982       -11.2378
  41   2.0000      -0.405007       -11.0208
  42   2.0000      -0.388132       -10.5616
  43   2.0000      -0.381758       -10.3882
  44   2.0000      -0.366731        -9.9793
  45   2.0000      -0.350212        -9.5298
  46   2.0000      -0.338758        -9.2181
  47   2.0000      -0.336319        -9.1517
  48   2.0000      -0.325678        -8.8621
  49   2.0000      -0.314660        -8.5623
  50   2.0000      -0.310292        -8.4435
  51   2.0000      -0.306775        -8.3478
  52   2.0000      -0.298787        -8.1304
  53   2.0000      -0.288285        -7.8446
  54   2.0000      -0.284887        -7.7522
  55   2.0000      -0.278920        -7.5898
  56   2.0000      -0.277894        -7.5619
  57   2.0000      -0.255616        -6.9557
  58   2.0000      -0.189227        -5.1491
  59   2.0000      -0.107638        -2.9290
  60   0.0000      -0.034336        -0.9343
  61   0.0000      -0.020929        -0.5695
  62   0.0000      -0.008500        -0.2313
  63   0.0000      -0.001828        -0.0497
  64   0.0000       0.007730         0.2104

MULLIKEN ATOMIC CHARGES
-----------------------
   0 C :   -0.897745
   1 N :   -0.200694
   2 C :   -0.664878
   3 C :   -0.736788
   4 H :    0.375548
   5 H :    0.362666
   6 S :    1.103033
   7 C :    0.756892
   8 C :   -1.491778
   9 N :   -0.323184
  10 H :    0.128942
  11 H :    0.127739
  12 H :    0.478093
  13 H :    0.574539
  14 H :    0.296135
  15 F :   -0.119835
  16 O :   -0.617277
  17 C :   -0.452273
  18 H :    0.311029
  19 H :    0.322751
  20 C :   -0.450396
  21 H :    0.252111
  22 H :    0.293310
  23 C :   -0.480648
  24 H :    0.272479
  25 H :    0.320559
  26 O :   -0.703117
  27 H :    0.289944
  28 H :    0.309306
  29 H :    0.287040
  30 H :    0.276496
Sum of atomic charges:   -0.0000000

LOEWDIN ATOMIC CHARGES
----------------------
   0 C :   -0.186985
   1 N :    0.038598
   2 C :   -0.207332
   3 C :   -0.225273
   4 H :    0.103754
   5 H :    0.098707
   6 S :    0.627674
   7 C :   -0.557133
   8 C :    0.010236
   9 N :    0.134585
  10 H :    0.080307
  11 H :    0.099344
  12 H :    0.074344
  13 H :   -0.029774
  14 H :    0.004546
  15 F :   -0.021495
  16 O :   -0.232155
  17 C :   -0.178404
  18 H :    0.102294
  19 H :    0.109497
  20 C :   -0.203854
  21 H :    0.109612
  22 H :    0.119977
  23 C :   -0.200266
  24 H :    0.103430
  25 H :    0.103651
  26 O :   -0.309139
  27 H :    0.100685
  28 H :    0.113277
  29 H :    0.097346
  30 H :    0.119945

  Mayer bond orders larger than 0.100000
B(  0-C ,  1-N ) :   0.9740 B(  0-C ,  7-C ) :  -0.1160 B(  0-C , 12-H ) :  -0.1077
B(  0-C , 17-C ) :   0.6540 B(  0-C , 18-H ) :   0.8560 B(  0-C , 19-H ) :   0.9290
B(  0-C , 20-C ) :   0.1406 B(  1-N ,  7-C ) :   0.9953 B(  1-N , 12-H ) :   0.7177
B(  2-C ,  3-C ) :   0.9351 B(  2-C , 20-C ) :   0.9060 B(  2-C , 21-H ) :   0.9453
B(  2-C , 22-H ) :   0.9172 B(  2-C , 23-C ) :   0.1558 B(  3-C ,  4-H ) :   0.8409
B(  3-C ,  5-H ) :   0.8306 B(  3-C ,  6-S ) :   0.8082 B(  3-C , 15-F ) :   0.1118
B(  3-C , 16-O ) :   0.1267 B(  3-C , 23-C ) :   0.1481 B(  6-S , 15-F ) :   0.9385
B(  6-S , 16-O ) :   1.6243 B(  6-S , 26-O ) :   1.8118 B(  7-C ,  8-C ) :   1.0178
B(  7-C ,  9-N ) :   0.9232 B(  7-C , 14-H ) :  -0.1419 B(  8-C , 13-H ) :   0.7568
B(  8-C , 14-H ) :   1.1057 B(  8-C , 26-O ) :   0.1842 B(  9-N , 10-H ) :   1.0222
B(  9-N , 11-H ) :   1.0362 B( 12-H , 26-O ) :  -0.1084 B( 13-H , 26-O ) :  -0.2127
B( 17-C , 20-C ) :   0.1197 B( 17-C , 23-C ) :   0.9470 B( 17-C , 24-H ) :   0.9223
B( 17-C , 25-H ) :   0.9658 B( 20-C , 23-C ) :   0.2563 B( 20-C , 29-H ) :   0.9360
B( 20-C , 30-H ) :   0.9145 B( 23-C , 27-H ) :   1.0102 B( 23-C , 28-H ) :   0.8835

Dispersion correction           -0.075742194
FINAL SINGLE POINT ENERGY     -1073.090630567552

DIPOLE MOMENT
-------------
                                X             Y             Z
Electronic contribution:     -0.89265      -0.89776     -22.51561
Nuclear contribution   :      0.43347       2.59110      22.83150
                        -----------------------------------------
Total Dipole Moment    :     -0.45918       1.69334       0.31589
                        -----------------------------------------
Magnitude (a.u.)       :      1.78271
Magnitude (Debye)      :      4.53129

Rotational constants in cm-1:     0.029257     0.014415     0.010996
Rotational constants in MHz :   877.098782   432.159206   329.643335

                             ****ORCA TERMINATED NORMALLY****
TOTAL RUN TIME: 0 days 0 hours 1 minutes 25 seconds 764 msec
