                         Program Version 5.0.0 -  RELEASE  -
|  1> !BLYP D3BJ RIJCOSX def2-TZVPD def2/J TightSCF xyzfile
|  2>
|  3> *xyzfile 0 1 D3.xyz
|  4>
|  5> %MaxCore 64000
|  6>
|  7> %pal nprocs 4
|  8> end
|  9>
| 10> %scf
| 11>   MaxIter 150
| 12> end
| 13>
| 14>
| 15>                          ****END OF INPUT****

CARTESIAN COORDINATES (ANGSTROEM)
---------------------------------
  C      1.963365   -1.749150   -1.896887
  N      2.738490   -2.015170   -3.097113
  C      0.611877    1.657634   -4.500288
  C      1.694991    1.541794   -5.570447
  H      2.697326    1.734659   -5.183996
  H      1.506656    2.272239   -6.358076
  S      1.780287   -0.033128   -6.428739
  C      4.049736   -2.154717   -3.152044
  N      4.658206   -1.986293   -4.318655
  C      4.764231   -2.454435   -2.050491
  H      4.287363   -2.776259   -1.217496
  H      5.750825   -2.658351   -2.125988
  H      2.345176   -1.690274   -3.971447
  H      4.109004   -1.592677   -5.071760
  H      5.649095   -2.156462   -4.427237
  F      2.569287    0.213657   -7.607360
  O      0.416880   -0.462969   -6.618595
  C      2.088520   -0.300912   -1.415204
  H      2.231272   -2.451616   -1.102643
  H      0.930249   -1.977801   -2.155438
  C      0.680356    0.655418   -3.348038
  H     -0.356865    1.549231   -4.991128
  H      0.650228    2.675438   -4.096000
  C      1.968993    0.733582   -2.535654
  H      3.051356   -0.168602   -0.911868
  H      1.316501   -0.136231   -0.657252
  O      2.505129   -0.933263   -5.482570
  H      2.824195    0.624726   -3.208464
  H      2.058919    1.730331   -2.093112
  H      0.542252   -0.344731   -3.766662
  H     -0.174219    0.829692   -2.685182

 Total Charge           Charge          ....    0
 Multiplicity           Mult            ....    1
 Number of Electrons    NEL             ....  120
 Basis Dimension        Dim             ....  689

ORBITAL ENERGIES
----------------

  NO   OCC          E(Eh)            E(eV)
   0   2.0000     -88.363546     -2404.4943
   1   2.0000     -24.425061      -664.6397
   2   2.0000     -18.809987      -511.8458
   3   2.0000     -18.801740      -511.6213
   4   2.0000     -13.975242      -380.2857
   5   2.0000     -13.974860      -380.2753
   6   2.0000      -9.977876      -271.5118
   7   2.0000      -9.941102      -270.5111
   8   2.0000      -9.921528      -269.9785
   9   2.0000      -9.920367      -269.9469
  10   2.0000      -9.913755      -269.7670
  11   2.0000      -9.902131      -269.4507
  12   2.0000      -9.891389      -269.1584
  13   2.0000      -9.797095      -266.5925
  14   2.0000      -7.895486      -214.8471
  15   2.0000      -5.927532      -161.2963
  16   2.0000      -5.921406      -161.1296
  17   2.0000      -5.920525      -161.1057
  18   2.0000      -1.296406       -35.2770
  19   2.0000      -1.035492       -28.1772
  20   2.0000      -0.943654       -25.6781
  21   2.0000      -0.857198       -23.3255
  22   2.0000      -0.779265       -21.2049
  23   2.0000      -0.767606       -20.8876
  24   2.0000      -0.717891       -19.5348
  25   2.0000      -0.685291       -18.6477
  26   2.0000      -0.651769       -17.7355
  27   2.0000      -0.616632       -16.7794
  28   2.0000      -0.606938       -16.5156
  29   2.0000      -0.571226       -15.5439
  30   2.0000      -0.544931       -14.8283
  31   2.0000      -0.537024       -14.6132
  32   2.0000      -0.525822       -14.3083
  33   2.0000      -0.509250       -13.8574
  34   2.0000      -0.480076       -13.0635
  35   2.0000      -0.467220       -12.7137
  36   2.0000      -0.459762       -12.5108
  37   2.0000      -0.451798       -12.2941
  38   2.0000      -0.440333       -11.9821
  39   2.0000      -0.424658       -11.5555
  40   2.0000      -0.408570       -11.1177
  41   2.0000      -0.403840       -10.9890
  42   2.0000      -0.388888       -10.5822
  43   2.0000      -0.376505       -10.2452
  44   2.0000      -0.372825       -10.1451
  45   2.0000      -0.362803        -9.8724
  46   2.0000      -0.342412        -9.3175
  47   2.0000      -0.338629        -9.2146
  48   2.0000      -0.322677        -8.7805
  49   2.0000      -0.319114        -8.6835
  50   2.0000      -0.316197        -8.6041
  51   2.0000      -0.304923        -8.2974
  52   2.0000      -0.303120        -8.2483
  53   2.0000      -0.295729        -8.0472
  54   2.0000      -0.286493        -7.7959
  55   2.0000      -0.285571        -7.7708
  56   2.0000      -0.283720        -7.7204
  57   2.0000      -0.273430        -7.4404
  58   2.0000      -0.182132        -4.9561
  59   2.0000      -0.108834        -2.9615
  60   0.0000      -0.046363        -1.2616
  61   0.0000      -0.027956        -0.7607
  62   0.0000      -0.009237        -0.2514
  63   0.0000      -0.001106        -0.0301
  64   0.0000       0.002077         0.0565

MULLIKEN ATOMIC CHARGES
-----------------------
   0 C :   -0.874143
   1 N :   -0.285439
   2 C :   -0.667945
   3 C :   -0.724602
   4 H :    0.371027
   5 H :    0.361481
   6 S :    1.111115
   7 C :    0.743407
   8 N :   -0.281289
   9 C :   -1.460010
  10 H :    0.290949
  11 H :    0.363273
  12 H :    0.603689
  13 H :    0.337503
  14 H :    0.042342
  15 F :   -0.117321
  16 O :   -0.596010
  17 C :   -0.480003
  18 H :    0.307951
  19 H :    0.342155
  20 C :   -0.426922
  21 H :    0.255890
  22 H :    0.297453
  23 C :   -0.503610
  24 H :    0.292193
  25 H :    0.325150
  26 O :   -0.742710
  27 H :    0.258905
  28 H :    0.307294
  29 H :    0.278275
  30 H :    0.269950
Sum of atomic charges:    0.0000000

LOEWDIN ATOMIC CHARGES
----------------------
   0 C :   -0.181402
   1 N :    0.035672
   2 C :   -0.206527
   3 C :   -0.224051
   4 H :    0.103730
   5 H :    0.100219
   6 S :    0.631762
   7 C :   -0.563849
   8 N :    0.132056
   9 C :    0.009176
  10 H :   -0.008547
  11 H :   -0.005282
  12 H :    0.068696
  13 H :    0.046222
  14 H :    0.106334
  15 F :   -0.021835
  16 O :   -0.223736
  17 C :   -0.174078
  18 H :    0.108321
  19 H :    0.109486
  20 C :   -0.204066
  21 H :    0.110142
  22 H :    0.121261
  23 C :   -0.201651
  24 H :    0.104071
  25 H :    0.106212
  26 O :   -0.309378
  27 H :    0.099594
  28 H :    0.113510
  29 H :    0.096794
  30 H :    0.121147

  Mayer bond orders larger than 0.100000
B(  0-C ,  1-N ) :   0.9212 B(  0-C , 12-H ) :  -0.1474 B(  0-C , 17-C ) :   0.6987
B(  0-C , 18-H ) :   0.8678 B(  0-C , 19-H ) :   0.8680 B(  0-C , 20-C ) :   0.1466
B(  1-N ,  7-C ) :   0.9384 B(  1-N ,  9-C ) :   0.1365 B(  1-N , 12-H ) :   0.6122
B(  2-C ,  3-C ) :   0.9341 B(  2-C , 20-C ) :   0.9011 B(  2-C , 21-H ) :   0.9472
B(  2-C , 22-H ) :   0.9166 B(  2-C , 23-C ) :   0.1597 B(  3-C ,  4-H ) :   0.8391
B(  3-C ,  5-H ) :   0.8249 B(  3-C ,  6-S ) :   0.8111 B(  3-C , 15-F ) :   0.1054
B(  3-C , 16-O ) :   0.1314 B(  3-C , 23-C ) :   0.1380 B(  6-S , 15-F ) :   0.9441
B(  6-S , 16-O ) :   1.6405 B(  6-S , 26-O ) :   1.7803 B(  7-C ,  8-N ) :   0.9429
B(  7-C ,  9-C ) :   0.9591 B(  8-N ,  9-C ) :   0.1163 B(  8-N , 13-H ) :   0.8468
B(  8-N , 14-H ) :   1.1043 B(  9-C , 10-H ) :   1.0203 B(  9-C , 11-H ) :   0.9851
B( 12-H , 26-O ) :  -0.1247 B( 17-C , 20-C ) :   0.1069 B( 17-C , 23-C ) :   1.0065
B( 17-C , 24-H ) :   0.9106 B( 17-C , 25-H ) :   0.9376 B( 20-C , 23-C ) :   0.2644
B( 20-C , 29-H ) :   0.9407 B( 20-C , 30-H ) :   0.9099 B( 23-C , 27-H ) :   1.0294
B( 23-C , 28-H ) :   0.8816

Dispersion correction           -0.075647685
FINAL SINGLE POINT ENERGY     -1073.101587522785

DIPOLE MOMENT
-------------
                                X             Y             Z
Electronic contribution:     -1.13673      -0.30490     -24.50804
Nuclear contribution   :      0.44707       2.53104      23.12246
                        -----------------------------------------
Total Dipole Moment    :     -0.68966       2.22614      -1.38558
                        -----------------------------------------
Magnitude (a.u.)       :      2.71131
Magnitude (Debye)      :      6.89159

Rotational constants in cm-1:     0.028906     0.014696     0.011110
Rotational constants in MHz :   866.591909   440.585554   333.081943

                             ****ORCA TERMINATED NORMALLY****
TOTAL RUN TIME: 0 days 0 hours 1 minutes 29 seconds 564 msec
