                         Program Version 5.0.0 -  RELEASE  -
|  1> !BLYP D3BJ RIJCOSX def2-TZVPD def2/J TightSCF xyzfile
|  2>
|  3> *xyzfile 0 1 D4.xyz
|  4>
|  5> %MaxCore 64000
|  6>
|  7> %pal nprocs 4
|  8> end
|  9>
| 10> %scf
| 11>   MaxIter 150
| 12> end
| 13>
| 14>
| 15>                          ****END OF INPUT****

CARTESIAN COORDINATES (ANGSTROEM)
---------------------------------
  C      1.963365   -1.749150   -1.896887
  C      2.738490   -2.015170   -3.097113
  C      0.611877    1.657634   -4.500288
  C      1.694991    1.541794   -5.570447
  H      2.697326    1.734659   -5.183996
  H      1.506656    2.272239   -6.358076
  S      1.780287   -0.033128   -6.428739
  C      4.049736   -2.154717   -3.152044
  N      4.658206   -1.986293   -4.318655
  N      4.764231   -2.454435   -2.050491
  H      4.287363   -2.776259   -1.217496
  H      5.750825   -2.658351   -2.125988
  H      2.345176   -1.690274   -3.971447
  H      4.109004   -1.592677   -5.071760
  H      5.649095   -2.156462   -4.427237
  O      2.569287    0.213657   -7.607360
  F      0.416880   -0.462969   -6.618595
  C      2.088520   -0.300912   -1.415204
  H      2.231272   -2.451616   -1.102643
  H      0.930249   -1.977801   -2.155438
  C      0.680356    0.655418   -3.348038
  H     -0.356865    1.549231   -4.991128
  H      0.650228    2.675438   -4.096000
  C      1.968993    0.733582   -2.535654
  H      3.051356   -0.168602   -0.911868
  H      1.316501   -0.136231   -0.657252
  O      2.505129   -0.933263   -5.482570
  H      2.824195    0.624726   -3.208464
  H      2.058919    1.730331   -2.093112
  H      0.542252   -0.344731   -3.766662
  H     -0.174219    0.829692   -2.685182

 Total Charge           Charge          ....    0
 Multiplicity           Mult            ....    1
 Number of Electrons    NEL             ....  120
 Basis Dimension        Dim             ....  689

ORBITAL ENERGIES
----------------

  NO   OCC          E(Eh)            E(eV)
   0   2.0000     -88.345758     -2404.0103
   1   2.0000     -24.409654      -664.2204
   2   2.0000     -18.793524      -511.3978
   3   2.0000     -18.779580      -511.0184
   4   2.0000     -13.991563      -380.7298
   5   2.0000     -13.976301      -380.3145
   6   2.0000      -9.963991      -271.1340
   7   2.0000      -9.931509      -270.2501
   8   2.0000      -9.921643      -269.9816
   9   2.0000      -9.905021      -269.5293
  10   2.0000      -9.890564      -269.1359
  11   2.0000      -9.879163      -268.8257
  12   2.0000      -9.867908      -268.5194
  13   2.0000      -9.795822      -266.5579
  14   2.0000      -7.877851      -214.3672
  15   2.0000      -5.910042      -160.8204
  16   2.0000      -5.903708      -160.6481
  17   2.0000      -5.902750      -160.6220
  18   2.0000      -1.279930       -34.8287
  19   2.0000      -1.018934       -27.7266
  20   2.0000      -0.924006       -25.1435
  21   2.0000      -0.849579       -23.1182
  22   2.0000      -0.768234       -20.9047
  23   2.0000      -0.758484       -20.6394
  24   2.0000      -0.712807       -19.3965
  25   2.0000      -0.677249       -18.4289
  26   2.0000      -0.652664       -17.7599
  27   2.0000      -0.622511       -16.9394
  28   2.0000      -0.584431       -15.9032
  29   2.0000      -0.554719       -15.0947
  30   2.0000      -0.534601       -14.5472
  31   2.0000      -0.530968       -14.4484
  32   2.0000      -0.518262       -14.1026
  33   2.0000      -0.492070       -13.3899
  34   2.0000      -0.485466       -13.2102
  35   2.0000      -0.467043       -12.7089
  36   2.0000      -0.442532       -12.0419
  37   2.0000      -0.438534       -11.9331
  38   2.0000      -0.424337       -11.5468
  39   2.0000      -0.418853       -11.3976
  40   2.0000      -0.411494       -11.1973
  41   2.0000      -0.392779       -10.6881
  42   2.0000      -0.386265       -10.5108
  43   2.0000      -0.380411       -10.3515
  44   2.0000      -0.369315       -10.0496
  45   2.0000      -0.343969        -9.3599
  46   2.0000      -0.338586        -9.2134
  47   2.0000      -0.332635        -9.0514
  48   2.0000      -0.325297        -8.8518
  49   2.0000      -0.314374        -8.5546
  50   2.0000      -0.304406        -8.2833
  51   2.0000      -0.293493        -7.9864
  52   2.0000      -0.289681        -7.8826
  53   2.0000      -0.284143        -7.7319
  54   2.0000      -0.275577        -7.4988
  55   2.0000      -0.269781        -7.3411
  56   2.0000      -0.259737        -7.0678
  57   2.0000      -0.237002        -6.4491
  58   2.0000      -0.199468        -5.4278
  59   2.0000      -0.106756        -2.9050
  60   0.0000      -0.038350        -1.0435
  61   0.0000      -0.010753        -0.2926
  62   0.0000      -0.009803        -0.2668
  63   0.0000      -0.002136        -0.0581
  64   0.0000       0.008372         0.2278

MULLIKEN ATOMIC CHARGES
-----------------------
   0 C :   -0.495453
   1 C :   -0.628686
   2 C :   -0.681173
   3 C :   -0.653922
   4 H :    0.354644
   5 H :    0.309649
   6 S :    1.091137
   7 C :   -0.283430
   8 N :   -0.299569
   9 N :   -0.315022
  10 H :    0.159236
  11 H :    0.089386
  12 H :    1.077417
  13 H :    0.322039
  14 H :    0.035840
  15 O :   -0.591704
  16 F :   -0.170696
  17 C :   -0.573706
  18 H :    0.435116
  19 H :    0.191671
  20 C :   -0.302798
  21 H :    0.263193
  22 H :    0.294839
  23 C :   -0.469281
  24 H :    0.224712
  25 H :    0.273171
  26 O :   -0.700314
  27 H :    0.267020
  28 H :    0.310245
  29 H :    0.181986
  30 H :    0.284454
Sum of atomic charges:   -0.0000000

LOEWDIN ATOMIC CHARGES
----------------------
   0 C :   -0.222915
   1 C :   -0.149061
   2 C :   -0.218926
   3 C :   -0.216982
   4 H :    0.111853
   5 H :    0.101077
   6 S :    0.624527
   7 C :   -0.534079
   8 N :    0.135189
   9 N :    0.140565
  10 H :    0.092054
  11 H :    0.086534
  12 H :    0.014608
  13 H :    0.061052
  14 H :    0.094040
  15 O :   -0.240053
  16 F :   -0.019335
  17 C :   -0.190322
  18 H :    0.092927
  19 H :    0.097908
  20 C :   -0.204838
  21 H :    0.104582
  22 H :    0.117371
  23 C :   -0.201947
  24 H :    0.103610
  25 H :    0.099783
  26 O :   -0.307963
  27 H :    0.101149
  28 H :    0.111136
  29 H :    0.097166
  30 H :    0.119289

  Mayer bond orders larger than 0.100000
B(  0-C ,  1-C ) :   0.4215 B(  0-C ,  7-C ) :   0.2501 B(  0-C , 17-C ) :   0.6872
B(  0-C , 18-H ) :   0.8483 B(  0-C , 19-H ) :   1.0269 B(  0-C , 20-C ) :   0.1338
B(  0-C , 23-C ) :  -0.1202 B(  1-C ,  7-C ) :   1.6209 B(  1-C ,  8-N ) :  -0.1327
B(  1-C , 12-H ) :   0.4646 B(  1-C , 17-C ) :  -0.1842 B(  1-C , 18-H ) :  -0.1377
B(  1-C , 23-C ) :   0.1918 B(  1-C , 26-O ) :   0.2932 B(  2-C ,  3-C ) :   0.8518
B(  2-C , 20-C ) :   0.8233 B(  2-C , 21-H ) :   0.9694 B(  2-C , 22-H ) :   0.9284
B(  2-C , 23-C ) :   0.1580 B(  3-C ,  4-H ) :   0.8559 B(  3-C ,  5-H ) :   0.9285
B(  3-C ,  6-S ) :   0.8243 B(  3-C , 15-O ) :   0.1463 B(  3-C , 23-C ) :   0.1370
B(  6-S , 15-O ) :   1.5522 B(  6-S , 16-F ) :   0.9803 B(  6-S , 26-O ) :   1.8263
B(  7-C ,  8-N ) :   1.0824 B(  7-C ,  9-N ) :   0.9857 B(  7-C , 12-H ) :  -0.4022
B(  7-C , 17-C ) :   0.1667 B(  8-N , 13-H ) :   0.8596 B(  8-N , 14-H ) :   1.1355
B(  9-N , 10-H ) :   0.9803 B(  9-N , 11-H ) :   1.0866 B( 12-H , 26-O ) :  -0.5176
B( 17-C , 20-C ) :   0.1628 B( 17-C , 23-C ) :   0.9099 B( 17-C , 24-H ) :   0.9636
B( 17-C , 25-H ) :   0.9133 B( 20-C , 23-C ) :   0.3462 B( 20-C , 29-H ) :   0.9643
B( 20-C , 30-H ) :   0.8997 B( 23-C , 27-H ) :   1.0202 B( 23-C , 28-H ) :   0.9080

Dispersion correction           -0.076003239
FINAL SINGLE POINT ENERGY     -1073.093047495410

DIPOLE MOMENT
-------------
                                X             Y             Z
Electronic contribution:     -2.97423      -2.22940     -21.78323
Nuclear contribution   :      2.64598       3.36033      21.85869
                        -----------------------------------------
Total Dipole Moment    :     -0.32824       1.13093       0.07546
                        -----------------------------------------
Magnitude (a.u.)       :      1.18002
Magnitude (Debye)      :      2.99937

Rotational constants in cm-1:     0.028973     0.014435     0.011026
Rotational constants in MHz :   868.588266   432.748309   330.548534

                             ****ORCA TERMINATED NORMALLY****
TOTAL RUN TIME: 0 days 0 hours 1 minutes 29 seconds 261 msec
