                         Program Version 5.0.0 -  RELEASE  -
|  1> !BLYP D3BJ RIJCOSX def2-TZVPD def2/J TightSCF xyzfile
|  2>
|  3> *xyzfile 0 1 D5.xyz
|  4>
|  5> %MaxCore 64000
|  6>
|  7> %pal nprocs 4
|  8> end
|  9>
| 10> %scf
| 11>   MaxIter 150
| 12> end
| 13>
| 14>
| 15>                          ****END OF INPUT****

CARTESIAN COORDINATES (ANGSTROEM)
---------------------------------
  C      1.963365   -1.749150   -1.896887
  N      2.738490   -2.015170   -3.097113
  C      0.611877    1.657634   -4.500288
  C      1.694991    1.541794   -5.570447
  H      2.697326    1.734659   -5.183996
  H      1.506656    2.272239   -6.358076
  S      1.780287   -0.033128   -6.428739
  C      4.049736   -2.154717   -3.152044
  C      4.658206   -1.986293   -4.318655
  N      4.764231   -2.454435   -2.050491
  H      4.287363   -2.776259   -1.217496
  H      5.750825   -2.658351   -2.125988
  H      2.345176   -1.690274   -3.971447
  H      4.109004   -1.592677   -5.071760
  H      5.649095   -2.156462   -4.427237
  O      2.569287    0.213657   -7.607360
  F      0.416880   -0.462969   -6.618595
  C      2.088520   -0.300912   -1.415204
  H      2.231272   -2.451616   -1.102643
  H      0.930249   -1.977801   -2.155438
  C      0.680356    0.655418   -3.348038
  H     -0.356865    1.549231   -4.991128
  H      0.650228    2.675438   -4.096000
  C      1.968993    0.733582   -2.535654
  H      3.051356   -0.168602   -0.911868
  H      1.316501   -0.136231   -0.657252
  O      2.505129   -0.933263   -5.482570
  H      2.824195    0.624726   -3.208464
  H      2.058919    1.730331   -2.093112
  H      0.542252   -0.344731   -3.766662
  H     -0.174219    0.829692   -2.685182

 Total Charge           Charge          ....    0
 Multiplicity           Mult            ....    1
 Number of Electrons    NEL             ....  120
 Basis Dimension        Dim             ....  689

ORBITAL ENERGIES
----------------

  NO   OCC          E(Eh)            E(eV)
   0   2.0000     -88.346532     -2404.0314
   1   2.0000     -24.410452      -664.2422
   2   2.0000     -18.794864      -511.4342
   3   2.0000     -18.781813      -511.0791
   4   2.0000     -13.988269      -380.6402
   5   2.0000     -13.974276      -380.2594
   6   2.0000      -9.966436      -271.2005
   7   2.0000      -9.938763      -270.4475
   8   2.0000      -9.929224      -270.1879
   9   2.0000      -9.920829      -269.9595
  10   2.0000      -9.918212      -269.8883
  11   2.0000      -9.905383      -269.5392
  12   2.0000      -9.899406      -269.3765
  13   2.0000      -9.789502      -266.3859
  14   2.0000      -7.878644      -214.3888
  15   2.0000      -5.910971      -160.8457
  16   2.0000      -5.904296      -160.6641
  17   2.0000      -5.903640      -160.6462
  18   2.0000      -1.281061       -34.8595
  19   2.0000      -1.019731       -27.7483
  20   2.0000      -0.925367       -25.1805
  21   2.0000      -0.857063       -23.3219
  22   2.0000      -0.782123       -21.2827
  23   2.0000      -0.764512       -20.8034
  24   2.0000      -0.716009       -19.4836
  25   2.0000      -0.682752       -18.5786
  26   2.0000      -0.651930       -17.7399
  27   2.0000      -0.627579       -17.0773
  28   2.0000      -0.590806       -16.0766
  29   2.0000      -0.562034       -15.2937
  30   2.0000      -0.538026       -14.6404
  31   2.0000      -0.535443       -14.5701
  32   2.0000      -0.523112       -14.2346
  33   2.0000      -0.508320       -13.8321
  34   2.0000      -0.488549       -13.2941
  35   2.0000      -0.461445       -12.5566
  36   2.0000      -0.446492       -12.1497
  37   2.0000      -0.440804       -11.9949
  38   2.0000      -0.424019       -11.5382
  39   2.0000      -0.420666       -11.4469
  40   2.0000      -0.414547       -11.2804
  41   2.0000      -0.407003       -11.0751
  42   2.0000      -0.392072       -10.6688
  43   2.0000      -0.381523       -10.3818
  44   2.0000      -0.374035       -10.1780
  45   2.0000      -0.347853        -9.4656
  46   2.0000      -0.347017        -9.4428
  47   2.0000      -0.340041        -9.2530
  48   2.0000      -0.332023        -9.0348
  49   2.0000      -0.316532        -8.6133
  50   2.0000      -0.313859        -8.5405
  51   2.0000      -0.304315        -8.2808
  52   2.0000      -0.294553        -8.0152
  53   2.0000      -0.288601        -7.8532
  54   2.0000      -0.285586        -7.7712
  55   2.0000      -0.283152        -7.7050
  56   2.0000      -0.275665        -7.5012
  57   2.0000      -0.262495        -7.1428
  58   2.0000      -0.189837        -5.1657
  59   2.0000      -0.107538        -2.9262
  60   0.0000      -0.039607        -1.0778
  61   0.0000      -0.015379        -0.4185
  62   0.0000      -0.010565        -0.2875
  63   0.0000      -0.006345        -0.1726
  64   0.0000       0.007333         0.1995

MULLIKEN ATOMIC CHARGES
-----------------------
   0 C :   -0.902576
   1 N :   -0.208024
   2 C :   -0.704291
   3 C :   -0.667263
   4 H :    0.355780
   5 H :    0.314983
   6 S :    1.093847
   7 C :    0.784494
   8 C :   -1.532463
   9 N :   -0.324536
  10 H :    0.127817
  11 H :    0.128141
  12 H :    0.495996
  13 H :    0.607652
  14 H :    0.288205
  15 O :   -0.580529
  16 F :   -0.171333
  17 C :   -0.454445
  18 H :    0.311845
  19 H :    0.314063
  20 C :   -0.325159
  21 H :    0.262283
  22 H :    0.295001
  23 C :   -0.493412
  24 H :    0.275292
  25 H :    0.322320
  26 O :   -0.700028
  27 H :    0.286520
  28 H :    0.315318
  29 H :    0.220372
  30 H :    0.264130
Sum of atomic charges:   -0.0000000

LOEWDIN ATOMIC CHARGES
----------------------
   0 C :   -0.189076
   1 N :    0.034491
   2 C :   -0.217871
   3 C :   -0.216469
   4 H :    0.113203
   5 H :    0.101727
   6 S :    0.624383
   7 C :   -0.557487
   8 C :    0.016918
   9 N :    0.134385
  10 H :    0.079871
  11 H :    0.099632
  12 H :    0.069587
  13 H :   -0.023272
  14 H :    0.007106
  15 O :   -0.230037
  16 F :   -0.023834
  17 C :   -0.178094
  18 H :    0.102175
  19 H :    0.107579
  20 C :   -0.209521
  21 H :    0.105362
  22 H :    0.118374
  23 C :   -0.198120
  24 H :    0.104172
  25 H :    0.103472
  26 O :   -0.307374
  27 H :    0.102096
  28 H :    0.114504
  29 H :    0.092924
  30 H :    0.119192

  Mayer bond orders larger than 0.100000
B(  0-C ,  1-N ) :   0.9748 B(  0-C ,  7-C ) :  -0.1187 B(  0-C , 12-H ) :  -0.1082
B(  0-C , 17-C ) :   0.6478 B(  0-C , 18-H ) :   0.8542 B(  0-C , 19-H ) :   0.9351
B(  0-C , 20-C ) :   0.1422 B(  1-N ,  7-C ) :   0.9956 B(  1-N , 12-H ) :   0.7163
B(  2-C ,  3-C ) :   0.8426 B(  2-C , 20-C ) :   0.8352 B(  2-C , 21-H ) :   0.9710
B(  2-C , 22-H ) :   0.9273 B(  2-C , 23-C ) :   0.1604 B(  3-C ,  4-H ) :   0.8617
B(  3-C ,  5-H ) :   0.9280 B(  3-C ,  6-S ) :   0.8223 B(  3-C , 15-O ) :   0.1554
B(  3-C , 23-C ) :   0.1411 B(  6-S , 15-O ) :   1.5566 B(  6-S , 16-F ) :   0.9603
B(  6-S , 26-O ) :   1.8053 B(  7-C ,  8-C ) :   0.9828 B(  7-C ,  9-N ) :   0.9212
B(  7-C , 14-H ) :  -0.1457 B(  8-C , 13-H ) :   0.7184 B(  8-C , 14-H ) :   1.1187
B(  8-C , 26-O ) :   0.1989 B(  9-N , 10-H ) :   1.0235 B(  9-N , 11-H ) :   1.0357
B( 12-H , 26-O ) :  -0.1300 B( 13-H , 26-O ) :  -0.1843 B( 17-C , 20-C ) :   0.1191
B( 17-C , 23-C ) :   0.9543 B( 17-C , 24-H ) :   0.9206 B( 17-C , 25-H ) :   0.9642
B( 20-C , 23-C ) :   0.3271 B( 20-C , 29-H ) :   0.9345 B( 20-C , 30-H ) :   0.9379
B( 23-C , 27-H ) :   1.0120 B( 23-C , 28-H ) :   0.8739

Dispersion correction           -0.075515047
FINAL SINGLE POINT ENERGY     -1073.089923858551

DIPOLE MOMENT
-------------
                                X             Y             Z
Electronic contribution:     -4.55957      -2.05935     -20.76805
Nuclear contribution   :      2.89225       3.36404      21.70199
                        -----------------------------------------
Total Dipole Moment    :     -1.66732       1.30468       0.93394
                        -----------------------------------------
Magnitude (a.u.)       :      2.31396
Magnitude (Debye)      :      5.88162

Rotational constants in cm-1:     0.029431     0.014408     0.011084
Rotational constants in MHz :   882.306106   431.946714   332.288152

                             ****ORCA TERMINATED NORMALLY****
TOTAL RUN TIME: 0 days 0 hours 1 minutes 33 seconds 446 msec
