                         Program Version 5.0.0 -  RELEASE  -
|  1> !BLYP D3BJ RIJCOSX def2-TZVPD def2/J TightSCF xyzfile
|  2>
|  3> *xyzfile 0 1 D6.xyz
|  4>
|  5> %MaxCore 64000
|  6>
|  7> %pal nprocs 4
|  8> end
|  9>
| 10> %scf
| 11>   MaxIter 150
| 12> end
| 13>
| 14>
| 15>                          ****END OF INPUT****

CARTESIAN COORDINATES (ANGSTROEM)
---------------------------------
  C      1.963365   -1.749150   -1.896887
  N      2.738490   -2.015170   -3.097113
  C      0.611877    1.657634   -4.500288
  C      1.694991    1.541794   -5.570447
  H      2.697326    1.734659   -5.183996
  H      1.506656    2.272239   -6.358076
  S      1.780287   -0.033128   -6.428739
  C      4.049736   -2.154717   -3.152044
  N      4.658206   -1.986293   -4.318655
  C      4.764231   -2.454435   -2.050491
  H      4.287363   -2.776259   -1.217496
  H      5.750825   -2.658351   -2.125988
  H      2.345176   -1.690274   -3.971447
  H      4.109004   -1.592677   -5.071760
  H      5.649095   -2.156462   -4.427237
  O      2.569287    0.213657   -7.607360
  F      0.416880   -0.462969   -6.618595
  C      2.088520   -0.300912   -1.415204
  H      2.231272   -2.451616   -1.102643
  H      0.930249   -1.977801   -2.155438
  C      0.680356    0.655418   -3.348038
  H     -0.356865    1.549231   -4.991128
  H      0.650228    2.675438   -4.096000
  C      1.968993    0.733582   -2.535654
  H      3.051356   -0.168602   -0.911868
  H      1.316501   -0.136231   -0.657252
  O      2.505129   -0.933263   -5.482570
  H      2.824195    0.624726   -3.208464
  H      2.058919    1.730331   -2.093112
  H      0.542252   -0.344731   -3.766662
  H     -0.174219    0.829692   -2.685182

 Total Charge           Charge          ....    0
 Multiplicity           Mult            ....    1
 Number of Electrons    NEL             ....  120
 Basis Dimension        Dim             ....  689

ORBITAL ENERGIES
----------------

  NO   OCC          E(Eh)            E(eV)
   0   2.0000     -88.363278     -2404.4870
   1   2.0000     -24.424487      -664.6241
   2   2.0000     -18.809325      -511.8278
   3   2.0000     -18.801386      -511.6117
   4   2.0000     -13.975451      -380.2914
   5   2.0000     -13.974506      -380.2657
   6   2.0000      -9.977536      -271.5026
   7   2.0000      -9.944990      -270.6169
   8   2.0000      -9.923013      -270.0189
   9   2.0000      -9.921766      -269.9850
  10   2.0000      -9.921411      -269.9753
  11   2.0000      -9.906304      -269.5642
  12   2.0000      -9.894384      -269.2399
  13   2.0000      -9.797507      -266.6037
  14   2.0000      -7.895223      -214.8400
  15   2.0000      -5.927440      -161.2938
  16   2.0000      -5.921194      -161.1239
  17   2.0000      -5.920052      -161.0928
  18   2.0000      -1.294904       -35.2361
  19   2.0000      -1.035985       -28.1906
  20   2.0000      -0.943301       -25.6685
  21   2.0000      -0.857550       -23.3351
  22   2.0000      -0.780282       -21.2326
  23   2.0000      -0.771412       -20.9912
  24   2.0000      -0.719135       -19.5687
  25   2.0000      -0.683953       -18.6113
  26   2.0000      -0.655921       -17.8485
  27   2.0000      -0.618684       -16.8353
  28   2.0000      -0.607707       -16.5365
  29   2.0000      -0.573694       -15.6110
  30   2.0000      -0.548376       -14.9221
  31   2.0000      -0.543103       -14.7786
  32   2.0000      -0.523583       -14.2474
  33   2.0000      -0.511569       -13.9205
  34   2.0000      -0.477793       -13.0014
  35   2.0000      -0.467385       -12.7182
  36   2.0000      -0.453953       -12.3527
  37   2.0000      -0.452879       -12.3235
  38   2.0000      -0.442894       -12.0518
  39   2.0000      -0.428712       -11.6658
  40   2.0000      -0.411891       -11.2081
  41   2.0000      -0.405628       -11.0377
  42   2.0000      -0.390870       -10.6361
  43   2.0000      -0.382144       -10.3987
  44   2.0000      -0.378297       -10.2940
  45   2.0000      -0.358556        -9.7568
  46   2.0000      -0.346925        -9.4403
  47   2.0000      -0.344861        -9.3842
  48   2.0000      -0.328670        -8.9436
  49   2.0000      -0.321417        -8.7462
  50   2.0000      -0.313710        -8.5365
  51   2.0000      -0.310172        -8.4402
  52   2.0000      -0.302345        -8.2272
  53   2.0000      -0.297758        -8.1024
  54   2.0000      -0.289410        -7.8752
  55   2.0000      -0.287572        -7.8252
  56   2.0000      -0.283522        -7.7150
  57   2.0000      -0.274638        -7.4733
  58   2.0000      -0.182406        -4.9635
  59   2.0000      -0.109276        -2.9736
  60   0.0000      -0.050722        -1.3802
  61   0.0000      -0.021432        -0.5832
  62   0.0000      -0.012617        -0.3433
  63   0.0000      -0.002732        -0.0743
  64   0.0000      -0.001310        -0.0356

MULLIKEN ATOMIC CHARGES
-----------------------
   0 C :   -0.877552
   1 N :   -0.295799
   2 C :   -0.709315
   3 C :   -0.656508
   4 H :    0.356669
   5 H :    0.317417
   6 S :    1.111690
   7 C :    0.748683
   8 N :   -0.279144
   9 C :   -1.456828
  10 H :    0.289626
  11 H :    0.363946
  12 H :    0.628172
  13 H :    0.329244
  14 H :    0.045997
  15 O :   -0.577042
  16 F :   -0.163598
  17 C :   -0.481016
  18 H :    0.308424
  19 H :    0.332794
  20 C :   -0.302171
  21 H :    0.266969
  22 H :    0.298326
  23 C :   -0.517312
  24 H :    0.295539
  25 H :    0.325706
  26 O :   -0.740212
  27 H :    0.256035
  28 H :    0.313917
  29 H :    0.211265
  30 H :    0.256079
Sum of atomic charges:   -0.0000000

LOEWDIN ATOMIC CHARGES
----------------------
   0 C :   -0.183387
   1 N :    0.031962
   2 C :   -0.217202
   3 C :   -0.214615
   4 H :    0.113377
   5 H :    0.103384
   6 S :    0.629452
   7 C :   -0.564133
   8 N :    0.137418
   9 C :    0.009482
  10 H :   -0.008815
  11 H :   -0.004706
  12 H :    0.063974
  13 H :    0.052181
  14 H :    0.108289
  15 O :   -0.229440
  16 F :   -0.017219
  17 C :   -0.173725
  18 H :    0.108252
  19 H :    0.107622
  20 C :   -0.209613
  21 H :    0.105850
  22 H :    0.119639
  23 C :   -0.199445
  24 H :    0.104828
  25 H :    0.106130
  26 O :   -0.308360
  27 H :    0.101091
  28 H :    0.114796
  29 H :    0.092472
  30 H :    0.120459

  Mayer bond orders larger than 0.100000
B(  0-C ,  1-N ) :   0.9216 B(  0-C , 12-H ) :  -0.1484 B(  0-C , 17-C ) :   0.6941
B(  0-C , 18-H ) :   0.8676 B(  0-C , 19-H ) :   0.8729 B(  0-C , 20-C ) :   0.1465
B(  1-N ,  7-C ) :   0.9388 B(  1-N ,  9-C ) :   0.1391 B(  1-N , 12-H ) :   0.6100
B(  2-C ,  3-C ) :   0.8416 B(  2-C , 20-C ) :   0.8286 B(  2-C , 21-H ) :   0.9708
B(  2-C , 22-H ) :   0.9267 B(  2-C , 23-C ) :   0.1657 B(  3-C ,  4-H ) :   0.8580
B(  3-C ,  5-H ) :   0.9221 B(  3-C ,  6-S ) :   0.8198 B(  3-C , 15-O ) :   0.1467
B(  3-C , 23-C ) :   0.1341 B(  6-S , 15-O ) :   1.5717 B(  6-S , 16-F ) :   0.9840
B(  6-S , 26-O ) :   1.7920 B(  7-C ,  8-N ) :   0.9327 B(  7-C ,  9-C ) :   0.9588
B(  8-N ,  9-C ) :   0.1212 B(  8-N , 13-H ) :   0.8491 B(  8-N , 14-H ) :   1.1011
B(  9-C , 10-H ) :   1.0221 B(  9-C , 11-H ) :   0.9839 B( 12-H , 26-O ) :  -0.1499
B( 17-C , 20-C ) :   0.1063 B( 17-C , 23-C ) :   1.0115 B( 17-C , 24-H ) :   0.9098
B( 17-C , 25-H ) :   0.9366 B( 20-C , 23-C ) :   0.3326 B( 20-C , 29-H ) :   0.9397
B( 20-C , 30-H ) :   0.9348 B( 23-C , 27-H ) :   1.0314 B( 23-C , 28-H ) :   0.8731

Dispersion correction           -0.075416863
FINAL SINGLE POINT ENERGY     -1073.101188847863

DIPOLE MOMENT
-------------
                                X             Y             Z
Electronic contribution:     -4.80650      -1.45840     -22.75032
Nuclear contribution   :      2.90585       3.30398      21.99296
                        -----------------------------------------
Total Dipole Moment    :     -1.90064       1.84558      -0.75736
                        -----------------------------------------
Magnitude (a.u.)       :      2.75540
Magnitude (Debye)      :      7.00366

Rotational constants in cm-1:     0.029065     0.014689     0.011200
Rotational constants in MHz :   871.338526   440.374927   335.770911

                             ****ORCA TERMINATED NORMALLY****
TOTAL RUN TIME: 0 days 0 hours 1 minutes 58 seconds 741 msec
