                         Program Version 5.0.0 -  RELEASE  -
|  1> !BLYP D3BJ RIJCOSX def2-TZVPD def2/J TightSCF xyzfile
|  2>
|  3> *xyzfile 0 1 D7.xyz
|  4>
|  5> %MaxCore 64000
|  6>
|  7> %pal nprocs 4
|  8> end
|  9>
| 10> %scf
| 11>   MaxIter 150
| 12> end
| 13>
| 14>
| 15>                          ****END OF INPUT****

CARTESIAN COORDINATES (ANGSTROEM)
---------------------------------
  C      1.963365   -1.749150   -1.896887
  C      2.738490   -2.015170   -3.097113
  C      0.611877    1.657634   -4.500288
  C      1.694991    1.541794   -5.570447
  H      2.697326    1.734659   -5.183996
  H      1.506656    2.272239   -6.358076
  S      1.780287   -0.033128   -6.428739
  C      4.049736   -2.154717   -3.152044
  N      4.658206   -1.986293   -4.318655
  N      4.764231   -2.454435   -2.050491
  H      4.287363   -2.776259   -1.217496
  H      5.750825   -2.658351   -2.125988
  H      2.345176   -1.690274   -3.971447
  H      4.109004   -1.592677   -5.071760
  H      5.649095   -2.156462   -4.427237
  O      2.569287    0.213657   -7.607360
  O      0.416880   -0.462969   -6.618595
  C      2.088520   -0.300912   -1.415204
  H      2.231272   -2.451616   -1.102643
  H      0.930249   -1.977801   -2.155438
  C      0.680356    0.655418   -3.348038
  H     -0.356865    1.549231   -4.991128
  H      0.650228    2.675438   -4.096000
  C      1.968993    0.733582   -2.535654
  H      3.051356   -0.168602   -0.911868
  H      1.316501   -0.136231   -0.657252
  F      2.505129   -0.933263   -5.482570
  H      2.824195    0.624726   -3.208464
  H      2.058919    1.730331   -2.093112
  H      0.542252   -0.344731   -3.766662
  H     -0.174219    0.829692   -2.685182

 Total Charge           Charge          ....    0
 Multiplicity           Mult            ....    1
 Number of Electrons    NEL             ....  120
 Basis Dimension        Dim             ....  689

ORBITAL ENERGIES
----------------

  NO   OCC          E(Eh)            E(eV)
   0   2.0000     -88.335093     -2403.7201
   1   2.0000     -24.384514      -663.5364
   2   2.0000     -18.787886      -511.2444
   3   2.0000     -18.787711      -511.2396
   4   2.0000     -14.009738      -381.2244
   5   2.0000     -14.004753      -381.0887
   6   2.0000      -9.958516      -270.9850
   7   2.0000      -9.944286      -270.5978
   8   2.0000      -9.924620      -270.0626
   9   2.0000      -9.906062      -269.5576
  10   2.0000      -9.898172      -269.3429
  11   2.0000      -9.889073      -269.0954
  12   2.0000      -9.881889      -268.8999
  13   2.0000      -9.822588      -267.2862
  14   2.0000      -7.867484      -214.0851
  15   2.0000      -5.899988      -160.5468
  16   2.0000      -5.892898      -160.3539
  17   2.0000      -5.892549      -160.3444
  18   2.0000      -1.244617       -33.8678
  19   2.0000      -1.022667       -27.8282
  20   2.0000      -0.936279       -25.4774
  21   2.0000      -0.872621       -23.7452
  22   2.0000      -0.791360       -21.5340
  23   2.0000      -0.754231       -20.5237
  24   2.0000      -0.719861       -19.5884
  25   2.0000      -0.678501       -18.4629
  26   2.0000      -0.659331       -17.9413
  27   2.0000      -0.624543       -16.9947
  28   2.0000      -0.596263       -16.2251
  29   2.0000      -0.560125       -15.2418
  30   2.0000      -0.526922       -14.3383
  31   2.0000      -0.514474       -13.9995
  32   2.0000      -0.511617       -13.9218
  33   2.0000      -0.498966       -13.5776
  34   2.0000      -0.485886       -13.2216
  35   2.0000      -0.483930       -13.1684
  36   2.0000      -0.451073       -12.2743
  37   2.0000      -0.436264       -11.8713
  38   2.0000      -0.433823       -11.8049
  39   2.0000      -0.420425       -11.4403
  40   2.0000      -0.413656       -11.2561
  41   2.0000      -0.400697       -10.9035
  42   2.0000      -0.393682       -10.7126
  43   2.0000      -0.380736       -10.3604
  44   2.0000      -0.370916       -10.0931
  45   2.0000      -0.348618        -9.4864
  46   2.0000      -0.345897        -9.4123
  47   2.0000      -0.343765        -9.3543
  48   2.0000      -0.334744        -9.1088
  49   2.0000      -0.319996        -8.7075
  50   2.0000      -0.309600        -8.4247
  51   2.0000      -0.300428        -8.1750
  52   2.0000      -0.292958        -7.9718
  53   2.0000      -0.287837        -7.8325
  54   2.0000      -0.281129        -7.6499
  55   2.0000      -0.276831        -7.5329
  56   2.0000      -0.270552        -7.3621
  57   2.0000      -0.266985        -7.2650
  58   2.0000      -0.221508        -6.0275
  59   2.0000      -0.128790        -3.5046
  60   0.0000      -0.028761        -0.7826
  61   0.0000      -0.018503        -0.5035
  62   0.0000      -0.007315        -0.1991
  63   0.0000      -0.002504        -0.0681
  64   0.0000       0.007507         0.2043

MULLIKEN ATOMIC CHARGES
-----------------------
   0 C :   -0.464666
   1 C :   -0.596390
   2 C :   -0.558985
   3 C :   -0.692240
   4 H :    0.357655
   5 H :    0.330738
   6 S :    1.078667
   7 C :   -0.202601
   8 N :   -0.324248
   9 N :   -0.316637
  10 H :    0.165501
  11 H :    0.093433
  12 H :    0.934082
  13 H :    0.299928
  14 H :    0.038030
  15 O :   -0.587232
  16 O :   -0.602570
  17 C :   -0.593487
  18 H :    0.442282
  19 H :    0.199312
  20 C :   -0.476433
  21 H :    0.256159
  22 H :    0.303860
  23 C :   -0.394626
  24 H :    0.232320
  25 H :    0.270709
  26 F :   -0.264779
  27 H :    0.251515
  28 H :    0.305381
  29 H :    0.236388
  30 H :    0.278933
Sum of atomic charges:   -0.0000000

LOEWDIN ATOMIC CHARGES
----------------------
   0 C :   -0.218134
   1 C :   -0.143782
   2 C :   -0.216231
   3 C :   -0.222232
   4 H :    0.100499
   5 H :    0.108662
   6 S :    0.591987
   7 C :   -0.530941
   8 N :    0.137177
   9 N :    0.147546
  10 H :    0.096056
  11 H :    0.090792
  12 H :    0.033971
  13 H :    0.075835
  14 H :    0.100198
  15 O :   -0.246996
  16 O :   -0.231904
  17 C :   -0.189001
  18 H :    0.096110
  19 H :    0.102099
  20 C :   -0.202932
  21 H :    0.108914
  22 H :    0.116785
  23 C :   -0.205140
  24 H :    0.103897
  25 H :    0.102648
  26 F :   -0.134003
  27 H :    0.097130
  28 H :    0.112636
  29 H :    0.097559
  30 H :    0.120796

  Mayer bond orders larger than 0.100000
B(  0-C ,  1-C ) :   0.3895 B(  0-C ,  7-C ) :   0.2174 B(  0-C , 17-C ) :   0.7022
B(  0-C , 18-H ) :   0.8358 B(  0-C , 19-H ) :   1.0383 B(  0-C , 20-C ) :   0.1105
B(  0-C , 23-C ) :  -0.1274 B(  1-C ,  7-C ) :   1.5954 B(  1-C , 12-H ) :   0.4425
B(  1-C , 17-C ) :  -0.1541 B(  1-C , 18-H ) :  -0.1452 B(  1-C , 23-C ) :   0.1778
B(  1-C , 26-F ) :   0.1981 B(  2-C ,  3-C ) :   0.8764 B(  2-C , 20-C ) :   0.9068
B(  2-C , 21-H ) :   0.9599 B(  2-C , 22-H ) :   0.9236 B(  2-C , 23-C ) :   0.1135
B(  3-C ,  4-H ) :   0.8462 B(  3-C ,  5-H ) :   0.8798 B(  3-C ,  6-S ) :   0.8422
B(  3-C , 15-O ) :   0.1395 B(  3-C , 16-O ) :   0.1195 B(  3-C , 23-C ) :   0.1405
B(  3-C , 26-F ) :   0.1041 B(  6-S , 15-O ) :   1.4847 B(  6-S , 16-O ) :   1.5355
B(  6-S , 26-F ) :   1.2010 B(  7-C ,  8-N ) :   0.9962 B(  7-C ,  9-N ) :   0.9904
B(  7-C , 12-H ) :  -0.3273 B(  7-C , 17-C ) :   0.1570 B(  8-N , 13-H ) :   0.8938
B(  8-N , 14-H ) :   1.1421 B(  9-N , 10-H ) :   0.9746 B(  9-N , 11-H ) :   1.0862
B( 12-H , 26-F ) :  -0.2805 B( 15-O , 16-O ) :   0.1011 B( 17-C , 20-C ) :   0.1674
B( 17-C , 23-C ) :   0.9323 B( 17-C , 24-H ) :   0.9616 B( 17-C , 25-H ) :   0.9113
B( 20-C , 23-C ) :   0.1934 B( 20-C , 27-H ) :  -0.1109 B( 20-C , 29-H ) :   1.0002
B( 20-C , 30-H ) :   0.8790 B( 23-C , 27-H ) :   1.0489 B( 23-C , 28-H ) :   0.9031
B( 23-C , 29-H ) :  -0.1302

Dispersion correction           -0.075280785
FINAL SINGLE POINT ENERGY     -1073.110225756493

DIPOLE MOMENT
-------------
                                X             Y             Z
Electronic contribution:      0.74863      -3.17705     -19.46631
Nuclear contribution   :      0.26049       3.89757      20.56096
                        -----------------------------------------
Total Dipole Moment    :      1.00912       0.72052       1.09466
                        -----------------------------------------
Magnitude (a.u.)       :      1.65401
Magnitude (Debye)      :      4.20417

Rotational constants in cm-1:     0.029090     0.014735     0.011139
Rotational constants in MHz :   872.086433   441.731892   333.928051

                             ****ORCA TERMINATED NORMALLY****
TOTAL RUN TIME: 0 days 0 hours 1 minutes 42 seconds 494 msec
