                         Program Version 5.0.0 -  RELEASE  -
|  1> !BLYP D3BJ RIJCOSX def2-TZVPD def2/J TightSCF xyzfile
|  2>
|  3> *xyzfile 0 1 D8.xyz
|  4>
|  5> %MaxCore 64000
|  6>
|  7> %pal nprocs 4
|  8> end
|  9>
| 10> %scf
| 11>   MaxIter 150
| 12> end
| 13>
| 14>
| 15>                          ****END OF INPUT****

CARTESIAN COORDINATES (ANGSTROEM)
---------------------------------
  C      1.963365   -1.749150   -1.896887
  N      2.738490   -2.015170   -3.097113
  C      0.611877    1.657634   -4.500288
  C      1.694991    1.541794   -5.570447
  H      2.697326    1.734659   -5.183996
  H      1.506656    2.272239   -6.358076
  S      1.780287   -0.033128   -6.428739
  C      4.049736   -2.154717   -3.152044
  C      4.658206   -1.986293   -4.318655
  N      4.764231   -2.454435   -2.050491
  H      4.287363   -2.776259   -1.217496
  H      5.750825   -2.658351   -2.125988
  H      2.345176   -1.690274   -3.971447
  H      4.109004   -1.592677   -5.071760
  H      5.649095   -2.156462   -4.427237
  O      2.569287    0.213657   -7.607360
  O      0.416880   -0.462969   -6.618595
  C      2.088520   -0.300912   -1.415204
  H      2.231272   -2.451616   -1.102643
  H      0.930249   -1.977801   -2.155438
  C      0.680356    0.655418   -3.348038
  H     -0.356865    1.549231   -4.991128
  H      0.650228    2.675438   -4.096000
  C      1.968993    0.733582   -2.535654
  H      3.051356   -0.168602   -0.911868
  H      1.316501   -0.136231   -0.657252
  F      2.505129   -0.933263   -5.482570
  H      2.824195    0.624726   -3.208464
  H      2.058919    1.730331   -2.093112
  H      0.542252   -0.344731   -3.766662
  H     -0.174219    0.829692   -2.685182

 Total Charge           Charge          ....    0
 Multiplicity           Mult            ....    1
 Number of Electrons    NEL             ....  120
 Basis Dimension        Dim             ....  689

ORBITAL ENERGIES
----------------

  NO   OCC          E(Eh)            E(eV)
   0   2.0000     -88.336531     -2403.7592
   1   2.0000     -24.385295      -663.5576
   2   2.0000     -18.789625      -511.2917
   3   2.0000     -18.787921      -511.2453
   4   2.0000     -14.006901      -381.1471
   5   2.0000     -14.002045      -381.0150
   6   2.0000      -9.961628      -271.0697
   7   2.0000      -9.944256      -270.5970
   8   2.0000      -9.944053      -270.5914
   9   2.0000      -9.932468      -270.2762
  10   2.0000      -9.920369      -269.9470
  11   2.0000      -9.913769      -269.7674
  12   2.0000      -9.909950      -269.6634
  13   2.0000      -9.815752      -267.1002
  14   2.0000      -7.868839      -214.1220
  15   2.0000      -5.901324      -160.5832
  16   2.0000      -5.894343      -160.3932
  17   2.0000      -5.893860      -160.3801
  18   2.0000      -1.245213       -33.8840
  19   2.0000      -1.023585       -27.8532
  20   2.0000      -0.937153       -25.5012
  21   2.0000      -0.880138       -23.9498
  22   2.0000      -0.802519       -21.8376
  23   2.0000      -0.761640       -20.7253
  24   2.0000      -0.721466       -19.6321
  25   2.0000      -0.689576       -18.7643
  26   2.0000      -0.648156       -17.6372
  27   2.0000      -0.638646       -17.3784
  28   2.0000      -0.602629       -16.3984
  29   2.0000      -0.569042       -15.4844
  30   2.0000      -0.534421       -14.5423
  31   2.0000      -0.531811       -14.4713
  32   2.0000      -0.507857       -13.8195
  33   2.0000      -0.503510       -13.7012
  34   2.0000      -0.489637       -13.3237
  35   2.0000      -0.475956       -12.9514
  36   2.0000      -0.447822       -12.1859
  37   2.0000      -0.442936       -12.0529
  38   2.0000      -0.434073       -11.8117
  39   2.0000      -0.430610       -11.7175
  40   2.0000      -0.417251       -11.3540
  41   2.0000      -0.407184       -11.0800
  42   2.0000      -0.393923       -10.7192
  43   2.0000      -0.387445       -10.5429
  44   2.0000      -0.376216       -10.2374
  45   2.0000      -0.355960        -9.6862
  46   2.0000      -0.351508        -9.5650
  47   2.0000      -0.346971        -9.4416
  48   2.0000      -0.338061        -9.1991
  49   2.0000      -0.329525        -8.9668
  50   2.0000      -0.323844        -8.8122
  51   2.0000      -0.317228        -8.6322
  52   2.0000      -0.303448        -8.2572
  53   2.0000      -0.300983        -8.1902
  54   2.0000      -0.292921        -7.9708
  55   2.0000      -0.290240        -7.8978
  56   2.0000      -0.287286        -7.8174
  57   2.0000      -0.276530        -7.5248
  58   2.0000      -0.210725        -5.7341
  59   2.0000      -0.130568        -3.5529
  60   0.0000      -0.027625        -0.7517
  61   0.0000      -0.019026        -0.5177
  62   0.0000      -0.010228        -0.2783
  63   0.0000      -0.005552        -0.1511
  64   0.0000       0.005143         0.1399

MULLIKEN ATOMIC CHARGES
-----------------------
   0 C :   -0.881123
   1 N :   -0.232643
   2 C :   -0.582210
   3 C :   -0.705952
   4 H :    0.362331
   5 H :    0.336367
   6 S :    1.102592
   7 C :    0.765290
   8 C :   -1.501360
   9 N :   -0.324899
  10 H :    0.132731
  11 H :    0.130872
  12 H :    0.482003
  13 H :    0.573678
  14 H :    0.281263
  15 O :   -0.577887
  16 O :   -0.610287
  17 C :   -0.447401
  18 H :    0.309098
  19 H :    0.316853
  20 C :   -0.485418
  21 H :    0.258306
  22 H :    0.305170
  23 C :   -0.424202
  24 H :    0.274258
  25 H :    0.319750
  26 F :   -0.273658
  27 H :    0.260018
  28 H :    0.309684
  29 H :    0.273280
  30 H :    0.253496
Sum of atomic charges:   -0.0000000

LOEWDIN ATOMIC CHARGES
----------------------
   0 C :   -0.184166
   1 N :    0.038138
   2 C :   -0.215402
   3 C :   -0.220823
   4 H :    0.102285
   5 H :    0.109569
   6 S :    0.592273
   7 C :   -0.553581
   8 C :    0.019070
   9 N :    0.142132
  10 H :    0.084473
  11 H :    0.103598
  12 H :    0.091384
  13 H :   -0.012494
  14 H :    0.011614
  15 O :   -0.237896
  16 O :   -0.236140
  17 C :   -0.176907
  18 H :    0.105196
  19 H :    0.111363
  20 C :   -0.206811
  21 H :    0.109705
  22 H :    0.117876
  23 C :   -0.201007
  24 H :    0.104674
  25 H :    0.106409
  26 F :   -0.134141
  27 H :    0.098673
  28 H :    0.116103
  29 H :    0.093921
  30 H :    0.120912

  Mayer bond orders larger than 0.100000
B(  0-C ,  1-N ) :   0.9735 B(  0-C ,  7-C ) :  -0.1235 B(  0-C , 12-H ) :  -0.1111
B(  0-C , 17-C ) :   0.6586 B(  0-C , 18-H ) :   0.8599 B(  0-C , 19-H ) :   0.9295
B(  0-C , 20-C ) :   0.1150 B(  1-N ,  7-C ) :   0.9888 B(  1-N , 12-H ) :   0.6851
B(  2-C ,  3-C ) :   0.8503 B(  2-C , 20-C ) :   0.9281 B(  2-C , 21-H ) :   0.9602
B(  2-C , 22-H ) :   0.9201 B(  2-C , 23-C ) :   0.1188 B(  3-C ,  4-H ) :   0.8559
B(  3-C ,  5-H ) :   0.8770 B(  3-C ,  6-S ) :   0.8205 B(  3-C , 15-O ) :   0.1513
B(  3-C , 16-O ) :   0.1053 B(  3-C , 23-C ) :   0.1448 B(  3-C , 26-F ) :   0.1016
B(  6-S , 15-O ) :   1.4907 B(  6-S , 16-O ) :   1.5493 B(  6-S , 26-F ) :   1.2066
B(  7-C ,  8-C ) :   1.0491 B(  7-C ,  9-N ) :   0.9352 B(  7-C , 14-H ) :  -0.1426
B(  8-C , 13-H ) :   0.6940 B(  8-C , 14-H ) :   1.1315 B(  8-C , 26-F ) :   0.1893
B(  9-N , 10-H ) :   1.0180 B(  9-N , 11-H ) :   1.0321 B( 12-H , 26-F ) :  -0.1109
B( 17-C , 20-C ) :   0.1296 B( 17-C , 23-C ) :   0.9703 B( 17-C , 24-H ) :   0.9263
B( 17-C , 25-H ) :   0.9677 B( 20-C , 23-C ) :   0.1553 B( 20-C , 27-H ) :  -0.1039
B( 20-C , 29-H ) :   0.9668 B( 20-C , 30-H ) :   0.9187 B( 23-C , 27-H ) :   1.0502
B( 23-C , 28-H ) :   0.8684 B( 23-C , 29-H ) :  -0.1550

Dispersion correction           -0.074788616
FINAL SINGLE POINT ENERGY     -1073.107152419622

DIPOLE MOMENT
-------------
                                X             Y             Z
Electronic contribution:     -0.86646      -2.98733     -18.41770
Nuclear contribution   :      0.50676       3.90127      20.40426
                        -----------------------------------------
Total Dipole Moment    :     -0.35971       0.91394       1.98657
                        -----------------------------------------
Magnitude (a.u.)       :      2.21611
Magnitude (Debye)      :      5.63289

Rotational constants in cm-1:     0.029548     0.014706     0.011197
Rotational constants in MHz :   885.834387   440.871746   335.667619

                             ****ORCA TERMINATED NORMALLY****
TOTAL RUN TIME: 0 days 0 hours 1 minutes 39 seconds 688 msec
