                         Program Version 5.0.0 -  RELEASE  -
|  1> !BLYP D3BJ RIJCOSX def2-TZVPD def2/J TightSCF xyzfile
|  2>
|  3> *xyzfile 0 1 D9.xyz
|  4>
|  5> %MaxCore 64000
|  6>
|  7> %pal nprocs 4
|  8> end
|  9>
| 10> %scf
| 11>   MaxIter 150
| 12> end
| 13>
| 14>
| 15>                          ****END OF INPUT****

CARTESIAN COORDINATES (ANGSTROEM)
---------------------------------
  C      1.963365   -1.749150   -1.896887
  N      2.738490   -2.015170   -3.097113
  C      0.611877    1.657634   -4.500288
  C      1.694991    1.541794   -5.570447
  H      2.697326    1.734659   -5.183996
  H      1.506656    2.272239   -6.358076
  S      1.780287   -0.033128   -6.428739
  C      4.049736   -2.154717   -3.152044
  N      4.658206   -1.986293   -4.318655
  C      4.764231   -2.454435   -2.050491
  H      4.287363   -2.776259   -1.217496
  H      5.750825   -2.658351   -2.125988
  H      2.345176   -1.690274   -3.971447
  H      4.109004   -1.592677   -5.071760
  H      5.649095   -2.156462   -4.427237
  O      2.569287    0.213657   -7.607360
  O      0.416880   -0.462969   -6.618595
  C      2.088520   -0.300912   -1.415204
  H      2.231272   -2.451616   -1.102643
  H      0.930249   -1.977801   -2.155438
  C      0.680356    0.655418   -3.348038
  H     -0.356865    1.549231   -4.991128
  H      0.650228    2.675438   -4.096000
  C      1.968993    0.733582   -2.535654
  H      3.051356   -0.168602   -0.911868
  H      1.316501   -0.136231   -0.657252
  F      2.505129   -0.933263   -5.482570
  H      2.824195    0.624726   -3.208464
  H      2.058919    1.730331   -2.093112
  H      0.542252   -0.344731   -3.766662
  H     -0.174219    0.829692   -2.685182

 Total Charge           Charge          ....    0
 Multiplicity           Mult            ....    1
 Number of Electrons    NEL             ....  120
 Basis Dimension        Dim             ....  689

ORBITAL ENERGIES
----------------

  NO   OCC          E(Eh)            E(eV)
   0   2.0000     -88.349825     -2404.1210
   1   2.0000     -24.406549      -664.1360
   2   2.0000     -18.802075      -511.6305
   3   2.0000     -18.801632      -511.6184
   4   2.0000     -14.003392      -381.0517
   5   2.0000     -14.003289      -381.0489
   6   2.0000      -9.971436      -271.3366
   7   2.0000      -9.943476      -270.5757
   8   2.0000      -9.937861      -270.4230
   9   2.0000      -9.937695      -270.4184
  10   2.0000      -9.922802      -270.0132
  11   2.0000      -9.914270      -269.7810
  12   2.0000      -9.904654      -269.5193
  13   2.0000      -9.817231      -267.1404
  14   2.0000      -7.882310      -214.4886
  15   2.0000      -5.915019      -160.9558
  16   2.0000      -5.907603      -160.7541
  17   2.0000      -5.907226      -160.7438
  18   2.0000      -1.265783       -34.4437
  19   2.0000      -1.037177       -28.2230
  20   2.0000      -0.950096       -25.8534
  21   2.0000      -0.883713       -24.0471
  22   2.0000      -0.803767       -21.8716
  23   2.0000      -0.767570       -20.8867
  24   2.0000      -0.722461       -19.6592
  25   2.0000      -0.688856       -18.7447
  26   2.0000      -0.661620       -18.0036
  27   2.0000      -0.626177       -17.0391
  28   2.0000      -0.622520       -16.9396
  29   2.0000      -0.573462       -15.6047
  30   2.0000      -0.541561       -14.7366
  31   2.0000      -0.534570       -14.5464
  32   2.0000      -0.518884       -14.1196
  33   2.0000      -0.505831       -13.7644
  34   2.0000      -0.489906       -13.3310
  35   2.0000      -0.482636       -13.1332
  36   2.0000      -0.464091       -12.6285
  37   2.0000      -0.450633       -12.2624
  38   2.0000      -0.446715       -12.1557
  39   2.0000      -0.428819       -11.6688
  40   2.0000      -0.418106       -11.3772
  41   2.0000      -0.411604       -11.2003
  42   2.0000      -0.396052       -10.7771
  43   2.0000      -0.389518       -10.5993
  44   2.0000      -0.380053       -10.3418
  45   2.0000      -0.360087        -9.7985
  46   2.0000      -0.353342        -9.6149
  47   2.0000      -0.351365        -9.5611
  48   2.0000      -0.336394        -9.1538
  49   2.0000      -0.327098        -8.9008
  50   2.0000      -0.325002        -8.8438
  51   2.0000      -0.319441        -8.6924
  52   2.0000      -0.309330        -8.4173
  53   2.0000      -0.303567        -8.2605
  54   2.0000      -0.299741        -8.1564
  55   2.0000      -0.296348        -8.0640
  56   2.0000      -0.289449        -7.8763
  57   2.0000      -0.286540        -7.7972
  58   2.0000      -0.206616        -5.6223
  59   2.0000      -0.129892        -3.5345
  60   0.0000      -0.038635        -1.0513
  61   0.0000      -0.017510        -0.4765
  62   0.0000      -0.012433        -0.3383
  63   0.0000      -0.008531        -0.2321
  64   0.0000       0.001955         0.0532

MULLIKEN ATOMIC CHARGES
-----------------------
   0 C :   -0.858896
   1 N :   -0.323570
   2 C :   -0.581943
   3 C :   -0.701153
   4 H :    0.363337
   5 H :    0.335162
   6 S :    1.089410
   7 C :    0.766191
   8 N :   -0.296184
   9 C :   -1.448315
  10 H :    0.293795
  11 H :    0.363380
  12 H :    0.589882
  13 H :    0.305268
  14 H :    0.047834
  15 O :   -0.578211
  16 O :   -0.592723
  17 C :   -0.479638
  18 H :    0.309229
  19 H :    0.337789
  20 C :   -0.463535
  21 H :    0.262194
  22 H :    0.307152
  23 C :   -0.444934
  24 H :    0.287969
  25 H :    0.325281
  26 F :   -0.263484
  27 H :    0.225536
  28 H :    0.309299
  29 H :    0.264895
  30 H :    0.248982
Sum of atomic charges:   -0.0000000

LOEWDIN ATOMIC CHARGES
----------------------
   0 C :   -0.178684
   1 N :    0.034682
   2 C :   -0.214698
   3 C :   -0.220339
   4 H :    0.101886
   5 H :    0.110762
   6 S :    0.593783
   7 C :   -0.561910
   8 N :    0.139198
   9 C :    0.019863
  10 H :   -0.002920
  11 H :    0.000672
  12 H :    0.085596
  13 H :    0.066567
  14 H :    0.113547
  15 O :   -0.238165
  16 O :   -0.229247
  17 C :   -0.172591
  18 H :    0.111015
  19 H :    0.111349
  20 C :   -0.207191
  21 H :    0.110158
  22 H :    0.118990
  23 C :   -0.202584
  24 H :    0.105479
  25 H :    0.108684
  26 F :   -0.132545
  27 H :    0.097137
  28 H :    0.116235
  29 H :    0.093303
  30 H :    0.121966

  Mayer bond orders larger than 0.100000
B(  0-C ,  1-N ) :   0.9472 B(  0-C , 12-H ) :  -0.1486 B(  0-C , 17-C ) :   0.7128
B(  0-C , 18-H ) :   0.8630 B(  0-C , 19-H ) :   0.8662 B(  0-C , 20-C ) :   0.1199
B(  1-N ,  7-C ) :   0.9103 B(  1-N ,  9-C ) :   0.1342 B(  1-N , 12-H ) :   0.6007
B(  2-C ,  3-C ) :   0.8532 B(  2-C , 20-C ) :   0.9245 B(  2-C , 21-H ) :   0.9607
B(  2-C , 22-H ) :   0.9220 B(  2-C , 23-C ) :   0.1264 B(  3-C ,  4-H ) :   0.8469
B(  3-C ,  5-H ) :   0.8737 B(  3-C ,  6-S ) :   0.8320 B(  3-C , 15-O ) :   0.1388
B(  3-C , 16-O ) :   0.1056 B(  3-C , 23-C ) :   0.1358 B(  6-S , 15-O ) :   1.5105
B(  6-S , 16-O ) :   1.5675 B(  6-S , 26-F ) :   1.1709 B(  7-C ,  8-N ) :   0.8872
B(  7-C ,  9-C ) :   0.9656 B(  7-C , 11-H ) :  -0.1026 B(  8-N ,  9-C ) :   0.1143
B(  8-N , 13-H ) :   0.8778 B(  8-N , 14-H ) :   1.1074 B(  9-C , 10-H ) :   1.0119
B(  9-C , 11-H ) :   0.9804 B( 12-H , 26-F ) :  -0.1180 B( 15-O , 16-O ) :   0.1041
B( 17-C , 20-C ) :   0.1168 B( 17-C , 23-C ) :   1.0334 B( 17-C , 24-H ) :   0.9173
B( 17-C , 25-H ) :   0.9387 B( 20-C , 23-C ) :   0.1606 B( 20-C , 27-H ) :  -0.1232
B( 20-C , 29-H ) :   0.9685 B( 20-C , 30-H ) :   0.9111 B( 23-C , 27-H ) :   1.0727
B( 23-C , 28-H ) :   0.8641 B( 23-C , 29-H ) :  -0.1517

Dispersion correction           -0.074711399
FINAL SINGLE POINT ENERGY     -1073.109919040261

DIPOLE MOMENT
-------------
                                X             Y             Z
Electronic contribution:     -1.06166      -2.42556     -20.37916
Nuclear contribution   :      0.52036       3.84122      20.69523
                        -----------------------------------------
Total Dipole Moment    :     -0.54130       1.41566       0.31607
                        -----------------------------------------
Magnitude (a.u.)       :      1.54822
Magnitude (Debye)      :      3.93526

Rotational constants in cm-1:     0.029184     0.014996     0.011314
Rotational constants in MHz :   874.907122   449.569665   339.178205

                             ****ORCA TERMINATED NORMALLY****
TOTAL RUN TIME: 0 days 0 hours 2 minutes 22 seconds 964 msec
