                         Program Version 5.0.0 -  RELEASE  -
|  1> !B3LYP D3BJ RIJCOSX def2-TZVPD def2/J TightSCF
|  2> *xyz -1 1
|  3> C         -0.90349       -0.87394       -1.98739
|  4> C         -0.96015       -0.52236       -0.48987
|  5> H         -1.69039       -1.20813       -0.02168
|  6> H         -1.41449        0.48633       -0.40668
|  7> O          0.26170       -0.58031        0.13861
|  8> H         -1.88568       -0.80774       -2.40670
|  9> H         -0.53143       -1.87013       -2.10605
| 10> H         -0.25399       -0.18836       -2.49039
| 11> *
| 12>
| 13> %MaxCore 64000
| 14>
| 15> %pal nprocs 4
| 16> end
| 17>
| 18> %scf
| 19>   MaxIter 150
| 20> end
| 21>
| 22>
| 23>                          ****END OF INPUT****

CARTESIAN COORDINATES (ANGSTROEM)
---------------------------------
  C     -0.903490   -0.873940   -1.987390
  C     -0.960150   -0.522360   -0.489870
  H     -1.690390   -1.208130   -0.021680
  H     -1.414490    0.486330   -0.406680
  O      0.261700   -0.580310    0.138610
  H     -1.885680   -0.807740   -2.406700
  H     -0.531430   -1.870130   -2.106050
  H     -0.253990   -0.188360   -2.490390

 Total Charge           Charge          ....   -1
 Multiplicity           Mult            ....    1
 Number of Electrons    NEL             ....   26
 Basis Dimension        Dim             ....  159

ORBITAL ENERGIES
----------------

  NO   OCC          E(Eh)            E(eV)
   0   2.0000     -18.797958      -511.5185
   1   2.0000      -9.983672      -271.6695
   2   2.0000      -9.960232      -271.0317
   3   2.0000      -0.680527       -18.5181
   4   2.0000      -0.527591       -14.3565
   5   2.0000      -0.374362       -10.1869
   6   2.0000      -0.251517        -6.8441
   7   2.0000      -0.229342        -6.2407
   8   2.0000      -0.174342        -4.7441
   9   2.0000      -0.159667        -4.3447
  10   2.0000      -0.114670        -3.1203
  11   2.0000       0.026362         0.7173
  12   2.0000       0.029057         0.7907
  13   0.0000       0.153723         4.1830
  14   0.0000       0.177709         4.8357
  15   0.0000       0.203771         5.5449
  16   0.0000       0.207918         5.6577
  17   0.0000       0.228470         6.2170

MULLIKEN ATOMIC CHARGES
-----------------------
   0 C :   -0.959546
   1 C :   -0.211639
   2 H :    0.167804
   3 H :    0.167538
   4 O :   -0.938749
   5 H :    0.326196
   6 H :    0.224311
   7 H :    0.224085
Sum of atomic charges:   -1.0000000

LOEWDIN ATOMIC CHARGES
----------------------
   0 C :   -0.168344
   1 C :   -0.611521
   2 H :    0.050239
   3 H :    0.051495
   4 O :   -0.415438
   5 H :    0.022669
   6 H :    0.035473
   7 H :    0.035427

  Mayer bond orders larger than 0.100000
B(  0-C ,  1-C ) :   0.7575 B(  0-C ,  4-O ) :   0.4074 B(  0-C ,  5-H ) :   0.9539
B(  0-C ,  6-H ) :   1.0078 B(  0-C ,  7-H ) :   1.0079 B(  1-C ,  2-H ) :   1.0608
B(  1-C ,  3-H ) :   1.0585 B(  1-C ,  4-O ) :   0.8868

Dispersion correction           -0.006227815
FINAL SINGLE POINT ENERGY      -154.406546497208

DIPOLE MOMENT
-------------
                                X             Y             Z
Electronic contribution:      1.91976       0.18344       2.20793
Nuclear contribution   :     -2.90669      -0.27617      -3.31210
                        -----------------------------------------
Total Dipole Moment    :     -0.98694      -0.09273      -1.10417
                        -----------------------------------------
Magnitude (a.u.)       :      1.48386
Magnitude (Debye)      :      3.77167

Rotational constants in cm-1:     1.291883     0.321656     0.284469
Rotational constants in MHz : 38729.676116  9643.011620  8528.167295

                             ****ORCA TERMINATED NORMALLY****
TOTAL RUN TIME: 0 days 0 hours 0 minutes 16 seconds 778 msec
