                         Program Version 5.0.0 -  RELEASE  -
|  1> !B3LYP D3BJ RIJCOSX def2-TZVPD def2/J TightSCF
|  2> *xyz 1 1
|  3> C          4.36645       -0.13321       -1.41606
|  4> C          4.50829       -0.93187       -2.72425
|  5> C          3.05650       -0.32080       -0.70738
|  6> N          2.38983        0.71129       -0.24391
|  7> N          2.51600       -1.50772       -0.55023
|  8> H          2.96768       -2.32291       -0.95631
|  9> H          1.54987       -1.49063       -0.24988
| 10> H          2.74307        1.64947       -0.41280
| 11> H          1.44036        0.50278        0.03703
| 12> H          4.48784        0.93300       -1.61157
| 13> H          5.16967       -0.41443       -0.72982
| 14> H          5.46700       -0.73824       -3.15818
| 15> H          3.74074       -0.63528       -3.40821
| 16> H          4.41574       -1.97727       -2.51573
| 17> *
| 18>
| 19> %MaxCore 64000
| 20>
| 21> %pal nprocs 4
| 22> end
| 23>
| 24> %scf
| 25>   MaxIter 150
| 26> end
| 27>
| 28>
| 29>                          ****END OF INPUT****

CARTESIAN COORDINATES (ANGSTROEM)
---------------------------------
  C      4.366450   -0.133210   -1.416060
  C      4.508290   -0.931870   -2.724250
  C      3.056500   -0.320800   -0.707380
  N      2.389830    0.711290   -0.243910
  N      2.516000   -1.507720   -0.550230
  H      2.967680   -2.322910   -0.956310
  H      1.549870   -1.490630   -0.249880
  H      2.743070    1.649470   -0.412800
  H      1.440360    0.502780    0.037030
  H      4.487840    0.933000   -1.611570
  H      5.169670   -0.414430   -0.729820
  H      5.467000   -0.738240   -3.158180
  H      3.740740   -0.635280   -3.408210
  H      4.415740   -1.977270   -2.515730

 Total Charge           Charge          ....    1
 Multiplicity           Mult            ....    1
 Number of Electrons    NEL             ....   40
 Basis Dimension        Dim             ....  266

ORBITAL ENERGIES
----------------

  NO   OCC          E(Eh)            E(eV)
   0   2.0000     -14.561445      -396.2371
   1   2.0000     -14.560013      -396.1981
   2   2.0000     -10.489714      -285.4396
   3   2.0000     -10.370607      -282.1986
   4   2.0000     -10.326950      -281.0106
   5   2.0000      -1.212124       -32.9836
   6   2.0000      -1.107552       -30.1380
   7   2.0000      -0.970211       -26.4008
   8   2.0000      -0.860909       -23.4265
   9   2.0000      -0.818998       -22.2861
  10   2.0000      -0.769520       -20.9397
  11   2.0000      -0.756525       -20.5861
  12   2.0000      -0.705133       -19.1877
  13   2.0000      -0.659731       -17.9522
  14   2.0000      -0.628734       -17.1087
  15   2.0000      -0.602067       -16.3831
  16   2.0000      -0.555746       -15.1226
  17   2.0000      -0.542736       -14.7686
  18   2.0000      -0.529125       -14.3982
  19   2.0000      -0.494181       -13.4474
  20   0.0000      -0.215963        -5.8766
  21   0.0000      -0.173619        -4.7244
  22   0.0000      -0.130757        -3.5581
  23   0.0000      -0.127243        -3.4625
  24   0.0000      -0.097119        -2.6428

MULLIKEN ATOMIC CHARGES
-----------------------
   0 C :   -0.243990
   1 C :   -1.184845
   2 C :    0.586004
   3 N :   -0.250191
   4 N :   -0.253224
   5 H :    0.213053
   6 H :    0.183892
   7 H :    0.231232
   8 H :    0.183323
   9 H :    0.258273
  10 H :    0.283403
  11 H :    0.299024
  12 H :    0.336567
  13 H :    0.357477
Sum of atomic charges:    1.0000000

LOEWDIN ATOMIC CHARGES
----------------------
   0 C :   -0.133401
   1 C :   -0.050871
   2 C :   -0.356237
   3 N :    0.227263
   4 N :    0.231604
   5 H :    0.145263
   6 H :    0.144175
   7 H :    0.152240
   8 H :    0.142669
   9 H :    0.122094
  10 H :    0.139273
  11 H :    0.086094
  12 H :    0.083825
  13 H :    0.066010

  Mayer bond orders larger than 0.100000
B(  0-C ,  1-C ) :   0.6362 B(  0-C ,  2-C ) :   0.8196 B(  0-C ,  9-H ) :   0.9448
B(  0-C , 10-H ) :   0.9225 B(  1-C , 11-H ) :   0.9966 B(  1-C , 12-H ) :   0.9438
B(  1-C , 13-H ) :   0.9057 B(  2-C ,  3-N ) :   1.2631 B(  2-C ,  4-N ) :   1.2273
B(  3-N ,  4-N ) :   0.1024 B(  3-N ,  7-H ) :   0.9391 B(  3-N ,  8-H ) :   0.9959
B(  4-N ,  5-H ) :   0.9405 B(  4-N ,  6-H ) :   0.9998

Dispersion correction           -0.016682648
FINAL SINGLE POINT ENERGY      -228.987677559589

DIPOLE MOMENT
-------------
                                X             Y             Z
Electronic contribution:     -2.65391       0.62525       3.10674
Nuclear contribution   :      1.78847      -0.48174      -2.67127
                        -----------------------------------------
Total Dipole Moment    :     -0.86544       0.14351       0.43547
                        -----------------------------------------
Magnitude (a.u.)       :      0.97939
Magnitude (Debye)      :      2.48942

Rotational constants in cm-1:     0.286883     0.123210     0.094446
Rotational constants in MHz :  8600.540572  3693.747366  2831.415242

                             ****ORCA TERMINATED NORMALLY****
TOTAL RUN TIME: 0 days 0 hours 0 minutes 36 seconds 651 msec
