                         Program Version 5.0.0 -  RELEASE  -
|  1> !B3LYP D3BJ RIJCOSX def2-TZVPD def2/J TightSCF xyzfile
|  2>
|  3> *xyzfile 0 1 B.xyz
|  4>
|  5> %MaxCore 64000
|  6>
|  7> %pal nprocs 4
|  8> end
|  9>
| 10> %scf
| 11>   MaxIter 150
| 12> end
| 13>
| 14>
| 15>                          ****END OF INPUT****

CARTESIAN COORDINATES (ANGSTROEM)
---------------------------------
  C      4.366454   -0.133215   -1.416062
  C      4.508292   -0.931872   -2.724249
  H      4.753716   -1.972051   -2.488408
  C      3.294164   -0.918214   -3.656570
  H      5.385637   -0.536236   -3.242640
  H      2.483463   -1.477378   -3.185764
  H      3.553092   -1.478495   -4.560331
  C      2.772335    0.460100   -4.051448
  H      2.608762    1.065107   -3.155194
  C      1.465354    0.410537   -4.853644
  H      3.532940    0.988848   -4.635671
  C      0.326171   -0.375613   -4.192580
  H      1.666704   -0.022269   -5.839323
  H      1.138198    1.439246   -5.035449
  C     -0.017405    0.080588   -2.778406
  H      0.585573   -1.439385   -4.168057
  H     -0.560005   -0.311425   -4.831461
  H      0.902090    0.201296   -2.206729
  C     -0.903495   -0.873945   -1.987388
  H     -0.479549    1.074657   -2.811915
  H     -0.502554   -1.892096   -2.081204
  H     -1.917039   -0.895427   -2.406277
  C     -0.960148   -0.522365   -0.489867
  H     -1.690392   -1.208130   -0.021677
  H     -1.414490    0.486329   -0.406677
  O      0.261703   -0.580307    0.138611
  C      3.056503   -0.320797   -0.707384
  N      2.389825    0.711285   -0.243909
  N      2.515999   -1.507721   -0.550229
  H      2.967683   -2.322915   -0.956305
  H      1.549872   -1.490634   -0.249876
  H      2.743071    1.649471   -0.412802
  H      1.440364    0.502778    0.037031
  H      4.487835    0.932997   -1.611569
  H      5.169672   -0.414432   -0.729817

 Total Charge           Charge          ....    0
 Multiplicity           Mult            ....    1
 Number of Electrons    NEL             ....  104
 Basis Dimension        Dim             ....  682

ORBITAL ENERGIES
----------------

  NO   OCC          E(Eh)            E(eV)
   0   2.0000     -18.999310      -516.9975
   1   2.0000     -14.343110      -390.2959
   2   2.0000     -14.342658      -390.2836
   3   2.0000     -10.291249      -280.0391
   4   2.0000     -10.213201      -277.9153
   5   2.0000     -10.197684      -277.4931
   6   2.0000     -10.176696      -276.9220
   7   2.0000     -10.170386      -276.7503
   8   2.0000     -10.161787      -276.5163
   9   2.0000     -10.151151      -276.2269
  10   2.0000     -10.150018      -276.1960
  11   2.0000     -10.137765      -275.8626
  12   2.0000     -10.125275      -275.5227
  13   2.0000      -1.007164       -27.4063
  14   2.0000      -0.901438       -24.5294
  15   2.0000      -0.889257       -24.1979
  16   2.0000      -0.833093       -22.6696
  17   2.0000      -0.797247       -21.6942
  18   2.0000      -0.758262       -20.6334
  19   2.0000      -0.719003       -19.5651
  20   2.0000      -0.681149       -18.5350
  21   2.0000      -0.639782       -17.4093
  22   2.0000      -0.622485       -16.9387
  23   2.0000      -0.609654       -16.5895
  24   2.0000      -0.568408       -15.4672
  25   2.0000      -0.552744       -15.0409
  26   2.0000      -0.550402       -14.9772
  27   2.0000      -0.526059       -14.3148
  28   2.0000      -0.503743       -13.7075
  29   2.0000      -0.500795       -13.6273
  30   2.0000      -0.483151       -13.1472
  31   2.0000      -0.462655       -12.5895
  32   2.0000      -0.447362       -12.1733
  33   2.0000      -0.429443       -11.6858
  34   2.0000      -0.419524       -11.4158
  35   2.0000      -0.412919       -11.2361
  36   2.0000      -0.406863       -11.0713
  37   2.0000      -0.401610       -10.9284
  38   2.0000      -0.380882       -10.3643
  39   2.0000      -0.371399       -10.1063
  40   2.0000      -0.362890        -9.8747
  41   2.0000      -0.353689        -9.6244
  42   2.0000      -0.343799        -9.3552
  43   2.0000      -0.339348        -9.2341
  44   2.0000      -0.320946        -8.7334
  45   2.0000      -0.314476        -8.5573
  46   2.0000      -0.304624        -8.2892
  47   2.0000      -0.300363        -8.1733
  48   2.0000      -0.297049        -8.0831
  49   2.0000      -0.285879        -7.7792
  50   2.0000      -0.183548        -4.9946
  51   2.0000      -0.178363        -4.8535
  52   0.0000      -0.028905        -0.7866
  53   0.0000      -0.013887        -0.3779
  54   0.0000      -0.001495        -0.0407
  55   0.0000       0.012479         0.3396
  56   0.0000       0.019246         0.5237

MULLIKEN ATOMIC CHARGES
-----------------------
   0 C :   -0.395201
   1 C :   -0.722163
   2 H :    0.307973
   3 C :   -0.285638
   4 H :    0.235200
   5 H :    0.225392
   6 H :    0.281455
   7 C :   -0.519477
   8 H :    0.306051
   9 C :   -0.641525
  10 H :    0.253721
  11 C :   -0.477084
  12 H :    0.257510
  13 H :    0.255229
  14 C :    0.289164
  15 H :    0.196899
  16 H :    0.294238
  17 H :   -0.397187
  18 C :   -0.460397
  19 H :    0.373167
  20 H :    0.191139
  21 H :    0.270854
  22 C :   -0.510420
  23 H :    0.242422
  24 H :    0.254294
  25 O :   -1.050087
  26 C :   -0.000869
  27 N :   -0.216720
  28 N :   -0.198338
  29 H :    0.161009
  30 H :    0.417122
  31 H :    0.156616
  32 H :    0.413456
  33 H :    0.297756
  34 H :    0.194439
Sum of atomic charges:   -0.0000000

LOEWDIN ATOMIC CHARGES
----------------------
   0 C :   -0.111227
   1 C :   -0.187448
   2 H :    0.104879
   3 C :   -0.206916
   4 H :    0.111779
   5 H :    0.090395
   6 H :    0.119636
   7 C :   -0.208530
   8 H :    0.092522
   9 C :   -0.202035
  10 H :    0.113400
  11 C :   -0.215401
  12 H :    0.105820
  13 H :    0.107381
  14 C :   -0.219509
  15 H :    0.099570
  16 H :    0.110152
  17 H :    0.071028
  18 C :   -0.200258
  19 H :    0.122099
  20 H :    0.104211
  21 H :    0.105526
  22 C :   -0.392546
  23 H :    0.093189
  24 H :    0.097760
  25 O :   -0.325618
  26 C :   -0.391906
  27 N :    0.197563
  28 N :    0.213136
  29 H :    0.131314
  30 H :    0.053696
  31 H :    0.131911
  32 H :    0.047613
  33 H :    0.111819
  34 H :    0.124995

  Mayer bond orders larger than 0.100000
B(  0-C ,  1-C ) :   0.8366 B(  0-C ,  3-C ) :  -0.1090 B(  0-C ,  7-C ) :   0.1326
B(  0-C , 26-C ) :   0.8464 B(  0-C , 33-H ) :   0.9469 B(  0-C , 34-H ) :   0.9856
B(  1-C ,  2-H ) :   0.9216 B(  1-C ,  3-C ) :   0.8350 B(  1-C ,  4-H ) :   0.9401
B(  1-C ,  7-C ) :   0.1915 B(  1-C , 26-C ) :   0.1046 B(  3-C ,  5-H ) :   1.0510
B(  3-C ,  6-H ) :   0.8917 B(  3-C ,  7-C ) :   0.4603 B(  3-C ,  9-C ) :   0.1366
B(  3-C , 11-C ) :   0.1373 B(  5-H ,  7-C ) :  -0.1041 B(  7-C ,  8-H ) :   0.9887
B(  7-C ,  9-C ) :   0.9126 B(  7-C , 10-H ) :   0.9326 B(  9-C , 11-C ) :   0.8345
B(  9-C , 12-H ) :   0.9518 B(  9-C , 13-H ) :   0.9702 B(  9-C , 14-C ) :   0.1494
B( 11-C , 14-C ) :   0.4860 B( 11-C , 15-H ) :   0.9899 B( 11-C , 16-H ) :   0.9203
B( 11-C , 17-H ) :  -0.2439 B( 11-C , 18-C ) :   0.3517 B( 14-C , 15-H ) :  -0.1056
B( 14-C , 17-H ) :   1.8262 B( 14-C , 18-C ) :   0.6407 B( 14-C , 19-H ) :   0.7701
B( 14-C , 22-C ) :   0.1730 B( 14-C , 25-O ) :   0.2246 B( 14-C , 27-N ) :  -0.1280
B( 17-H , 25-O ) :  -0.1678 B( 18-C , 20-H ) :   0.9321 B( 18-C , 21-H ) :   0.9907
B( 18-C , 22-C ) :   0.7973 B( 22-C , 23-H ) :   0.9799 B( 22-C , 24-H ) :   0.9717
B( 22-C , 25-O ) :   0.9658 B( 25-O , 30-H ) :   0.1956 B( 25-O , 32-H ) :   0.1379
B( 26-C , 27-N ) :   1.5828 B( 26-C , 28-N ) :   1.4371 B( 27-N , 31-H ) :   0.9555
B( 27-N , 32-H ) :   0.6811 B( 28-N , 29-H ) :   0.9285 B( 28-N , 30-H ) :   0.6731

Dispersion correction           -0.064108675
FINAL SINGLE POINT ENERGY      -578.932509260925

DIPOLE MOMENT
-------------
                                X             Y             Z
Electronic contribution:      2.76853      -0.27006       7.55503
Nuclear contribution   :     -0.17996       0.53390      -8.68067
                        -----------------------------------------
Total Dipole Moment    :      2.58857       0.26384      -1.12564
                        -----------------------------------------
Magnitude (a.u.)       :      2.83502
Magnitude (Debye)      :      7.20606

Rotational constants in cm-1:     0.028240     0.022734     0.014600
Rotational constants in MHz :   846.611263   681.554306   437.693928

                             ****ORCA TERMINATED NORMALLY****
TOTAL RUN TIME: 0 days 0 hours 6 minutes 56 seconds 881 msec
