                         Program Version 5.0.0 -  RELEASE  -
|  1> !B3LYP D3BJ RIJCOSX def2-TZVPD def2/J TightSCF
|  2> *xyz 0 1
|  3> C         -0.90349       -0.87394       -1.98739
|  4> C         -0.96015       -0.52236       -0.48987
|  5> H         -1.69039       -1.20813       -0.02168
|  6> H         -1.41449        0.48633       -0.40668
|  7> F          0.26170       -0.58031        0.13861
|  8> H         -1.88568       -0.80774       -2.40670
|  9> H         -0.53143       -1.87013       -2.10605
| 10> H         -0.25399       -0.18836       -2.49039
| 11> *
| 12>
| 13> %MaxCore 64000
| 14>
| 15> %pal nprocs 4
| 16> end
| 17>
| 18> %scf
| 19>   MaxIter 150
| 20> end
| 21>
| 22>
| 23>                          ****END OF INPUT****

CARTESIAN COORDINATES (ANGSTROEM)
---------------------------------
  C     -0.903490   -0.873940   -1.987390
  C     -0.960150   -0.522360   -0.489870
  H     -1.690390   -1.208130   -0.021680
  H     -1.414490    0.486330   -0.406680
  F      0.261700   -0.580310    0.138610
  H     -1.885680   -0.807740   -2.406700
  H     -0.531430   -1.870130   -2.106050
  H     -0.253990   -0.188360   -2.490390

 Total Charge           Charge          ....    0
 Multiplicity           Mult            ....    1
 Number of Electrons    NEL             ....   26
 Basis Dimension        Dim             ....  159

ORBITAL ENERGIES
----------------

  NO   OCC          E(Eh)            E(eV)
   0   2.0000     -24.668956      -671.2764
   1   2.0000     -10.247728      -278.8549
   2   2.0000     -10.164150      -276.5806
   3   2.0000      -1.197251       -32.5789
   4   2.0000      -0.764883       -20.8135
   5   2.0000      -0.632616       -17.2144
   6   2.0000      -0.507495       -13.8096
   7   2.0000      -0.495453       -13.4820
   8   2.0000      -0.457809       -12.4576
   9   2.0000      -0.406771       -11.0688
  10   2.0000      -0.403267       -10.9735
  11   2.0000      -0.337947        -9.1960
  12   2.0000      -0.333428        -9.0730
  13   0.0000       0.008499         0.2313
  14   0.0000       0.035319         0.9611
  15   0.0000       0.052579         1.4307
  16   0.0000       0.055955         1.5226
  17   0.0000       0.081923         2.2292

MULLIKEN ATOMIC CHARGES
-----------------------
   0 C :   -0.867016
   1 C :   -0.047388
   2 H :    0.202805
   3 H :    0.202194
   4 F :   -0.307268
   5 H :    0.299070
   6 H :    0.258870
   7 H :    0.258733
Sum of atomic charges:   -0.0000000

LOEWDIN ATOMIC CHARGES
----------------------
   0 C :   -0.077997
   1 C :   -0.280845
   2 H :    0.108052
   3 H :    0.109773
   4 F :   -0.048913
   5 H :    0.065075
   6 H :    0.062448
   7 H :    0.062407

  Mayer bond orders larger than 0.100000
B(  0-C ,  1-C ) :   0.7726 B(  0-C ,  5-H ) :   0.9424 B(  0-C ,  6-H ) :   0.9687
B(  0-C ,  7-H ) :   0.9686 B(  1-C ,  2-H ) :   0.9826 B(  1-C ,  3-H ) :   0.9812
B(  1-C ,  4-F ) :   0.8050

Dispersion correction           -0.005735807
FINAL SINGLE POINT ENERGY      -179.049860435409

DIPOLE MOMENT
-------------
                                X             Y             Z
Electronic contribution:      3.22525       0.37569       3.98232
Nuclear contribution   :     -3.84149      -0.36812      -4.38946
                        -----------------------------------------
Total Dipole Moment    :     -0.61624       0.00757      -0.40714
                        -----------------------------------------
Magnitude (a.u.)       :      0.73863
Magnitude (Debye)      :      1.87744

Rotational constants in cm-1:     1.270659     0.299196     0.265842
Rotational constants in MHz : 38093.410361  8969.665806  7969.741481

                             ****ORCA TERMINATED NORMALLY****
TOTAL RUN TIME: 0 days 0 hours 0 minutes 14 seconds 314 msec
