                         Program Version 5.0.0 -  RELEASE  -
|  1> !B3LYP D3BJ RIJCOSX def2-TZVPD def2/J TightSCF
|  2> *xyz 0 1
|  3> C          4.36645       -0.13321       -1.41606
|  4> C          4.50829       -0.93187       -2.72425
|  5> C          3.05650       -0.32080       -0.70738
|  6> C          2.38983        0.71129       -0.24391
|  7> N          2.51600       -1.50772       -0.55023
|  8> H          2.96768       -2.32291       -0.95631
|  9> H          1.54987       -1.49063       -0.24988
| 10> H          2.74307        1.64947       -0.41280
| 11> H          1.44036        0.50278        0.03703
| 12> H          4.48784        0.93300       -1.61157
| 13> H          5.16967       -0.41443       -0.72982
| 14> H          5.46700       -0.73824       -3.15818
| 15> H          3.74074       -0.63528       -3.40821
| 16> H          4.41574       -1.97727       -2.51573
| 17> *
| 18>
| 19> %MaxCore 64000
| 20>
| 21> %pal nprocs 4
| 22> end
| 23>
| 24> %scf
| 25>   MaxIter 150
| 26> end
| 27>
| 28>
| 29>                          ****END OF INPUT****

CARTESIAN COORDINATES (ANGSTROEM)
---------------------------------
  C      4.366450   -0.133210   -1.416060
  C      4.508290   -0.931870   -2.724250
  C      3.056500   -0.320800   -0.707380
  C      2.389830    0.711290   -0.243910
  N      2.516000   -1.507720   -0.550230
  H      2.967680   -2.322910   -0.956310
  H      1.549870   -1.490630   -0.249880
  H      2.743070    1.649470   -0.412800
  H      1.440360    0.502780    0.037030
  H      4.487840    0.933000   -1.611570
  H      5.169670   -0.414430   -0.729820
  H      5.467000   -0.738240   -3.158180
  H      3.740740   -0.635280   -3.408210
  H      4.415740   -1.977270   -2.515730

 Total Charge           Charge          ....    0
 Multiplicity           Mult            ....    1
 Number of Electrons    NEL             ....   40
 Basis Dimension        Dim             ....  266

ORBITAL ENERGIES
----------------

  NO   OCC          E(Eh)            E(eV)
   0   2.0000     -14.314216      -389.5096
   1   2.0000     -10.185116      -277.1511
   2   2.0000     -10.169767      -276.7334
   3   2.0000     -10.159385      -276.4509
   4   2.0000     -10.098677      -274.7990
   5   2.0000      -0.933270       -25.3956
   6   2.0000      -0.777460       -21.1558
   7   2.0000      -0.722259       -19.6537
   8   2.0000      -0.636133       -17.3101
   9   2.0000      -0.562421       -15.3043
  10   2.0000      -0.534453       -14.5432
  11   2.0000      -0.469929       -12.7874
  12   2.0000      -0.440872       -11.9967
  13   2.0000      -0.430115       -11.7040
  14   2.0000      -0.394928       -10.7465
  15   2.0000      -0.380641       -10.3578
  16   2.0000      -0.359003        -9.7690
  17   2.0000      -0.344430        -9.3724
  18   2.0000      -0.326395        -8.8817
  19   2.0000      -0.189216        -5.1488
  20   0.0000       0.000250         0.0068
  21   0.0000       0.025317         0.6889
  22   0.0000       0.031798         0.8653
  23   0.0000       0.040114         1.0916
  24   0.0000       0.051975         1.4143

MULLIKEN ATOMIC CHARGES
-----------------------
   0 C :   -0.171534
   1 C :   -1.122041
   2 C :    0.640296
   3 C :   -1.114191
   4 N :   -0.331604
   5 H :    0.152297
   6 H :    0.139669
   7 H :    0.272413
   8 H :    0.255865
   9 H :    0.176141
  10 H :    0.219869
  11 H :    0.288418
  12 H :    0.298132
  13 H :    0.296270
Sum of atomic charges:   -0.0000000

LOEWDIN ATOMIC CHARGES
----------------------
   0 C :   -0.187023
   1 C :   -0.089814
   2 C :   -0.496718
   3 C :    0.018585
   4 N :    0.101834
   5 H :    0.101856
   6 H :    0.109337
   7 H :    0.021211
   8 H :    0.019673
   9 H :    0.106087
  10 H :    0.111734
  11 H :    0.062377
  12 H :    0.070396
  13 H :    0.050466

  Mayer bond orders larger than 0.100000
B(  0-C ,  1-C ) :   0.5959 B(  0-C ,  2-C ) :   0.8367 B(  0-C ,  9-H ) :   0.9840
B(  0-C , 10-H ) :   0.9121 B(  1-C , 11-H ) :   0.9924 B(  1-C , 12-H ) :   0.9880
B(  1-C , 13-H ) :   0.9516 B(  2-C ,  3-C ) :   1.2601 B(  2-C ,  4-N ) :   1.0425
B(  2-C ,  8-H ) :  -0.1471 B(  3-C ,  7-H ) :   0.9455 B(  3-C ,  8-H ) :   1.0717
B(  4-N ,  5-H ) :   1.0102 B(  4-N ,  6-H ) :   1.0008

Dispersion correction           -0.017381912
FINAL SINGLE POINT ENERGY      -212.516657070071

DIPOLE MOMENT
-------------
                                X             Y             Z
Electronic contribution:     -1.48766      -0.42705       2.06946
Nuclear contribution   :      1.56827      -0.21459      -2.46657
                        -----------------------------------------
Total Dipole Moment    :      0.08060      -0.64164      -0.39712
                        -----------------------------------------
Magnitude (a.u.)       :      0.75888
Magnitude (Debye)      :      1.92892

Rotational constants in cm-1:     0.294070     0.127722     0.097792
Rotational constants in MHz :  8815.983970  3829.010547  2931.715816

                             ****ORCA TERMINATED NORMALLY****
TOTAL RUN TIME: 0 days 0 hours 0 minutes 39 seconds 642 msec
