                         Program Version 5.0.0 -  RELEASE  -
|  1> !B3LYP D3BJ RIJCOSX def2-TZVPD def2/J TightSCF
|  2> *xyz 0 1
|  3> C          4.36645       -0.13321       -1.41606
|  4> C          4.50829       -0.93187       -2.72425
|  5> C          3.05650       -0.32080       -0.70738
|  6> N          2.38983        0.71129       -0.24391
|  7> C          2.51600       -1.50772       -0.55023
|  8> H          2.96768       -2.32291       -0.95631
|  9> H          1.54987       -1.49063       -0.24988
| 10> H          2.74307        1.64947       -0.41280
| 11> H          1.44036        0.50278        0.03703
| 12> H          4.48784        0.93300       -1.61157
| 13> H          5.16967       -0.41443       -0.72982
| 14> H          5.46700       -0.73824       -3.15818
| 15> H          3.74074       -0.63528       -3.40821
| 16> H          4.41574       -1.97727       -2.51573
| 17> *
| 18>
| 19> %MaxCore 64000
| 20>
| 21> %pal nprocs 4
| 22> end
| 23>
| 24> %scf
| 25>   MaxIter 150
| 26> end
| 27>
| 28>
| 29>                          ****END OF INPUT****

CARTESIAN COORDINATES (ANGSTROEM)
---------------------------------
  C      4.366450   -0.133210   -1.416060
  C      4.508290   -0.931870   -2.724250
  C      3.056500   -0.320800   -0.707380
  N      2.389830    0.711290   -0.243910
  C      2.516000   -1.507720   -0.550230
  H      2.967680   -2.322910   -0.956310
  H      1.549870   -1.490630   -0.249880
  H      2.743070    1.649470   -0.412800
  H      1.440360    0.502780    0.037030
  H      4.487840    0.933000   -1.611570
  H      5.169670   -0.414430   -0.729820
  H      5.467000   -0.738240   -3.158180
  H      3.740740   -0.635280   -3.408210
  H      4.415740   -1.977270   -2.515730

 Total Charge           Charge          ....    0
 Multiplicity           Mult            ....    1
 Number of Electrons    NEL             ....   40
 Basis Dimension        Dim             ....  266

ORBITAL ENERGIES
----------------

  NO   OCC          E(Eh)            E(eV)
   0   2.0000     -14.315109      -389.5339
   1   2.0000     -10.185256      -277.1549
   2   2.0000     -10.171173      -276.7717
   3   2.0000     -10.153216      -276.2830
   4   2.0000     -10.096885      -274.7502
   5   2.0000      -0.933630       -25.4054
   6   2.0000      -0.778911       -21.1953
   7   2.0000      -0.711630       -19.3644
   8   2.0000      -0.645255       -17.5583
   9   2.0000      -0.553622       -15.0648
  10   2.0000      -0.531781       -14.4705
  11   2.0000      -0.477949       -13.0056
  12   2.0000      -0.450057       -12.2467
  13   2.0000      -0.408622       -11.1192
  14   2.0000      -0.391705       -10.6588
  15   2.0000      -0.380388       -10.3509
  16   2.0000      -0.358871        -9.7654
  17   2.0000      -0.343472        -9.3464
  18   2.0000      -0.327570        -8.9136
  19   2.0000      -0.187619        -5.1054
  20   0.0000       0.003220         0.0876
  21   0.0000       0.021713         0.5909
  22   0.0000       0.033222         0.9040
  23   0.0000       0.038426         1.0456
  24   0.0000       0.055249         1.5034

MULLIKEN ATOMIC CHARGES
-----------------------
   0 C :   -0.203517
   1 C :   -1.064378
   2 C :    0.654840
   3 N :   -0.317551
   4 C :   -1.157409
   5 H :    0.248254
   6 H :    0.253569
   7 H :    0.170668
   8 H :    0.140454
   9 H :    0.206527
  10 H :    0.221225
  11 H :    0.283003
  12 H :    0.293760
  13 H :    0.270553
Sum of atomic charges:    0.0000000

LOEWDIN ATOMIC CHARGES
----------------------
   0 C :   -0.186705
   1 C :   -0.087479
   2 C :   -0.493236
   3 N :    0.095926
   4 C :    0.018196
   5 H :    0.018319
   6 H :    0.021316
   7 H :    0.105662
   8 H :    0.107701
   9 H :    0.098585
  10 H :    0.113787
  11 H :    0.060688
  12 H :    0.070583
  13 H :    0.056655

  Mayer bond orders larger than 0.100000
B(  0-C ,  1-C ) :   0.6191 B(  0-C ,  2-C ) :   0.6466 B(  0-C ,  9-H ) :   1.0453
B(  0-C , 10-H ) :   0.9468 B(  1-C , 11-H ) :   0.9802 B(  1-C , 12-H ) :   0.9732
B(  1-C , 13-H ) :   0.9898 B(  2-C ,  3-N ) :   1.1080 B(  2-C ,  4-C ) :   1.1759
B(  2-C ,  6-H ) :  -0.1567 B(  2-C ,  9-H ) :  -0.1274 B(  3-N ,  4-C ) :   0.1079
B(  3-N ,  7-H ) :   1.0132 B(  3-N ,  8-H ) :   0.9930 B(  4-C ,  5-H ) :   0.9728
B(  4-C ,  6-H ) :   1.0800

Dispersion correction           -0.017452118
FINAL SINGLE POINT ENERGY      -212.515458751372

DIPOLE MOMENT
-------------
                                X             Y             Z
Electronic contribution:     -1.59912       1.45267       2.34506
Nuclear contribution   :      1.59749      -0.72853      -2.53752
                        -----------------------------------------
Total Dipole Moment    :     -0.00163       0.72414      -0.19246
                        -----------------------------------------
Magnitude (a.u.)       :      0.74928
Magnitude (Debye)      :      1.90453

Rotational constants in cm-1:     0.304597     0.124127     0.096828
Rotational constants in MHz :  9131.600925  3721.227051  2902.830760

                             ****ORCA TERMINATED NORMALLY****
TOTAL RUN TIME: 0 days 0 hours 0 minutes 39 seconds 727 msec
