                         Program Version 5.0.0 -  RELEASE  -
|  1> !B3LYP D3BJ RIJCOSX def2-TZVPD def2/J TightSCF xyzfile
|  2>
|  3> *xyzfile 0 1 D1.xyz
|  4>
|  5> %MaxCore 64000
|  6>
|  7> %pal nprocs 4
|  8> end
|  9>
| 10> %scf
| 11>   MaxIter 150
| 12> end
| 13>
| 14>
| 15>                          ****END OF INPUT****

CARTESIAN COORDINATES (ANGSTROEM)
---------------------------------
  C      4.366454   -0.133215   -1.416062
  C      4.508292   -0.931872   -2.724249
  H      4.753716   -1.972051   -2.488408
  C      3.294164   -0.918214   -3.656570
  H      5.385637   -0.536236   -3.242640
  H      2.483463   -1.477378   -3.185764
  H      3.553092   -1.478495   -4.560331
  C      2.772335    0.460100   -4.051448
  H      2.608762    1.065107   -3.155194
  C      1.465354    0.410537   -4.853644
  H      3.532940    0.988848   -4.635671
  C      0.326171   -0.375613   -4.192580
  H      1.666704   -0.022269   -5.839323
  H      1.138198    1.439246   -5.035449
  C     -0.017405    0.080588   -2.778406
  H      0.585573   -1.439385   -4.168057
  H     -0.560005   -0.311425   -4.831461
  H      0.902090    0.201296   -2.206729
  C     -0.903495   -0.873945   -1.987388
  H     -0.479549    1.074657   -2.811915
  H     -0.502554   -1.892096   -2.081204
  H     -1.917039   -0.895427   -2.406277
  C     -0.960148   -0.522365   -0.489867
  H     -1.690392   -1.208130   -0.021677
  H     -1.414490    0.486329   -0.406677
  F      0.261703   -0.580307    0.138611
  C      3.056503   -0.320797   -0.707384
  C      2.389825    0.711285   -0.243909
  N      2.515999   -1.507721   -0.550229
  H      2.967683   -2.322915   -0.956305
  H      1.549872   -1.490634   -0.249876
  H      2.743071    1.649471   -0.412802
  H      1.440364    0.502778    0.037031
  H      4.487835    0.932997   -1.611569
  H      5.169672   -0.414432   -0.729817

 Total Charge           Charge          ....    0
 Multiplicity           Mult            ....    1
 Number of Electrons    NEL             ....  104
 Basis Dimension        Dim             ....  682

ORBITAL ENERGIES
----------------

  NO   OCC          E(Eh)            E(eV)
   0   2.0000     -24.698847      -672.0898
   1   2.0000     -14.289828      -388.8460
   2   2.0000     -10.259751      -279.1820
   3   2.0000     -10.180279      -277.0195
   4   2.0000     -10.168203      -276.6909
   5   2.0000     -10.160702      -276.4868
   6   2.0000     -10.160435      -276.4795
   7   2.0000     -10.158147      -276.4172
   8   2.0000     -10.158114      -276.4163
   9   2.0000     -10.156182      -276.3638
  10   2.0000     -10.153824      -276.2996
  11   2.0000     -10.151806      -276.2447
  12   2.0000     -10.073752      -274.1207
  13   2.0000      -1.237895       -33.6848
  14   2.0000      -0.916106       -24.9285
  15   2.0000      -0.817233       -22.2380
  16   2.0000      -0.795469       -21.6458
  17   2.0000      -0.769261       -20.9326
  18   2.0000      -0.732519       -19.9329
  19   2.0000      -0.705150       -19.1881
  20   2.0000      -0.684509       -18.6264
  21   2.0000      -0.637695       -17.3526
  22   2.0000      -0.615365       -16.7449
  23   2.0000      -0.585343       -15.9280
  24   2.0000      -0.556872       -15.1533
  25   2.0000      -0.541838       -14.7442
  26   2.0000      -0.534592       -14.5470
  27   2.0000      -0.527393       -14.3511
  28   2.0000      -0.514328       -13.9956
  29   2.0000      -0.485322       -13.2063
  30   2.0000      -0.470544       -12.8042
  31   2.0000      -0.459178       -12.4949
  32   2.0000      -0.442769       -12.0484
  33   2.0000      -0.437920       -11.9164
  34   2.0000      -0.427367       -11.6292
  35   2.0000      -0.421352       -11.4656
  36   2.0000      -0.397655       -10.8208
  37   2.0000      -0.389812       -10.6073
  38   2.0000      -0.381003       -10.3676
  39   2.0000      -0.372604       -10.1391
  40   2.0000      -0.365544        -9.9469
  41   2.0000      -0.357115        -9.7176
  42   2.0000      -0.348978        -9.4962
  43   2.0000      -0.342877        -9.3302
  44   2.0000      -0.339403        -9.2356
  45   2.0000      -0.332026        -9.0349
  46   2.0000      -0.314245        -8.5510
  47   2.0000      -0.311782        -8.4840
  48   2.0000      -0.306345        -8.3361
  49   2.0000      -0.303110        -8.2480
  50   2.0000      -0.299175        -8.1410
  51   2.0000      -0.172282        -4.6880
  52   0.0000       0.001679         0.0457
  53   0.0000       0.009742         0.2651
  54   0.0000       0.016051         0.4368
  55   0.0000       0.019490         0.5304
  56   0.0000       0.034588         0.9412

MULLIKEN ATOMIC CHARGES
-----------------------
   0 C :   -0.405810
   1 C :   -0.741139
   2 H :    0.287232
   3 C :   -0.219264
   4 H :    0.218612
   5 H :    0.208877
   6 H :    0.250080
   7 C :   -0.540021
   8 H :    0.303221
   9 C :   -0.623212
  10 H :    0.255341
  11 C :   -0.559677
  12 H :    0.263424
  13 H :    0.258416
  14 C :    0.259790
  15 H :    0.237868
  16 H :    0.291093
  17 H :   -0.258555
  18 C :   -0.554284
  19 H :    0.325412
  20 H :    0.226982
  21 H :    0.277802
  22 C :   -0.318975
  23 H :    0.249422
  24 H :    0.279802
  25 F :   -0.449370
  26 C :    0.259739
  27 C :   -1.425285
  28 N :   -0.299762
  29 H :    0.125294
  30 H :    0.422400
  31 H :    0.311744
  32 H :    0.654587
  33 H :    0.221091
  34 H :    0.207124
Sum of atomic charges:    0.0000000

LOEWDIN ATOMIC CHARGES
----------------------
   0 C :   -0.139299
   1 C :   -0.194730
   2 H :    0.099781
   3 C :   -0.209706
   4 H :    0.105551
   5 H :    0.086530
   6 H :    0.114213
   7 C :   -0.204557
   8 H :    0.097745
   9 C :   -0.200944
  10 H :    0.113410
  11 C :   -0.212117
  12 H :    0.105867
  13 H :    0.106733
  14 C :   -0.212629
  15 H :    0.101339
  16 H :    0.108956
  17 H :    0.075370
  18 C :   -0.175614
  19 H :    0.125379
  20 H :    0.112850
  21 H :    0.118065
  22 C :   -0.183966
  23 H :    0.118760
  24 H :    0.127291
  25 F :   -0.085297
  26 C :   -0.482749
  27 C :    0.018073
  28 N :    0.122839
  29 H :    0.111419
  30 H :    0.074826
  31 H :    0.032767
  32 H :    0.001244
  33 H :    0.108490
  34 H :    0.114110

  Mayer bond orders larger than 0.100000
B(  0-C ,  1-C ) :   0.8319 B(  0-C ,  3-C ) :  -0.1276 B(  0-C ,  7-C ) :   0.1529
B(  0-C , 26-C ) :   0.7631 B(  0-C , 33-H ) :   0.9798 B(  0-C , 34-H ) :   0.9416
B(  1-C ,  2-H ) :   0.9276 B(  1-C ,  3-C ) :   0.8536 B(  1-C ,  4-H ) :   0.9505
B(  1-C ,  7-C ) :   0.2098 B(  3-C ,  5-H ) :   1.0312 B(  3-C ,  6-H ) :   0.9128
B(  3-C ,  7-C ) :   0.4497 B(  3-C ,  9-C ) :   0.1306 B(  3-C , 11-C ) :   0.1649
B(  5-H ,  7-C ) :  -0.1138 B(  7-C ,  8-H ) :   1.0475 B(  7-C ,  9-C ) :   0.8477
B(  7-C , 10-H ) :   0.9067 B(  9-C , 11-C ) :   0.8921 B(  9-C , 12-H ) :   0.9456
B(  9-C , 13-H ) :   0.9639 B(  9-C , 14-C ) :   0.1370 B( 11-C , 14-C ) :   0.4706
B( 11-C , 15-H ) :   0.9688 B( 11-C , 16-H ) :   0.9182 B( 11-C , 17-H ) :  -0.1510
B( 11-C , 18-C ) :   0.3727 B( 14-C , 17-H ) :   1.7000 B( 14-C , 18-C ) :   0.5672
B( 14-C , 19-H ) :   0.7688 B( 14-C , 22-C ) :   0.1783 B( 14-C , 26-C ) :  -0.1389
B( 17-H , 19-H ) :   0.1216 B( 18-C , 20-H ) :   0.9298 B( 18-C , 21-H ) :   0.9730
B( 18-C , 22-C ) :   0.8236 B( 22-C , 23-H ) :   0.9653 B( 22-C , 24-H ) :   0.9336
B( 22-C , 25-F ) :   0.7966 B( 26-C , 27-C ) :   1.7347 B( 26-C , 28-N ) :   0.9625
B( 27-C , 31-H ) :   0.9356 B( 27-C , 32-H ) :   0.7656 B( 28-N , 29-H ) :   0.9430
B( 28-N , 30-H ) :   0.7715

Dispersion correction           -0.064078634
FINAL SINGLE POINT ENERGY      -586.863406833682

DIPOLE MOMENT
-------------
                                X             Y             Z
Electronic contribution:     -2.69648      -1.59459      10.45636
Nuclear contribution   :      1.82572       1.04089     -11.09065
                        -----------------------------------------
Total Dipole Moment    :     -0.87077      -0.55369      -0.63428
                        -----------------------------------------
Magnitude (a.u.)       :      1.21125
Magnitude (Debye)      :      3.07876

Rotational constants in cm-1:     0.028436     0.022359     0.014416
Rotational constants in MHz :   852.496561   670.291843   432.183951

                             ****ORCA TERMINATED NORMALLY****
TOTAL RUN TIME: 0 days 0 hours 7 minutes 24 seconds 104 msec
