                         Program Version 5.0.0 -  RELEASE  -
|  1> !B3LYP D3BJ RIJCOSX def2-TZVPD def2/J TightSCF xyzfile
|  2>
|  3> *xyzfile 0 1 D2.xyz
|  4>
|  5> %MaxCore 64000
|  6>
|  7> %pal nprocs 4
|  8> end
|  9>
| 10> %scf
| 11>   MaxIter 150
| 12> end
| 13>
| 14>
| 15>                          ****END OF INPUT****

CARTESIAN COORDINATES (ANGSTROEM)
---------------------------------
  C      4.366454   -0.133215   -1.416062
  C      4.508292   -0.931872   -2.724249
  H      4.753716   -1.972051   -2.488408
  C      3.294164   -0.918214   -3.656570
  H      5.385637   -0.536236   -3.242640
  H      2.483463   -1.477378   -3.185764
  H      3.553092   -1.478495   -4.560331
  C      2.772335    0.460100   -4.051448
  H      2.608762    1.065107   -3.155194
  C      1.465354    0.410537   -4.853644
  H      3.532940    0.988848   -4.635671
  C      0.326171   -0.375613   -4.192580
  H      1.666704   -0.022269   -5.839323
  H      1.138198    1.439246   -5.035449
  C     -0.017405    0.080588   -2.778406
  H      0.585573   -1.439385   -4.168057
  H     -0.560005   -0.311425   -4.831461
  H      0.902090    0.201296   -2.206729
  C     -0.903495   -0.873945   -1.987388
  H     -0.479549    1.074657   -2.811915
  H     -0.502554   -1.892096   -2.081204
  H     -1.917039   -0.895427   -2.406277
  C     -0.960148   -0.522365   -0.489867
  H     -1.690392   -1.208130   -0.021677
  H     -1.414490    0.486329   -0.406677
  F      0.261703   -0.580307    0.138611
  C      3.056503   -0.320797   -0.707384
  N      2.389825    0.711285   -0.243909
  C      2.515999   -1.507721   -0.550229
  H      2.967683   -2.322915   -0.956305
  H      1.549872   -1.490634   -0.249876
  H      2.743071    1.649471   -0.412802
  H      1.440364    0.502778    0.037031
  H      4.487835    0.932997   -1.611569
  H      5.169672   -0.414432   -0.729817

 Total Charge           Charge          ....    0
 Multiplicity           Mult            ....    1
 Number of Electrons    NEL             ....  104
 Basis Dimension        Dim             ....  682

ORBITAL ENERGIES
----------------

  NO   OCC          E(Eh)            E(eV)
   0   2.0000     -24.699005      -672.0941
   1   2.0000     -14.289873      -388.8472
   2   2.0000     -10.260020      -279.1893
   3   2.0000     -10.178755      -276.9780
   4   2.0000     -10.167639      -276.6755
   5   2.0000     -10.160671      -276.4859
   6   2.0000     -10.160273      -276.4751
   7   2.0000     -10.158678      -276.4317
   8   2.0000     -10.157653      -276.4038
   9   2.0000     -10.156288      -276.3667
  10   2.0000     -10.153538      -276.2918
  11   2.0000     -10.147816      -276.1361
  12   2.0000     -10.071831      -274.0685
  13   2.0000      -1.238013       -33.6881
  14   2.0000      -0.915965       -24.9247
  15   2.0000      -0.817097       -22.2343
  16   2.0000      -0.794923       -21.6310
  17   2.0000      -0.769991       -20.9525
  18   2.0000      -0.729012       -19.8374
  19   2.0000      -0.698414       -19.0048
  20   2.0000      -0.685879       -18.6637
  21   2.0000      -0.641062       -17.4442
  22   2.0000      -0.616816       -16.7844
  23   2.0000      -0.586619       -15.9627
  24   2.0000      -0.554446       -15.0872
  25   2.0000      -0.544665       -14.8211
  26   2.0000      -0.531285       -14.4570
  27   2.0000      -0.522805       -14.2263
  28   2.0000      -0.509345       -13.8600
  29   2.0000      -0.483764       -13.1639
  30   2.0000      -0.474506       -12.9120
  31   2.0000      -0.460902       -12.5418
  32   2.0000      -0.448585       -12.2066
  33   2.0000      -0.435485       -11.8502
  34   2.0000      -0.427803       -11.6411
  35   2.0000      -0.413757       -11.2589
  36   2.0000      -0.397231       -10.8092
  37   2.0000      -0.389370       -10.5953
  38   2.0000      -0.380482       -10.3534
  39   2.0000      -0.368072       -10.0157
  40   2.0000      -0.363876        -9.9016
  41   2.0000      -0.358574        -9.7573
  42   2.0000      -0.351408        -9.5623
  43   2.0000      -0.347392        -9.4530
  44   2.0000      -0.333759        -9.0820
  45   2.0000      -0.327895        -8.9225
  46   2.0000      -0.315830        -8.5942
  47   2.0000      -0.308808        -8.4031
  48   2.0000      -0.308136        -8.3848
  49   2.0000      -0.301041        -8.1917
  50   2.0000      -0.299695        -8.1551
  51   2.0000      -0.170457        -4.6384
  52   0.0000       0.002719         0.0740
  53   0.0000       0.011163         0.3038
  54   0.0000       0.015524         0.4224
  55   0.0000       0.019778         0.5382
  56   0.0000       0.030937         0.8418

MULLIKEN ATOMIC CHARGES
-----------------------
   0 C :   -0.558313
   1 C :   -0.582305
   2 H :    0.285073
   3 C :   -0.296393
   4 H :    0.242065
   5 H :    0.237297
   6 H :    0.273461
   7 C :   -0.585418
   8 H :    0.309283
   9 C :   -0.647015
  10 H :    0.248881
  11 C :   -0.589089
  12 H :    0.257981
  13 H :    0.248392
  14 C :    0.367199
  15 H :    0.267161
  16 H :    0.291978
  17 H :   -0.336664
  18 C :   -0.522549
  19 H :    0.340080
  20 H :    0.252521
  21 H :    0.297443
  22 C :   -0.353160
  23 H :    0.235862
  24 H :    0.289322
  25 F :   -0.462588
  26 C :    0.113880
  27 N :   -0.321593
  28 C :   -1.398687
  29 H :    0.365637
  30 H :    0.714111
  31 H :    0.135357
  32 H :    0.398732
  33 H :    0.285955
  34 H :    0.196103
Sum of atomic charges:   -0.0000000

LOEWDIN ATOMIC CHARGES
----------------------
   0 C :   -0.139167
   1 C :   -0.190504
   2 H :    0.105044
   3 C :   -0.209183
   4 H :    0.104791
   5 H :    0.087281
   6 H :    0.114821
   7 C :   -0.206794
   8 H :    0.093900
   9 C :   -0.201372
  10 H :    0.112777
  11 C :   -0.210230
  12 H :    0.106603
  13 H :    0.105737
  14 C :   -0.214931
  15 H :    0.103778
  16 H :    0.109326
  17 H :    0.076326
  18 C :   -0.173610
  19 H :    0.122985
  20 H :    0.116405
  21 H :    0.118434
  22 C :   -0.184057
  23 H :    0.120199
  24 H :    0.124259
  25 F :   -0.084645
  26 C :   -0.480841
  27 N :    0.107331
  28 C :    0.026918
  29 H :    0.034908
  30 H :    0.004949
  31 H :    0.110498
  32 H :    0.070236
  33 H :    0.101594
  34 H :    0.116235

  Mayer bond orders larger than 0.100000
B(  0-C ,  1-C ) :   0.8602 B(  0-C ,  7-C ) :   0.1501 B(  0-C , 26-C ) :   0.7093
B(  0-C , 33-H ) :   0.9654 B(  0-C , 34-H ) :   0.9845 B(  1-C ,  2-H ) :   0.8918
B(  1-C ,  3-C ) :   0.9395 B(  1-C ,  4-H ) :   0.9430 B(  1-C ,  7-C ) :   0.1906
B(  1-C , 28-C ) :   0.1266 B(  3-C ,  5-H ) :   1.0504 B(  3-C ,  6-H ) :   0.8728
B(  3-C ,  7-C ) :   0.4867 B(  3-C ,  9-C ) :   0.1111 B(  3-C , 11-C ) :   0.1652
B(  3-C , 26-C ) :   0.1143 B(  7-C ,  8-H ) :   0.9788 B(  7-C ,  9-C ) :   0.8839
B(  7-C , 10-H ) :   0.9388 B(  9-C , 11-C ) :   0.8601 B(  9-C , 12-H ) :   0.9571
B(  9-C , 13-H ) :   0.9758 B(  9-C , 14-C ) :   0.1451 B( 11-C , 14-C ) :   0.4663
B( 11-C , 15-H ) :   0.9566 B( 11-C , 16-H ) :   0.9223 B( 11-C , 17-H ) :  -0.1509
B( 11-C , 18-C ) :   0.3830 B( 14-C , 17-H ) :   1.6105 B( 14-C , 18-C ) :   0.5959
B( 14-C , 19-H ) :   0.7692 B( 14-C , 22-C ) :   0.1765 B( 14-C , 27-N ) :  -0.1913
B( 18-C , 20-H ) :   0.9079 B( 18-C , 21-H ) :   0.9676 B( 18-C , 22-C ) :   0.7854
B( 22-C , 23-H ) :   0.9779 B( 22-C , 24-H ) :   0.9228 B( 22-C , 25-F ) :   0.8244
B( 25-F , 30-H ) :  -0.1102 B( 26-C , 27-N ) :   1.1374 B( 26-C , 28-C ) :   1.5865
B( 26-C , 33-H ) :  -0.1361 B( 27-N , 31-H ) :   0.9600 B( 27-N , 32-H ) :   0.7880
B( 28-C , 29-H ) :   0.9099 B( 28-C , 30-H ) :   0.6816

Dispersion correction           -0.064175189
FINAL SINGLE POINT ENERGY      -586.862592311498

DIPOLE MOMENT
-------------
                                X             Y             Z
Electronic contribution:     -2.79351       0.00184      10.68298
Nuclear contribution   :      1.85154       0.58682     -11.15333
                        -----------------------------------------
Total Dipole Moment    :     -0.94197       0.58866      -0.47034
                        -----------------------------------------
Magnitude (a.u.)       :      1.20625
Magnitude (Debye)      :      3.06606

Rotational constants in cm-1:     0.028379     0.022321     0.014415
Rotational constants in MHz :   850.785777   669.176075   432.155504

                             ****ORCA TERMINATED NORMALLY****
TOTAL RUN TIME: 0 days 0 hours 6 minutes 31 seconds 760 msec
