                         Program Version 5.0.0 -  RELEASE  -
|  1> !PBE0 D3BJ RIJCOSX def2-SVPD def2/J TightSCF
|  2> *xyz -1 1
|  3> C         -0.87096        0.24804       -2.66280
|  4> C         -0.47749        0.60819       -4.10105
|  5> H          0.20677        1.45830       -4.11875
|  6> H         -1.36844        0.92942       -4.64785
|  7> C          0.18467       -0.50664       -4.91676
|  8> O         -0.15869       -1.70109       -4.65798
|  9> O          1.05594       -0.17441       -5.74037
| 10> C          0.10016       -0.67355       -1.91581
| 11> H         -1.00105        1.18104       -2.10407
| 12> H         -1.84465       -0.24659       -2.66328
| 13> H          0.22336       -1.58297       -2.46597
| 14> H         -0.29270       -0.89423       -0.94532
| 15> H          1.04759       -0.18666       -1.81480
| 16> *
| 17>
| 18> %MaxCore 64000
| 19>
| 20> %pal nprocs 4
| 21> end
| 22>
| 23> %scf
| 24>   MaxIter 150
| 25> end
| 26>
| 27>
| 28>                          ****END OF INPUT****

CARTESIAN COORDINATES (ANGSTROEM)
---------------------------------
  C     -0.870960    0.248040   -2.662800
  C     -0.477490    0.608190   -4.101050
  H      0.206770    1.458300   -4.118750
  H     -1.368440    0.929420   -4.647850
  C      0.184670   -0.506640   -4.916760
  O     -0.158690   -1.701090   -4.657980
  O      1.055940   -0.174410   -5.740370
  C      0.100160   -0.673550   -1.915810
  H     -1.001050    1.181040   -2.104070
  H     -1.844650   -0.246590   -2.663280
  H      0.223360   -1.582970   -2.465970
  H     -0.292700   -0.894230   -0.945320
  H      1.047590   -0.186660   -1.814800

 Total Charge           Charge          ....   -1
 Multiplicity           Mult            ....    1
 Number of Electrons    NEL             ....   48
 Basis Dimension        Dim             ....  182

ORBITAL ENERGIES
----------------

  NO   OCC          E(Eh)            E(eV)
   0   2.0000     -18.959137      -515.9043
   1   2.0000     -18.955823      -515.8142
   2   2.0000     -10.120477      -275.3922
   3   2.0000     -10.084150      -274.4037
   4   2.0000     -10.066148      -273.9138
   5   2.0000     -10.061529      -273.7881
   6   2.0000      -0.844317       -22.9750
   7   2.0000      -0.748839       -20.3769
   8   2.0000      -0.648476       -17.6459
   9   2.0000      -0.555079       -15.1045
  10   2.0000      -0.457758       -12.4562
  11   2.0000      -0.334239        -9.0951
  12   2.0000      -0.317316        -8.6346
  13   2.0000      -0.304514        -8.2862
  14   2.0000      -0.268497        -7.3062
  15   2.0000      -0.245546        -6.6817
  16   2.0000      -0.228514        -6.2182
  17   2.0000      -0.217010        -5.9051
  18   2.0000      -0.203693        -5.5428
  19   2.0000      -0.190351        -5.1797
  20   2.0000      -0.174640        -4.7522
  21   2.0000      -0.065945        -1.7944
  22   2.0000      -0.059069        -1.6074
  23   2.0000      -0.046253        -1.2586
  24   0.0000       0.154625         4.2076
  25   0.0000       0.179679         4.8893
  26   0.0000       0.195806         5.3282
  27   0.0000       0.204570         5.5666
  28   0.0000       0.226241         6.1563

MULLIKEN ATOMIC CHARGES
-----------------------
   0 C :   -0.483897
   1 C :   -0.027078
   2 H :    0.098991
   3 H :    0.015014
   4 C :    0.540829
   5 O :   -0.826815
   6 O :   -0.737792
   7 C :    0.527264
   8 H :   -0.084438
   9 H :    0.029053
  10 H :   -0.030878
  11 H :   -0.013035
  12 H :   -0.007217
Sum of atomic charges:   -1.0000000

LOEWDIN ATOMIC CHARGES
----------------------
   0 C :   -0.090406
   1 C :   -0.000726
   2 H :    0.003552
   3 H :    0.012727
   4 C :   -0.281599
   5 O :   -0.326955
   6 O :   -0.323453
   7 C :    0.105483
   8 H :   -0.001955
   9 H :    0.009551
  10 H :   -0.045538
  11 H :   -0.037488
  12 H :   -0.023194

  Mayer bond orders larger than 0.100000
B(  0-C ,  1-C ) :   1.2110 B(  0-C ,  2-H ) :   0.1107 B(  0-C ,  3-H ) :   0.1138
B(  0-C ,  7-C ) :   1.3439 B(  0-C ,  8-H ) :   0.9666 B(  0-C ,  9-H ) :   0.9094
B(  0-C , 10-H ) :   0.1839 B(  0-C , 11-H ) :   0.2031 B(  0-C , 12-H ) :   0.1787
B(  1-C ,  2-H ) :   0.8670 B(  1-C ,  3-H ) :   0.8594 B(  1-C ,  4-C ) :   1.0669
B(  1-C ,  8-H ) :   0.1063 B(  1-C ,  9-H ) :   0.1035 B(  2-H ,  4-C ) :   0.1808
B(  4-C ,  5-O ) :   1.3648 B(  4-C ,  6-O ) :   1.3284 B(  7-C , 10-H ) :   0.8839
B(  7-C , 11-H ) :   0.7576 B(  7-C , 12-H ) :   0.8033

Dispersion correction           -0.008332907
FINAL SINGLE POINT ENERGY      -306.602845010529

DIPOLE MOMENT
-------------
                                X             Y             Z
Electronic contribution:      1.81338      -2.00785      -6.72333
Nuclear contribution   :     -2.71698       3.10699       8.64748
                        -----------------------------------------
Total Dipole Moment    :     -0.90360       1.09914       1.92415
                        -----------------------------------------
Magnitude (a.u.)       :      2.39311
Magnitude (Debye)      :      6.08280

Rotational constants in cm-1:     0.212307     0.084237     0.072775
Rotational constants in MHz :  6364.813744  2525.362351  2181.751235

                             ****ORCA TERMINATED NORMALLY****
TOTAL RUN TIME: 0 days 0 hours 0 minutes 18 seconds 771 msec
