                         Program Version 5.0.0 -  RELEASE  -
|  1> !PBE0 D3BJ RIJCOSX def2-SVPD def2/J TightSCF
|  2> *xyz 1 1
|  3> C          2.48645       -2.67712       -2.56345
|  4> C          3.03764       -2.36672       -3.92351
|  5> N          2.28036       -2.45441       -4.96769
|  6> N          4.32174       -2.01793       -4.01664
|  7> H          4.87994       -1.91167       -3.17382
|  8> H          4.71015       -1.67088       -4.88356
|  9> H          1.27042       -2.41265       -4.86614
| 10> H          2.58183       -2.05528       -5.84688
| 11> C          2.49799       -1.46946       -1.61030
| 12> C          1.58284       -0.32199       -2.04262
| 13> H          2.19308       -1.83391       -0.62542
| 14> H          3.52336       -1.10398       -1.49039
| 15> H          1.47259       -3.05153       -2.69437
| 16> H          3.08320       -3.49064       -2.14147
| 17> H          1.88480        0.03130       -3.00642
| 18> H          1.65140        0.47571       -1.33278
| 19> H          0.57235       -0.67052       -2.09099
| 20> *
| 21>
| 22> %MaxCore 64000
| 23>
| 24> %pal nprocs 4
| 25> end
| 26>
| 27> %scf
| 28>   MaxIter 150
| 29> end
| 30>
| 31>
| 32>                          ****END OF INPUT****

CARTESIAN COORDINATES (ANGSTROEM)
---------------------------------
  C      2.486450   -2.677120   -2.563450
  C      3.037640   -2.366720   -3.923510
  N      2.280360   -2.454410   -4.967690
  N      4.321740   -2.017930   -4.016640
  H      4.879940   -1.911670   -3.173820
  H      4.710150   -1.670880   -4.883560
  H      1.270420   -2.412650   -4.866140
  H      2.581830   -2.055280   -5.846880
  C      2.497990   -1.469460   -1.610300
  C      1.582840   -0.321990   -2.042620
  H      2.193080   -1.833910   -0.625420
  H      3.523360   -1.103980   -1.490390
  H      1.472590   -3.051530   -2.694370
  H      3.083200   -3.490640   -2.141470
  H      1.884800    0.031300   -3.006420
  H      1.651400    0.475710   -1.332780
  H      0.572350   -0.670520   -2.090990

 Total Charge           Charge          ....    1
 Multiplicity           Mult            ....    1
 Number of Electrons    NEL             ....   48
 Basis Dimension        Dim             ....  208

ORBITAL ENERGIES
----------------

  NO   OCC          E(Eh)            E(eV)
   0   2.0000     -14.643856      -398.4796
   1   2.0000     -14.638688      -398.3390
   2   2.0000     -10.555315      -287.2247
   3   2.0000     -10.427739      -283.7532
   4   2.0000     -10.398109      -282.9469
   5   2.0000     -10.361507      -281.9509
   6   2.0000      -1.225231       -33.3402
   7   2.0000      -1.126418       -30.6514
   8   2.0000      -0.991387       -26.9770
   9   2.0000      -0.906314       -24.6620
  10   2.0000      -0.852730       -23.2040
  11   2.0000      -0.798047       -21.7160
  12   2.0000      -0.787865       -21.4389
  13   2.0000      -0.748606       -20.3706
  14   2.0000      -0.714562       -19.4442
  15   2.0000      -0.668765       -18.1980
  16   2.0000      -0.641619       -17.4593
  17   2.0000      -0.607189       -16.5224
  18   2.0000      -0.589674       -16.0458
  19   2.0000      -0.576635       -15.6910
  20   2.0000      -0.519283       -14.1304
  21   2.0000      -0.514171       -13.9913
  22   2.0000      -0.510593       -13.8939
  23   2.0000      -0.503390       -13.6979
  24   0.0000      -0.209357        -5.6969
  25   0.0000      -0.148319        -4.0360
  26   0.0000      -0.110069        -2.9951
  27   0.0000      -0.105442        -2.8692
  28   0.0000      -0.076631        -2.0852

MULLIKEN ATOMIC CHARGES
-----------------------
   0 C :   -0.007797
   1 C :    0.860249
   2 N :   -0.018918
   3 N :   -0.080140
   4 H :    0.057607
   5 H :   -0.112384
   6 H :    0.040847
   7 H :   -0.079265
   8 C :   -0.458938
   9 C :    0.586754
  10 H :    0.003829
  11 H :    0.004730
  12 H :    0.121798
  13 H :    0.065200
  14 H :   -0.045875
  15 H :   -0.008539
  16 H :    0.070844
Sum of atomic charges:    1.0000000

LOEWDIN ATOMIC CHARGES
----------------------
   0 C :    0.043744
   1 C :   -0.043997
   2 N :    0.280981
   3 N :    0.285035
   4 H :    0.049042
   5 H :    0.045728
   6 H :    0.059732
   7 H :    0.051842
   8 C :   -0.050512
   9 C :    0.140711
  10 H :    0.042763
  11 H :    0.022340
  12 H :    0.039002
  13 H :    0.055262
  14 H :   -0.019889
  15 H :    0.002244
  16 H :   -0.004028

  Mayer bond orders larger than 0.100000
B(  0-C ,  1-C ) :   1.1376 B(  0-C ,  8-C ) :   1.1840 B(  0-C , 11-H ) :   0.1064
B(  0-C , 12-H ) :   0.8078 B(  0-C , 13-H ) :   0.8599 B(  1-C ,  2-N ) :   1.0008
B(  1-C ,  3-N ) :   0.9984 B(  1-C ,  5-H ) :  -0.1548 B(  1-C ,  7-H ) :  -0.1286
B(  1-C , 12-H ) :   0.1400 B(  1-C , 13-H ) :   0.1121 B(  2-N ,  3-N ) :   0.1661
B(  2-N ,  6-H ) :   1.0642 B(  2-N ,  7-H ) :   1.2066 B(  3-N ,  4-H ) :   1.0879
B(  3-N ,  5-H ) :   1.3004 B(  4-H ,  5-H ) :  -0.1735 B(  6-H ,  7-H ) :  -0.1276
B(  8-C ,  9-C ) :   1.3722 B(  8-C , 10-H ) :   0.9813 B(  8-C , 11-H ) :   0.9115
B(  8-C , 12-H ) :   0.1268 B(  8-C , 14-H ) :   0.2088 B(  8-C , 15-H ) :   0.1953
B(  8-C , 16-H ) :   0.1855 B(  9-C , 14-H ) :   0.8454 B(  9-C , 15-H ) :   0.8037
B(  9-C , 16-H ) :   0.7934

Dispersion correction           -0.011610315
FINAL SINGLE POINT ENERGY      -267.860570103207

DIPOLE MOMENT
-------------
                                X             Y             Z
Electronic contribution:      2.37628      -2.80948      -4.28398
Nuclear contribution   :     -1.82438       2.64851       2.98450
                        -----------------------------------------
Total Dipole Moment    :      0.55190      -0.16097      -1.29948
                        -----------------------------------------
Magnitude (a.u.)       :      1.42097
Magnitude (Debye)      :      3.61182

Rotational constants in cm-1:     0.176712     0.077069     0.069669
Rotational constants in MHz :  5297.698588  2310.466480  2088.633881

                             ****ORCA TERMINATED NORMALLY****
TOTAL RUN TIME: 0 days 0 hours 0 minutes 23 seconds 123 msec
