                         Program Version 5.0.0 -  RELEASE  -
|  1> !PBE0 D3BJ RIJCOSX def2-SVPD def2/J TightSCF
|  2> *xyz 0 1
|  3> C         -0.87096        0.24804       -2.66280
|  4> C         -0.47749        0.60819       -4.10105
|  5> H          0.20677        1.45830       -4.11875
|  6> H         -1.36844        0.92942       -4.64785
|  7> C          0.18467       -0.50664       -4.91676
|  8> F         -0.15869       -1.70109       -4.65798
|  9> O          1.05594       -0.17441       -5.74037
| 10> C          0.10016       -0.67355       -1.91581
| 11> H         -1.00105        1.18104       -2.10407
| 12> H         -1.84465       -0.24659       -2.66328
| 13> H          0.22336       -1.58297       -2.46597
| 14> H         -0.29270       -0.89423       -0.94532
| 15> H          1.04759       -0.18666       -1.81480
| 16> *
| 17>
| 18> %MaxCore 64000
| 19>
| 20> %pal nprocs 4
| 21> end
| 22>
| 23> %scf
| 24>   MaxIter 150
| 25> end
| 26>
| 27>
| 28>                          ****END OF INPUT****

CARTESIAN COORDINATES (ANGSTROEM)
---------------------------------
  C     -0.870960    0.248040   -2.662800
  C     -0.477490    0.608190   -4.101050
  H      0.206770    1.458300   -4.118750
  H     -1.368440    0.929420   -4.647850
  C      0.184670   -0.506640   -4.916760
  F     -0.158690   -1.701090   -4.657980
  O      1.055940   -0.174410   -5.740370
  C      0.100160   -0.673550   -1.915810
  H     -1.001050    1.181040   -2.104070
  H     -1.844650   -0.246590   -2.663280
  H      0.223360   -1.582970   -2.465970
  H     -0.292700   -0.894230   -0.945320
  H      1.047590   -0.186660   -1.814800

 Total Charge           Charge          ....    0
 Multiplicity           Mult            ....    1
 Number of Electrons    NEL             ....   48
 Basis Dimension        Dim             ....  182

ORBITAL ENERGIES
----------------

  NO   OCC          E(Eh)            E(eV)
   0   2.0000     -24.852737      -676.2773
   1   2.0000     -19.228554      -523.2355
   2   2.0000     -10.415241      -283.4131
   3   2.0000     -10.265565      -279.3402
   4   2.0000     -10.251783      -278.9652
   5   2.0000     -10.228141      -278.3219
   6   2.0000      -1.331560       -36.2336
   7   2.0000      -1.061819       -28.8936
   8   2.0000      -0.834047       -22.6956
   9   2.0000      -0.746987       -20.3266
  10   2.0000      -0.679230       -18.4828
  11   2.0000      -0.634531       -17.2665
  12   2.0000      -0.566762       -15.4224
  13   2.0000      -0.557793       -15.1783
  14   2.0000      -0.510324       -13.8866
  15   2.0000      -0.491468       -13.3735
  16   2.0000      -0.466702       -12.6996
  17   2.0000      -0.435977       -11.8635
  18   2.0000      -0.423548       -11.5253
  19   2.0000      -0.393529       -10.7085
  20   2.0000      -0.378938       -10.3114
  21   2.0000      -0.371006       -10.0956
  22   2.0000      -0.353317        -9.6142
  23   2.0000      -0.309374        -8.4185
  24   0.0000      -0.026906        -0.7322
  25   0.0000       0.016996         0.4625
  26   0.0000       0.050994         1.3876
  27   0.0000       0.053429         1.4539
  28   0.0000       0.065047         1.7700

MULLIKEN ATOMIC CHARGES
-----------------------
   0 C :   -0.440249
   1 C :   -0.094818
   2 H :    0.131296
   3 H :    0.074363
   4 C :    0.867895
   5 F :   -0.471915
   6 O :   -0.548175
   7 C :    0.548457
   8 H :   -0.068416
   9 H :    0.041009
  10 H :   -0.060295
  11 H :    0.003948
  12 H :    0.016901
Sum of atomic charges:   -0.0000000

LOEWDIN ATOMIC CHARGES
----------------------
   0 C :   -0.069376
   1 C :    0.046883
   2 H :    0.038102
   3 H :    0.042274
   4 C :    0.006235
   5 F :   -0.049538
   6 O :   -0.133082
   7 C :    0.126338
   8 H :    0.024930
   9 H :    0.022767
  10 H :   -0.034479
  11 H :   -0.012343
  12 H :   -0.008712

  Mayer bond orders larger than 0.100000
B(  0-C ,  1-C ) :   1.2337 B(  0-C ,  2-H ) :   0.1051 B(  0-C ,  3-H ) :   0.1085
B(  0-C ,  7-C ) :   1.3596 B(  0-C ,  8-H ) :   0.9610 B(  0-C ,  9-H ) :   0.9086
B(  0-C , 10-H ) :   0.1641 B(  0-C , 11-H ) :   0.1938 B(  0-C , 12-H ) :   0.1725
B(  1-C ,  2-H ) :   0.8766 B(  1-C ,  3-H ) :   0.8484 B(  1-C ,  4-C ) :   1.0810
B(  1-C ,  8-H ) :   0.1038 B(  2-H ,  4-C ) :   0.1307 B(  4-C ,  5-F ) :   0.6260
B(  4-C ,  6-O ) :   1.6872 B(  7-C , 10-H ) :   0.8895 B(  7-C , 11-H ) :   0.7672
B(  7-C , 12-H ) :   0.8066

Dispersion correction           -0.007936439
FINAL SINGLE POINT ENERGY      -331.124429466593

DIPOLE MOMENT
-------------
                                X             Y             Z
Electronic contribution:      1.73425      -4.30803      -8.47225
Nuclear contribution   :     -2.55684       4.59749       9.38828
                        -----------------------------------------
Total Dipole Moment    :     -0.82259       0.28947       0.91603
                        -----------------------------------------
Magnitude (a.u.)       :      1.26473
Magnitude (Debye)      :      3.21470

Rotational constants in cm-1:     0.200184     0.083263     0.071070
Rotational constants in MHz :  6001.373539  2496.169674  2130.635527

                             ****ORCA TERMINATED NORMALLY****
TOTAL RUN TIME: 0 days 0 hours 0 minutes 17 seconds 413 msec
