                         Program Version 5.0.0 -  RELEASE  -
|  1> !PBE0 D3BJ RIJCOSX def2-SVPD def2/J TightSCF
|  2> *xyz 0 1
|  3> C          2.48645       -2.67712       -2.56345
|  4> C          3.03764       -2.36672       -3.92351
|  5> C          2.28036       -2.45441       -4.96769
|  6> N          4.32174       -2.01793       -4.01664
|  7> H          4.87994       -1.91167       -3.17382
|  8> H          4.71015       -1.67088       -4.88356
|  9> H          1.27042       -2.41265       -4.86614
| 10> H          2.58183       -2.05528       -5.84688
| 11> C          2.49799       -1.46946       -1.61030
| 12> C          1.58284       -0.32199       -2.04262
| 13> H          2.19308       -1.83391       -0.62542
| 14> H          3.52336       -1.10398       -1.49039
| 15> H          1.47259       -3.05153       -2.69437
| 16> H          3.08320       -3.49064       -2.14147
| 17> H          1.88480        0.03130       -3.00642
| 18> H          1.65140        0.47571       -1.33278
| 19> H          0.57235       -0.67052       -2.09099
| 20> *
| 21>
| 22> %MaxCore 64000
| 23>
| 24> %pal nprocs 4
| 25> end
| 26>
| 27> %scf
| 28>   MaxIter 150
| 29> end
| 30>
| 31>
| 32>                          ****END OF INPUT****

CARTESIAN COORDINATES (ANGSTROEM)
---------------------------------
  C      2.486450   -2.677120   -2.563450
  C      3.037640   -2.366720   -3.923510
  C      2.280360   -2.454410   -4.967690
  N      4.321740   -2.017930   -4.016640
  H      4.879940   -1.911670   -3.173820
  H      4.710150   -1.670880   -4.883560
  H      1.270420   -2.412650   -4.866140
  H      2.581830   -2.055280   -5.846880
  C      2.497990   -1.469460   -1.610300
  C      1.582840   -0.321990   -2.042620
  H      2.193080   -1.833910   -0.625420
  H      3.523360   -1.103980   -1.490390
  H      1.472590   -3.051530   -2.694370
  H      3.083200   -3.490640   -2.141470
  H      1.884800    0.031300   -3.006420
  H      1.651400    0.475710   -1.332780
  H      0.572350   -0.670520   -2.090990

 Total Charge           Charge          ....    0
 Multiplicity           Mult            ....    1
 Number of Electrons    NEL             ....   48
 Basis Dimension        Dim             ....  208

ORBITAL ENERGIES
----------------

  NO   OCC          E(Eh)            E(eV)
   0   2.0000     -14.398079      -391.7916
   1   2.0000     -10.253516      -279.0123
   2   2.0000     -10.233700      -278.4731
   3   2.0000     -10.230765      -278.3933
   4   2.0000     -10.213310      -277.9183
   5   2.0000     -10.163583      -276.5652
   6   2.0000      -0.943863       -25.6838
   7   2.0000      -0.810333       -22.0503
   8   2.0000      -0.755949       -20.5704
   9   2.0000      -0.701177       -19.0800
  10   2.0000      -0.614301       -16.7160
  11   2.0000      -0.580959       -15.8087
  12   2.0000      -0.540764       -14.7149
  13   2.0000      -0.486915       -13.2496
  14   2.0000      -0.465655       -12.6711
  15   2.0000      -0.462592       -12.5878
  16   2.0000      -0.411043       -11.1850
  17   2.0000      -0.402831       -10.9616
  18   2.0000      -0.382560       -10.4100
  19   2.0000      -0.379225       -10.3192
  20   2.0000      -0.348409        -9.4807
  21   2.0000      -0.336291        -9.1509
  22   2.0000      -0.333026        -9.0621
  23   2.0000      -0.208756        -5.6805
  24   0.0000       0.022087         0.6010
  25   0.0000       0.040575         1.1041
  26   0.0000       0.051431         1.3995
  27   0.0000       0.058239         1.5848
  28   0.0000       0.074419         2.0251

MULLIKEN ATOMIC CHARGES
-----------------------
   0 C :    0.055233
   1 C :   -0.048509
   2 C :    0.345300
   3 N :    0.032730
   4 H :   -0.099077
   5 H :   -0.174212
   6 H :    0.019927
   7 H :   -0.362727
   8 C :   -0.463685
   9 C :    0.582211
  10 H :   -0.046060
  11 H :    0.000108
  12 H :    0.175651
  13 H :   -0.011608
  14 H :   -0.029321
  15 H :   -0.023088
  16 H :    0.047128
Sum of atomic charges:    0.0000000

LOEWDIN ATOMIC CHARGES
----------------------
   0 C :    0.002650
   1 C :   -0.262537
   2 C :    0.159618
   3 N :    0.174263
   4 H :   -0.002704
   5 H :    0.006208
   6 H :   -0.073068
   7 H :   -0.080496
   8 C :   -0.074881
   9 C :    0.123173
  10 H :    0.018755
  11 H :    0.009212
  12 H :    0.024857
  13 H :    0.026567
  14 H :   -0.018730
  15 H :   -0.019042
  16 H :   -0.013846

  Mayer bond orders larger than 0.100000
B(  0-C ,  1-C ) :   1.1534 B(  0-C ,  8-C ) :   1.1668 B(  0-C , 10-H ) :   0.1408
B(  0-C , 11-H ) :   0.1375 B(  0-C , 12-H ) :   0.7980 B(  0-C , 13-H ) :   0.9118
B(  1-C ,  2-C ) :   2.0585 B(  1-C ,  3-N ) :   1.0644 B(  1-C ,  6-H ) :   0.1443
B(  1-C ,  7-H ) :   0.2880 B(  1-C , 13-H ) :   0.1540 B(  2-C ,  3-N ) :   0.2678
B(  2-C ,  6-H ) :   0.8601 B(  2-C ,  7-H ) :   0.6796 B(  3-N ,  4-H ) :   1.1596
B(  3-N ,  5-H ) :   1.2349 B(  4-H ,  5-H ) :  -0.1507 B(  6-H ,  7-H ) :   0.1384
B(  8-C ,  9-C ) :   1.3441 B(  8-C , 10-H ) :   0.9656 B(  8-C , 11-H ) :   0.8984
B(  8-C , 12-H ) :   0.1318 B(  8-C , 14-H ) :   0.2192 B(  8-C , 15-H ) :   0.2010
B(  8-C , 16-H ) :   0.1906 B(  9-C , 14-H ) :   0.8568 B(  9-C , 15-H ) :   0.7899
B(  9-C , 16-H ) :   0.8005

Dispersion correction           -0.012000365
FINAL SINGLE POINT ENERGY      -251.410122030571

DIPOLE MOMENT
-------------
                                X             Y             Z
Electronic contribution:      2.46612      -2.10180      -2.13834
Nuclear contribution   :     -1.92525       2.50924       2.56958
                        -----------------------------------------
Total Dipole Moment    :      0.54087       0.40744       0.43123
                        -----------------------------------------
Magnitude (a.u.)       :      0.80281
Magnitude (Debye)      :      2.04059

Rotational constants in cm-1:     0.181985     0.078726     0.071856
Rotational constants in MHz :  5455.785660  2360.157292  2154.177820

                             ****ORCA TERMINATED NORMALLY****
TOTAL RUN TIME: 0 days 0 hours 0 minutes 21 seconds 50 msec
