                         Program Version 5.0.0 -  RELEASE  -
|  1> !PBE0 D3BJ RIJCOSX def2-SVPD def2/J TightSCF
|  2> *xyz 0 1
|  3> C         -0.87096        0.24804       -2.66280
|  4> C         -0.47749        0.60819       -4.10105
|  5> H          0.20677        1.45830       -4.11875
|  6> H         -1.36844        0.92942       -4.64785
|  7> C          0.18467       -0.50664       -4.91676
|  8> O         -0.15869       -1.70109       -4.65798
|  9> F          1.05594       -0.17441       -5.74037
| 10> C          0.10016       -0.67355       -1.91581
| 11> H         -1.00105        1.18104       -2.10407
| 12> H         -1.84465       -0.24659       -2.66328
| 13> H          0.22336       -1.58297       -2.46597
| 14> H         -0.29270       -0.89423       -0.94532
| 15> H          1.04759       -0.18666       -1.81480
| 16> *
| 17>
| 18> %MaxCore 64000
| 19>
| 20> %pal nprocs 4
| 21> end
| 22>
| 23> %scf
| 24>   MaxIter 150
| 25> end
| 26>
| 27>
| 28>                          ****END OF INPUT****

CARTESIAN COORDINATES (ANGSTROEM)
---------------------------------
  C     -0.870960    0.248040   -2.662800
  C     -0.477490    0.608190   -4.101050
  H      0.206770    1.458300   -4.118750
  H     -1.368440    0.929420   -4.647850
  C      0.184670   -0.506640   -4.916760
  O     -0.158690   -1.701090   -4.657980
  F      1.055940   -0.174410   -5.740370
  C      0.100160   -0.673550   -1.915810
  H     -1.001050    1.181040   -2.104070
  H     -1.844650   -0.246590   -2.663280
  H      0.223360   -1.582970   -2.465970
  H     -0.292700   -0.894230   -0.945320
  H      1.047590   -0.186660   -1.814800

 Total Charge           Charge          ....    0
 Multiplicity           Mult            ....    1
 Number of Electrons    NEL             ....   48
 Basis Dimension        Dim             ....  182

ORBITAL ENERGIES
----------------

  NO   OCC          E(Eh)            E(eV)
   0   2.0000     -24.861895      -676.5266
   1   2.0000     -19.225953      -523.1648
   2   2.0000     -10.418008      -283.4884
   3   2.0000     -10.267357      -279.3890
   4   2.0000     -10.246716      -278.8273
   5   2.0000     -10.215645      -277.9818
   6   2.0000      -1.349903       -36.7327
   7   2.0000      -1.048160       -28.5219
   8   2.0000      -0.827785       -22.5252
   9   2.0000      -0.747268       -20.3342
  10   2.0000      -0.685823       -18.6622
  11   2.0000      -0.628797       -17.1104
  12   2.0000      -0.575518       -15.6606
  13   2.0000      -0.553032       -15.0488
  14   2.0000      -0.525847       -14.3090
  15   2.0000      -0.485570       -13.2130
  16   2.0000      -0.468451       -12.7472
  17   2.0000      -0.430395       -11.7117
  18   2.0000      -0.414237       -11.2720
  19   2.0000      -0.378561       -10.3012
  20   2.0000      -0.371719       -10.1150
  21   2.0000      -0.358639        -9.7591
  22   2.0000      -0.353186        -9.6107
  23   2.0000      -0.306453        -8.3390
  24   0.0000      -0.030705        -0.8355
  25   0.0000       0.020100         0.5470
  26   0.0000       0.048585         1.3221
  27   0.0000       0.056689         1.5426
  28   0.0000       0.067396         1.8339

MULLIKEN ATOMIC CHARGES
-----------------------
   0 C :   -0.454447
   1 C :   -0.117114
   2 H :    0.146171
   3 H :    0.086340
   4 C :    0.851322
   5 O :   -0.627569
   6 F :   -0.389044
   7 C :    0.555090
   8 H :   -0.052768
   9 H :    0.048950
  10 H :   -0.055232
  11 H :    0.006416
  12 H :    0.001885
Sum of atomic charges:   -0.0000000

LOEWDIN ATOMIC CHARGES
----------------------
   0 C :   -0.059752
   1 C :    0.039298
   2 H :    0.027447
   3 H :    0.042570
   4 C :    0.012834
   5 O :   -0.146130
   6 F :   -0.029466
   7 C :    0.126943
   8 H :    0.024730
   9 H :    0.027424
  10 H :   -0.039478
  11 H :   -0.013502
  12 H :   -0.012917

  Mayer bond orders larger than 0.100000
B(  0-C ,  1-C ) :   1.2634 B(  0-C ,  2-H ) :   0.1063 B(  0-C ,  3-H ) :   0.1218
B(  0-C ,  7-C ) :   1.3685 B(  0-C ,  8-H ) :   0.9515 B(  0-C ,  9-H ) :   0.8998
B(  0-C , 10-H ) :   0.1688 B(  0-C , 11-H ) :   0.1912 B(  0-C , 12-H ) :   0.1687
B(  1-C ,  2-H ) :   0.8490 B(  1-C ,  3-H ) :   0.8305 B(  1-C ,  4-C ) :   1.1311
B(  1-C ,  6-F ) :   0.1006 B(  1-C ,  9-H ) :   0.1032 B(  2-H ,  4-C ) :   0.1087
B(  4-C ,  5-O ) :   1.6905 B(  4-C ,  6-F ) :   0.6555 B(  7-C , 10-H ) :   0.8871
B(  7-C , 11-H ) :   0.7596 B(  7-C , 12-H ) :   0.8024

Dispersion correction           -0.008020222
FINAL SINGLE POINT ENERGY      -331.117949157011

DIPOLE MOMENT
-------------
                                X             Y             Z
Electronic contribution:      3.80369      -1.75312     -10.37385
Nuclear contribution   :     -3.92885       2.87300      10.61091
                        -----------------------------------------
Total Dipole Moment    :     -0.12516       1.11987       0.23706
                        -----------------------------------------
Magnitude (a.u.)       :      1.15151
Magnitude (Debye)      :      2.92691

Rotational constants in cm-1:     0.209332     0.079487     0.069375
Rotational constants in MHz :  6275.605762  2382.960864  2079.805430

                             ****ORCA TERMINATED NORMALLY****
TOTAL RUN TIME: 0 days 0 hours 0 minutes 17 seconds 180 msec
