                         Program Version 5.0.0 -  RELEASE  -
|  1> !PBE0 D3BJ RIJCOSX def2-SVPD def2/J TightSCF
|  2> *xyz 0 1
|  3> C          2.48645       -2.67712       -2.56345
|  4> C          3.03764       -2.36672       -3.92351
|  5> N          2.28036       -2.45441       -4.96769
|  6> C          4.32174       -2.01793       -4.01664
|  7> H          4.87994       -1.91167       -3.17382
|  8> H          4.71015       -1.67088       -4.88356
|  9> H          1.27042       -2.41265       -4.86614
| 10> H          2.58183       -2.05528       -5.84688
| 11> C          2.49799       -1.46946       -1.61030
| 12> C          1.58284       -0.32199       -2.04262
| 13> H          2.19308       -1.83391       -0.62542
| 14> H          3.52336       -1.10398       -1.49039
| 15> H          1.47259       -3.05153       -2.69437
| 16> H          3.08320       -3.49064       -2.14147
| 17> H          1.88480        0.03130       -3.00642
| 18> H          1.65140        0.47571       -1.33278
| 19> H          0.57235       -0.67052       -2.09099
| 20> *
| 21>
| 22> %MaxCore 64000
| 23>
| 24> %pal nprocs 4
| 25> end
| 26>
| 27> %scf
| 28>   MaxIter 150
| 29> end
| 30>
| 31>
| 32>                          ****END OF INPUT****

CARTESIAN COORDINATES (ANGSTROEM)
---------------------------------
  C      2.486450   -2.677120   -2.563450
  C      3.037640   -2.366720   -3.923510
  N      2.280360   -2.454410   -4.967690
  C      4.321740   -2.017930   -4.016640
  H      4.879940   -1.911670   -3.173820
  H      4.710150   -1.670880   -4.883560
  H      1.270420   -2.412650   -4.866140
  H      2.581830   -2.055280   -5.846880
  C      2.497990   -1.469460   -1.610300
  C      1.582840   -0.321990   -2.042620
  H      2.193080   -1.833910   -0.625420
  H      3.523360   -1.103980   -1.490390
  H      1.472590   -3.051530   -2.694370
  H      3.083200   -3.490640   -2.141470
  H      1.884800    0.031300   -3.006420
  H      1.651400    0.475710   -1.332780
  H      0.572350   -0.670520   -2.090990

 Total Charge           Charge          ....    0
 Multiplicity           Mult            ....    1
 Number of Electrons    NEL             ....   48
 Basis Dimension        Dim             ....  208

ORBITAL ENERGIES
----------------

  NO   OCC          E(Eh)            E(eV)
   0   2.0000     -14.401679      -391.8896
   1   2.0000     -10.254000      -279.0255
   2   2.0000     -10.231638      -278.4170
   3   2.0000     -10.229982      -278.3720
   4   2.0000     -10.214462      -277.9496
   5   2.0000     -10.164469      -276.5893
   6   2.0000      -0.959499       -26.1093
   7   2.0000      -0.811585       -22.0844
   8   2.0000      -0.746824       -20.3221
   9   2.0000      -0.696488       -18.9524
  10   2.0000      -0.624584       -16.9958
  11   2.0000      -0.579322       -15.7642
  12   2.0000      -0.534967       -14.5572
  13   2.0000      -0.500780       -13.6269
  14   2.0000      -0.466592       -12.6966
  15   2.0000      -0.446586       -12.1522
  16   2.0000      -0.415536       -11.3073
  17   2.0000      -0.405551       -11.0356
  18   2.0000      -0.383965       -10.4482
  19   2.0000      -0.372179       -10.1275
  20   2.0000      -0.348988        -9.4965
  21   2.0000      -0.341660        -9.2970
  22   2.0000      -0.337759        -9.1909
  23   2.0000      -0.199178        -5.4199
  24   0.0000       0.023649         0.6435
  25   0.0000       0.036352         0.9892
  26   0.0000       0.053706         1.4614
  27   0.0000       0.059033         1.6064
  28   0.0000       0.070775         1.9259

MULLIKEN ATOMIC CHARGES
-----------------------
   0 C :    0.275021
   1 C :   -0.002740
   2 N :   -0.010968
   3 C :    0.325244
   4 H :   -0.056423
   5 H :   -0.424034
   6 H :   -0.041657
   7 H :   -0.117367
   8 C :   -0.547610
   9 C :    0.557709
  10 H :   -0.021806
  11 H :    0.001986
  12 H :   -0.002995
  13 H :    0.072579
  14 H :   -0.019502
  15 H :   -0.038670
  16 H :    0.051232
Sum of atomic charges:    0.0000000

LOEWDIN ATOMIC CHARGES
----------------------
   0 C :    0.003385
   1 C :   -0.264831
   2 N :    0.163630
   3 C :    0.176365
   4 H :   -0.081336
   5 H :   -0.088069
   6 H :    0.005708
   7 H :    0.012673
   8 C :   -0.070041
   9 C :    0.119865
  10 H :    0.018889
  11 H :    0.016503
  12 H :    0.013435
  13 H :    0.031289
  14 H :   -0.020538
  15 H :   -0.018188
  16 H :   -0.018738

  Mayer bond orders larger than 0.100000
B(  0-C ,  1-C ) :   1.0663 B(  0-C ,  2-N ) :   0.1101 B(  0-C ,  3-C ) :   0.1069
B(  0-C ,  8-C ) :   1.1957 B(  0-C , 11-H ) :   0.1271 B(  0-C , 12-H ) :   0.7064
B(  0-C , 13-H ) :   0.8211 B(  1-C ,  2-N ) :   0.8936 B(  1-C ,  3-C ) :   1.8002
B(  1-C ,  4-H ) :   0.1135 B(  1-C ,  5-H ) :   0.1464 B(  1-C , 12-H ) :   0.2013
B(  1-C , 13-H ) :   0.1253 B(  2-N ,  3-C ) :   0.2964 B(  2-N ,  6-H ) :   1.0208
B(  2-N ,  7-H ) :   1.1448 B(  3-C ,  4-H ) :   0.8238 B(  3-C ,  5-H ) :   0.8533
B(  6-H ,  7-H ) :  -0.1154 B(  8-C ,  9-C ) :   1.3503 B(  8-C , 10-H ) :   0.9665
B(  8-C , 11-H ) :   0.9435 B(  8-C , 12-H ) :   0.1762 B(  8-C , 14-H ) :   0.2171
B(  8-C , 15-H ) :   0.2005 B(  8-C , 16-H ) :   0.1991 B(  9-C , 14-H ) :   0.8483
B(  9-C , 15-H ) :   0.8072 B(  9-C , 16-H ) :   0.8034

Dispersion correction           -0.012009667
FINAL SINGLE POINT ENERGY      -251.411072668431

DIPOLE MOMENT
-------------
                                X             Y             Z
Electronic contribution:      0.70263      -2.41830      -2.96102
Nuclear contribution   :     -1.44240       2.61248       2.79453
                        -----------------------------------------
Total Dipole Moment    :     -0.73977       0.19418      -0.16649
                        -----------------------------------------
Magnitude (a.u.)       :      0.78274
Magnitude (Debye)      :      1.98957

Rotational constants in cm-1:     0.182540     0.078634     0.071436
Rotational constants in MHz :  5472.425685  2357.397154  2141.608207

                             ****ORCA TERMINATED NORMALLY****
TOTAL RUN TIME: 0 days 0 hours 0 minutes 22 seconds 842 msec
