                         Program Version 5.0.0 -  RELEASE  -
|  1> !PBE0 D3BJ RIJCOSX def2-SVPD def2/J TightSCF xyzfile
|  2>
|  3> *xyzfile 0 1 D1.xyz
|  4>
|  5> %MaxCore 64000
|  6>
|  7> %pal nprocs 4
|  8> end
|  9>
| 10> %scf
| 11>   MaxIter 150
| 12> end
| 13>
| 14>
| 15>                          ****END OF INPUT****

CARTESIAN COORDINATES (ANGSTROEM)
---------------------------------
  C      2.486452   -2.677121   -2.563447
  C     -0.870963    0.248043   -2.662804
  C     -0.477492    0.608191   -4.101052
  H      0.206773    1.458299   -4.118748
  H     -1.368442    0.929419   -4.647855
  C      0.184673   -0.506640   -4.916760
  C      3.037640   -2.366715   -3.923509
  C      2.280360   -2.454408   -4.967692
  N      4.321736   -2.017932   -4.016641
  H      4.879940   -1.911668   -3.173823
  H      4.710148   -1.670882   -4.883561
  H      1.270423   -2.412650   -4.866143
  H      2.581829   -2.055282   -5.846878
  F     -0.158685   -1.701088   -4.657981
  O      1.055938   -0.174410   -5.740373
  C      2.497991   -1.469464   -1.610303
  C      1.582841   -0.321986   -2.042619
  H      2.193083   -1.833912   -0.625420
  H      3.523356   -1.103982   -1.490392
  C      0.100160   -0.673551   -1.915815
  H      1.822311   -0.040361   -3.072834
  H      1.813180    0.557019   -1.433266
  H     -0.063284   -1.679120   -2.301112
  H     -0.168820   -0.691680   -0.853831
  H     -1.001048    1.181040   -2.104071
  H     -1.844645   -0.246592   -2.663281
  H      1.472592   -3.051527   -2.694366
  H      3.083201   -3.490638   -2.141472

 Total Charge           Charge          ....    0
 Multiplicity           Mult            ....    1
 Number of Electrons    NEL             ....   94
 Basis Dimension        Dim             ....  374

ORBITAL ENERGIES
----------------

  NO   OCC          E(Eh)            E(eV)
   0   2.0000     -24.854095      -676.3143
   1   2.0000     -19.225256      -523.1458
   2   2.0000     -14.386263      -391.4701
   3   2.0000     -10.413694      -283.3710
   4   2.0000     -10.263213      -279.2762
   5   2.0000     -10.248258      -278.8693
   6   2.0000     -10.238890      -278.6143
   7   2.0000     -10.236189      -278.5409
   8   2.0000     -10.233444      -278.4662
   9   2.0000     -10.231891      -278.4239
  10   2.0000     -10.226790      -278.2851
  11   2.0000     -10.142633      -275.9951
  12   2.0000      -1.337434       -36.3934
  13   2.0000      -1.060278       -28.8516
  14   2.0000      -0.932218       -25.3670
  15   2.0000      -0.845499       -23.0072
  16   2.0000      -0.810078       -22.0433
  17   2.0000      -0.760708       -20.6999
  18   2.0000      -0.738092       -20.0845
  19   2.0000      -0.693663       -18.8755
  20   2.0000      -0.675454       -18.3800
  21   2.0000      -0.633492       -17.2382
  22   2.0000      -0.595309       -16.1992
  23   2.0000      -0.590064       -16.0564
  24   2.0000      -0.567360       -15.4386
  25   2.0000      -0.553944       -15.0736
  26   2.0000      -0.525722       -14.3056
  27   2.0000      -0.510755       -13.8984
  28   2.0000      -0.495270       -13.4770
  29   2.0000      -0.486211       -13.2305
  30   2.0000      -0.472878       -12.8677
  31   2.0000      -0.457019       -12.4361
  32   2.0000      -0.445809       -12.1311
  33   2.0000      -0.427922       -11.6443
  34   2.0000      -0.418488       -11.3876
  35   2.0000      -0.403093       -10.9687
  36   2.0000      -0.389830       -10.6078
  37   2.0000      -0.387170       -10.5354
  38   2.0000      -0.371028       -10.0962
  39   2.0000      -0.365240        -9.9387
  40   2.0000      -0.353409        -9.6167
  41   2.0000      -0.347552        -9.4574
  42   2.0000      -0.331669        -9.0252
  43   2.0000      -0.326344        -8.8803
  44   2.0000      -0.322434        -8.7739
  45   2.0000      -0.303841        -8.2679
  46   2.0000      -0.193665        -5.2699
  47   0.0000      -0.026626        -0.7245
  48   0.0000       0.018822         0.5122
  49   0.0000       0.029452         0.8014
  50   0.0000       0.040804         1.1103
  51   0.0000       0.046460         1.2643

MULLIKEN ATOMIC CHARGES
-----------------------
   0 C :    0.076909
   1 C :    0.385624
   2 C :    0.056889
   3 H :    0.252054
   4 H :   -0.187545
   5 C :    0.640353
   6 C :   -0.097884
   7 C :    0.901480
   8 N :    0.033076
   9 H :   -0.084300
  10 H :   -0.174075
  11 H :   -0.295966
  12 H :   -0.304620
  13 F :   -0.627468
  14 O :   -0.571624
  15 C :    0.196306
  16 C :    0.024260
  17 H :   -0.034653
  18 H :   -0.009924
  19 C :   -0.128601
  20 H :   -0.011148
  21 H :   -0.117749
  22 H :    0.068959
  23 H :   -0.118454
  24 H :   -0.051954
  25 H :    0.092783
  26 H :    0.195666
  27 H :   -0.108393
Sum of atomic charges:   -0.0000000

LOEWDIN ATOMIC CHARGES
----------------------
   0 C :    0.019676
   1 C :   -0.021341
   2 C :    0.056284
   3 H :    0.039186
   4 H :    0.040811
   5 C :    0.012337
   6 C :   -0.241118
   7 C :    0.175425
   8 N :    0.173145
   9 H :   -0.006907
  10 H :    0.006416
  11 H :   -0.132933
  12 H :   -0.067455
  13 F :   -0.059824
  14 O :   -0.119449
  15 C :   -0.023121
  16 C :   -0.015967
  17 H :    0.022897
  18 H :    0.012726
  19 C :   -0.029961
  20 H :    0.011742
  21 H :    0.027896
  22 H :   -0.002629
  23 H :    0.029927
  24 H :    0.026707
  25 H :    0.025062
  26 H :    0.012964
  27 H :    0.027504

  Mayer bond orders larger than 0.100000
B(  0-C ,  6-C ) :   1.1659 B(  0-C ,  7-C ) :   0.1248 B(  0-C ,  8-N ) :   0.1293
B(  0-C , 15-C ) :   1.1612 B(  0-C , 17-H ) :   0.1684 B(  0-C , 18-H ) :   0.2090
B(  0-C , 26-H ) :   0.7503 B(  0-C , 27-H ) :   0.8899 B(  1-C ,  2-C ) :   1.1895
B(  1-C ,  4-H ) :   0.1095 B(  1-C , 19-C ) :   1.3253 B(  1-C , 24-H ) :   0.8147
B(  1-C , 25-H ) :   0.7088 B(  2-C ,  3-H ) :   0.7872 B(  2-C ,  4-H ) :   0.8022
B(  2-C ,  5-C ) :   1.2015 B(  2-C , 24-H ) :   0.1121 B(  3-H ,  5-C ) :   0.1832
B(  4-H ,  5-C ) :   0.2606 B(  5-C , 13-F ) :   0.5285 B(  5-C , 14-O ) :   1.6717
B(  6-C ,  7-C ) :   1.9975 B(  6-C ,  8-N ) :   0.9615 B(  6-C , 11-H ) :   0.1873
B(  6-C , 12-H ) :   0.4593 B(  6-C , 15-C ) :   0.1007 B(  6-C , 26-H ) :   0.1134
B(  6-C , 27-H ) :   0.2091 B(  7-C ,  8-N ) :   0.4053 B(  7-C , 11-H ) :   0.4681
B(  7-C , 12-H ) :   0.2457 B(  7-C , 26-H ) :  -0.1240 B(  8-N ,  9-H ) :   1.1640
B(  8-N , 10-H ) :   1.2236 B(  9-H , 10-H ) :  -0.1590 B( 11-H , 12-H ) :   0.2570
B( 11-H , 13-F ) :   0.2146 B( 13-F , 14-O ) :   0.1062 B( 15-C , 16-C ) :   1.2226
B( 15-C , 17-H ) :   0.8859 B( 15-C , 18-H ) :   0.7275 B( 15-C , 20-H ) :   0.1505
B( 15-C , 26-H ) :   0.1450 B( 16-C , 18-H ) :   0.1837 B( 16-C , 19-C ) :   1.1942
B( 16-C , 20-H ) :   0.8839 B( 16-C , 21-H ) :   0.8918 B( 16-C , 23-H ) :   0.2023
B( 19-C , 20-H ) :   0.1061 B( 19-C , 21-H ) :   0.1090 B( 19-C , 22-H ) :   0.8706
B( 19-C , 23-H ) :   0.8646 B( 19-C , 24-H ) :   0.1823 B( 19-C , 25-H ) :   0.1886
B( 22-H , 26-H ) :   0.1183

Dispersion correction           -0.027206894
FINAL SINGLE POINT ENERGY      -581.324759848641

DIPOLE MOMENT
-------------
                                X             Y             Z
Electronic contribution:     -3.69026      -1.62670     -10.23287
Nuclear contribution   :      3.32973       2.37270      11.37738
                        -----------------------------------------
Total Dipole Moment    :     -0.36054       0.74600       1.14451
                        -----------------------------------------
Magnitude (a.u.)       :      1.41294
Magnitude (Debye)      :      3.59141

Rotational constants in cm-1:     0.040902     0.025807     0.019036
Rotational constants in MHz :  1226.202138   773.670450   570.681201

                             ****ORCA TERMINATED NORMALLY****
TOTAL RUN TIME: 0 days 0 hours 1 minutes 55 seconds 376 msec
