                         Program Version 5.0.0 -  RELEASE  -
|  1> !PBE0 D3BJ RIJCOSX def2-SVPD def2/J TightSCF
|  2> *xyz -1 1
|  3> C         -0.87096        0.24804       -2.66280
|  4> C         -0.47749        0.60819       -4.10105
|  5> H          0.20677        1.45830       -4.11875
|  6> H         -1.36844        0.92942       -4.64785
|  7> C          0.18467       -0.50664       -4.91676
|  8> O         -0.15869       -1.70109       -4.65798
|  9> O          1.05594       -0.17441       -5.74037
| 10> H         -1.54056       -0.58646       -2.67455
| 11> H         -1.35339        1.08600       -2.20455
| 12> H          0.00660       -0.00662       -2.10609
| 13> *
| 14>
| 15> %MaxCore 64000
| 16>
| 17> %pal nprocs 4
| 18> end
| 19>
| 20> %scf
| 21>   MaxIter 150
| 22> end
| 23>
| 24>
| 25>                          ****END OF INPUT****

CARTESIAN COORDINATES (ANGSTROEM)
---------------------------------
  C     -0.870960    0.248040   -2.662800
  C     -0.477490    0.608190   -4.101050
  H      0.206770    1.458300   -4.118750
  H     -1.368440    0.929420   -4.647850
  C      0.184670   -0.506640   -4.916760
  O     -0.158690   -1.701090   -4.657980
  O      1.055940   -0.174410   -5.740370
  H     -1.540560   -0.586460   -2.674550
  H     -1.353390    1.086000   -2.204550
  H      0.006600   -0.006620   -2.106090

 Total Charge           Charge          ....   -1
 Multiplicity           Mult            ....    1
 Number of Electrons    NEL             ....   40
 Basis Dimension        Dim             ....  146

ORBITAL ENERGIES
----------------

  NO   OCC          E(Eh)            E(eV)
   0   2.0000     -18.955687      -515.8105
   1   2.0000     -18.952128      -515.7136
   2   2.0000     -10.116558      -275.2856
   3   2.0000     -10.068739      -273.9843
   4   2.0000     -10.060132      -273.7501
   5   2.0000      -0.840126       -22.8610
   6   2.0000      -0.744132       -20.2489
   7   2.0000      -0.620044       -16.8723
   8   2.0000      -0.489478       -13.3194
   9   2.0000      -0.331423        -9.0185
  10   2.0000      -0.307137        -8.3576
  11   2.0000      -0.273563        -7.4440
  12   2.0000      -0.244499        -6.6532
  13   2.0000      -0.228690        -6.2230
  14   2.0000      -0.222194        -6.0462
  15   2.0000      -0.193119        -5.2550
  16   2.0000      -0.173999        -4.7348
  17   2.0000      -0.062634        -1.7043
  18   2.0000      -0.056030        -1.5247
  19   2.0000      -0.042290        -1.1508
  20   0.0000       0.161348         4.3905
  21   0.0000       0.196971         5.3599
  22   0.0000       0.210364         5.7243
  23   0.0000       0.221221         6.0197
  24   0.0000       0.249756         6.7962

MULLIKEN ATOMIC CHARGES
-----------------------
   0 C :    0.483359
   1 C :   -0.510393
   2 H :    0.011204
   3 H :    0.027521
   4 C :    0.603875
   5 O :   -0.811791
   6 O :   -0.745386
   7 H :    0.002780
   8 H :   -0.041309
   9 H :   -0.019860
Sum of atomic charges:   -1.0000000

LOEWDIN ATOMIC CHARGES
----------------------
   0 C :    0.091074
   1 C :   -0.043817
   2 H :    0.000678
   3 H :    0.011232
   4 C :   -0.294139
   5 O :   -0.338250
   6 O :   -0.330384
   7 H :   -0.028896
   8 H :   -0.044067
   9 H :   -0.023433

  Mayer bond orders larger than 0.100000
B(  0-C ,  1-C ) :   1.2767 B(  0-C ,  7-H ) :   0.8462 B(  0-C ,  8-H ) :   0.8323
B(  0-C ,  9-H ) :   0.8660 B(  1-C ,  2-H ) :   0.9680 B(  1-C ,  3-H ) :   0.9182
B(  1-C ,  4-C ) :   1.0247 B(  1-C ,  7-H ) :   0.1979 B(  1-C ,  8-H ) :   0.1866
B(  1-C ,  9-H ) :   0.1590 B(  2-H ,  4-C ) :   0.1661 B(  4-C ,  5-O ) :   1.3725
B(  4-C ,  6-O ) :   1.3907

Dispersion correction           -0.005423886
FINAL SINGLE POINT ENERGY      -267.362744461665

DIPOLE MOMENT
-------------
                                X             Y             Z
Electronic contribution:      2.61955      -2.89635      -4.54501
Nuclear contribution   :     -3.54611       4.15440       5.90446
                        -----------------------------------------
Total Dipole Moment    :     -0.92656       1.25805       1.35945
                        -----------------------------------------
Magnitude (a.u.)       :      2.07107
Magnitude (Debye)      :      5.26423

Rotational constants in cm-1:     0.332789     0.132085     0.101080
Rotational constants in MHz :  9976.755824  3959.803182  3030.288811

                             ****ORCA TERMINATED NORMALLY****
TOTAL RUN TIME: 0 days 0 hours 0 minutes 19 seconds 336 msec
