                         Program Version 5.0.0 -  RELEASE  -
|  1> !PBE0 D3BJ RIJCOSX def2-SVPD def2/J TightSCF
|  2> *xyz 1 1
|  3> C          2.48645       -2.67712       -2.56345
|  4> C          3.03764       -2.36672       -3.92351
|  5> N          2.28036       -2.45441       -4.96769
|  6> N          4.32174       -2.01793       -4.01664
|  7> H          4.87994       -1.91167       -3.17382
|  8> H          4.71015       -1.67088       -4.88356
|  9> H          1.27042       -2.41265       -4.86614
| 10> H          2.58183       -2.05528       -5.84688
| 11> C          2.49799       -1.46946       -1.61030
| 12> H          1.47259       -3.05153       -2.69437
| 13> H          3.08320       -3.49064       -2.14147
| 14> H          1.91240       -0.67831       -2.02991
| 15> H          3.50450       -1.13364       -1.47227
| 16> H          2.08509       -1.75655       -0.66585
| 17> *
| 18>
| 19> %MaxCore 64000
| 20>
| 21> %pal nprocs 4
| 22> end
| 23>
| 24> %scf
| 25>   MaxIter 150
| 26> end
| 27>
| 28>
| 29>                          ****END OF INPUT****

CARTESIAN COORDINATES (ANGSTROEM)
---------------------------------
  C      2.486450   -2.677120   -2.563450
  C      3.037640   -2.366720   -3.923510
  N      2.280360   -2.454410   -4.967690
  N      4.321740   -2.017930   -4.016640
  H      4.879940   -1.911670   -3.173820
  H      4.710150   -1.670880   -4.883560
  H      1.270420   -2.412650   -4.866140
  H      2.581830   -2.055280   -5.846880
  C      2.497990   -1.469460   -1.610300
  H      1.472590   -3.051530   -2.694370
  H      3.083200   -3.490640   -2.141470
  H      1.912400   -0.678310   -2.029910
  H      3.504500   -1.133640   -1.472270
  H      2.085090   -1.756550   -0.665850

 Total Charge           Charge          ....    1
 Multiplicity           Mult            ....    1
 Number of Electrons    NEL             ....   40
 Basis Dimension        Dim             ....  172

ORBITAL ENERGIES
----------------

  NO   OCC          E(Eh)            E(eV)
   0   2.0000     -14.646924      -398.5631
   1   2.0000     -14.641702      -398.4210
   2   2.0000     -10.558820      -287.3201
   3   2.0000     -10.433494      -283.9098
   4   2.0000     -10.391757      -282.7741
   5   2.0000      -1.228554       -33.4307
   6   2.0000      -1.129689       -30.7404
   7   2.0000      -0.987637       -26.8750
   8   2.0000      -0.882851       -24.0236
   9   2.0000      -0.833162       -22.6715
  10   2.0000      -0.794618       -21.6227
  11   2.0000      -0.765979       -20.8433
  12   2.0000      -0.718508       -19.5516
  13   2.0000      -0.668347       -18.1867
  14   2.0000      -0.638492       -17.3743
  15   2.0000      -0.624498       -16.9935
  16   2.0000      -0.563887       -15.3441
  17   2.0000      -0.551840       -15.0163
  18   2.0000      -0.541435       -14.7332
  19   2.0000      -0.510802       -13.8996
  20   0.0000      -0.212338        -5.7780
  21   0.0000      -0.151808        -4.1309
  22   0.0000      -0.109517        -2.9801
  23   0.0000      -0.107967        -2.9379
  24   0.0000      -0.075623        -2.0578

MULLIKEN ATOMIC CHARGES
-----------------------
   0 C :   -0.418417
   1 C :    0.815527
   2 N :   -0.005382
   3 N :   -0.036626
   4 H :    0.039419
   5 H :   -0.112032
   6 H :    0.028902
   7 H :   -0.072468
   8 C :    0.550725
   9 H :    0.081489
  10 H :    0.101578
  11 H :   -0.021716
  12 H :   -0.021114
  13 H :    0.070115
Sum of atomic charges:    1.0000000

LOEWDIN ATOMIC CHARGES
----------------------
   0 C :    0.010309
   1 C :   -0.040461
   2 N :    0.277371
   3 N :    0.282827
   4 H :    0.049792
   5 H :    0.046274
   6 H :    0.061226
   7 H :    0.052256
   8 C :    0.168371
   9 H :    0.037235
  10 H :    0.056043
  11 H :    0.001415
  12 H :   -0.013295
  13 H :    0.010636

  Mayer bond orders larger than 0.100000
B(  0-C ,  1-C ) :   1.1731 B(  0-C ,  8-C ) :   1.2752 B(  0-C ,  9-H ) :   0.8908
B(  0-C , 10-H ) :   0.8816 B(  0-C , 11-H ) :   0.1416 B(  0-C , 12-H ) :   0.1658
B(  0-C , 13-H ) :   0.1309 B(  1-C ,  2-N ) :   1.0406 B(  1-C ,  3-N ) :   1.0189
B(  1-C ,  5-H ) :  -0.1526 B(  1-C ,  7-H ) :  -0.1299 B(  1-C ,  9-H ) :   0.1401
B(  2-N ,  3-N ) :   0.1512 B(  2-N ,  6-H ) :   1.0661 B(  2-N ,  7-H ) :   1.2065
B(  3-N ,  4-H ) :   1.0936 B(  3-N ,  5-H ) :   1.2845 B(  4-H ,  5-H ) :  -0.1669
B(  6-H ,  7-H ) :  -0.1254 B(  8-C , 11-H ) :   0.8627 B(  8-C , 12-H ) :   0.8238
B(  8-C , 13-H ) :   0.8565

Dispersion correction           -0.008508074
FINAL SINGLE POINT ENERGY      -228.616196368331

DIPOLE MOMENT
-------------
                                X             Y             Z
Electronic contribution:      1.06049      -1.07340      -3.91876
Nuclear contribution   :     -0.84604       1.34287       2.92710
                        -----------------------------------------
Total Dipole Moment    :      0.21445       0.26947      -0.99166
                        -----------------------------------------
Magnitude (a.u.)       :      1.04976
Magnitude (Debye)      :      2.66827

Rotational constants in cm-1:     0.265816     0.126189     0.097583
Rotational constants in MHz :  7968.948902  3783.040103  2925.457702

                             ****ORCA TERMINATED NORMALLY****
TOTAL RUN TIME: 0 days 0 hours 0 minutes 23 seconds 967 msec
