                         Program Version 5.0.0 -  RELEASE  -
|  1> !PBE0 D3BJ RIJCOSX def2-SVPD def2/J TightSCF xyzfile
|  2>
|  3> *xyzfile 0 1 B.xyz
|  4>
|  5> %MaxCore 64000
|  6>
|  7> %pal nprocs 4
|  8> end
|  9>
| 10> %scf
| 11>   MaxIter 150
| 12> end
| 13>
| 14>
| 15>                          ****END OF INPUT****

CARTESIAN COORDINATES (ANGSTROEM)
---------------------------------
  C      2.486452   -2.677121   -2.563447
  C     -0.870963    0.248043   -2.662804
  C     -0.477492    0.608191   -4.101052
  H      0.206773    1.458299   -4.118748
  H     -1.368442    0.929419   -4.647855
  C      0.184673   -0.506640   -4.916760
  C      3.037640   -2.366715   -3.923509
  N      2.280360   -2.454408   -4.967692
  N      4.321736   -2.017932   -4.016641
  H      4.879940   -1.911668   -3.173823
  H      4.710148   -1.670882   -4.883561
  H      1.270423   -2.412650   -4.866143
  H      2.581829   -2.055282   -5.846878
  O     -0.158685   -1.701088   -4.657981
  O      1.055938   -0.174410   -5.740373
  C      2.497991   -1.469464   -1.610303
  C      1.582841   -0.321986   -2.042619
  H      2.193083   -1.833912   -0.625420
  H      3.523356   -1.103982   -1.490392
  C      0.100160   -0.673551   -1.915815
  H      1.822311   -0.040361   -3.072834
  H      1.813180    0.557019   -1.433266
  H     -0.063284   -1.679120   -2.301112
  H     -0.168820   -0.691680   -0.853831
  H     -1.001048    1.181040   -2.104071
  H     -1.844645   -0.246592   -2.663281
  H      1.472592   -3.051527   -2.694366
  H      3.083201   -3.490638   -2.141472

 Total Charge           Charge          ....    0
 Multiplicity           Mult            ....    1
 Number of Electrons    NEL             ....   94
 Basis Dimension        Dim             ....  374

ORBITAL ENERGIES
----------------

  NO   OCC          E(Eh)            E(eV)
   0   2.0000     -19.132039      -520.6093
   1   2.0000     -19.125109      -520.4207
   2   2.0000     -14.480883      -394.0449
   3   2.0000     -14.443436      -393.0259
   4   2.0000     -10.383125      -282.5392
   5   2.0000     -10.284974      -279.8684
   6   2.0000     -10.278870      -279.7023
   7   2.0000     -10.261644      -279.2335
   8   2.0000     -10.230993      -278.3995
   9   2.0000     -10.212816      -277.9048
  10   2.0000     -10.208188      -277.7789
  11   2.0000     -10.195673      -277.4384
  12   2.0000      -1.052891       -28.6506
  13   2.0000      -1.019540       -27.7431
  14   2.0000      -0.952191       -25.9104
  15   2.0000      -0.922705       -25.1081
  16   2.0000      -0.849765       -23.1233
  17   2.0000      -0.795614       -21.6497
  18   2.0000      -0.750723       -20.4282
  19   2.0000      -0.695433       -18.9237
  20   2.0000      -0.676651       -18.4126
  21   2.0000      -0.632697       -17.2166
  22   2.0000      -0.625505       -17.0209
  23   2.0000      -0.595677       -16.2092
  24   2.0000      -0.571185       -15.5427
  25   2.0000      -0.540290       -14.7020
  26   2.0000      -0.515273       -14.0213
  27   2.0000      -0.495149       -13.4737
  28   2.0000      -0.472727       -12.8636
  29   2.0000      -0.467534       -12.7222
  30   2.0000      -0.459592       -12.5061
  31   2.0000      -0.437756       -11.9119
  32   2.0000      -0.427026       -11.6200
  33   2.0000      -0.423436       -11.5223
  34   2.0000      -0.407162       -11.0794
  35   2.0000      -0.395381       -10.7589
  36   2.0000      -0.384131       -10.4527
  37   2.0000      -0.371330       -10.1044
  38   2.0000      -0.365125        -9.9356
  39   2.0000      -0.349260        -9.5038
  40   2.0000      -0.336908        -9.1677
  41   2.0000      -0.326517        -8.8850
  42   2.0000      -0.319070        -8.6823
  43   2.0000      -0.309123        -8.4117
  44   2.0000      -0.241460        -6.5705
  45   2.0000      -0.228075        -6.2062
  46   2.0000      -0.216595        -5.8938
  47   0.0000      -0.042399        -1.1537
  48   0.0000      -0.011178        -0.3042
  49   0.0000       0.024958         0.6791
  50   0.0000       0.038292         1.0420
  51   0.0000       0.044254         1.2042

MULLIKEN ATOMIC CHARGES
-----------------------
   0 C :    0.073409
   1 C :    0.363848
   2 C :    0.108702
   3 H :    0.252178
   4 H :   -0.214222
   5 C :    0.414985
   6 C :    0.826563
   7 N :    0.179702
   8 N :   -0.087295
   9 H :   -0.006425
  10 H :   -0.129485
  11 H :   -0.175173
  12 H :   -0.028068
  13 O :   -0.883028
  14 O :   -0.690256
  15 C :    0.170583
  16 C :    0.000133
  17 H :   -0.003914
  18 H :   -0.025668
  19 C :   -0.132924
  20 H :   -0.022664
  21 H :   -0.129014
  22 H :    0.129607
  23 H :   -0.138840
  24 H :   -0.075444
  25 H :    0.106845
  26 H :    0.135571
  27 H :   -0.019706
Sum of atomic charges:    0.0000000

LOEWDIN ATOMIC CHARGES
----------------------
   0 C :    0.053385
   1 C :   -0.021888
   2 C :    0.027757
   3 H :    0.019433
   4 H :    0.030099
   5 C :   -0.231534
   6 C :   -0.042505
   7 N :    0.306869
   8 N :    0.248682
   9 H :    0.025137
  10 H :    0.029879
  11 H :   -0.094317
  12 H :    0.033501
  13 O :   -0.262003
  14 O :   -0.267551
  15 C :   -0.017131
  16 C :   -0.012907
  17 H :    0.031883
  18 H :    0.011614
  19 C :   -0.031695
  20 H :    0.012869
  21 H :    0.029382
  22 H :   -0.008675
  23 H :    0.022906
  24 H :    0.017049
  25 H :    0.024766
  26 H :    0.026564
  27 H :    0.038431

  Mayer bond orders larger than 0.100000
B(  0-C ,  6-C ) :   1.0995 B(  0-C ,  7-N ) :   0.1106 B(  0-C , 15-C ) :   1.1883
B(  0-C , 17-H ) :   0.1246 B(  0-C , 18-H ) :   0.1411 B(  0-C , 26-H ) :   0.7694
B(  0-C , 27-H ) :   0.7827 B(  1-C ,  2-C ) :   1.2013 B(  1-C ,  4-H ) :   0.1055
B(  1-C , 19-C ) :   1.3329 B(  1-C , 24-H ) :   0.8216 B(  1-C , 25-H ) :   0.6969
B(  2-C ,  3-H ) :   0.7578 B(  2-C ,  4-H ) :   0.8131 B(  2-C ,  5-C ) :   1.1813
B(  2-C , 24-H ) :   0.1346 B(  3-H ,  5-C ) :   0.2425 B(  4-H ,  5-C ) :   0.2544
B(  5-C , 13-O ) :   1.0970 B(  5-C , 14-O ) :   1.3980 B(  6-C ,  7-N ) :   1.1235
B(  6-C ,  8-N ) :   0.8638 B(  6-C ,  9-H ) :  -0.1025 B(  6-C , 10-H ) :  -0.1170
B(  6-C , 12-H ) :  -0.1554 B(  6-C , 26-H ) :   0.1452 B(  6-C , 27-H ) :   0.1368
B(  7-N ,  8-N ) :   0.2125 B(  7-N , 11-H ) :   1.0067 B(  7-N , 12-H ) :   1.1107
B(  8-N ,  9-H ) :   1.1613 B(  8-N , 10-H ) :   1.2736 B(  9-H , 10-H ) :  -0.1732
B( 11-H , 12-H ) :  -0.1313 B( 11-H , 13-O ) :   0.2703 B( 15-C , 16-C ) :   1.2303
B( 15-C , 17-H ) :   0.8936 B( 15-C , 18-H ) :   0.7391 B( 15-C , 20-H ) :   0.1397
B( 15-C , 26-H ) :   0.1359 B( 15-C , 27-H ) :   0.1210 B( 16-C , 17-H ) :   0.1180
B( 16-C , 18-H ) :   0.1802 B( 16-C , 19-C ) :   1.1967 B( 16-C , 20-H ) :   0.8748
B( 16-C , 21-H ) :   0.9144 B( 16-C , 23-H ) :   0.2164 B( 19-C , 20-H ) :   0.1127
B( 19-C , 21-H ) :   0.1061 B( 19-C , 22-H ) :   0.8526 B( 19-C , 23-H ) :   0.8626
B( 19-C , 24-H ) :   0.1890 B( 19-C , 25-H ) :   0.1873 B( 22-H , 26-H ) :   0.1059

Dispersion correction           -0.027346108
FINAL SINGLE POINT ENERGY      -573.452958527711

DIPOLE MOMENT
-------------
                                X             Y             Z
Electronic contribution:      1.71758      -2.90979      -8.79912
Nuclear contribution   :      1.39386       1.90489      10.36520
                        -----------------------------------------
Total Dipole Moment    :      3.11144      -1.00490       1.56608
                        -----------------------------------------
Magnitude (a.u.)       :      3.62539
Magnitude (Debye)      :      9.21502

Rotational constants in cm-1:     0.041165     0.025922     0.019001
Rotational constants in MHz :  1234.086888   777.109255   569.639629

                             ****ORCA TERMINATED NORMALLY****
TOTAL RUN TIME: 0 days 0 hours 1 minutes 56 seconds 312 msec
