                         Program Version 5.0.0 -  RELEASE  -
|  1> !PBE0 D3BJ RIJCOSX def2-SVPD def2/J TightSCF
|  2> *xyz 0 1
|  3> C         -0.87096        0.24804       -2.66280
|  4> C         -0.47749        0.60819       -4.10105
|  5> H          0.20677        1.45830       -4.11875
|  6> H         -1.36844        0.92942       -4.64785
|  7> C          0.18467       -0.50664       -4.91676
|  8> F         -0.15869       -1.70109       -4.65798
|  9> O          1.05594       -0.17441       -5.74037
| 10> H         -1.54056       -0.58646       -2.67455
| 11> H         -1.35339        1.08600       -2.20455
| 12> H          0.00660       -0.00662       -2.10609
| 13> *
| 14>
| 15> %MaxCore 64000
| 16>
| 17> %pal nprocs 4
| 18> end
| 19>
| 20> %scf
| 21>   MaxIter 150
| 22> end
| 23>
| 24>
| 25>                          ****END OF INPUT****

CARTESIAN COORDINATES (ANGSTROEM)
---------------------------------
  C     -0.870960    0.248040   -2.662800
  C     -0.477490    0.608190   -4.101050
  H      0.206770    1.458300   -4.118750
  H     -1.368440    0.929420   -4.647850
  C      0.184670   -0.506640   -4.916760
  F     -0.158690   -1.701090   -4.657980
  O      1.055940   -0.174410   -5.740370
  H     -1.540560   -0.586460   -2.674550
  H     -1.353390    1.086000   -2.204550
  H      0.006600   -0.006620   -2.106090

 Total Charge           Charge          ....    0
 Multiplicity           Mult            ....    1
 Number of Electrons    NEL             ....   40
 Basis Dimension        Dim             ....  146

ORBITAL ENERGIES
----------------

  NO   OCC          E(Eh)            E(eV)
   0   2.0000     -24.852728      -676.2771
   1   2.0000     -19.228773      -523.2415
   2   2.0000     -10.415514      -283.4205
   3   2.0000     -10.268215      -279.4123
   4   2.0000     -10.242588      -278.7150
   5   2.0000      -1.331010       -36.2186
   6   2.0000      -1.062140       -28.9023
   7   2.0000      -0.821410       -22.3517
   8   2.0000      -0.703019       -19.1301
   9   2.0000      -0.662025       -18.0146
  10   2.0000      -0.567162       -15.4333
  11   2.0000      -0.560019       -15.2389
  12   2.0000      -0.514669       -14.0048
  13   2.0000      -0.483566       -13.1585
  14   2.0000      -0.450293       -12.2531
  15   2.0000      -0.420876       -11.4526
  16   2.0000      -0.404096       -10.9960
  17   2.0000      -0.393763       -10.7148
  18   2.0000      -0.367006        -9.9868
  19   2.0000      -0.310781        -8.4568
  20   0.0000      -0.026914        -0.7324
  21   0.0000       0.016705         0.4546
  22   0.0000       0.054716         1.4889
  23   0.0000       0.062367         1.6971
  24   0.0000       0.081112         2.2072

MULLIKEN ATOMIC CHARGES
-----------------------
   0 C :    0.498790
   1 C :   -0.564186
   2 H :    0.045060
   3 H :    0.100055
   4 C :    0.886358
   5 F :   -0.439724
   6 O :   -0.536487
   7 H :    0.012221
   8 H :   -0.009542
   9 H :    0.007455
Sum of atomic charges:   -0.0000000

LOEWDIN ATOMIC CHARGES
----------------------
   0 C :    0.127685
   1 C :    0.006151
   2 H :    0.036099
   3 H :    0.042250
   4 C :    0.004296
   5 F :   -0.046494
   6 O :   -0.135967
   7 H :   -0.013703
   8 H :   -0.011915
   9 H :   -0.008403

  Mayer bond orders larger than 0.100000
B(  0-C ,  1-C ) :   1.3058 B(  0-C ,  7-H ) :   0.8437 B(  0-C ,  8-H ) :   0.8360
B(  0-C ,  9-H ) :   0.8680 B(  1-C ,  2-H ) :   0.9786 B(  1-C ,  3-H ) :   0.8869
B(  1-C ,  4-C ) :   1.0487 B(  1-C ,  7-H ) :   0.1656 B(  1-C ,  8-H ) :   0.1800
B(  1-C ,  9-H ) :   0.1445 B(  2-H ,  4-C ) :   0.1190 B(  4-C ,  5-F ) :   0.6735
B(  4-C ,  6-O ) :   1.7361

Dispersion correction           -0.005105651
FINAL SINGLE POINT ENERGY      -291.886254834490

DIPOLE MOMENT
-------------
                                X             Y             Z
Electronic contribution:      2.60067      -5.34613      -5.28605
Nuclear contribution   :     -3.42837       5.66737       6.17046
                        -----------------------------------------
Total Dipole Moment    :     -0.82770       0.32124       0.88441
                        -----------------------------------------
Magnitude (a.u.)       :      1.25318
Magnitude (Debye)      :      3.18533

Rotational constants in cm-1:     0.304660     0.130969     0.097716
Rotational constants in MHz :  9133.464515  3926.366384  2929.457090

                             ****ORCA TERMINATED NORMALLY****
TOTAL RUN TIME: 0 days 0 hours 0 minutes 16 seconds 864 msec
