                         Program Version 5.0.0 -  RELEASE  -
|  1> !PBE0 D3BJ RIJCOSX def2-SVPD def2/J TightSCF
|  2> *xyz 0 1
|  3> C          2.48645       -2.67712       -2.56345
|  4> C          3.03764       -2.36672       -3.92351
|  5> C          2.28036       -2.45441       -4.96769
|  6> N          4.32174       -2.01793       -4.01664
|  7> H          4.87994       -1.91167       -3.17382
|  8> H          4.71015       -1.67088       -4.88356
|  9> H          1.27042       -2.41265       -4.86614
| 10> H          2.58183       -2.05528       -5.84688
| 11> C          2.49799       -1.46946       -1.61030
| 12> H          1.47259       -3.05153       -2.69437
| 13> H          3.08320       -3.49064       -2.14147
| 14> H          1.91240       -0.67831       -2.02991
| 15> H          3.50450       -1.13364       -1.47227
| 16> H          2.08509       -1.75655       -0.66585
| 17> *
| 18>
| 19> %MaxCore 64000
| 20>
| 21> %pal nprocs 4
| 22> end
| 23>
| 24> %scf
| 25>   MaxIter 150
| 26> end
| 27>
| 28>
| 29>                          ****END OF INPUT****

CARTESIAN COORDINATES (ANGSTROEM)
---------------------------------
  C      2.486450   -2.677120   -2.563450
  C      3.037640   -2.366720   -3.923510
  C      2.280360   -2.454410   -4.967690
  N      4.321740   -2.017930   -4.016640
  H      4.879940   -1.911670   -3.173820
  H      4.710150   -1.670880   -4.883560
  H      1.270420   -2.412650   -4.866140
  H      2.581830   -2.055280   -5.846880
  C      2.497990   -1.469460   -1.610300
  H      1.472590   -3.051530   -2.694370
  H      3.083200   -3.490640   -2.141470
  H      1.912400   -0.678310   -2.029910
  H      3.504500   -1.133640   -1.472270
  H      2.085090   -1.756550   -0.665850

 Total Charge           Charge          ....    0
 Multiplicity           Mult            ....    1
 Number of Electrons    NEL             ....   40
 Basis Dimension        Dim             ....  172

ORBITAL ENERGIES
----------------

  NO   OCC          E(Eh)            E(eV)
   0   2.0000     -14.397573      -391.7779
   1   2.0000     -10.253445      -279.0104
   2   2.0000     -10.232801      -278.4487
   3   2.0000     -10.222268      -278.1621
   4   2.0000     -10.163274      -276.5568
   5   2.0000      -0.943649       -25.6780
   6   2.0000      -0.796331       -21.6693
   7   2.0000      -0.741519       -20.1778
   8   2.0000      -0.650428       -17.6990
   9   2.0000      -0.583134       -15.8679
  10   2.0000      -0.540317       -14.7028
  11   2.0000      -0.492575       -13.4036
  12   2.0000      -0.450819       -12.2674
  13   2.0000      -0.445736       -12.1291
  14   2.0000      -0.402405       -10.9500
  15   2.0000      -0.395973       -10.7750
  16   2.0000      -0.366692        -9.9782
  17   2.0000      -0.347047        -9.4436
  18   2.0000      -0.338401        -9.2084
  19   2.0000      -0.208364        -5.6699
  20   0.0000       0.022303         0.6069
  21   0.0000       0.044114         1.2004
  22   0.0000       0.060733         1.6526
  23   0.0000       0.066608         1.8125
  24   0.0000       0.076626         2.0851

MULLIKEN ATOMIC CHARGES
-----------------------
   0 C :   -0.345176
   1 C :   -0.043858
   2 C :    0.307572
   3 N :    0.068831
   4 H :   -0.122961
   5 H :   -0.174884
   6 H :    0.024055
   7 H :   -0.352273
   8 C :    0.541234
   9 H :    0.146335
  10 H :    0.008288
  11 H :   -0.015546
  12 H :   -0.037209
  13 H :   -0.004408
Sum of atomic charges:   -0.0000000

LOEWDIN ATOMIC CHARGES
----------------------
   0 C :   -0.032617
   1 C :   -0.263096
   2 C :    0.157219
   3 N :    0.170230
   4 H :   -0.002582
   5 H :    0.006232
   6 H :   -0.073589
   7 H :   -0.081026
   8 C :    0.129436
   9 H :    0.022119
  10 H :    0.026384
  11 H :   -0.010893
  12 H :   -0.030080
  13 H :   -0.017738

  Mayer bond orders larger than 0.100000
B(  0-C ,  1-C ) :   1.2219 B(  0-C ,  8-C ) :   1.2534 B(  0-C ,  9-H ) :   0.8782
B(  0-C , 10-H ) :   0.9078 B(  0-C , 11-H ) :   0.1342 B(  0-C , 12-H ) :   0.1938
B(  0-C , 13-H ) :   0.1656 B(  1-C ,  2-C ) :   2.0019 B(  1-C ,  3-N ) :   1.0836
B(  1-C ,  6-H ) :   0.1058 B(  1-C ,  7-H ) :   0.2557 B(  1-C ,  9-H ) :   0.1078
B(  1-C , 10-H ) :   0.1530 B(  2-C ,  3-N ) :   0.2471 B(  2-C ,  6-H ) :   0.8738
B(  2-C ,  7-H ) :   0.7078 B(  3-N ,  4-H ) :   1.1624 B(  3-N ,  5-H ) :   1.2320
B(  4-H ,  5-H ) :  -0.1434 B(  6-H ,  7-H ) :   0.1617 B(  8-C , 11-H ) :   0.8677
B(  8-C , 12-H ) :   0.8137 B(  8-C , 13-H ) :   0.8492

Dispersion correction           -0.008847865
FINAL SINGLE POINT ENERGY      -212.167201885536

DIPOLE MOMENT
-------------
                                X             Y             Z
Electronic contribution:      1.53492      -0.87983      -2.13822
Nuclear contribution   :     -0.99743       1.27863       2.57190
                        -----------------------------------------
Total Dipole Moment    :      0.53749       0.39880       0.43368
                        -----------------------------------------
Magnitude (a.u.)       :      0.79750
Magnitude (Debye)      :      2.02709

Rotational constants in cm-1:     0.274050     0.130114     0.100964
Rotational constants in MHz :  8215.815505  3900.722919  3026.834930

                             ****ORCA TERMINATED NORMALLY****
TOTAL RUN TIME: 0 days 0 hours 0 minutes 23 seconds 918 msec
