                         Program Version 5.0.0 -  RELEASE  -
|  1> !PBE0 D3BJ RIJCOSX def2-SVPD def2/J TightSCF
|  2> *xyz 0 1
|  3> C         -0.87096        0.24804       -2.66280
|  4> C         -0.47749        0.60819       -4.10105
|  5> H          0.20677        1.45830       -4.11875
|  6> H         -1.36844        0.92942       -4.64785
|  7> C          0.18467       -0.50664       -4.91676
|  8> O         -0.15869       -1.70109       -4.65798
|  9> F          1.05594       -0.17441       -5.74037
| 10> H         -1.54056       -0.58646       -2.67455
| 11> H         -1.35339        1.08600       -2.20455
| 12> H          0.00660       -0.00662       -2.10609
| 13> *
| 14>
| 15> %MaxCore 64000
| 16>
| 17> %pal nprocs 4
| 18> end
| 19>
| 20> %scf
| 21>   MaxIter 150
| 22> end
| 23>
| 24>
| 25>                          ****END OF INPUT****

CARTESIAN COORDINATES (ANGSTROEM)
---------------------------------
  C     -0.870960    0.248040   -2.662800
  C     -0.477490    0.608190   -4.101050
  H      0.206770    1.458300   -4.118750
  H     -1.368440    0.929420   -4.647850
  C      0.184670   -0.506640   -4.916760
  O     -0.158690   -1.701090   -4.657980
  F      1.055940   -0.174410   -5.740370
  H     -1.540560   -0.586460   -2.674550
  H     -1.353390    1.086000   -2.204550
  H      0.006600   -0.006620   -2.106090

 Total Charge           Charge          ....    0
 Multiplicity           Mult            ....    1
 Number of Electrons    NEL             ....   40
 Basis Dimension        Dim             ....  146

ORBITAL ENERGIES
----------------

  NO   OCC          E(Eh)            E(eV)
   0   2.0000     -24.862035      -676.5304
   1   2.0000     -19.225491      -523.1522
   2   2.0000     -10.417753      -283.4815
   3   2.0000     -10.269442      -279.4457
   4   2.0000     -10.236604      -278.5522
   5   2.0000      -1.350093       -36.7379
   6   2.0000      -1.046643       -28.4806
   7   2.0000      -0.817581       -22.2475
   8   2.0000      -0.713767       -19.4226
   9   2.0000      -0.660753       -17.9800
  10   2.0000      -0.576116       -15.6769
  11   2.0000      -0.560191       -15.2436
  12   2.0000      -0.525741       -14.3061
  13   2.0000      -0.482400       -13.1268
  14   2.0000      -0.448871       -12.2144
  15   2.0000      -0.412135       -11.2148
  16   2.0000      -0.391440       -10.6516
  17   2.0000      -0.389047       -10.5865
  18   2.0000      -0.362593        -9.8666
  19   2.0000      -0.308099        -8.3838
  20   0.0000      -0.029561        -0.8044
  21   0.0000       0.020124         0.5476
  22   0.0000       0.050723         1.3802
  23   0.0000       0.065462         1.7813
  24   0.0000       0.080161         2.1813

MULLIKEN ATOMIC CHARGES
-----------------------
   0 C :    0.488713
   1 C :   -0.572642
   2 H :    0.060517
   3 H :    0.104020
   4 C :    0.875891
   5 O :   -0.586675
   6 F :   -0.388688
   7 H :    0.020457
   8 H :   -0.007931
   9 H :    0.006338
Sum of atomic charges:    0.0000000

LOEWDIN ATOMIC CHARGES
----------------------
   0 C :    0.137370
   1 C :   -0.002883
   2 H :    0.025276
   3 H :    0.042096
   4 C :    0.003987
   5 O :   -0.146975
   6 F :   -0.031814
   7 H :   -0.008963
   8 H :   -0.012002
   9 H :   -0.006092

  Mayer bond orders larger than 0.100000
B(  0-C ,  1-C ) :   1.3445 B(  0-C ,  7-H ) :   0.8426 B(  0-C ,  8-H ) :   0.8311
B(  0-C ,  9-H ) :   0.8628 B(  1-C ,  2-H ) :   0.9394 B(  1-C ,  3-H ) :   0.8877
B(  1-C ,  4-C ) :   1.0890 B(  1-C ,  7-H ) :   0.1800 B(  1-C ,  8-H ) :   0.1750
B(  1-C ,  9-H ) :   0.1553 B(  2-H ,  4-C ) :   0.1048 B(  4-C ,  5-O ) :   1.7229
B(  4-C ,  6-F ) :   0.7016

Dispersion correction           -0.005147260
FINAL SINGLE POINT ENERGY      -291.879534887932

DIPOLE MOMENT
-------------
                                X             Y             Z
Electronic contribution:      4.63949      -2.81956      -7.11211
Nuclear contribution   :     -4.75269       4.00281       7.35060
                        -----------------------------------------
Total Dipole Moment    :     -0.11320       1.18325       0.23849
                        -----------------------------------------
Magnitude (a.u.)       :      1.21234
Magnitude (Debye)      :      3.08153

Rotational constants in cm-1:     0.323805     0.124913     0.096140
Rotational constants in MHz :  9707.430323  3744.789513  2882.191141

                             ****ORCA TERMINATED NORMALLY****
TOTAL RUN TIME: 0 days 0 hours 0 minutes 16 seconds 374 msec
