                         Program Version 5.0.0 -  RELEASE  -
|  1> !PBE0 D3BJ RIJCOSX def2-SVPD def2/J TightSCF
|  2> *xyz 0 1
|  3> C          2.48645       -2.67712       -2.56345
|  4> C          3.03764       -2.36672       -3.92351
|  5> N          2.28036       -2.45441       -4.96769
|  6> C          4.32174       -2.01793       -4.01664
|  7> H          4.87994       -1.91167       -3.17382
|  8> H          4.71015       -1.67088       -4.88356
|  9> H          1.27042       -2.41265       -4.86614
| 10> H          2.58183       -2.05528       -5.84688
| 11> C          2.49799       -1.46946       -1.61030
| 12> H          1.47259       -3.05153       -2.69437
| 13> H          3.08320       -3.49064       -2.14147
| 14> H          1.91240       -0.67831       -2.02991
| 15> H          3.50450       -1.13364       -1.47227
| 16> H          2.08509       -1.75655       -0.66585
| 17> *
| 18>
| 19> %MaxCore 64000
| 20>
| 21> %pal nprocs 4
| 22> end
| 23>
| 24> %scf
| 25>   MaxIter 150
| 26> end
| 27>
| 28>
| 29>                          ****END OF INPUT****

CARTESIAN COORDINATES (ANGSTROEM)
---------------------------------
  C      2.486450   -2.677120   -2.563450
  C      3.037640   -2.366720   -3.923510
  N      2.280360   -2.454410   -4.967690
  C      4.321740   -2.017930   -4.016640
  H      4.879940   -1.911670   -3.173820
  H      4.710150   -1.670880   -4.883560
  H      1.270420   -2.412650   -4.866140
  H      2.581830   -2.055280   -5.846880
  C      2.497990   -1.469460   -1.610300
  H      1.472590   -3.051530   -2.694370
  H      3.083200   -3.490640   -2.141470
  H      1.912400   -0.678310   -2.029910
  H      3.504500   -1.133640   -1.472270
  H      2.085090   -1.756550   -0.665850

 Total Charge           Charge          ....    0
 Multiplicity           Mult            ....    1
 Number of Electrons    NEL             ....   40
 Basis Dimension        Dim             ....  172

ORBITAL ENERGIES
----------------

  NO   OCC          E(Eh)            E(eV)
   0   2.0000     -14.401305      -391.8794
   1   2.0000     -10.253696      -279.0173
   2   2.0000     -10.233460      -278.4666
   3   2.0000     -10.218311      -278.0544
   4   2.0000     -10.164223      -276.5826
   5   2.0000      -0.959309       -26.1041
   6   2.0000      -0.797730       -21.7073
   7   2.0000      -0.725446       -19.7404
   8   2.0000      -0.655822       -17.8458
   9   2.0000      -0.586947       -15.9716
  10   2.0000      -0.537134       -14.6161
  11   2.0000      -0.496911       -13.5216
  12   2.0000      -0.459227       -12.4962
  13   2.0000      -0.422490       -11.4965
  14   2.0000      -0.408859       -11.1256
  15   2.0000      -0.391958       -10.6657
  16   2.0000      -0.365106        -9.9350
  17   2.0000      -0.349568        -9.5122
  18   2.0000      -0.347670        -9.4606
  19   2.0000      -0.198876        -5.4117
  20   0.0000       0.024437         0.6650
  21   0.0000       0.039567         1.0767
  22   0.0000       0.060179         1.6375
  23   0.0000       0.064853         1.7647
  24   0.0000       0.078002         2.1225

MULLIKEN ATOMIC CHARGES
-----------------------
   0 C :   -0.191617
   1 C :    0.020302
   2 N :    0.020840
   3 C :    0.343328
   4 H :   -0.113405
   5 H :   -0.415283
   6 H :   -0.064793
   7 H :   -0.110849
   8 C :    0.517835
   9 H :   -0.028092
  10 H :    0.075902
  11 H :   -0.051897
  12 H :   -0.049219
  13 H :    0.046948
Sum of atomic charges:   -0.0000000

LOEWDIN ATOMIC CHARGES
----------------------
   0 C :   -0.033085
   1 C :   -0.264639
   2 N :    0.158475
   3 C :    0.174896
   4 H :   -0.081978
   5 H :   -0.088721
   6 H :    0.006019
   7 H :    0.012433
   8 C :    0.131618
   9 H :    0.010213
  10 H :    0.031052
  11 H :   -0.013980
  12 H :   -0.023591
  13 H :   -0.018712

  Mayer bond orders larger than 0.100000
B(  0-C ,  1-C ) :   1.1313 B(  0-C ,  3-C ) :   0.1064 B(  0-C ,  8-C ) :   1.2951
B(  0-C ,  9-H ) :   0.8339 B(  0-C , 10-H ) :   0.8548 B(  0-C , 11-H ) :   0.1603
B(  0-C , 12-H ) :   0.1683 B(  0-C , 13-H ) :   0.1382 B(  1-C ,  2-N ) :   0.9859
B(  1-C ,  3-C ) :   1.7616 B(  1-C ,  4-H ) :   0.1069 B(  1-C ,  5-H ) :   0.1253
B(  1-C ,  9-H ) :   0.1721 B(  1-C , 10-H ) :   0.1112 B(  2-N ,  3-C ) :   0.2525
B(  2-N ,  6-H ) :   1.0329 B(  2-N ,  7-H ) :   1.1613 B(  3-C ,  4-H ) :   0.8287
B(  3-C ,  5-H ) :   0.8913 B(  6-H ,  7-H ) :  -0.1116 B(  8-C , 11-H ) :   0.8695
B(  8-C , 12-H ) :   0.8687 B(  8-C , 13-H ) :   0.8230

Dispersion correction           -0.008866055
FINAL SINGLE POINT ENERGY      -212.168069359613

DIPOLE MOMENT
-------------
                                X             Y             Z
Electronic contribution:     -0.24976      -1.19733      -2.98114
Nuclear contribution   :     -0.52463       1.37972       2.79217
                        -----------------------------------------
Total Dipole Moment    :     -0.77440       0.18239      -0.18897
                        -----------------------------------------
Magnitude (a.u.)       :      0.81772
Magnitude (Debye)      :      2.07847

Rotational constants in cm-1:     0.281086     0.127387     0.100311
Rotational constants in MHz :  8426.743103  3818.969834  3007.238026

                             ****ORCA TERMINATED NORMALLY****
TOTAL RUN TIME: 0 days 0 hours 0 minutes 24 seconds 462 msec
