                         Program Version 5.0.0 -  RELEASE  -
|  1> !PBE0 D3BJ RIJCOSX def2-SVPD def2/J TightSCF xyzfile
|  2>
|  3> *xyzfile 0 1 D3.xyz
|  4>
|  5> %MaxCore 64000
|  6>
|  7> %pal nprocs 4
|  8> end
|  9>
| 10> %scf
| 11>   MaxIter 150
| 12> end
| 13>
| 14>
| 15>                          ****END OF INPUT****

CARTESIAN COORDINATES (ANGSTROEM)
---------------------------------
  C      2.486452   -2.677121   -2.563447
  C     -0.870963    0.248043   -2.662804
  C     -0.477492    0.608191   -4.101052
  H      0.206773    1.458299   -4.118748
  H     -1.368442    0.929419   -4.647855
  C      0.184673   -0.506640   -4.916760
  C      3.037640   -2.366715   -3.923509
  C      2.280360   -2.454408   -4.967692
  N      4.321736   -2.017932   -4.016641
  H      4.879940   -1.911668   -3.173823
  H      4.710148   -1.670882   -4.883561
  H      1.270423   -2.412650   -4.866143
  H      2.581829   -2.055282   -5.846878
  O     -0.158685   -1.701088   -4.657981
  F      1.055938   -0.174410   -5.740373
  C      2.497991   -1.469464   -1.610303
  C      1.582841   -0.321986   -2.042619
  H      2.193083   -1.833912   -0.625420
  H      3.523356   -1.103982   -1.490392
  C      0.100160   -0.673551   -1.915815
  H      1.822311   -0.040361   -3.072834
  H      1.813180    0.557019   -1.433266
  H     -0.063284   -1.679120   -2.301112
  H     -0.168820   -0.691680   -0.853831
  H     -1.001048    1.181040   -2.104071
  H     -1.844645   -0.246592   -2.663281
  H      1.472592   -3.051527   -2.694366
  H      3.083201   -3.490638   -2.141472

 Total Charge           Charge          ....    0
 Multiplicity           Mult            ....    1
 Number of Electrons    NEL             ....   94
 Basis Dimension        Dim             ....  374

ORBITAL ENERGIES
----------------

  NO   OCC          E(Eh)            E(eV)
   0   2.0000     -24.860824      -676.4974
   1   2.0000     -19.224320      -523.1203
   2   2.0000     -14.385133      -391.4394
   3   2.0000     -10.418802      -283.5100
   4   2.0000     -10.265779      -279.3460
   5   2.0000     -10.245262      -278.7878
   6   2.0000     -10.236414      -278.5470
   7   2.0000     -10.230377      -278.3827
   8   2.0000     -10.230066      -278.3742
   9   2.0000     -10.227383      -278.3012
  10   2.0000     -10.221553      -278.1426
  11   2.0000     -10.134992      -275.7872
  12   2.0000      -1.348651       -36.6987
  13   2.0000      -1.054683       -28.6994
  14   2.0000      -0.930808       -25.3286
  15   2.0000      -0.840114       -22.8607
  16   2.0000      -0.807408       -21.9707
  17   2.0000      -0.758981       -20.6529
  18   2.0000      -0.735815       -20.0225
  19   2.0000      -0.696957       -18.9652
  20   2.0000      -0.671837       -18.2816
  21   2.0000      -0.629660       -17.1339
  22   2.0000      -0.591281       -16.0896
  23   2.0000      -0.581524       -15.8241
  24   2.0000      -0.568144       -15.4600
  25   2.0000      -0.548388       -14.9224
  26   2.0000      -0.535657       -14.5760
  27   2.0000      -0.522975       -14.2309
  28   2.0000      -0.492371       -13.3981
  29   2.0000      -0.485304       -13.2058
  30   2.0000      -0.468805       -12.7568
  31   2.0000      -0.454633       -12.3712
  32   2.0000      -0.447504       -12.1772
  33   2.0000      -0.418446       -11.3865
  34   2.0000      -0.412463       -11.2237
  35   2.0000      -0.409919       -11.1545
  36   2.0000      -0.392069       -10.6687
  37   2.0000      -0.379721       -10.3327
  38   2.0000      -0.370102       -10.0710
  39   2.0000      -0.368297       -10.0219
  40   2.0000      -0.348465        -9.4822
  41   2.0000      -0.341872        -9.3028
  42   2.0000      -0.329398        -8.9634
  43   2.0000      -0.323702        -8.8084
  44   2.0000      -0.322239        -8.7686
  45   2.0000      -0.281733        -7.6663
  46   2.0000      -0.192366        -5.2345
  47   0.0000      -0.031945        -0.8693
  48   0.0000       0.020377         0.5545
  49   0.0000       0.031247         0.8503
  50   0.0000       0.039425         1.0728
  51   0.0000       0.048371         1.3162

MULLIKEN ATOMIC CHARGES
-----------------------
   0 C :    0.083234
   1 C :    0.378656
   2 C :    0.053340
   3 H :    0.268388
   4 H :   -0.185249
   5 C :    0.675771
   6 C :   -0.124467
   7 C :    0.812743
   8 N :    0.038609
   9 H :   -0.082899
  10 H :   -0.175484
  11 H :   -0.194862
  12 H :   -0.324485
  13 O :   -0.778510
  14 F :   -0.452313
  15 C :    0.180431
  16 C :   -0.024005
  17 H :   -0.030662
  18 H :   -0.017545
  19 C :   -0.144418
  20 H :    0.016616
  21 H :   -0.122994
  22 H :    0.102453
  23 H :   -0.140691
  24 H :   -0.045030
  25 H :    0.123048
  26 H :    0.212283
  27 H :   -0.101958
Sum of atomic charges:    0.0000000

LOEWDIN ATOMIC CHARGES
----------------------
   0 C :    0.023765
   1 C :   -0.010266
   2 C :    0.048726
   3 H :    0.029179
   4 H :    0.041288
   5 C :    0.031674
   6 C :   -0.242492
   7 C :    0.173854
   8 N :    0.168229
   9 H :   -0.008043
  10 H :    0.002730
  11 H :   -0.163641
  12 H :   -0.069240
  13 O :   -0.138481
  14 F :   -0.016740
  15 C :   -0.022747
  16 C :   -0.019026
  17 H :    0.023733
  18 H :    0.011195
  19 C :   -0.026442
  20 H :    0.008244
  21 H :    0.026062
  22 H :   -0.002814
  23 H :    0.029590
  24 H :    0.026993
  25 H :    0.029932
  26 H :    0.017618
  27 H :    0.027119

  Mayer bond orders larger than 0.100000
B(  0-C ,  6-C ) :   1.1909 B(  0-C ,  7-C ) :   0.1246 B(  0-C ,  8-N ) :   0.1305
B(  0-C , 15-C ) :   1.1641 B(  0-C , 17-H ) :   0.1694 B(  0-C , 18-H ) :   0.2071
B(  0-C , 26-H ) :   0.7525 B(  0-C , 27-H ) :   0.8739 B(  1-C ,  2-C ) :   1.2371
B(  1-C ,  4-H ) :   0.1307 B(  1-C , 19-C ) :   1.3303 B(  1-C , 24-H ) :   0.7997
B(  1-C , 25-H ) :   0.6884 B(  2-C ,  3-H ) :   0.7830 B(  2-C ,  4-H ) :   0.7693
B(  2-C ,  5-C ) :   1.2313 B(  2-C , 24-H ) :   0.1249 B(  3-H ,  5-C ) :   0.1299
B(  4-H ,  5-C ) :   0.2760 B(  5-C , 13-O ) :   1.5718 B(  5-C , 14-F ) :   0.5409
B(  6-C ,  7-C ) :   2.0264 B(  6-C ,  8-N ) :   0.9665 B(  6-C , 11-H ) :   0.1626
B(  6-C , 12-H ) :   0.4494 B(  6-C , 26-H ) :   0.1051 B(  6-C , 27-H ) :   0.2158
B(  7-C ,  8-N ) :   0.4010 B(  7-C , 11-H ) :   0.5444 B(  7-C , 12-H ) :   0.2652
B(  7-C , 26-H ) :  -0.1178 B(  8-N ,  9-H ) :   1.1602 B(  8-N , 10-H ) :   1.2203
B(  9-H , 10-H ) :  -0.1583 B( 11-H , 12-H ) :   0.2492 B( 11-H , 13-O ) :   0.1205
B( 15-C , 16-C ) :   1.2266 B( 15-C , 17-H ) :   0.8821 B( 15-C , 18-H ) :   0.7301
B( 15-C , 20-H ) :   0.1453 B( 15-C , 26-H ) :   0.1453 B( 16-C , 18-H ) :   0.1862
B( 16-C , 19-C ) :   1.2038 B( 16-C , 20-H ) :   0.8719 B( 16-C , 21-H ) :   0.9060
B( 16-C , 23-H ) :   0.2070 B( 19-C , 21-H ) :   0.1098 B( 19-C , 22-H ) :   0.8734
B( 19-C , 23-H ) :   0.8684 B( 19-C , 24-H ) :   0.1896 B( 19-C , 25-H ) :   0.1946
B( 22-H , 26-H ) :   0.1100

Dispersion correction           -0.027327490
FINAL SINGLE POINT ENERGY      -581.319838753860

DIPOLE MOMENT
-------------
                                X             Y             Z
Electronic contribution:     -1.74518       0.91426     -12.09434
Nuclear contribution   :      1.88979       0.56282      12.66056
                        -----------------------------------------
Total Dipole Moment    :      0.14461       1.47708       0.56622
                        -----------------------------------------
Magnitude (a.u.)       :      1.58848
Magnitude (Debye)      :      4.03761

Rotational constants in cm-1:     0.040271     0.025954     0.018866
Rotational constants in MHz :  1207.302496   778.083475   565.600538

                             ****ORCA TERMINATED NORMALLY****
TOTAL RUN TIME: 0 days 0 hours 2 minutes 3 seconds 882 msec
