                         Program Version 5.0.0 -  RELEASE  -
|  1> !PBE0 D3BJ RIJCOSX def2-SVPD def2/J TightSCF xyzfile
|  2>
|  3> *xyzfile 0 1 D4.xyz
|  4>
|  5> %MaxCore 64000
|  6>
|  7> %pal nprocs 4
|  8> end
|  9>
| 10> %scf
| 11>   MaxIter 150
| 12> end
| 13>
| 14>
| 15>                          ****END OF INPUT****

CARTESIAN COORDINATES (ANGSTROEM)
---------------------------------
  C      2.486452   -2.677121   -2.563447
  C     -0.870963    0.248043   -2.662804
  C     -0.477492    0.608191   -4.101052
  H      0.206773    1.458299   -4.118748
  H     -1.368442    0.929419   -4.647855
  C      0.184673   -0.506640   -4.916760
  C      3.037640   -2.366715   -3.923509
  N      2.280360   -2.454408   -4.967692
  C      4.321736   -2.017932   -4.016641
  H      4.879940   -1.911668   -3.173823
  H      4.710148   -1.670882   -4.883561
  H      1.270423   -2.412650   -4.866143
  H      2.581829   -2.055282   -5.846878
  O     -0.158685   -1.701088   -4.657981
  F      1.055938   -0.174410   -5.740373
  C      2.497991   -1.469464   -1.610303
  C      1.582841   -0.321986   -2.042619
  H      2.193083   -1.833912   -0.625420
  H      3.523356   -1.103982   -1.490392
  C      0.100160   -0.673551   -1.915815
  H      1.822311   -0.040361   -3.072834
  H      1.813180    0.557019   -1.433266
  H     -0.063284   -1.679120   -2.301112
  H     -0.168820   -0.691680   -0.853831
  H     -1.001048    1.181040   -2.104071
  H     -1.844645   -0.246592   -2.663281
  H      1.472592   -3.051527   -2.694366
  H      3.083201   -3.490638   -2.141472

 Total Charge           Charge          ....    0
 Multiplicity           Mult            ....    1
 Number of Electrons    NEL             ....   94
 Basis Dimension        Dim             ....  374

ORBITAL ENERGIES
----------------

  NO   OCC          E(Eh)            E(eV)
   0   2.0000     -24.882959      -677.0997
   1   2.0000     -19.250937      -523.8446
   2   2.0000     -14.365444      -390.9036
   3   2.0000     -10.442310      -284.1497
   4   2.0000     -10.278881      -279.7026
   5   2.0000     -10.253712      -279.0177
   6   2.0000     -10.239150      -278.6214
   7   2.0000     -10.233023      -278.4547
   8   2.0000     -10.232632      -278.4441
   9   2.0000     -10.227365      -278.3008
  10   2.0000     -10.221683      -278.1461
  11   2.0000     -10.149044      -276.1695
  12   2.0000      -1.370716       -37.2991
  13   2.0000      -1.080746       -29.4086
  14   2.0000      -0.936567       -25.4853
  15   2.0000      -0.849292       -23.1104
  16   2.0000      -0.810297       -22.0493
  17   2.0000      -0.769323       -20.9343
  18   2.0000      -0.728457       -19.8223
  19   2.0000      -0.702887       -19.1265
  20   2.0000      -0.681860       -18.5544
  21   2.0000      -0.638487       -17.3741
  22   2.0000      -0.601472       -16.3669
  23   2.0000      -0.597201       -16.2507
  24   2.0000      -0.575435       -15.6584
  25   2.0000      -0.567111       -15.4319
  26   2.0000      -0.543896       -14.8002
  27   2.0000      -0.513242       -13.9660
  28   2.0000      -0.497705       -13.5432
  29   2.0000      -0.492890       -13.4122
  30   2.0000      -0.485936       -13.2230
  31   2.0000      -0.459999       -12.5172
  32   2.0000      -0.441121       -12.0035
  33   2.0000      -0.428684       -11.6651
  34   2.0000      -0.421162       -11.4604
  35   2.0000      -0.408702       -11.1213
  36   2.0000      -0.395099       -10.7512
  37   2.0000      -0.387896       -10.5552
  38   2.0000      -0.374519       -10.1912
  39   2.0000      -0.373286       -10.1576
  40   2.0000      -0.353670        -9.6239
  41   2.0000      -0.348797        -9.4912
  42   2.0000      -0.335449        -9.1280
  43   2.0000      -0.334076        -9.0907
  44   2.0000      -0.327239        -8.9046
  45   2.0000      -0.312956        -8.5160
  46   2.0000      -0.181249        -4.9320
  47   0.0000      -0.053297        -1.4503
  48   0.0000       0.013331         0.3627
  49   0.0000       0.033993         0.9250
  50   0.0000       0.040460         1.1010
  51   0.0000       0.043435         1.1819

MULLIKEN ATOMIC CHARGES
-----------------------
   0 C :    0.386355
   1 C :    0.375705
   2 C :    0.003866
   3 H :    0.302813
   4 H :   -0.168409
   5 C :    0.790378
   6 C :   -0.073150
   7 N :    0.137166
   8 C :    0.288102
   9 H :   -0.070990
  10 H :   -0.329785
  11 H :   -0.241042
  12 H :   -0.034024
  13 O :   -0.748791
  14 F :   -0.421269
  15 C :    0.103278
  16 C :   -0.070591
  17 H :   -0.015815
  18 H :    0.017567
  19 C :   -0.117022
  20 H :    0.012058
  21 H :   -0.157388
  22 H :    0.122814
  23 H :   -0.154224
  24 H :   -0.041561
  25 H :    0.120559
  26 H :   -0.016522
  27 H :   -0.000080
Sum of atomic charges:    0.0000000

LOEWDIN ATOMIC CHARGES
----------------------
   0 C :    0.024049
   1 C :   -0.008949
   2 C :    0.051812
   3 H :    0.033146
   4 H :    0.044022
   5 C :    0.036033
   6 C :   -0.245584
   7 N :    0.186468
   8 C :    0.167483
   9 H :   -0.088507
  10 H :   -0.092577
  11 H :   -0.113727
  12 H :    0.012802
  13 O :   -0.129625
  14 F :   -0.014260
  15 C :   -0.016938
  16 C :   -0.018891
  17 H :    0.024175
  18 H :    0.018441
  19 C :   -0.028070
  20 H :    0.006771
  21 H :    0.027665
  22 H :   -0.005378
  23 H :    0.030949
  24 H :    0.029169
  25 H :    0.030410
  26 H :    0.006654
  27 H :    0.032458

  Mayer bond orders larger than 0.100000
B(  0-C ,  6-C ) :   1.0097 B(  0-C ,  7-N ) :   0.1252 B(  0-C , 15-C ) :   1.2120
B(  0-C , 17-H ) :   0.1209 B(  0-C , 18-H ) :   0.1628 B(  0-C , 26-H ) :   0.6702
B(  0-C , 27-H ) :   0.7833 B(  1-C ,  2-C ) :   1.2437 B(  1-C ,  4-H ) :   0.1407
B(  1-C , 19-C ) :   1.3239 B(  1-C , 24-H ) :   0.7995 B(  1-C , 25-H ) :   0.6941
B(  2-C ,  3-H ) :   0.7594 B(  2-C ,  4-H ) :   0.7897 B(  2-C ,  5-C ) :   1.2547
B(  2-C , 24-H ) :   0.1287 B(  3-H ,  5-C ) :   0.1359 B(  4-H ,  5-C ) :   0.2573
B(  5-C , 13-O ) :   1.4794 B(  5-C , 14-F ) :   0.5542 B(  6-C ,  7-N ) :   0.9690
B(  6-C ,  8-C ) :   1.8050 B(  6-C ,  9-H ) :   0.1556 B(  6-C , 10-H ) :   0.1903
B(  6-C , 26-H ) :   0.1798 B(  6-C , 27-H ) :   0.1317 B(  7-N ,  8-C ) :   0.3041
B(  7-N , 11-H ) :   0.8936 B(  7-N , 12-H ) :   1.0141 B(  8-C ,  9-H ) :   0.8411
B(  8-C , 10-H ) :   0.7381 B( 11-H , 12-H ) :  -0.1300 B( 11-H , 13-O ) :   0.1657
B( 15-C , 16-C ) :   1.2586 B( 15-C , 17-H ) :   0.8768 B( 15-C , 18-H ) :   0.7612
B( 15-C , 20-H ) :   0.1509 B( 15-C , 26-H ) :   0.1812 B( 15-C , 27-H ) :   0.1299
B( 16-C , 17-H ) :   0.1412 B( 16-C , 18-H ) :   0.1876 B( 16-C , 19-C ) :   1.1905
B( 16-C , 20-H ) :   0.8614 B( 16-C , 21-H ) :   0.9545 B( 16-C , 23-H ) :   0.2055
B( 19-C , 21-H ) :   0.1066 B( 19-C , 22-H ) :   0.8786 B( 19-C , 23-H ) :   0.8785
B( 19-C , 24-H ) :   0.1867 B( 19-C , 25-H ) :   0.1924 B( 22-H , 26-H ) :   0.1040

Dispersion correction           -0.027227985
FINAL SINGLE POINT ENERGY      -581.338880547857

DIPOLE MOMENT
-------------
                                X             Y             Z
Electronic contribution:     -3.43772       0.79964     -12.73521
Nuclear contribution   :      2.21030       0.63135      12.80988
                        -----------------------------------------
Total Dipole Moment    :     -1.22742       1.43099       0.07468
                        -----------------------------------------
Magnitude (a.u.)       :      1.88676
Magnitude (Debye)      :      4.79577

Rotational constants in cm-1:     0.039980     0.026547     0.019089
Rotational constants in MHz :  1198.568620   795.867393   572.288555

                             ****ORCA TERMINATED NORMALLY****
TOTAL RUN TIME: 0 days 0 hours 1 minutes 55 seconds 77 msec
