                         Program Version 5.0.0 -  RELEASE  -
|  1> !LC-BLYP RIJCOSX def2-SVPD def2/J TightSCF
|  2> *xyz -1 1
|  3> C         -1.36353       -1.98134       -2.29361
|  4> O         -0.35039       -2.74969       -1.79601
|  5> H         -2.22523       -2.59288       -2.46214
|  6> H         -1.05452       -1.53818       -3.21720
|  7> H         -1.60477       -1.21086       -1.59143
|  8> *
|  9>
| 10> %MaxCore 64000
| 11> %pal nprocs 4
| 12> end
| 13>
| 14> %scf
| 15>   MaxIter 150
| 16> end
| 17>
| 18>
| 19>                          ****END OF INPUT****

CARTESIAN COORDINATES (ANGSTROEM)
---------------------------------
  C     -1.363530   -1.981340   -2.293610
  O     -0.350390   -2.749690   -1.796010
  H     -2.225230   -2.592880   -2.462140
  H     -1.054520   -1.538180   -3.217200
  H     -1.604770   -1.210860   -1.591430

 Total Charge           Charge          ....   -1
 Multiplicity           Mult            ....    1
 Number of Electrons    NEL             ....   18
 Basis Dimension        Dim             ....   67

ORBITAL ENERGIES
----------------

  NO   OCC          E(Eh)            E(eV)
   0   2.0000     -18.602197      -506.1915
   1   2.0000      -9.872178      -268.6356
   2   2.0000      -0.747596       -20.3431
   3   2.0000      -0.496375       -13.5070
   4   2.0000      -0.302452        -8.2302
   5   2.0000      -0.302449        -8.2301
   6   2.0000      -0.199907        -5.4398
   7   2.0000      -0.046893        -1.2760
   8   2.0000      -0.046887        -1.2759
   9   0.0000       0.247740         6.7413
  10   0.0000       0.324197         8.8219
  11   0.0000       0.324200         8.8219
  12   0.0000       0.332979         9.0608
  13   0.0000       0.368158        10.0181

MULLIKEN ATOMIC CHARGES
-----------------------
   0 C :    0.920850
   1 O :   -0.963660
   2 H :   -0.319078
   3 H :   -0.319108
   4 H :   -0.319004
Sum of atomic charges:   -1.0000000

LOEWDIN ATOMIC CHARGES
----------------------
   0 C :   -0.141406
   1 O :   -0.642128
   2 H :   -0.072153
   3 H :   -0.072157
   4 H :   -0.072156

  Mayer bond orders larger than 0.100000
B(  0-C ,  1-O ) :   1.2796 B(  0-C ,  2-H ) :   0.8727 B(  0-C ,  3-H ) :   0.8726
B(  0-C ,  4-H ) :   0.8727

FINAL SINGLE POINT ENERGY      -114.757808320905

DIPOLE MOMENT
-------------
                                X             Y             Z
Electronic contribution:      1.30452      -0.98943       0.64071
Nuclear contribution   :     -2.13467       1.61890      -1.04844
                        -----------------------------------------
Total Dipole Moment    :     -0.83015       0.62947      -0.40773
                        -----------------------------------------
Magnitude (a.u.)       :      1.11876
Magnitude (Debye)      :      2.84367

Rotational constants in cm-1:     5.477725     0.944113     0.944112
Rotational constants in MHz : 164218.064700 28303.798445 28303.757130

                             ****ORCA TERMINATED NORMALLY****
TOTAL RUN TIME: 0 days 0 hours 0 minutes 3 seconds 640 msec
