                         Program Version 5.0.0 -  RELEASE  -
|  1> !LC-BLYP RIJCOSX def2-SVPD def2/J TightSCF
|  2> *xyz 1 1
|  3> C          2.20996       -2.81239       -3.66571
|  4> C          2.48901       -1.66851       -2.73754
|  5> N          3.59631       -0.94761       -2.95225
|  6> N          1.66394       -1.41369       -1.77781
|  7> H          0.81164       -1.96318       -1.70275
|  8> H          1.84550       -0.63508       -1.15875
|  9> H          4.20535       -1.17600       -3.73383
| 10> H          3.81723       -0.12585       -2.40604
| 11> H          2.99011       -2.87840       -4.39503
| 12> H          1.27381       -2.65174       -4.15838
| 13> H          2.16680       -3.72339       -3.10614
| 14> *
| 15>
| 16> %MaxCore 64000
| 17> %pal nprocs 4
| 18> end
| 19>
| 20> %scf
| 21>   MaxIter 150
| 22> end
| 23>
| 24>
| 25>                          ****END OF INPUT****

CARTESIAN COORDINATES (ANGSTROEM)
---------------------------------
  C      2.209960   -2.812390   -3.665710
  C      2.489010   -1.668510   -2.737540
  N      3.596310   -0.947610   -2.952250
  N      1.663940   -1.413690   -1.777810
  H      0.811640   -1.963180   -1.702750
  H      1.845500   -0.635080   -1.158750
  H      4.205350   -1.176000   -3.733830
  H      3.817230   -0.125850   -2.406040
  H      2.990110   -2.878400   -4.395030
  H      1.273810   -2.651740   -4.158380
  H      2.166800   -3.723390   -3.106140

 Total Charge           Charge          ....    1
 Multiplicity           Mult            ....    1
 Number of Electrons    NEL             ....   32
 Basis Dimension        Dim             ....  136

ORBITAL ENERGIES
----------------

  NO   OCC          E(Eh)            E(eV)
   0   2.0000     -14.444740      -393.0614
   1   2.0000     -14.438514      -392.8919
   2   2.0000     -10.421432      -283.5816
   3   2.0000     -10.284025      -279.8425
   4   2.0000      -1.306395       -35.5488
   5   2.0000      -1.209106       -32.9015
   6   2.0000      -1.059247       -28.8236
   7   2.0000      -0.947801       -25.7910
   8   2.0000      -0.890236       -24.2246
   9   2.0000      -0.875683       -23.8285
  10   2.0000      -0.812055       -22.0971
  11   2.0000      -0.775210       -21.0945
  12   2.0000      -0.718650       -19.5555
  13   2.0000      -0.703229       -19.1358
  14   2.0000      -0.679886       -18.5007
  15   2.0000      -0.600448       -16.3390
  16   0.0000      -0.135214        -3.6793
  17   0.0000      -0.105560        -2.8724
  18   0.0000      -0.059703        -1.6246
  19   0.0000      -0.057407        -1.5621
  20   0.0000      -0.032703        -0.8899

MULLIKEN ATOMIC CHARGES
-----------------------
   0 C :    0.819850
   1 C :    0.106507
   2 N :    0.149616
   3 N :    0.409319
   4 H :    0.005010
   5 H :   -0.175362
   6 H :    0.031025
   7 H :   -0.161421
   8 H :   -0.057582
   9 H :   -0.067110
  10 H :   -0.059854
Sum of atomic charges:    1.0000000

LOEWDIN ATOMIC CHARGES
----------------------
   0 C :    0.220772
   1 C :   -0.086571
   2 N :    0.289478
   3 N :    0.290695
   4 H :    0.069423
   5 H :    0.056270
   6 H :    0.050724
   7 H :    0.045499
   8 H :    0.009447
   9 H :    0.027008
  10 H :    0.027256

  Mayer bond orders larger than 0.100000
B(  0-C ,  1-C ) :   1.2853 B(  0-C ,  2-N ) :   0.1019 B(  0-C ,  8-H ) :   0.7199
B(  0-C ,  9-H ) :   0.7226 B(  0-C , 10-H ) :   0.7004 B(  1-C ,  2-N ) :   1.0950
B(  1-C ,  3-N ) :   1.3564 B(  1-C ,  5-H ) :  -0.1357 B(  1-C ,  7-H ) :  -0.2443
B(  1-C ,  8-H ) :   0.2999 B(  1-C ,  9-H ) :   0.1847 B(  1-C , 10-H ) :   0.2051
B(  2-N ,  3-N ) :   0.1458 B(  2-N ,  6-H ) :   1.0784 B(  2-N ,  7-H ) :   1.3423
B(  3-N ,  4-H ) :   1.1107 B(  3-N ,  5-H ) :   1.2150 B(  4-H ,  5-H ) :  -0.1561
B(  6-H ,  7-H ) :  -0.1889 B(  8-H , 10-H ) :   0.1038 B(  9-H , 10-H ) :   0.1053

FINAL SINGLE POINT ENERGY      -189.096953149134

DIPOLE MOMENT
-------------
                                X             Y             Z
Electronic contribution:      0.31562       1.62163       1.44627
Nuclear contribution   :     -0.32363      -1.20411      -1.15396
                        -----------------------------------------
Total Dipole Moment    :     -0.00801       0.41751       0.29231
                        -----------------------------------------
Magnitude (a.u.)       :      0.50973
Magnitude (Debye)      :      1.29563

Rotational constants in cm-1:     0.327805     0.304052     0.162439
Rotational constants in MHz :  9827.347355  9115.244333  4869.808750

                             ****ORCA TERMINATED NORMALLY****
TOTAL RUN TIME: 0 days 0 hours 0 minutes 11 seconds 127 msec
