                         Program Version 5.0.0 -  RELEASE  -
|  1> !LC-BLYP RIJCOSX def2-SVPD def2/J TightSCF xyzfile
|  2>
|  3> *xyzfile 0 1 B.xyz
|  4>
|  5> %MaxCore 64000
|  6>
|  7> %pal nprocs 4
|  8> end
|  9>
| 10> %scf
| 11>   MaxIter 150
| 12> end
| 13>
| 14>
| 15>                          ****END OF INPUT****

CARTESIAN COORDINATES (ANGSTROEM)
---------------------------------
  C      1.647032   -2.345276   -5.020411
  C      0.217628   -1.814022   -4.924389
  C      2.209964   -2.812388   -3.665708
  C     -0.811356   -2.908780   -4.607625
  C     -1.916579   -2.485081   -3.643665
  H     -2.554525   -1.712428   -4.091993
  C     -1.363531   -1.981337   -2.293608
  H     -2.553448   -3.355667   -3.458815
  O     -0.350395   -2.749689   -1.796006
  H      2.308385   -1.588704   -5.457128
  H      1.674286   -3.203478   -5.697392
  C      2.489007   -1.668510   -2.737538
  N      3.596314   -0.947608   -2.952247
  N      1.663936   -1.413685   -1.777806
  H      0.811642   -1.963178   -1.702755
  H      1.845503   -0.635078   -1.158749
  H      4.205351   -1.176003   -3.733825
  H      3.817230   -0.125845   -2.406041
  H     -1.244829   -3.280884   -5.541040
  H     -0.306331   -3.757746   -4.142734
  H     -0.036244   -1.318555   -5.865303
  H      0.175004   -1.035382   -4.158095
  H      3.143106   -3.362803   -3.811524
  H      1.487683   -3.458935   -3.165211
  H     -2.226220   -1.908386   -1.602039
  H     -1.051353   -0.915671   -2.443331

 Total Charge           Charge          ....    0
 Multiplicity           Mult            ....    1
 Number of Electrons    NEL             ....   80
 Basis Dimension        Dim             ....  331

ORBITAL ENERGIES
----------------

  NO   OCC          E(Eh)            E(eV)
   0   2.0000     -18.812337      -511.9097
   1   2.0000     -14.267264      -388.2320
   2   2.0000     -14.220705      -386.9651
   3   2.0000     -10.228118      -278.3212
   4   2.0000     -10.109860      -275.1033
   5   2.0000     -10.098331      -274.7896
   6   2.0000     -10.068640      -273.9816
   7   2.0000     -10.060733      -273.7665
   8   2.0000     -10.048848      -273.4431
   9   2.0000     -10.032246      -272.9913
  10   2.0000      -1.118101       -30.4251
  11   2.0000      -1.023191       -27.8425
  12   2.0000      -0.965002       -26.2590
  13   2.0000      -0.921446       -25.0738
  14   2.0000      -0.858777       -23.3685
  15   2.0000      -0.808421       -21.9983
  16   2.0000      -0.754988       -20.5443
  17   2.0000      -0.736940       -20.0532
  18   2.0000      -0.704469       -19.1696
  19   2.0000      -0.695280       -18.9195
  20   2.0000      -0.666323       -18.1316
  21   2.0000      -0.627686       -17.0802
  22   2.0000      -0.604001       -16.4357
  23   2.0000      -0.596468       -16.2307
  24   2.0000      -0.570700       -15.5295
  25   2.0000      -0.547359       -14.8944
  26   2.0000      -0.537213       -14.6183
  27   2.0000      -0.507200       -13.8016
  28   2.0000      -0.493449       -13.4274
  29   2.0000      -0.489290       -13.3143
  30   2.0000      -0.456334       -12.4175
  31   2.0000      -0.450487       -12.2584
  32   2.0000      -0.437837       -11.9141
  33   2.0000      -0.418192       -11.3796
  34   2.0000      -0.410589       -11.1727
  35   2.0000      -0.397253       -10.8098
  36   2.0000      -0.388725       -10.5778
  37   2.0000      -0.380784       -10.3617
  38   2.0000      -0.265229        -7.2172
  39   2.0000      -0.258959        -7.0466
  40   0.0000       0.036750         1.0000
  41   0.0000       0.042636         1.1602
  42   0.0000       0.073184         1.9914
  43   0.0000       0.092694         2.5223
  44   0.0000       0.097541         2.6542

MULLIKEN ATOMIC CHARGES
-----------------------
   0 C :    0.441902
   1 C :    0.406537
   2 C :    0.378098
   3 C :    0.231591
   4 C :    0.443144
   5 H :   -0.250133
   6 C :    0.537849
   7 H :   -0.028934
   8 O :   -0.595364
   9 H :   -0.170421
  10 H :   -0.174836
  11 C :    0.328498
  12 N :    0.253906
  13 N :    0.754435
  14 H :   -0.591058
  15 H :   -0.144904
  16 H :   -0.074022
  17 H :   -0.190629
  18 H :   -0.322025
  19 H :   -0.053980
  20 H :   -0.272621
  21 H :   -0.213280
  22 H :   -0.201240
  23 H :   -0.106252
  24 H :   -0.478908
  25 H :    0.092648
Sum of atomic charges:    0.0000000

LOEWDIN ATOMIC CHARGES
----------------------
   0 C :   -0.026088
   1 C :   -0.025630
   2 C :    0.041564
   3 C :   -0.040829
   4 C :   -0.042879
   5 H :    0.020900
   6 C :   -0.111156
   7 H :    0.024062
   8 O :   -0.385286
   9 H :    0.016290
  10 H :    0.033866
  11 C :   -0.067888
  12 N :    0.249351
  13 N :    0.322249
  14 H :   -0.204923
  15 H :    0.041105
  16 H :    0.025625
  17 H :    0.019356
  18 H :    0.021014
  19 H :    0.006792
  20 H :    0.025168
  21 H :    0.000759
  22 H :    0.035649
  23 H :    0.012843
  24 H :    0.010007
  25 H :   -0.001923

  Mayer bond orders larger than 0.100000
B(  0-C ,  1-C ) :   1.2168 B(  0-C ,  2-C ) :   1.1366 B(  0-C ,  3-C ) :   0.1054
B(  0-C ,  9-H ) :   0.6520 B(  0-C , 10-H ) :   0.8069 B(  0-C , 21-H ) :   0.1934
B(  0-C , 22-H ) :   0.1124 B(  0-C , 23-H ) :   0.1279 B(  1-C ,  2-C ) :   0.1810
B(  1-C ,  3-C ) :   1.1330 B(  1-C ,  9-H ) :   0.2247 B(  1-C , 10-H ) :   0.1016
B(  1-C , 18-H ) :   0.2557 B(  1-C , 19-H ) :   0.1100 B(  1-C , 20-H ) :   0.7690
B(  1-C , 21-H ) :   0.7065 B(  2-C ,  9-H ) :   0.1557 B(  2-C , 10-H ) :   0.1487
B(  2-C , 11-C ) :   1.0890 B(  2-C , 12-N ) :   0.1306 B(  2-C , 21-H ) :  -0.1032
B(  2-C , 22-H ) :   0.7196 B(  2-C , 23-H ) :   0.7909 B(  3-C ,  4-C ) :   1.2410
B(  3-C ,  5-H ) :   0.1459 B(  3-C ,  7-H ) :   0.2652 B(  3-C , 18-H ) :   0.8054
B(  3-C , 19-H ) :   0.7508 B(  3-C , 20-H ) :   0.1415 B(  3-C , 21-H ) :   0.1917
B(  4-C ,  5-H ) :   0.8600 B(  4-C ,  6-C ) :   1.1062 B(  4-C ,  7-H ) :   0.6099
B(  4-C , 24-H ) :   0.1577 B(  4-C , 25-H ) :   0.1330 B(  5-H ,  6-C ) :   0.1095
B(  6-C ,  7-H ) :   0.1395 B(  6-C ,  8-O ) :   1.0793 B(  6-C , 24-H ) :   1.0052
B(  6-C , 25-H ) :   0.7661 B(  8-O , 14-H ) :   0.5696 B(  9-H , 10-H ) :  -0.1335
B(  9-H , 19-H ) :  -0.1006 B( 11-C , 12-N ) :   1.0925 B( 11-C , 13-N ) :   1.2944
B( 11-C , 15-H ) :  -0.2036 B( 11-C , 16-H ) :  -0.1501 B( 11-C , 17-H ) :  -0.1106
B( 11-C , 22-H ) :   0.1595 B( 11-C , 23-H ) :   0.2429 B( 12-N , 13-N ) :   0.1661
B( 12-N , 16-H ) :   1.2015 B( 12-N , 17-H ) :   1.2584 B( 13-N , 14-H ) :   0.9498
B( 13-N , 15-H ) :   1.2050 B( 14-H , 15-H ) :  -0.2096 B( 16-H , 17-H ) :  -0.1836
B( 19-H , 23-H ) :   0.1359 B( 20-H , 21-H ) :  -0.1256 B( 24-H , 25-H ) :  -0.1051

FINAL SINGLE POINT ENERGY      -459.576179068788

DIPOLE MOMENT
-------------
                                X             Y             Z
Electronic contribution:      5.58804       0.94888       4.27463
Nuclear contribution   :     -2.25948       0.71378      -5.15247
                        -----------------------------------------
Total Dipole Moment    :      3.32856       1.66266      -0.87784
                        -----------------------------------------
Magnitude (a.u.)       :      3.82287
Magnitude (Debye)      :      9.71696

Rotational constants in cm-1:     0.063973     0.031829     0.024059
Rotational constants in MHz :  1917.874550   954.201145   721.285252

                             ****ORCA TERMINATED NORMALLY****
TOTAL RUN TIME: 0 days 0 hours 1 minutes 49 seconds 856 msec
