                         Program Version 5.0.0 -  RELEASE  -
|  1> !LC-BLYP RIJCOSX def2-SVPD def2/J TightSCF
|  2> *xyz 0 1
|  3> C         -1.36353       -1.98134       -2.29361
|  4> F         -0.35039       -2.74969       -1.79601
|  5> H         -2.22523       -2.59288       -2.46214
|  6> H         -1.05452       -1.53818       -3.21720
|  7> H         -1.60477       -1.21086       -1.59143
|  8> *
|  9>
| 10> %MaxCore 64000
| 11> %pal nprocs 4
| 12> end
| 13>
| 14> %scf
| 15>   MaxIter 150
| 16> end
| 17>
| 18>
| 19>                          ****END OF INPUT****

CARTESIAN COORDINATES (ANGSTROEM)
---------------------------------
  C     -1.363530   -1.981340   -2.293610
  F     -0.350390   -2.749690   -1.796010
  H     -2.225230   -2.592880   -2.462140
  H     -1.054520   -1.538180   -3.217200
  H     -1.604770   -1.210860   -1.591430

 Total Charge           Charge          ....    0
 Multiplicity           Mult            ....    1
 Number of Electrons    NEL             ....   18
 Basis Dimension        Dim             ....   67

ORBITAL ENERGIES
----------------

  NO   OCC          E(Eh)            E(eV)
   0   2.0000     -24.460545      -665.6053
   1   2.0000     -10.156394      -276.3695
   2   2.0000      -1.265670       -34.4406
   3   2.0000      -0.809058       -22.0156
   4   2.0000      -0.603421       -16.4199
   5   2.0000      -0.598280       -16.2800
   6   2.0000      -0.598277       -16.2800
   7   2.0000      -0.450549       -12.2601
   8   2.0000      -0.450546       -12.2600
   9   0.0000       0.075323         2.0496
  10   0.0000       0.125077         3.4035
  11   0.0000       0.156966         4.2713
  12   0.0000       0.156968         4.2713
  13   0.0000       0.195831         5.3288

MULLIKEN ATOMIC CHARGES
-----------------------
   0 C :    1.025270
   1 F :   -0.428446
   2 H :   -0.198899
   3 H :   -0.199001
   4 H :   -0.198924
Sum of atomic charges:    0.0000000

LOEWDIN ATOMIC CHARGES
----------------------
   0 C :    0.235577
   1 F :   -0.232898
   2 H :   -0.000890
   3 H :   -0.000895
   4 H :   -0.000893

  Mayer bond orders larger than 0.100000
B(  0-C ,  1-F ) :   0.9352 B(  0-C ,  2-H ) :   0.9015 B(  0-C ,  3-H ) :   0.9014
B(  0-C ,  4-H ) :   0.9014

FINAL SINGLE POINT ENERGY      -139.368104865248

DIPOLE MOMENT
-------------
                                X             Y             Z
Electronic contribution:      2.15577      -1.63492       1.05878
Nuclear contribution   :     -2.70693       2.05289      -1.32950
                        -----------------------------------------
Total Dipole Moment    :     -0.55116       0.41797      -0.27073
                        -----------------------------------------
Magnitude (a.u.)       :      0.74281
Magnitude (Debye)      :      1.88808

Rotational constants in cm-1:     5.477725     0.878859     0.878857
Rotational constants in MHz : 164218.064700 26347.517988 26347.482187

                             ****ORCA TERMINATED NORMALLY****
TOTAL RUN TIME: 0 days 0 hours 0 minutes 3 seconds 192 msec
