                         Program Version 5.0.0 -  RELEASE  -
|  1> !LC-BLYP RIJCOSX def2-SVPD def2/J TightSCF
|  2> *xyz 0 1
|  3> C          2.20996       -2.81239       -3.66571
|  4> C          2.48901       -1.66851       -2.73754
|  5> C          3.59631       -0.94761       -2.95225
|  6> N          1.66394       -1.41369       -1.77781
|  7> H          0.81164       -1.96318       -1.70275
|  8> H          1.84550       -0.63508       -1.15875
|  9> H          4.20535       -1.17600       -3.73383
| 10> H          3.81723       -0.12585       -2.40604
| 11> H          2.99011       -2.87840       -4.39503
| 12> H          1.27381       -2.65174       -4.15838
| 13> H          2.16680       -3.72339       -3.10614
| 14> *
| 15>
| 16> %MaxCore 64000
| 17> %pal nprocs 4
| 18> end
| 19>
| 20> %scf
| 21>   MaxIter 150
| 22> end
| 23>
| 24>
| 25>                          ****END OF INPUT****

CARTESIAN COORDINATES (ANGSTROEM)
---------------------------------
  C      2.209960   -2.812390   -3.665710
  C      2.489010   -1.668510   -2.737540
  C      3.596310   -0.947610   -2.952250
  N      1.663940   -1.413690   -1.777810
  H      0.811640   -1.963180   -1.702750
  H      1.845500   -0.635080   -1.158750
  H      4.205350   -1.176000   -3.733830
  H      3.817230   -0.125850   -2.406040
  H      2.990110   -2.878400   -4.395030
  H      1.273810   -2.651740   -4.158380
  H      2.166800   -3.723390   -3.106140

 Total Charge           Charge          ....    0
 Multiplicity           Mult            ....    1
 Number of Electrons    NEL             ....   32
 Basis Dimension        Dim             ....  136

ORBITAL ENERGIES
----------------

  NO   OCC          E(Eh)            E(eV)
   0   2.0000     -14.193495      -386.2246
   1   2.0000     -10.110990      -275.1340
   2   2.0000     -10.075097      -274.1573
   3   2.0000     -10.017911      -272.6012
   4   2.0000      -1.033567       -28.1248
   5   2.0000      -0.857755       -23.3407
   6   2.0000      -0.788440       -21.4546
   7   2.0000      -0.680114       -18.5069
   8   2.0000      -0.638362       -17.3707
   9   2.0000      -0.577232       -15.7073
  10   2.0000      -0.541222       -14.7274
  11   2.0000      -0.498476       -13.5642
  12   2.0000      -0.491586       -13.3767
  13   2.0000      -0.448817       -12.2129
  14   2.0000      -0.444602       -12.0982
  15   2.0000      -0.283444        -7.7129
  16   0.0000       0.072059         1.9608
  17   0.0000       0.107438         2.9235
  18   0.0000       0.113552         3.0899
  19   0.0000       0.121663         3.3106
  20   0.0000       0.146687         3.9916

MULLIKEN ATOMIC CHARGES
-----------------------
   0 C :    1.095806
   1 C :   -0.689664
   2 C :    0.606264
   3 N :    0.554377
   4 H :   -0.193862
   5 H :   -0.209921
   6 H :   -0.240563
   7 H :   -0.612035
   8 H :   -0.040149
   9 H :   -0.140247
  10 H :   -0.130006
Sum of atomic charges:    0.0000000

LOEWDIN ATOMIC CHARGES
----------------------
   0 C :    0.151259
   1 C :   -0.311956
   2 C :    0.165952
   3 N :    0.174860
   4 H :    0.011501
   5 H :    0.013875
   6 H :   -0.086814
   7 H :   -0.090936
   8 H :   -0.011592
   9 H :   -0.007995
  10 H :   -0.008154

  Mayer bond orders larger than 0.100000
B(  0-C ,  1-C ) :   1.2613 B(  0-C ,  2-C ) :   0.1189 B(  0-C ,  8-H ) :   0.7365
B(  0-C ,  9-H ) :   0.5721 B(  0-C , 10-H ) :   0.5817 B(  1-C ,  2-C ) :   1.6560
B(  1-C ,  3-N ) :   1.3393 B(  1-C ,  7-H ) :   0.1413 B(  1-C ,  8-H ) :   0.2756
B(  1-C ,  9-H ) :   0.3232 B(  1-C , 10-H ) :   0.3190 B(  2-C ,  3-N ) :   0.2580
B(  2-C ,  6-H ) :   0.9407 B(  2-C ,  7-H ) :   0.6688 B(  3-N ,  4-H ) :   1.1305
B(  3-N ,  5-H ) :   1.1607 B(  4-H ,  5-H ) :  -0.1297 B(  8-H ,  9-H ) :   0.1036
B(  8-H , 10-H ) :   0.1051

FINAL SINGLE POINT ENERGY      -172.646823822179

DIPOLE MOMENT
-------------
                                X             Y             Z
Electronic contribution:     -0.65809       0.86144       1.52830
Nuclear contribution   :     -0.07639      -1.03653      -1.19368
                        -----------------------------------------
Total Dipole Moment    :     -0.73448      -0.17509       0.33462
                        -----------------------------------------
Magnitude (a.u.)       :      0.82589
Magnitude (Debye)      :      2.09924

Rotational constants in cm-1:     0.347569     0.308531     0.168494
Rotational constants in MHz : 10419.863808  9249.512495  5051.317883

                             ****ORCA TERMINATED NORMALLY****
TOTAL RUN TIME: 0 days 0 hours 0 minutes 12 seconds 191 msec
