                         Program Version 5.0.0 -  RELEASE  -
|  1> !LC-BLYP RIJCOSX def2-SVPD def2/J TightSCF
|  2> *xyz 0 1
|  3> C          2.20996       -2.81239       -3.66571
|  4> C          2.48901       -1.66851       -2.73754
|  5> N          3.59631       -0.94761       -2.95225
|  6> C          1.66394       -1.41369       -1.77781
|  7> H          0.81164       -1.96318       -1.70275
|  8> H          1.84550       -0.63508       -1.15875
|  9> H          4.20535       -1.17600       -3.73383
| 10> H          3.81723       -0.12585       -2.40604
| 11> H          2.99011       -2.87840       -4.39503
| 12> H          1.27381       -2.65174       -4.15838
| 13> H          2.16680       -3.72339       -3.10614
| 14> *
| 15>
| 16> %MaxCore 64000
| 17> %pal nprocs 4
| 18> end
| 19>
| 20> %scf
| 21>   MaxIter 150
| 22> end
| 23>
| 24>
| 25>                          ****END OF INPUT****

CARTESIAN COORDINATES (ANGSTROEM)
---------------------------------
  C      2.209960   -2.812390   -3.665710
  C      2.489010   -1.668510   -2.737540
  N      3.596310   -0.947610   -2.952250
  C      1.663940   -1.413690   -1.777810
  H      0.811640   -1.963180   -1.702750
  H      1.845500   -0.635080   -1.158750
  H      4.205350   -1.176000   -3.733830
  H      3.817230   -0.125850   -2.406040
  H      2.990110   -2.878400   -4.395030
  H      1.273810   -2.651740   -4.158380
  H      2.166800   -3.723390   -3.106140

 Total Charge           Charge          ....    0
 Multiplicity           Mult            ....    1
 Number of Electrons    NEL             ....   32
 Basis Dimension        Dim             ....  136

ORBITAL ENERGIES
----------------

  NO   OCC          E(Eh)            E(eV)
   0   2.0000     -14.188341      -386.0844
   1   2.0000     -10.107206      -275.0310
   2   2.0000     -10.074894      -274.1518
   3   2.0000     -10.015957      -272.5480
   4   2.0000      -1.016135       -27.6505
   5   2.0000      -0.861870       -23.4527
   6   2.0000      -0.794241       -21.6124
   7   2.0000      -0.672444       -18.2981
   8   2.0000      -0.625980       -17.0338
   9   2.0000      -0.579276       -15.7629
  10   2.0000      -0.537045       -14.6137
  11   2.0000      -0.499870       -13.6022
  12   2.0000      -0.494409       -13.4536
  13   2.0000      -0.452541       -12.3143
  14   2.0000      -0.437787       -11.9128
  15   2.0000      -0.289676        -7.8825
  16   0.0000       0.073267         1.9937
  17   0.0000       0.107457         2.9240
  18   0.0000       0.113080         3.0771
  19   0.0000       0.121266         3.2998
  20   0.0000       0.145955         3.9716

MULLIKEN ATOMIC CHARGES
-----------------------
   0 C :    1.020224
   1 C :   -0.366851
   2 N :    0.294740
   3 C :    0.484533
   4 H :   -0.294608
   5 H :   -0.453448
   6 H :   -0.127478
   7 H :   -0.208785
   8 H :   -0.218263
   9 H :   -0.064596
  10 H :   -0.065467
Sum of atomic charges:   -0.0000000

LOEWDIN ATOMIC CHARGES
----------------------
   0 C :    0.153097
   1 C :   -0.299613
   2 N :    0.177918
   3 C :    0.148731
   4 H :   -0.065791
   5 H :   -0.078114
   6 H :   -0.008244
   7 H :    0.001060
   8 H :   -0.025160
   9 H :   -0.002019
  10 H :   -0.001865

  Mayer bond orders larger than 0.100000
B(  0-C ,  1-C ) :   1.0831 B(  0-C ,  2-N ) :   0.1291 B(  0-C ,  3-C ) :   0.1304
B(  0-C ,  8-H ) :   0.6313 B(  0-C ,  9-H ) :   0.6845 B(  0-C , 10-H ) :   0.6762
B(  1-C ,  2-N ) :   1.1092 B(  1-C ,  3-C ) :   1.8046 B(  1-C ,  4-H ) :   0.1095
B(  1-C ,  5-H ) :   0.2889 B(  1-C ,  7-H ) :  -0.1455 B(  1-C ,  8-H ) :   0.3210
B(  1-C ,  9-H ) :   0.2032 B(  1-C , 10-H ) :   0.2161 B(  2-N ,  3-C ) :   0.2513
B(  2-N ,  6-H ) :   1.1110 B(  2-N ,  7-H ) :   1.2947 B(  3-C ,  4-H ) :   0.7760
B(  3-C ,  5-H ) :   0.6172 B(  6-H ,  7-H ) :  -0.1748

FINAL SINGLE POINT ENERGY      -172.647027625108

DIPOLE MOMENT
-------------
                                X             Y             Z
Electronic contribution:      1.03216       1.25018       0.48027
Nuclear contribution   :     -0.50975      -1.14105      -0.93029
                        -----------------------------------------
Total Dipole Moment    :      0.52240       0.10913      -0.45002
                        -----------------------------------------
Magnitude (a.u.)       :      0.69809
Magnitude (Debye)      :      1.77440

Rotational constants in cm-1:     0.350603     0.305690     0.168346
Rotational constants in MHz : 10510.799277  9164.357607  5046.873498

                             ****ORCA TERMINATED NORMALLY****
TOTAL RUN TIME: 0 days 0 hours 0 minutes 11 seconds 944 msec
