                         Program Version 5.0.0 -  RELEASE  -
|  1> !TPSS D3BJ RIJCOSX def2-TZVP def2/J TightSCF
|  2> *xyz -1 1
|  3> C         -7.33044       -2.67899       -3.20681
|  4> S         -6.01966       -2.92697       -4.41913
|  5> O         -5.64583       -1.58838       -4.91931
|  6> O         -4.88196       -3.50370       -3.66724
|  7> O         -6.54927       -3.80515       -5.42507
|  8> C         -7.46900       -1.24615       -2.71383
|  9> H         -7.11825       -3.37982       -2.39805
| 10> H         -8.24184       -3.00474       -3.70651
| 11> H         -7.67580       -0.60214       -3.54292
| 12> H         -6.55749       -0.94096       -2.24382
| 13> H         -8.27114       -1.18777       -2.00810
| 14> *
| 15> %MaxCore 64000
| 16>
| 17> %pal nprocs 4
| 18> end
| 19>
| 20> %scf
| 21>   MaxIter 150
| 22> end
| 23>
| 24>
| 25>                          ****END OF INPUT****

CARTESIAN COORDINATES (ANGSTROEM)
---------------------------------
  C     -7.330440   -2.678990   -3.206810
  S     -6.019660   -2.926970   -4.419130
  O     -5.645830   -1.588380   -4.919310
  O     -4.881960   -3.503700   -3.667240
  O     -6.549270   -3.805150   -5.425070
  C     -7.469000   -1.246150   -2.713830
  H     -7.118250   -3.379820   -2.398050
  H     -8.241840   -3.004740   -3.706510
  H     -7.675800   -0.602140   -3.542920
  H     -6.557490   -0.940960   -2.243820
  H     -8.271140   -1.187770   -2.008100

 Total Charge           Charge          ....   -1
 Multiplicity           Mult            ....    1
 Number of Electrons    NEL             ....   58
 Basis Dimension        Dim             ....  222

ORBITAL ENERGIES
----------------

  NO   OCC          E(Eh)            E(eV)
   0   2.0000     -88.317775     -2403.2488
   1   2.0000     -18.654663      -507.6192
   2   2.0000     -18.644538      -507.3437
   3   2.0000     -18.640306      -507.2285
   4   2.0000      -9.840367      -267.7700
   5   2.0000      -9.836967      -267.6775
   6   2.0000      -7.666319      -208.6112
   7   2.0000      -5.645801      -153.6301
   8   2.0000      -5.645021      -153.6088
   9   2.0000      -5.644835      -153.6038
  10   2.0000      -0.834650       -22.7120
  11   2.0000      -0.711185       -19.3523
  12   2.0000      -0.689782       -18.7699
  13   2.0000      -0.572422       -15.5764
  14   2.0000      -0.451376       -12.2826
  15   2.0000      -0.325849        -8.8668
  16   2.0000      -0.273593        -7.4448
  17   2.0000      -0.259658        -7.0656
  18   2.0000      -0.222411        -6.0521
  19   2.0000      -0.203832        -5.5465
  20   2.0000      -0.200968        -5.4686
  21   2.0000      -0.180796        -4.9197
  22   2.0000      -0.175586        -4.7779
  23   2.0000      -0.094264        -2.5651
  24   2.0000      -0.092113        -2.5065
  25   2.0000      -0.064075        -1.7436
  26   2.0000      -0.056675        -1.5422
  27   2.0000      -0.046121        -1.2550
  28   2.0000      -0.009925        -0.2701
  29   0.0000       0.164015         4.4631
  30   0.0000       0.209183         5.6922
  31   0.0000       0.218038         5.9331
  32   0.0000       0.226273         6.1572
  33   0.0000       0.248812         6.7705

MULLIKEN ATOMIC CHARGES
-----------------------
   0 C :   -0.230154
   1 S :    0.757168
   2 O :   -0.559310
   3 O :   -0.568389
   4 O :   -0.523483
   5 C :   -0.293436
   6 H :    0.081254
   7 H :    0.076656
   8 H :    0.105627
   9 H :    0.098621
  10 H :    0.055447
Sum of atomic charges:   -1.0000000

LOEWDIN ATOMIC CHARGES
----------------------
   0 C :   -0.428296
   1 S :    0.387809
   2 O :   -0.395940
   3 O :   -0.413562
   4 O :   -0.356247
   5 C :   -0.339931
   6 H :    0.115461
   7 H :    0.113203
   8 H :    0.111540
   9 H :    0.111875
  10 H :    0.094087

  Mayer bond orders larger than 0.100000
B(  0-C ,  1-S ) :   0.8679 B(  0-C ,  5-C ) :   1.0030 B(  0-C ,  6-H ) :   0.9514
B(  0-C ,  7-H ) :   0.9463 B(  1-S ,  2-O ) :   1.7509 B(  1-S ,  3-O ) :   1.7695
B(  1-S ,  4-O ) :   1.8237 B(  5-C ,  8-H ) :   0.9675 B(  5-C ,  9-H ) :   0.9706
B(  5-C , 10-H ) :   0.9467

Dispersion correction           -0.012074418
FINAL SINGLE POINT ENERGY      -703.368894105623

DIPOLE MOMENT
-------------
                                X             Y             Z
Electronic contribution:      4.80326      -3.55954      -5.20609
Nuclear contribution   :     -6.18165       4.01759       6.33106
                        -----------------------------------------
Total Dipole Moment    :     -1.37839       0.45805       1.12497
                        -----------------------------------------
Magnitude (a.u.)       :      1.83721
Magnitude (Debye)      :      4.66982

Rotational constants in cm-1:     0.161711     0.082788     0.081165
Rotational constants in MHz :  4847.971521  2481.906910  2433.276832

                             ****ORCA TERMINATED NORMALLY****
TOTAL RUN TIME: 0 days 0 hours 0 minutes 11 seconds 228 msec
