                         Program Version 5.0.0 -  RELEASE  -
|  1> !TPSS D3BJ RIJCOSX def2-TZVP def2/J TightSCF
|  2> *xyz 1 1
|  3> C         -2.16038       -1.36949       -3.46710
|  4> N         -3.03011       -1.91086       -4.54107
|  5> C         -2.04772        0.14658       -3.51177
|  6> H         -3.47744       -2.79151       -4.25710
|  7> H         -2.53801       -2.01786       -5.43808
|  8> H         -3.89159       -1.37604       -4.71437
|  9> H         -1.18444       -1.84400       -3.56639
| 10> H         -2.59819       -1.70838       -2.52848
| 11> H         -1.61525        0.44478       -4.44395
| 12> H         -1.42718        0.48198       -2.70720
| 13> H         -3.02145        0.57958       -3.41560
| 14> *
| 15> %MaxCore 64000
| 16>
| 17> %pal nprocs 4
| 18> end
| 19>
| 20> %scf
| 21>   MaxIter 150
| 22> end
| 23>
| 24>
| 25>                          ****END OF INPUT****

CARTESIAN COORDINATES (ANGSTROEM)
---------------------------------
  C     -2.160380   -1.369490   -3.467100
  N     -3.030110   -1.910860   -4.541070
  C     -2.047720    0.146580   -3.511770
  H     -3.477440   -2.791510   -4.257100
  H     -2.538010   -2.017860   -5.438080
  H     -3.891590   -1.376040   -4.714370
  H     -1.184440   -1.844000   -3.566390
  H     -2.598190   -1.708380   -2.528480
  H     -1.615250    0.444780   -4.443950
  H     -1.427180    0.481980   -2.707200
  H     -3.021450    0.579580   -3.415600

 Total Charge           Charge          ....    1
 Multiplicity           Mult            ....    1
 Number of Electrons    NEL             ....   26
 Basis Dimension        Dim             ....  141

ORBITAL ENERGIES
----------------

  NO   OCC          E(Eh)            E(eV)
   0   2.0000     -14.435728      -392.8161
   1   2.0000     -10.239196      -278.6227
   2   2.0000     -10.160050      -276.4690
   3   2.0000      -1.157154       -31.4878
   4   2.0000      -0.913755       -24.8645
   5   2.0000      -0.798601       -21.7310
   6   2.0000      -0.764763       -20.8103
   7   2.0000      -0.725580       -19.7440
   8   2.0000      -0.659422       -17.9438
   9   2.0000      -0.603925       -16.4336
  10   2.0000      -0.544695       -14.8219
  11   2.0000      -0.531049       -14.4506
  12   2.0000      -0.515678       -14.0323
  13   0.0000      -0.210161        -5.7188
  14   0.0000      -0.151667        -4.1271
  15   0.0000      -0.149822        -4.0769
  16   0.0000      -0.125625        -3.4184
  17   0.0000      -0.086597        -2.3564

MULLIKEN ATOMIC CHARGES
-----------------------
   0 C :   -0.179457
   1 N :   -0.295011
   2 C :   -0.343004
   3 H :    0.326769
   4 H :    0.331830
   5 H :    0.316553
   6 H :    0.188409
   7 H :    0.178550
   8 H :    0.148329
   9 H :    0.179584
  10 H :    0.147447
Sum of atomic charges:    1.0000000

LOEWDIN ATOMIC CHARGES
----------------------
   0 C :   -0.271882
   1 N :    0.171666
   2 C :   -0.267476
   3 H :    0.222038
   4 H :    0.222050
   5 H :    0.218282
   6 H :    0.152178
   7 H :    0.150048
   8 H :    0.129034
   9 H :    0.146096
  10 H :    0.127966

  Mayer bond orders larger than 0.100000
B(  0-C ,  1-N ) :   0.8770 B(  0-C ,  2-C ) :   1.0450 B(  0-C ,  6-H ) :   0.9433
B(  0-C ,  7-H ) :   0.9425 B(  1-N ,  3-H ) :   0.8785 B(  1-N ,  4-H ) :   0.8719
B(  1-N ,  5-H ) :   0.8757 B(  2-C ,  8-H ) :   0.9557 B(  2-C ,  9-H ) :   0.9496
B(  2-C , 10-H ) :   0.9550

Dispersion correction           -0.007409671
FINAL SINGLE POINT ENERGY      -135.610706415685

DIPOLE MOMENT
-------------
                                X             Y             Z
Electronic contribution:     -0.64229      -1.48099      -0.76986
Nuclear contribution   :     -0.15215       0.37393      -0.04773
                        -----------------------------------------
Total Dipole Moment    :     -0.79443      -1.10706      -0.81759
                        -----------------------------------------
Magnitude (a.u.)       :      1.58907
Magnitude (Debye)      :      4.03911

Rotational constants in cm-1:     1.020762     0.277172     0.247319
Rotational constants in MHz : 30601.664035  8309.399682  7414.438136

                             ****ORCA TERMINATED NORMALLY****
TOTAL RUN TIME: 0 days 0 hours 0 minutes 6 seconds 742 msec
