                         Program Version 5.0.0 -  RELEASE  -
|  1> !TPSS D3BJ RIJCOSX def2-TZVP def2/J TightSCF xyzfile
|  2>
|  3> *xyzfile 0 1 B.xyz
|  4>
|  5> %MaxCore 64000
|  6>
|  7> %pal nprocs 18
|  8> end
|  9>
| 10> %scf
| 11>   MaxIter 150
| 12> end
| 13>
| 14>
| 15>                          ****END OF INPUT****

CARTESIAN COORDINATES (ANGSTROEM)
---------------------------------
  C     -2.160376   -1.369486   -3.467104
  N     -3.030108   -1.910857   -4.541074
  C     -2.047717    0.146583   -3.511774
  C     -7.330440   -2.678991   -3.206811
  S     -6.019659   -2.926965   -4.419128
  H     -3.477443   -2.791513   -4.257096
  H     -2.538013   -2.017860   -5.438075
  H     -3.891589   -1.376039   -4.714365
  O     -5.645830   -1.588384   -4.919307
  O     -4.881961   -3.503697   -3.667235
  H     -1.184438   -1.843997   -3.566393
  H     -2.598195   -1.708376   -2.528477
  O     -6.549267   -3.805150   -5.425071
  C     -3.328755    0.875037   -3.103669
  H     -1.740034    0.452343   -4.517126
  H     -1.232611    0.434938   -2.842208
  C     -3.628487    0.771601   -1.609363
  H     -4.175106    0.490791   -3.682203
  H     -3.237812    1.928663   -3.381480
  C     -4.975718    1.361432   -1.190644
  H     -2.830700    1.276234   -1.054766
  H     -3.594312   -0.275838   -1.294603
  C     -6.184720    0.784347   -1.926464
  H     -4.956292    2.445725   -1.342200
  H     -5.097256    1.205252   -0.114136
  C     -6.286921   -0.735882   -1.893531
  H     -6.163994    1.100199   -2.974250
  H     -7.094530    1.223459   -1.504509
  C     -7.468999   -1.246153   -2.713833
  H     -6.360641   -1.090347   -0.859176
  H     -5.369848   -1.171853   -2.295982
  H     -7.601914   -0.601349   -3.585329
  H     -8.389791   -1.173436   -2.126922
  H     -7.118254   -3.379818   -2.398055
  H     -8.241838   -3.004745   -3.706513

 Total Charge           Charge          ....    0
 Multiplicity           Mult            ....    1
 Number of Electrons    NEL             ....  122
 Basis Dimension        Dim             ....  566

ORBITAL ENERGIES
----------------

  NO   OCC          E(Eh)            E(eV)
   0   2.0000     -88.491522     -2407.9767
   1   2.0000     -18.832440      -512.4567
   2   2.0000     -18.831932      -512.4429
   3   2.0000     -18.816837      -512.0322
   4   2.0000     -14.202309      -386.4645
   5   2.0000     -10.067488      -273.9503
   6   2.0000     -10.021187      -272.6904
   7   2.0000     -10.001218      -272.1470
   8   2.0000      -9.992871      -271.9198
   9   2.0000      -9.984798      -271.7002
  10   2.0000      -9.982520      -271.6382
  11   2.0000      -9.976907      -271.4855
  12   2.0000      -9.975097      -271.4362
  13   2.0000      -9.972718      -271.3715
  14   2.0000      -7.841085      -213.3668
  15   2.0000      -5.820896      -158.3946
  16   2.0000      -5.819764      -158.3638
  17   2.0000      -5.819005      -158.3432
  18   2.0000      -1.015753       -27.6401
  19   2.0000      -0.943140       -25.6642
  20   2.0000      -0.884906       -24.0795
  21   2.0000      -0.883199       -24.0331
  22   2.0000      -0.778586       -21.1864
  23   2.0000      -0.749422       -20.3928
  24   2.0000      -0.724188       -19.7061
  25   2.0000      -0.683776       -18.6065
  26   2.0000      -0.652253       -17.7487
  27   2.0000      -0.610948       -16.6247
  28   2.0000      -0.575598       -15.6628
  29   2.0000      -0.560141       -15.2422
  30   2.0000      -0.546953       -14.8834
  31   2.0000      -0.523373       -14.2417
  32   2.0000      -0.515191       -14.0191
  33   2.0000      -0.486894       -13.2490
  34   2.0000      -0.471627       -12.8336
  35   2.0000      -0.446519       -12.1504
  36   2.0000      -0.443945       -12.0804
  37   2.0000      -0.427481       -11.6323
  38   2.0000      -0.413939       -11.2638
  39   2.0000      -0.400535       -10.8991
  40   2.0000      -0.397663       -10.8210
  41   2.0000      -0.388662       -10.5760
  42   2.0000      -0.387903       -10.5554
  43   2.0000      -0.373759       -10.1705
  44   2.0000      -0.362983        -9.8773
  45   2.0000      -0.359842        -9.7918
  46   2.0000      -0.347797        -9.4640
  47   2.0000      -0.338534        -9.2120
  48   2.0000      -0.331706        -9.0262
  49   2.0000      -0.317673        -8.6443
  50   2.0000      -0.310037        -8.4365
  51   2.0000      -0.300088        -8.1658
  52   2.0000      -0.286743        -7.8027
  53   2.0000      -0.284779        -7.7492
  54   2.0000      -0.279906        -7.6166
  55   2.0000      -0.272331        -7.4105
  56   2.0000      -0.268797        -7.3143
  57   2.0000      -0.236756        -6.4425
  58   2.0000      -0.233222        -6.3463
  59   2.0000      -0.222885        -6.0650
  60   2.0000      -0.195612        -5.3229
  61   0.0000      -0.020683        -0.5628
  62   0.0000       0.016587         0.4513
  63   0.0000       0.025428         0.6919
  64   0.0000       0.028492         0.7753
  65   0.0000       0.041956         1.1417

MULLIKEN ATOMIC CHARGES
-----------------------
   0 C :   -0.168275
   1 N :   -0.267482
   2 C :   -0.110757
   3 C :   -0.218692
   4 S :    0.793329
   5 H :    0.294837
   6 H :    0.262029
   7 H :    0.280629
   8 O :   -0.573331
   9 O :   -0.570957
  10 H :    0.137428
  11 H :    0.150195
  12 O :   -0.461421
  13 C :   -0.268618
  14 H :    0.100066
  15 H :    0.098366
  16 C :   -0.236031
  17 H :    0.148717
  18 H :    0.098267
  19 C :   -0.074969
  20 H :    0.090888
  21 H :    0.103541
  22 C :   -0.198677
  23 H :    0.079765
  24 H :    0.082809
  25 C :   -0.269174
  26 H :    0.109480
  27 H :    0.085908
  28 C :   -0.092890
  29 H :    0.075351
  30 H :    0.097687
  31 H :    0.097262
  32 H :    0.085885
  33 H :    0.106959
  34 H :    0.131877
Sum of atomic charges:   -0.0000000

LOEWDIN ATOMIC CHARGES
----------------------
   0 C :   -0.267168
   1 N :    0.141653
   2 C :   -0.264885
   3 C :   -0.372389
   4 S :    0.426642
   5 H :    0.166661
   6 H :    0.191573
   7 H :    0.173808
   8 O :   -0.363727
   9 O :   -0.369977
  10 H :    0.134359
  11 H :    0.141723
  12 O :   -0.295001
  13 C :   -0.261346
  14 H :    0.136308
  15 H :    0.145258
  16 C :   -0.266422
  17 H :    0.139375
  18 H :    0.138814
  19 C :   -0.261005
  20 H :    0.133405
  21 H :    0.131802
  22 C :   -0.266879
  23 H :    0.133481
  24 H :    0.134790
  25 C :   -0.266849
  26 H :    0.136101
  27 H :    0.134299
  28 C :   -0.284114
  29 H :    0.130268
  30 H :    0.129185
  31 H :    0.141146
  32 H :    0.133192
  33 H :    0.132062
  34 H :    0.133858

  Mayer bond orders larger than 0.100000
B(  0-C ,  1-N ) :   0.9344 B(  0-C ,  2-C ) :   1.0169 B(  0-C , 10-H ) :   0.9502
B(  0-C , 11-H ) :   0.9527 B(  1-N ,  5-H ) :   0.7827 B(  1-N ,  6-H ) :   0.8963
B(  1-N ,  7-H ) :   0.8178 B(  2-C , 13-C ) :   1.0137 B(  2-C , 14-H ) :   0.9455
B(  2-C , 15-H ) :   0.9365 B(  3-C ,  4-S ) :   0.8935 B(  3-C , 28-C ) :   1.0136
B(  3-C , 33-H ) :   0.9400 B(  3-C , 34-H ) :   0.9391 B(  4-S ,  8-O ) :   1.5757
B(  4-S ,  9-O ) :   1.5506 B(  4-S , 12-O ) :   1.9371 B(  5-H ,  9-O ) :   0.1713
B(  7-H ,  8-O ) :   0.1304 B( 13-C , 16-C ) :   1.0068 B( 13-C , 17-H ) :   0.9646
B( 13-C , 18-H ) :   0.9377 B( 16-C , 19-C ) :   1.0170 B( 16-C , 20-H ) :   0.9336
B( 16-C , 21-H ) :   0.9656 B( 19-C , 22-C ) :   1.0157 B( 19-C , 23-H ) :   0.9465
B( 19-C , 24-H ) :   0.9451 B( 22-C , 25-C ) :   1.0132 B( 22-C , 26-H ) :   0.9630
B( 22-C , 27-H ) :   0.9407 B( 25-C , 28-C ) :   1.0261 B( 25-C , 29-H ) :   0.9404
B( 25-C , 30-H ) :   0.9646 B( 28-C , 31-H ) :   0.9411 B( 28-C , 32-H ) :   0.9294

Dispersion correction           -0.052216094
FINAL SINGLE POINT ENERGY     -1034.657840071792

DIPOLE MOMENT
-------------
                                X             Y             Z
Electronic contribution:     -5.97184     -15.27745     -11.51100
Nuclear contribution   :      8.59301      16.99497      12.41069
                        -----------------------------------------
Total Dipole Moment    :      2.62117       1.71753       0.89969
                        -----------------------------------------
Magnitude (a.u.)       :      3.26035
Magnitude (Debye)      :      8.28714

Rotational constants in cm-1:     0.025617     0.015295     0.010641
Rotational constants in MHz :   767.991150   458.522408   319.013093

                             ****ORCA TERMINATED NORMALLY****
TOTAL RUN TIME: 0 days 0 hours 0 minutes 24 seconds 385 msec
