                         Program Version 5.0.0 -  RELEASE  -
|  1> !TPSS D3BJ RIJCOSX def2-TZVP def2/J TightSCF
|  2> *xyz 0 1
|  3> C         -7.33044       -2.67899       -3.20681
|  4> S         -6.01966       -2.92697       -4.41913
|  5> F         -5.64583       -1.58838       -4.91931
|  6> O         -4.88196       -3.50370       -3.66724
|  7> O         -6.54927       -3.80515       -5.42507
|  8> C         -7.46900       -1.24615       -2.71383
|  9> H         -7.11825       -3.37982       -2.39805
| 10> H         -8.24184       -3.00474       -3.70651
| 11> H         -7.67580       -0.60214       -3.54292
| 12> H         -6.55749       -0.94096       -2.24382
| 13> H         -8.27114       -1.18777       -2.00810
| 14> *
| 15> %MaxCore 64000
| 16>
| 17> %pal nprocs 4
| 18> end
| 19>
| 20> %scf
| 21>   MaxIter 150
| 22> end
| 23>
| 24>
| 25>                          ****END OF INPUT****

CARTESIAN COORDINATES (ANGSTROEM)
---------------------------------
  C     -7.330440   -2.678990   -3.206810
  S     -6.019660   -2.926970   -4.419130
  F     -5.645830   -1.588380   -4.919310
  O     -4.881960   -3.503700   -3.667240
  O     -6.549270   -3.805150   -5.425070
  C     -7.469000   -1.246150   -2.713830
  H     -7.118250   -3.379820   -2.398050
  H     -8.241840   -3.004740   -3.706510
  H     -7.675800   -0.602140   -3.542920
  H     -6.557490   -0.940960   -2.243820
  H     -8.271140   -1.187770   -2.008100

 Total Charge           Charge          ....    0
 Multiplicity           Mult            ....    1
 Number of Electrons    NEL             ....   58
 Basis Dimension        Dim             ....  222

ORBITAL ENERGIES
----------------

  NO   OCC          E(Eh)            E(eV)
   0   2.0000     -88.579845     -2410.3801
   1   2.0000     -24.507650      -666.8871
   2   2.0000     -18.894629      -514.1490
   3   2.0000     -18.880490      -513.7642
   4   2.0000     -10.045119      -273.3416
   5   2.0000     -10.010975      -272.4125
   6   2.0000      -7.929347      -215.7685
   7   2.0000      -5.912718      -160.8932
   8   2.0000      -5.905744      -160.7035
   9   2.0000      -5.905551      -160.6982
  10   2.0000      -1.270788       -34.5799
  11   2.0000      -1.030771       -28.0487
  12   2.0000      -0.936991       -25.4968
  13   2.0000      -0.769377       -20.9358
  14   2.0000      -0.665264       -18.1028
  15   2.0000      -0.621070       -16.9002
  16   2.0000      -0.528665       -14.3857
  17   2.0000      -0.505027       -13.7425
  18   2.0000      -0.488991       -13.3061
  19   2.0000      -0.455427       -12.3928
  20   2.0000      -0.424839       -11.5605
  21   2.0000      -0.404168       -10.9980
  22   2.0000      -0.395018       -10.7490
  23   2.0000      -0.375317       -10.2129
  24   2.0000      -0.360537        -9.8107
  25   2.0000      -0.338780        -9.2187
  26   2.0000      -0.292494        -7.9592
  27   2.0000      -0.278221        -7.5708
  28   2.0000      -0.264319        -7.1925
  29   0.0000      -0.016574        -0.4510
  30   0.0000       0.025381         0.6907
  31   0.0000       0.038890         1.0582
  32   0.0000       0.042983         1.1696
  33   0.0000       0.059667         1.6236

MULLIKEN ATOMIC CHARGES
-----------------------
   0 C :   -0.226770
   1 S :    0.775216
   2 F :   -0.101610
   3 O :   -0.420523
   4 O :   -0.375437
   5 C :   -0.344302
   6 H :    0.156887
   7 H :    0.145870
   8 H :    0.126561
   9 H :    0.134588
  10 H :    0.129522
Sum of atomic charges:    0.0000000

LOEWDIN ATOMIC CHARGES
----------------------
   0 C :   -0.383090
   1 S :    0.511516
   2 F :    0.069298
   3 O :   -0.293668
   4 O :   -0.239341
   5 C :   -0.311629
   6 H :    0.145454
   7 H :    0.138435
   8 H :    0.117957
   9 H :    0.121592
  10 H :    0.123476

  Mayer bond orders larger than 0.100000
B(  0-C ,  1-S ) :   0.9048 B(  0-C ,  5-C ) :   1.0147 B(  0-C ,  6-H ) :   0.9315
B(  0-C ,  7-H ) :   0.9315 B(  1-S ,  2-F ) :   1.1178 B(  1-S ,  3-O ) :   1.9093
B(  1-S ,  4-O ) :   1.9608 B(  5-C ,  8-H ) :   0.9638 B(  5-C ,  9-H ) :   0.9643
B(  5-C , 10-H ) :   0.9521

Dispersion correction           -0.011468084
FINAL SINGLE POINT ENERGY      -727.908355735337

DIPOLE MOMENT
-------------
                                X             Y             Z
Electronic contribution:      5.71047      -1.76860      -6.42635
Nuclear contribution   :     -6.81251       2.87933       7.15058
                        -----------------------------------------
Total Dipole Moment    :     -1.10204       1.11073       0.72423
                        -----------------------------------------
Magnitude (a.u.)       :      1.72415
Magnitude (Debye)      :      4.38245

Rotational constants in cm-1:     0.152543     0.082494     0.078987
Rotational constants in MHz :  4573.135887  2473.116216  2367.980829

                             ****ORCA TERMINATED NORMALLY****
TOTAL RUN TIME: 0 days 0 hours 0 minutes 10 seconds 258 msec
