                         Program Version 5.0.0 -  RELEASE  -
|  1> !TPSS D3BJ RIJCOSX def2-TZVP def2/J TightSCF
|  2> *xyz 0 1
|  3> C         -2.16038       -1.36949       -3.46710
|  4> C         -3.03011       -1.91086       -4.54107
|  5> C         -2.04772        0.14658       -3.51177
|  6> H         -3.47744       -2.79151       -4.25710
|  7> H         -2.53801       -2.01786       -5.43808
|  8> H         -3.89159       -1.37604       -4.71437
|  9> H         -1.18444       -1.84400       -3.56639
| 10> H         -2.59819       -1.70838       -2.52848
| 11> H         -1.61525        0.44478       -4.44395
| 12> H         -1.42718        0.48198       -2.70720
| 13> H         -3.02145        0.57958       -3.41560
| 14> *
| 15> %MaxCore 64000
| 16>
| 17> %pal nprocs 4
| 18> end
| 19>
| 20> %scf
| 21>   MaxIter 150
| 22> end
| 23>
| 24>
| 25>                          ****END OF INPUT****

CARTESIAN COORDINATES (ANGSTROEM)
---------------------------------
  C     -2.160380   -1.369490   -3.467100
  C     -3.030110   -1.910860   -4.541070
  C     -2.047720    0.146580   -3.511770
  H     -3.477440   -2.791510   -4.257100
  H     -2.538010   -2.017860   -5.438080
  H     -3.891590   -1.376040   -4.714370
  H     -1.184440   -1.844000   -3.566390
  H     -2.598190   -1.708380   -2.528480
  H     -1.615250    0.444780   -4.443950
  H     -1.427180    0.481980   -2.707200
  H     -3.021450    0.579580   -3.415600

 Total Charge           Charge          ....    0
 Multiplicity           Mult            ....    1
 Number of Electrons    NEL             ....   26
 Basis Dimension        Dim             ....  141

ORBITAL ENERGIES
----------------

  NO   OCC          E(Eh)            E(eV)
   0   2.0000      -9.970857      -271.3208
   1   2.0000      -9.962589      -271.0958
   2   2.0000      -9.943838      -270.5856
   3   2.0000      -0.733138       -19.9497
   4   2.0000      -0.639683       -17.4067
   5   2.0000      -0.541397       -14.7321
   6   2.0000      -0.427324       -11.6281
   7   2.0000      -0.397767       -10.8238
   8   2.0000      -0.361948        -9.8491
   9   2.0000      -0.355385        -9.6705
  10   2.0000      -0.302934        -8.2432
  11   2.0000      -0.293081        -7.9751
  12   2.0000      -0.290319        -7.9000
  13   0.0000       0.031536         0.8581
  14   0.0000       0.073484         1.9996
  15   0.0000       0.078933         2.1479
  16   0.0000       0.081460         2.2166
  17   0.0000       0.105727         2.8770

MULLIKEN ATOMIC CHARGES
-----------------------
   0 C :   -0.131814
   1 C :   -0.347643
   2 C :   -0.320826
   3 H :    0.112498
   4 H :    0.108626
   5 H :    0.104094
   6 H :    0.082171
   7 H :    0.079687
   8 H :    0.101277
   9 H :    0.108502
  10 H :    0.103426
Sum of atomic charges:   -0.0000000

LOEWDIN ATOMIC CHARGES
----------------------
   0 C :   -0.315581
   1 C :   -0.304551
   2 C :   -0.298584
   3 H :    0.109022
   4 H :    0.105603
   5 H :    0.107386
   6 H :    0.129736
   7 H :    0.129765
   8 H :    0.113042
   9 H :    0.111634
  10 H :    0.112527

  Mayer bond orders larger than 0.100000
B(  0-C ,  1-C ) :   1.0205 B(  0-C ,  2-C ) :   1.0209 B(  0-C ,  6-H ) :   0.9596
B(  0-C ,  7-H ) :   0.9591 B(  1-C ,  3-H ) :   0.9739 B(  1-C ,  4-H ) :   0.9727
B(  1-C ,  5-H ) :   0.9738 B(  2-C ,  8-H ) :   0.9726 B(  2-C ,  9-H ) :   0.9709
B(  2-C , 10-H ) :   0.9727

Dispersion correction           -0.007434343
FINAL SINGLE POINT ENERGY      -119.194508638063

DIPOLE MOMENT
-------------
                                X             Y             Z
Electronic contribution:      0.31938      -0.12868       0.27539
Nuclear contribution   :     -0.34625       0.09603      -0.26933
                        -----------------------------------------
Total Dipole Moment    :     -0.02687      -0.03264       0.00606
                        -----------------------------------------
Magnitude (a.u.)       :      0.04271
Magnitude (Debye)      :      0.10856

Rotational constants in cm-1:     1.028617     0.291238     0.258956
Rotational constants in MHz : 30837.159054  8731.095379  7763.318586

                             ****ORCA TERMINATED NORMALLY****
TOTAL RUN TIME: 0 days 0 hours 0 minutes 6 seconds 752 msec
