                         Program Version 5.0.0 -  RELEASE  -
|  1> !TPSS D3BJ RIJCOSX def2-TZVP def2/J TightSCF
|  2> *xyz 0 1
|  3> C         -7.33044       -2.67899       -3.20681
|  4> S         -6.01966       -2.92697       -4.41913
|  5> O         -5.64583       -1.58838       -4.91931
|  6> F         -4.88196       -3.50370       -3.66724
|  7> O         -6.54927       -3.80515       -5.42507
|  8> C         -7.46900       -1.24615       -2.71383
|  9> H         -7.11825       -3.37982       -2.39805
| 10> H         -8.24184       -3.00474       -3.70651
| 11> H         -7.67580       -0.60214       -3.54292
| 12> H         -6.55749       -0.94096       -2.24382
| 13> H         -8.27114       -1.18777       -2.00810
| 14> *
| 15> %MaxCore 64000
| 16>
| 17> %pal nprocs 4
| 18> end
| 19>
| 20> %scf
| 21>   MaxIter 150
| 22> end
| 23>
| 24>
| 25>                          ****END OF INPUT****

CARTESIAN COORDINATES (ANGSTROEM)
---------------------------------
  C     -7.330440   -2.678990   -3.206810
  S     -6.019660   -2.926970   -4.419130
  O     -5.645830   -1.588380   -4.919310
  F     -4.881960   -3.503700   -3.667240
  O     -6.549270   -3.805150   -5.425070
  C     -7.469000   -1.246150   -2.713830
  H     -7.118250   -3.379820   -2.398050
  H     -8.241840   -3.004740   -3.706510
  H     -7.675800   -0.602140   -3.542920
  H     -6.557490   -0.940960   -2.243820
  H     -8.271140   -1.187770   -2.008100

 Total Charge           Charge          ....    0
 Multiplicity           Mult            ....    1
 Number of Electrons    NEL             ....   58
 Basis Dimension        Dim             ....  222

ORBITAL ENERGIES
----------------

  NO   OCC          E(Eh)            E(eV)
   0   2.0000     -88.579989     -2410.3840
   1   2.0000     -24.504834      -666.8104
   2   2.0000     -18.894756      -514.1524
   3   2.0000     -18.884041      -513.8609
   4   2.0000     -10.045346      -273.3478
   5   2.0000     -10.002678      -272.1867
   6   2.0000      -7.929500      -215.7727
   7   2.0000      -5.912802      -160.8955
   8   2.0000      -5.905974      -160.7097
   9   2.0000      -5.905699      -160.7022
  10   2.0000      -1.267215       -34.4827
  11   2.0000      -1.031936       -28.0804
  12   2.0000      -0.940505       -25.5925
  13   2.0000      -0.765175       -20.8215
  14   2.0000      -0.666258       -18.1298
  15   2.0000      -0.614191       -16.7130
  16   2.0000      -0.520831       -14.1725
  17   2.0000      -0.501034       -13.6338
  18   2.0000      -0.496367       -13.5068
  19   2.0000      -0.449961       -12.2441
  20   2.0000      -0.431926       -11.7533
  21   2.0000      -0.404648       -11.0110
  22   2.0000      -0.384461       -10.4617
  23   2.0000      -0.364760        -9.9256
  24   2.0000      -0.358480        -9.7547
  25   2.0000      -0.338970        -9.2238
  26   2.0000      -0.292320        -7.9544
  27   2.0000      -0.284109        -7.7310
  28   2.0000      -0.267305        -7.2737
  29   0.0000      -0.004775        -0.1299
  30   0.0000       0.009335         0.2540
  31   0.0000       0.034115         0.9283
  32   0.0000       0.051104         1.3906
  33   0.0000       0.059196         1.6108

MULLIKEN ATOMIC CHARGES
-----------------------
   0 C :   -0.242927
   1 S :    0.776578
   2 O :   -0.416135
   3 F :   -0.103629
   4 O :   -0.377049
   5 C :   -0.311637
   6 H :    0.128899
   7 H :    0.155323
   8 H :    0.145721
   9 H :    0.121786
  10 H :    0.123070
Sum of atomic charges:    0.0000000

LOEWDIN ATOMIC CHARGES
----------------------
   0 C :   -0.390172
   1 S :    0.512556
   2 O :   -0.280170
   3 F :    0.058546
   4 O :   -0.240108
   5 C :   -0.304109
   6 H :    0.132145
   7 H :    0.144195
   8 H :    0.125468
   9 H :    0.120618
  10 H :    0.121031

  Mayer bond orders larger than 0.100000
B(  0-C ,  1-S ) :   0.8963 B(  0-C ,  5-C ) :   1.0184 B(  0-C ,  6-H ) :   0.9358
B(  0-C ,  7-H ) :   0.9321 B(  1-S ,  2-O ) :   1.9002 B(  1-S ,  3-F ) :   1.1188
B(  1-S ,  4-O ) :   1.9607 B(  5-C ,  8-H ) :   0.9618 B(  5-C ,  9-H ) :   0.9648
B(  5-C , 10-H ) :   0.9459

Dispersion correction           -0.011524402
FINAL SINGLE POINT ENERGY      -727.911547754935

DIPOLE MOMENT
-------------
                                X             Y             Z
Electronic contribution:      7.02755      -4.97765      -4.35485
Nuclear contribution   :     -7.60849       4.87515       5.84588
                        -----------------------------------------
Total Dipole Moment    :     -0.58093      -0.10249       1.49103
                        -----------------------------------------
Magnitude (a.u.)       :      1.60349
Magnitude (Debye)      :      4.07574

Rotational constants in cm-1:     0.153704     0.080342     0.079431
Rotational constants in MHz :  4607.928650  2408.599360  2381.267225

                             ****ORCA TERMINATED NORMALLY****
TOTAL RUN TIME: 0 days 0 hours 0 minutes 11 seconds 346 msec
