                         Program Version 5.0.0 -  RELEASE  -
|  1> !TPSS D3BJ RIJCOSX def2-TZVP def2/J TightSCF
|  2> *xyz 0 1
|  3> C         -7.33044       -2.67899       -3.20681
|  4> S         -6.01966       -2.92697       -4.41913
|  5> O         -5.64583       -1.58838       -4.91931
|  6> O         -4.88196       -3.50370       -3.66724
|  7> F         -6.54927       -3.80515       -5.42507
|  8> C         -7.46900       -1.24615       -2.71383
|  9> H         -7.11825       -3.37982       -2.39805
| 10> H         -8.24184       -3.00474       -3.70651
| 11> H         -7.67580       -0.60214       -3.54292
| 12> H         -6.55749       -0.94096       -2.24382
| 13> H         -8.27114       -1.18777       -2.00810
| 14> *
| 15> %MaxCore 64000
| 16>
| 17> %pal nprocs 4
| 18> end
| 19>
| 20> %scf
| 21>   MaxIter 150
| 22> end
| 23>
| 24>
| 25>                          ****END OF INPUT****

CARTESIAN COORDINATES (ANGSTROEM)
---------------------------------
  C     -7.330440   -2.678990   -3.206810
  S     -6.019660   -2.926970   -4.419130
  O     -5.645830   -1.588380   -4.919310
  O     -4.881960   -3.503700   -3.667240
  F     -6.549270   -3.805150   -5.425070
  C     -7.469000   -1.246150   -2.713830
  H     -7.118250   -3.379820   -2.398050
  H     -8.241840   -3.004740   -3.706510
  H     -7.675800   -0.602140   -3.542920
  H     -6.557490   -0.940960   -2.243820
  H     -8.271140   -1.187770   -2.008100

 Total Charge           Charge          ....    0
 Multiplicity           Mult            ....    1
 Number of Electrons    NEL             ....   58
 Basis Dimension        Dim             ....  222

ORBITAL ENERGIES
----------------

  NO   OCC          E(Eh)            E(eV)
   0   2.0000     -88.582238     -2410.4452
   1   2.0000     -24.526455      -667.3988
   2   2.0000     -18.884135      -513.8634
   3   2.0000     -18.880983      -513.7777
   4   2.0000     -10.045939      -273.3639
   5   2.0000     -10.002995      -272.1953
   6   2.0000      -7.931625      -215.8305
   7   2.0000      -5.914906      -160.9528
   8   2.0000      -5.908110      -160.7679
   9   2.0000      -5.907725      -160.7574
  10   2.0000      -1.302930       -35.4545
  11   2.0000      -1.016124       -27.6501
  12   2.0000      -0.924133       -25.1469
  13   2.0000      -0.765274       -20.8242
  14   2.0000      -0.678571       -18.4649
  15   2.0000      -0.621809       -16.9203
  16   2.0000      -0.532786       -14.4978
  17   2.0000      -0.526571       -14.3287
  18   2.0000      -0.503082       -13.6895
  19   2.0000      -0.451882       -12.2963
  20   2.0000      -0.431220       -11.7341
  21   2.0000      -0.396965       -10.8020
  22   2.0000      -0.381451       -10.3798
  23   2.0000      -0.367048        -9.9879
  24   2.0000      -0.353256        -9.6126
  25   2.0000      -0.331623        -9.0239
  26   2.0000      -0.284055        -7.7295
  27   2.0000      -0.275738        -7.5032
  28   2.0000      -0.253677        -6.9029
  29   0.0000      -0.003532        -0.0961
  30   0.0000       0.006817         0.1855
  31   0.0000       0.028980         0.7886
  32   0.0000       0.048836         1.3289
  33   0.0000       0.058086         1.5806

MULLIKEN ATOMIC CHARGES
-----------------------
   0 C :   -0.234858
   1 S :    0.769702
   2 O :   -0.408167
   3 O :   -0.412221
   4 F :   -0.071553
   5 C :   -0.313765
   6 H :    0.152223
   7 H :    0.120393
   8 H :    0.135007
   9 H :    0.138704
  10 H :    0.124536
Sum of atomic charges:   -0.0000000

LOEWDIN ATOMIC CHARGES
----------------------
   0 C :   -0.392543
   1 S :    0.503520
   2 O :   -0.276930
   3 O :   -0.289477
   4 F :    0.112165
   5 C :   -0.298301
   6 H :    0.141015
   7 H :    0.129259
   8 H :    0.123445
   9 H :    0.125776
  10 H :    0.122070

  Mayer bond orders larger than 0.100000
B(  0-C ,  1-S ) :   0.9002 B(  0-C ,  5-C ) :   1.0246 B(  0-C ,  6-H ) :   0.9306
B(  0-C ,  7-H ) :   0.9303 B(  1-S ,  2-O ) :   1.9026 B(  1-S ,  3-O ) :   1.9119
B(  1-S ,  4-F ) :   1.1629 B(  5-C ,  8-H ) :   0.9607 B(  5-C ,  9-H ) :   0.9643
B(  5-C , 10-H ) :   0.9454

Dispersion correction           -0.011543629
FINAL SINGLE POINT ENERGY      -727.893708145798

DIPOLE MOMENT
-------------
                                X             Y             Z
Electronic contribution:      4.23404      -5.46523      -7.30218
Nuclear contribution   :     -5.87110       5.18927       7.67759
                        -----------------------------------------
Total Dipole Moment    :     -1.63706      -0.27595       0.37541
                        -----------------------------------------
Magnitude (a.u.)       :      1.70207
Magnitude (Debye)      :      4.32631

Rotational constants in cm-1:     0.155988     0.080452     0.078187
Rotational constants in MHz :  4676.405251  2411.902056  2343.983816

                             ****ORCA TERMINATED NORMALLY****
TOTAL RUN TIME: 0 days 0 hours 0 minutes 11 seconds 887 msec
