                         Program Version 5.0.0 -  RELEASE  -
|  1> !TPSS D3BJ RIJCOSX def2-TZVP def2/J TightSCF xyzfile
|  2>
|  3> *xyzfile 0 1 D2.xyz
|  4>
|  5> %MaxCore 64000
|  6>
|  7> %pal nprocs 18
|  8> end
|  9>
| 10> %scf
| 11>   MaxIter 150
| 12> end
| 13>
| 14>
| 15>                          ****END OF INPUT****

CARTESIAN COORDINATES (ANGSTROEM)
---------------------------------
  C     -2.160376   -1.369486   -3.467104
  C     -3.030108   -1.910857   -4.541074
  C     -2.047717    0.146583   -3.511774
  C     -7.330440   -2.678991   -3.206811
  S     -6.019659   -2.926965   -4.419128
  H     -3.477443   -2.791513   -4.257096
  H     -2.538013   -2.017860   -5.438075
  H     -3.891589   -1.376039   -4.714365
  O     -5.645830   -1.588384   -4.919307
  F     -4.881961   -3.503697   -3.667235
  H     -1.184438   -1.843997   -3.566393
  H     -2.598195   -1.708376   -2.528477
  O     -6.549267   -3.805150   -5.425071
  C     -3.328755    0.875037   -3.103669
  H     -1.740034    0.452343   -4.517126
  H     -1.232611    0.434938   -2.842208
  C     -3.628487    0.771601   -1.609363
  H     -4.175106    0.490791   -3.682203
  H     -3.237812    1.928663   -3.381480
  C     -4.975718    1.361432   -1.190644
  H     -2.830700    1.276234   -1.054766
  H     -3.594312   -0.275838   -1.294603
  C     -6.184720    0.784347   -1.926464
  H     -4.956292    2.445725   -1.342200
  H     -5.097256    1.205252   -0.114136
  C     -6.286921   -0.735882   -1.893531
  H     -6.163994    1.100199   -2.974250
  H     -7.094530    1.223459   -1.504509
  C     -7.468999   -1.246153   -2.713833
  H     -6.360641   -1.090347   -0.859176
  H     -5.369848   -1.171853   -2.295982
  H     -7.601914   -0.601349   -3.585329
  H     -8.389791   -1.173436   -2.126922
  H     -7.118254   -3.379818   -2.398055
  H     -8.241838   -3.004745   -3.706513

 Total Charge           Charge          ....    0
 Multiplicity           Mult            ....    1
 Number of Electrons    NEL             ....  122
 Basis Dimension        Dim             ....  566

ORBITAL ENERGIES
----------------

  NO   OCC          E(Eh)            E(eV)
   0   2.0000     -88.585441     -2410.5324
   1   2.0000     -24.510502      -666.9647
   2   2.0000     -18.900066      -514.2970
   3   2.0000     -18.889881      -514.0198
   4   2.0000     -10.045487      -273.3516
   5   2.0000     -10.010108      -272.3889
   6   2.0000      -9.993184      -271.9284
   7   2.0000      -9.983842      -271.6742
   8   2.0000      -9.979096      -271.5450
   9   2.0000      -9.973457      -271.3916
  10   2.0000      -9.968299      -271.2512
  11   2.0000      -9.965396      -271.1722
  12   2.0000      -9.958995      -270.9980
  13   2.0000      -9.913698      -269.7654
  14   2.0000      -7.935247      -215.9290
  15   2.0000      -5.918505      -161.0507
  16   2.0000      -5.911783      -160.8678
  17   2.0000      -5.911328      -160.8554
  18   2.0000      -1.277356       -34.7586
  19   2.0000      -1.038842       -28.2683
  20   2.0000      -0.949722       -25.8432
  21   2.0000      -0.781789       -21.2736
  22   2.0000      -0.754144       -20.5213
  23   2.0000      -0.728911       -19.8347
  24   2.0000      -0.703349       -19.1391
  25   2.0000      -0.664343       -18.0777
  26   2.0000      -0.650222       -17.6934
  27   2.0000      -0.614099       -16.7105
  28   2.0000      -0.583420       -15.8757
  29   2.0000      -0.568669       -15.4743
  30   2.0000      -0.529545       -14.4097
  31   2.0000      -0.520741       -14.1701
  32   2.0000      -0.516946       -14.0668
  33   2.0000      -0.504388       -13.7251
  34   2.0000      -0.498037       -13.5523
  35   2.0000      -0.455437       -12.3931
  36   2.0000      -0.442008       -12.0277
  37   2.0000      -0.429921       -11.6987
  38   2.0000      -0.426112       -11.5951
  39   2.0000      -0.416272       -11.3273
  40   2.0000      -0.401553       -10.9268
  41   2.0000      -0.390857       -10.6358
  42   2.0000      -0.389229       -10.5915
  43   2.0000      -0.384877       -10.4730
  44   2.0000      -0.365936        -9.9576
  45   2.0000      -0.354679        -9.6513
  46   2.0000      -0.347767        -9.4632
  47   2.0000      -0.342218        -9.3122
  48   2.0000      -0.335475        -9.1287
  49   2.0000      -0.324584        -8.8324
  50   2.0000      -0.318950        -8.6791
  51   2.0000      -0.308056        -8.3826
  52   2.0000      -0.300575        -8.1791
  53   2.0000      -0.294368        -8.0102
  54   2.0000      -0.292988        -7.9726
  55   2.0000      -0.283665        -7.7189
  56   2.0000      -0.281153        -7.6506
  57   2.0000      -0.275542        -7.4979
  58   2.0000      -0.266630        -7.2554
  59   2.0000      -0.265928        -7.2363
  60   2.0000      -0.249140        -6.7795
  61   0.0000      -0.009041        -0.2460
  62   0.0000       0.006310         0.1717
  63   0.0000       0.027489         0.7480
  64   0.0000       0.030351         0.8259
  65   0.0000       0.035778         0.9736

MULLIKEN ATOMIC CHARGES
-----------------------
   0 C :   -0.135217
   1 C :   -0.414336
   2 C :   -0.059877
   3 C :   -0.240292
   4 S :    0.803353
   5 H :    0.089762
   6 H :    0.101179
   7 H :    0.159749
   8 O :   -0.420343
   9 F :   -0.097907
  10 H :    0.077730
  11 H :    0.062269
  12 O :   -0.386397
  13 C :   -0.246482
  14 H :    0.075553
  15 H :    0.064565
  16 C :   -0.233701
  17 H :    0.129761
  18 H :    0.078079
  19 C :   -0.071460
  20 H :    0.085690
  21 H :    0.097431
  22 C :   -0.207375
  23 H :    0.078799
  24 H :    0.077753
  25 C :   -0.276351
  26 H :    0.114950
  27 H :    0.084978
  28 C :   -0.099668
  29 H :    0.086485
  30 H :    0.106994
  31 H :    0.117201
  32 H :    0.104692
  33 H :    0.127187
  34 H :    0.165245
Sum of atomic charges:    0.0000000

LOEWDIN ATOMIC CHARGES
----------------------
   0 C :   -0.297710
   1 C :   -0.330092
   2 C :   -0.259990
   3 C :   -0.360883
   4 S :    0.528740
   5 H :    0.090643
   6 H :    0.102703
   7 H :    0.102170
   8 O :   -0.249908
   9 F :    0.078151
  10 H :    0.130125
  11 H :    0.125699
  12 O :   -0.233358
  13 C :   -0.260969
  14 H :    0.133649
  15 H :    0.130506
  16 C :   -0.266273
  17 H :    0.136631
  18 H :    0.131956
  19 C :   -0.262210
  20 H :    0.133218
  21 H :    0.129290
  22 C :   -0.264912
  23 H :    0.134246
  24 H :    0.132102
  25 C :   -0.265768
  26 H :    0.138151
  27 H :    0.133532
  28 C :   -0.276074
  29 H :    0.132543
  30 H :    0.133158
  31 H :    0.146747
  32 H :    0.141524
  33 H :    0.135708
  34 H :    0.146956

  Mayer bond orders larger than 0.100000
B(  0-C ,  1-C ) :   0.9944 B(  0-C ,  2-C ) :   1.0202 B(  0-C , 10-H ) :   0.9455
B(  0-C , 11-H ) :   0.9665 B(  1-C ,  5-H ) :   0.9752 B(  1-C ,  6-H ) :   0.9507
B(  1-C ,  7-H ) :   0.9844 B(  2-C , 13-C ) :   1.0279 B(  2-C , 14-H ) :   0.9404
B(  2-C , 15-H ) :   0.9416 B(  3-C ,  4-S ) :   0.9038 B(  3-C , 28-C ) :   0.9956
B(  3-C , 33-H ) :   0.9353 B(  3-C , 34-H ) :   0.9321 B(  4-S ,  8-O ) :   1.8197
B(  4-S ,  9-F ) :   1.0867 B(  4-S , 12-O ) :   1.9799 B( 13-C , 16-C ) :   1.0265
B( 13-C , 17-H ) :   0.9605 B( 13-C , 18-H ) :   0.9373 B( 16-C , 19-C ) :   1.0102
B( 16-C , 20-H ) :   0.9383 B( 16-C , 21-H ) :   0.9647 B( 19-C , 22-C ) :   1.0208
B( 19-C , 23-H ) :   0.9435 B( 19-C , 24-H ) :   0.9477 B( 22-C , 25-C ) :   1.0237
B( 22-C , 26-H ) :   0.9596 B( 22-C , 27-H ) :   0.9404 B( 25-C , 28-C ) :   1.0117
B( 25-C , 29-H ) :   0.9395 B( 25-C , 30-H ) :   0.9695 B( 28-C , 31-H ) :   0.9419
B( 28-C , 32-H ) :   0.9238

Dispersion correction           -0.051358205
FINAL SINGLE POINT ENERGY     -1042.556814367498

DIPOLE MOMENT
-------------
                                X             Y             Z
Electronic contribution:     -9.49568     -19.51748     -11.17879
Nuclear contribution   :      8.71934      19.48829      12.54264
                        -----------------------------------------
Total Dipole Moment    :     -0.77635      -0.02920       1.36385
                        -----------------------------------------
Magnitude (a.u.)       :      1.56960
Magnitude (Debye)      :      3.98961

Rotational constants in cm-1:     0.025810     0.015137     0.010647
Rotational constants in MHz :   773.773140   453.802427   319.195213

                             ****ORCA TERMINATED NORMALLY****
TOTAL RUN TIME: 0 days 0 hours 0 minutes 30 seconds 7 msec
