                         Program Version 5.0.0 -  RELEASE  -
|  1> !PBE0 D3BJ RIJCOSX def2-SVPD def2/J TightSCF
|  2> *xyz -1 1
|  3> C         -0.47749        0.60819       -4.10105
|  4> C          0.18467       -0.50664       -4.91676
|  5> O         -0.15869       -1.70109       -4.65798
|  6> O          1.05594       -0.17441       -5.74037
|  7> H         -0.09903        1.55672       -4.42038
|  8> H         -0.25931        0.46828       -3.06292
|  9> H         -1.53664        0.57826       -4.25010
| 10> *
| 11>
| 12> %MaxCore 64000
| 13>
| 14> %pal nprocs 4
| 15> end
| 16>
| 17> %scf
| 18>   MaxIter 150
| 19> end
| 20>
| 21>
| 22>                          ****END OF INPUT****

CARTESIAN COORDINATES (ANGSTROEM)
---------------------------------
  C     -0.477490    0.608190   -4.101050
  C      0.184670   -0.506640   -4.916760
  O     -0.158690   -1.701090   -4.657980
  O      1.055940   -0.174410   -5.740370
  H     -0.099030    1.556720   -4.420380
  H     -0.259310    0.468280   -3.062920
  H     -1.536640    0.578260   -4.250100

 Total Charge           Charge          ....   -1
 Multiplicity           Mult            ....    1
 Number of Electrons    NEL             ....   32
 Basis Dimension        Dim             ....  110

ORBITAL ENERGIES
----------------

  NO   OCC          E(Eh)            E(eV)
   0   2.0000     -18.952879      -515.7341
   1   2.0000     -18.947535      -515.5886
   2   2.0000     -10.115213      -275.2489
   3   2.0000     -10.044269      -273.3185
   4   2.0000      -0.836577       -22.7644
   5   2.0000      -0.740205       -20.1420
   6   2.0000      -0.558461       -15.1965
   7   2.0000      -0.317146        -8.6300
   8   2.0000      -0.272663        -7.4195
   9   2.0000      -0.258853        -7.0437
  10   2.0000      -0.240070        -6.5326
  11   2.0000      -0.198274        -5.3953
  12   2.0000      -0.178962        -4.8698
  13   2.0000      -0.059118        -1.6087
  14   2.0000      -0.053606        -1.4587
  15   2.0000      -0.037938        -1.0324
  16   0.0000       0.178995         4.8707
  17   0.0000       0.219982         5.9860
  18   0.0000       0.230769         6.2795
  19   0.0000       0.248648         6.7660
  20   0.0000       0.272292         7.4094

MULLIKEN ATOMIC CHARGES
-----------------------
   0 C :    0.306914
   1 C :    0.166201
   2 O :   -0.753827
   3 O :   -0.687246
   4 H :   -0.022136
   5 H :   -0.005515
   6 H :   -0.004391
Sum of atomic charges:   -1.0000000

LOEWDIN ATOMIC CHARGES
----------------------
   0 C :    0.137726
   1 C :   -0.325375
   2 O :   -0.360349
   3 O :   -0.337161
   4 H :   -0.043088
   5 H :   -0.034957
   6 H :   -0.036796

  Mayer bond orders larger than 0.100000
B(  0-C ,  1-C ) :   1.2362 B(  0-C ,  4-H ) :   0.8962 B(  0-C ,  5-H ) :   0.8530
B(  0-C ,  6-H ) :   0.8459 B(  1-C ,  2-O ) :   1.3895 B(  1-C ,  3-O ) :   1.4225
B(  1-C ,  4-H ) :   0.2167 B(  1-C ,  5-H ) :   0.1394 B(  1-C ,  6-H ) :   0.1466

Dispersion correction           -0.003025049
FINAL SINGLE POINT ENERGY      -228.120668594282

DIPOLE MOMENT
-------------
                                X             Y             Z
Electronic contribution:      1.60237      -2.58490      -1.94013
Nuclear contribution   :     -2.19461       3.67480       2.63888
                        -----------------------------------------
Total Dipole Moment    :     -0.59224       1.08990       0.69875
                        -----------------------------------------
Magnitude (a.u.)       :      1.42368
Magnitude (Debye)      :      3.61872

Rotational constants in cm-1:     0.393152     0.332423     0.186264
Rotational constants in MHz : 11786.395082  9965.786704  5584.045355

                             ****ORCA TERMINATED NORMALLY****
TOTAL RUN TIME: 0 days 0 hours 0 minutes 7 seconds 503 msec
