                         Program Version 5.0.0 -  RELEASE  -
|  1> !PBE0 D3BJ RIJCOSX def2-SVPD def2/J TightSCF
|  2> *xyz 1 1
|  3> C          2.48645       -2.67712       -2.56345
|  4> C          3.03764       -2.36672       -3.92351
|  5> N          2.28036       -2.45441       -4.96769
|  6> N          4.32174       -2.01793       -4.01664
|  7> H          4.87994       -1.91167       -3.17382
|  8> H          4.71015       -1.67088       -4.88356
|  9> H          1.27042       -2.41265       -4.86614
| 10> H          2.58183       -2.05528       -5.84688
| 11> H          1.45238       -2.93848       -2.64882
| 12> H          2.58636       -1.81799       -1.93352
| 13> H          3.02742       -3.49632       -2.13781
| 14> *
| 15>
| 16> %MaxCore 64000
| 17>
| 18> %pal nprocs 4
| 19> end
| 20>
| 21> %scf
| 22>   MaxIter 150
| 23> end
| 24>
| 25>
| 26>                          ****END OF INPUT****

CARTESIAN COORDINATES (ANGSTROEM)
---------------------------------
  C      2.486450   -2.677120   -2.563450
  C      3.037640   -2.366720   -3.923510
  N      2.280360   -2.454410   -4.967690
  N      4.321740   -2.017930   -4.016640
  H      4.879940   -1.911670   -3.173820
  H      4.710150   -1.670880   -4.883560
  H      1.270420   -2.412650   -4.866140
  H      2.581830   -2.055280   -5.846880
  H      1.452380   -2.938480   -2.648820
  H      2.586360   -1.817990   -1.933520
  H      3.027420   -3.496320   -2.137810

 Total Charge           Charge          ....    1
 Multiplicity           Mult            ....    1
 Number of Electrons    NEL             ....   32
 Basis Dimension        Dim             ....  136

ORBITAL ENERGIES
----------------

  NO   OCC          E(Eh)            E(eV)
   0   2.0000     -14.652575      -398.7168
   1   2.0000     -14.647388      -398.5757
   2   2.0000     -10.568771      -287.5909
   3   2.0000     -10.432428      -283.8808
   4   2.0000      -1.234663       -33.5969
   5   2.0000      -1.135466       -30.8976
   6   2.0000      -0.973711       -26.4960
   7   2.0000      -0.865664       -23.5559
   8   2.0000      -0.801224       -21.8024
   9   2.0000      -0.785063       -21.3627
  10   2.0000      -0.723578       -19.6896
  11   2.0000      -0.678283       -18.4570
  12   2.0000      -0.632024       -17.1982
  13   2.0000      -0.616232       -16.7685
  14   2.0000      -0.594116       -16.1667
  15   2.0000      -0.517342       -14.0776
  16   0.0000      -0.217806        -5.9268
  17   0.0000      -0.155100        -4.2205
  18   0.0000      -0.111320        -3.0292
  19   0.0000      -0.108216        -2.9447
  20   0.0000      -0.086823        -2.3626

MULLIKEN ATOMIC CHARGES
-----------------------
   0 C :    0.441478
   1 C :    0.448747
   2 N :    0.003953
   3 N :   -0.031178
   4 H :    0.027002
   5 H :   -0.101273
   6 H :    0.038555
   7 H :   -0.062945
   8 H :    0.083047
   9 H :    0.073747
  10 H :    0.078866
Sum of atomic charges:    1.0000000

LOEWDIN ATOMIC CHARGES
----------------------
   0 C :    0.231598
   1 C :   -0.061323
   2 N :    0.275146
   3 N :    0.274314
   4 H :    0.058324
   5 H :    0.046093
   6 H :    0.062374
   7 H :    0.053445
   8 H :    0.009458
   9 H :    0.024456
  10 H :    0.026114

  Mayer bond orders larger than 0.100000
B(  0-C ,  1-C ) :   1.2947 B(  0-C ,  8-H ) :   0.7976 B(  0-C ,  9-H ) :   0.8099
B(  0-C , 10-H ) :   0.7637 B(  1-C ,  2-N ) :   1.0495 B(  1-C ,  3-N ) :   1.0352
B(  1-C ,  5-H ) :  -0.1519 B(  1-C ,  7-H ) :  -0.1391 B(  1-C ,  8-H ) :   0.2189
B(  1-C ,  9-H ) :   0.1402 B(  1-C , 10-H ) :   0.1665 B(  2-N ,  3-N ) :   0.1566
B(  2-N ,  6-H ) :   1.0629 B(  2-N ,  7-H ) :   1.2031 B(  3-N ,  4-H ) :   1.1208
B(  3-N ,  5-H ) :   1.2455 B(  4-H ,  5-H ) :  -0.1500 B(  6-H ,  7-H ) :  -0.1206

Dispersion correction           -0.005723395
FINAL SINGLE POINT ENERGY      -189.372674114963

DIPOLE MOMENT
-------------
                                X             Y             Z
Electronic contribution:      0.79499       0.25248      -1.97504
Nuclear contribution   :     -0.70516       0.22720       1.57908
                        -----------------------------------------
Total Dipole Moment    :      0.08983       0.47968      -0.39596
                        -----------------------------------------
Magnitude (a.u.)       :      0.62845
Magnitude (Debye)      :      1.59740

Rotational constants in cm-1:     0.330529     0.301293     0.162717
Rotational constants in MHz :  9909.000224  9032.538169  4878.126278

                             ****ORCA TERMINATED NORMALLY****
TOTAL RUN TIME: 0 days 0 hours 0 minutes 10 seconds 117 msec
