                         Program Version 5.0.0 -  RELEASE  -
|  1> !PBE0 D3BJ RIJCOSX def2-SVPD def2/J TightSCF
|  2> *xyz 0 1
|  3> C         -0.47749        0.60819       -4.10105
|  4> C          0.18467       -0.50664       -4.91676
|  5> F         -0.15869       -1.70109       -4.65798
|  6> O          1.05594       -0.17441       -5.74037
|  7> H         -0.09903        1.55672       -4.42038
|  8> H         -0.25931        0.46828       -3.06292
|  9> H         -1.53664        0.57826       -4.25010
| 10> *
| 11>
| 12> %MaxCore 64000
| 13>
| 14> %pal nprocs 4
| 15> end
| 16>
| 17> %scf
| 18>   MaxIter 150
| 19> end
| 20>
| 21>
| 22>                          ****END OF INPUT****

CARTESIAN COORDINATES (ANGSTROEM)
---------------------------------
  C     -0.477490    0.608190   -4.101050
  C      0.184670   -0.506640   -4.916760
  F     -0.158690   -1.701090   -4.657980
  O      1.055940   -0.174410   -5.740370
  H     -0.099030    1.556720   -4.420380
  H     -0.259310    0.468280   -3.062920
  H     -1.536640    0.578260   -4.250100

 Total Charge           Charge          ....    0
 Multiplicity           Mult            ....    1
 Number of Electrons    NEL             ....   32
 Basis Dimension        Dim             ....  110

ORBITAL ENERGIES
----------------

  NO   OCC          E(Eh)            E(eV)
   0   2.0000     -24.854766      -676.3326
   1   2.0000     -19.231212      -523.3079
   2   2.0000     -10.420567      -283.5580
   3   2.0000     -10.261625      -279.2330
   4   2.0000      -1.333205       -36.2784
   5   2.0000      -1.064691       -28.9717
   6   2.0000      -0.790779       -21.5182
   7   2.0000      -0.677311       -18.4306
   8   2.0000      -0.566817       -15.4239
   9   2.0000      -0.562974       -15.3193
  10   2.0000      -0.523137       -14.2353
  11   2.0000      -0.461335       -12.5536
  12   2.0000      -0.450194       -12.2504
  13   2.0000      -0.423955       -11.5364
  14   2.0000      -0.379224       -10.3192
  15   2.0000      -0.314657        -8.5623
  16   0.0000      -0.026692        -0.7263
  17   0.0000       0.019221         0.5230
  18   0.0000       0.065478         1.7817
  19   0.0000       0.091942         2.5019
  20   0.0000       0.099849         2.7170

MULLIKEN ATOMIC CHARGES
-----------------------
   0 C :    0.249232
   1 C :    0.522369
   2 F :   -0.408921
   3 O :   -0.508129
   4 H :    0.003228
   5 H :    0.072332
   6 H :    0.069888
Sum of atomic charges:    0.0000000

LOEWDIN ATOMIC CHARGES
----------------------
   0 C :    0.210917
   1 C :   -0.022062
   2 F :   -0.051519
   3 O :   -0.137700
   4 H :    0.000786
   5 H :    0.000839
   6 H :   -0.001263

  Mayer bond orders larger than 0.100000
B(  0-C ,  1-C ) :   1.2455 B(  0-C ,  4-H ) :   0.9135 B(  0-C ,  5-H ) :   0.8305
B(  0-C ,  6-H ) :   0.8273 B(  1-C ,  2-F ) :   0.6984 B(  1-C ,  3-O ) :   1.7691
B(  1-C ,  4-H ) :   0.1806 B(  1-C ,  5-H ) :   0.1062 B(  1-C ,  6-H ) :   0.1101

Dispersion correction           -0.002785903
FINAL SINGLE POINT ENERGY      -252.645522391420

DIPOLE MOMENT
-------------
                                X             Y             Z
Electronic contribution:      1.08780      -4.66499      -1.62034
Nuclear contribution   :     -1.87439       4.97468       2.43802
                        -----------------------------------------
Total Dipole Moment    :     -0.78659       0.30969       0.81768
                        -----------------------------------------
Magnitude (a.u.)       :      1.17611
Magnitude (Debye)      :      2.98943

Rotational constants in cm-1:     0.370842     0.317886     0.176700
Rotational constants in MHz : 11117.569466  9529.969862  5297.328364

                             ****ORCA TERMINATED NORMALLY****
TOTAL RUN TIME: 0 days 0 hours 0 minutes 7 seconds 103 msec
