                         Program Version 5.0.0 -  RELEASE  -
|  1> !PBE0 D3BJ RIJCOSX def2-SVPD def2/J TightSCF
|  2> *xyz 0 1
|  3> C          2.48645       -2.67712       -2.56345
|  4> C          3.03764       -2.36672       -3.92351
|  5> C          2.28036       -2.45441       -4.96769
|  6> N          4.32174       -2.01793       -4.01664
|  7> H          4.87994       -1.91167       -3.17382
|  8> H          4.71015       -1.67088       -4.88356
|  9> H          1.27042       -2.41265       -4.86614
| 10> H          2.58183       -2.05528       -5.84688
| 11> H          1.45238       -2.93848       -2.64882
| 12> H          2.58636       -1.81799       -1.93352
| 13> H          3.02742       -3.49632       -2.13781
| 14> *
| 15>
| 16> %MaxCore 64000
| 17>
| 18> %pal nprocs 4
| 19> end
| 20>
| 21> %scf
| 22>   MaxIter 150
| 23> end
| 24>
| 25>
| 26>                          ****END OF INPUT****

CARTESIAN COORDINATES (ANGSTROEM)
---------------------------------
  C      2.486450   -2.677120   -2.563450
  C      3.037640   -2.366720   -3.923510
  C      2.280360   -2.454410   -4.967690
  N      4.321740   -2.017930   -4.016640
  H      4.879940   -1.911670   -3.173820
  H      4.710150   -1.670880   -4.883560
  H      1.270420   -2.412650   -4.866140
  H      2.581830   -2.055280   -5.846880
  H      1.452380   -2.938480   -2.648820
  H      2.586360   -1.817990   -1.933520
  H      3.027420   -3.496320   -2.137810

 Total Charge           Charge          ....    0
 Multiplicity           Mult            ....    1
 Number of Electrons    NEL             ....   32
 Basis Dimension        Dim             ....  136

ORBITAL ENERGIES
----------------

  NO   OCC          E(Eh)            E(eV)
   0   2.0000     -14.398051      -391.7909
   1   2.0000     -10.256385      -279.0904
   2   2.0000     -10.222836      -278.1775
   3   2.0000     -10.163224      -276.5554
   4   2.0000      -0.943467       -25.6730
   5   2.0000      -0.777368       -21.1533
   6   2.0000      -0.708744       -19.2859
   7   2.0000      -0.587380       -15.9834
   8   2.0000      -0.539107       -14.6699
   9   2.0000      -0.490911       -13.3584
  10   2.0000      -0.446710       -12.1556
  11   2.0000      -0.410084       -11.1590
  12   2.0000      -0.407385       -11.0855
  13   2.0000      -0.360108        -9.7990
  14   2.0000      -0.346643        -9.4326
  15   2.0000      -0.208789        -5.6814
  16   0.0000       0.026419         0.7189
  17   0.0000       0.049589         1.3494
  18   0.0000       0.063609         1.7309
  19   0.0000       0.071756         1.9526
  20   0.0000       0.098886         2.6908

MULLIKEN ATOMIC CHARGES
-----------------------
   0 C :    0.634027
   1 C :   -0.423780
   2 C :    0.295435
   3 N :    0.055585
   4 H :   -0.150802
   5 H :   -0.154632
   6 H :   -0.035602
   7 H :   -0.314042
   8 H :    0.068741
   9 H :   -0.003802
  10 H :    0.028872
Sum of atomic charges:    0.0000000

LOEWDIN ATOMIC CHARGES
----------------------
   0 C :    0.161114
   1 C :   -0.290937
   2 C :    0.151217
   3 N :    0.159693
   4 H :    0.001813
   5 H :    0.004612
   6 H :   -0.074606
   7 H :   -0.081367
   8 H :   -0.011292
   9 H :   -0.010589
  10 H :   -0.009658

  Mayer bond orders larger than 0.100000
B(  0-C ,  1-C ) :   1.3401 B(  0-C ,  8-H ) :   0.8155 B(  0-C ,  9-H ) :   0.6695
B(  0-C , 10-H ) :   0.7360 B(  1-C ,  2-C ) :   1.9713 B(  1-C ,  3-N ) :   1.0476
B(  1-C ,  7-H ) :   0.2299 B(  1-C ,  8-H ) :   0.2052 B(  1-C ,  9-H ) :   0.2902
B(  1-C , 10-H ) :   0.2116 B(  2-C ,  3-N ) :   0.2637 B(  2-C ,  6-H ) :   0.8538
B(  2-C ,  7-H ) :   0.7429 B(  3-N ,  4-H ) :   1.2023 B(  3-N ,  5-H ) :   1.2054
B(  4-H ,  5-H ) :  -0.1354 B(  6-H ,  7-H ) :   0.2091

Dispersion correction           -0.006015808
FINAL SINGLE POINT ENERGY      -172.926370447819

DIPOLE MOMENT
-------------
                                X             Y             Z
Electronic contribution:      1.44359       0.18598      -0.91115
Nuclear contribution   :     -0.87498       0.20680       1.33581
                        -----------------------------------------
Total Dipole Moment    :      0.56860       0.39278       0.42466
                        -----------------------------------------
Magnitude (a.u.)       :      0.81113
Magnitude (Debye)      :      2.06172

Rotational constants in cm-1:     0.351941     0.304186     0.168624
Rotational constants in MHz : 10550.928440  9119.266441  5055.221775

                             ****ORCA TERMINATED NORMALLY****
TOTAL RUN TIME: 0 days 0 hours 0 minutes 10 seconds 720 msec
