                         Program Version 5.0.0 -  RELEASE  -
|  1> !PBE0 D3BJ RIJCOSX def2-SVPD def2/J TightSCF
|  2> *xyz 0 1
|  3> C         -0.47749        0.60819       -4.10105
|  4> C          0.18467       -0.50664       -4.91676
|  5> O         -0.15869       -1.70109       -4.65798
|  6> F          1.05594       -0.17441       -5.74037
|  7> H         -0.09903        1.55672       -4.42038
|  8> H         -0.25931        0.46828       -3.06292
|  9> H         -1.53664        0.57826       -4.25010
| 10> *
| 11>
| 12> %MaxCore 64000
| 13>
| 14> %pal nprocs 4
| 15> end
| 16>
| 17> %scf
| 18>   MaxIter 150
| 19> end
| 20>
| 21>
| 22>                          ****END OF INPUT****

CARTESIAN COORDINATES (ANGSTROEM)
---------------------------------
  C     -0.477490    0.608190   -4.101050
  C      0.184670   -0.506640   -4.916760
  O     -0.158690   -1.701090   -4.657980
  F      1.055940   -0.174410   -5.740370
  H     -0.099030    1.556720   -4.420380
  H     -0.259310    0.468280   -3.062920
  H     -1.536640    0.578260   -4.250100

 Total Charge           Charge          ....    0
 Multiplicity           Mult            ....    1
 Number of Electrons    NEL             ....   32
 Basis Dimension        Dim             ....  110

ORBITAL ENERGIES
----------------

  NO   OCC          E(Eh)            E(eV)
   0   2.0000     -24.863887      -676.5808
   1   2.0000     -19.227238      -523.1998
   2   2.0000     -10.422976      -283.6236
   3   2.0000     -10.261990      -279.2429
   4   2.0000      -1.352480       -36.8028
   5   2.0000      -1.048385       -28.5280
   6   2.0000      -0.792060       -21.5531
   7   2.0000      -0.687763       -18.7150
   8   2.0000      -0.577368       -15.7110
   9   2.0000      -0.572273       -15.5723
  10   2.0000      -0.522804       -14.2262
  11   2.0000      -0.462697       -12.5906
  12   2.0000      -0.449056       -12.2194
  13   2.0000      -0.420171       -11.4334
  14   2.0000      -0.367421        -9.9980
  15   2.0000      -0.311113        -8.4658
  16   0.0000      -0.032334        -0.8798
  17   0.0000       0.018834         0.5125
  18   0.0000       0.065095         1.7713
  19   0.0000       0.094534         2.5724
  20   0.0000       0.095630         2.6022

MULLIKEN ATOMIC CHARGES
-----------------------
   0 C :    0.235554
   1 C :    0.510571
   2 O :   -0.556597
   3 F :   -0.359987
   4 H :    0.026469
   5 H :    0.073827
   6 H :    0.070162
Sum of atomic charges:    0.0000000

LOEWDIN ATOMIC CHARGES
----------------------
   0 C :    0.210962
   1 C :   -0.021826
   2 O :   -0.154661
   3 F :   -0.034698
   4 H :   -0.012268
   5 H :    0.006755
   6 H :    0.005736

  Mayer bond orders larger than 0.100000
B(  0-C ,  1-C ) :   1.2670 B(  0-C ,  4-H ) :   0.8994 B(  0-C ,  5-H ) :   0.8331
B(  0-C ,  6-H ) :   0.8276 B(  1-C ,  2-O ) :   1.7217 B(  1-C ,  3-F ) :   0.7674
B(  1-C ,  4-H ) :   0.1318 B(  1-C ,  5-H ) :   0.1172 B(  1-C ,  6-H ) :   0.1261

Dispersion correction           -0.002785477
FINAL SINGLE POINT ENERGY      -252.637934895988

DIPOLE MOMENT
-------------
                                X             Y             Z
Electronic contribution:      3.06414      -2.18452      -3.38192
Nuclear contribution   :     -3.12947       3.39716       3.55645
                        -----------------------------------------
Total Dipole Moment    :     -0.06533       1.21265       0.17453
                        -----------------------------------------
Magnitude (a.u.)       :      1.22688
Magnitude (Debye)      :      3.11849

Rotational constants in cm-1:     0.366922     0.321471     0.176896
Rotational constants in MHz : 11000.056350  9637.461211  5303.212706

                             ****ORCA TERMINATED NORMALLY****
TOTAL RUN TIME: 0 days 0 hours 0 minutes 7 seconds 200 msec
