                         Program Version 5.0.0 -  RELEASE  -
|  1> !PBE0 D3BJ RIJCOSX def2-SVPD def2/J TightSCF
|  2> *xyz 0 1
|  3> C          2.48645       -2.67712       -2.56345
|  4> C          3.03764       -2.36672       -3.92351
|  5> N          2.28036       -2.45441       -4.96769
|  6> C          4.32174       -2.01793       -4.01664
|  7> H          4.87994       -1.91167       -3.17382
|  8> H          4.71015       -1.67088       -4.88356
|  9> H          1.27042       -2.41265       -4.86614
| 10> H          2.58183       -2.05528       -5.84688
| 11> H          1.45238       -2.93848       -2.64882
| 12> H          2.58636       -1.81799       -1.93352
| 13> H          3.02742       -3.49632       -2.13781
| 14> *
| 15>
| 16> %MaxCore 64000
| 17>
| 18> %pal nprocs 4
| 19> end
| 20>
| 21> %scf
| 22>   MaxIter 150
| 23> end
| 24>
| 25>
| 26>                          ****END OF INPUT****

CARTESIAN COORDINATES (ANGSTROEM)
---------------------------------
  C      2.486450   -2.677120   -2.563450
  C      3.037640   -2.366720   -3.923510
  N      2.280360   -2.454410   -4.967690
  C      4.321740   -2.017930   -4.016640
  H      4.879940   -1.911670   -3.173820
  H      4.710150   -1.670880   -4.883560
  H      1.270420   -2.412650   -4.866140
  H      2.581830   -2.055280   -5.846880
  H      1.452380   -2.938480   -2.648820
  H      2.586360   -1.817990   -1.933520
  H      3.027420   -3.496320   -2.137810

 Total Charge           Charge          ....    0
 Multiplicity           Mult            ....    1
 Number of Electrons    NEL             ....   32
 Basis Dimension        Dim             ....  136

ORBITAL ENERGIES
----------------

  NO   OCC          E(Eh)            E(eV)
   0   2.0000     -14.401595      -391.8873
   1   2.0000     -10.256128      -279.0834
   2   2.0000     -10.223193      -278.1872
   3   2.0000     -10.163093      -276.5518
   4   2.0000      -0.959422       -26.1072
   5   2.0000      -0.773785       -21.0558
   6   2.0000      -0.701417       -19.0865
   7   2.0000      -0.596706       -16.2372
   8   2.0000      -0.539269       -14.6743
   9   2.0000      -0.488120       -13.2824
  10   2.0000      -0.445660       -12.1270
  11   2.0000      -0.409653       -11.1472
  12   2.0000      -0.403779       -10.9874
  13   2.0000      -0.365390        -9.9428
  14   2.0000      -0.355965        -9.6863
  15   2.0000      -0.198541        -5.4026
  16   0.0000       0.025308         0.6887
  17   0.0000       0.046475         1.2647
  18   0.0000       0.062915         1.7120
  19   0.0000       0.069505         1.8913
  20   0.0000       0.095126         2.5885

MULLIKEN ATOMIC CHARGES
-----------------------
   0 C :    0.647888
   1 C :   -0.379444
   2 N :    0.043184
   3 C :    0.298294
   4 H :   -0.139861
   5 H :   -0.345676
   6 H :   -0.064958
   7 H :   -0.098154
   8 H :   -0.062067
   9 H :    0.050495
  10 H :    0.050300
Sum of atomic charges:   -0.0000000

LOEWDIN ATOMIC CHARGES
----------------------
   0 C :    0.163137
   1 C :   -0.293771
   2 N :    0.154012
   3 C :    0.161856
   4 H :   -0.078731
   5 H :   -0.090669
   6 H :    0.005475
   7 H :    0.012234
   8 H :   -0.025106
   9 H :   -0.004639
  10 H :   -0.003797

  Mayer bond orders larger than 0.100000
B(  0-C ,  1-C ) :   1.1460 B(  0-C ,  8-H ) :   0.7497 B(  0-C ,  9-H ) :   0.7906
B(  0-C , 10-H ) :   0.7519 B(  1-C ,  2-N ) :   0.9917 B(  1-C ,  3-C ) :   1.8088
B(  1-C ,  4-H ) :   0.1184 B(  1-C ,  5-H ) :   0.1310 B(  1-C ,  8-H ) :   0.2691
B(  1-C ,  9-H ) :   0.1521 B(  1-C , 10-H ) :   0.1778 B(  2-N ,  3-C ) :   0.2373
B(  2-N ,  6-H ) :   1.0573 B(  2-N ,  7-H ) :   1.1524 B(  3-C ,  4-H ) :   0.8614
B(  3-C ,  5-H ) :   0.8999 B(  6-H ,  7-H ) :  -0.1068

Dispersion correction           -0.006016214
FINAL SINGLE POINT ENERGY      -172.926878383046

DIPOLE MOMENT
-------------
                                X             Y             Z
Electronic contribution:     -0.38049      -0.13109      -1.74064
Nuclear contribution   :     -0.41717       0.30469       1.54910
                        -----------------------------------------
Total Dipole Moment    :     -0.79765       0.17360      -0.19154
                        -----------------------------------------
Magnitude (a.u.)       :      0.83850
Magnitude (Debye)      :      2.13129

Rotational constants in cm-1:     0.351587     0.304754     0.168726
Rotational constants in MHz : 10540.302868  9136.286689  5058.281984

                             ****ORCA TERMINATED NORMALLY****
TOTAL RUN TIME: 0 days 0 hours 0 minutes 10 seconds 615 msec
