                         Program Version 5.0.0 -  RELEASE  -
|  1> !PBE0 D3BJ RIJCOSX def2-SVPD def2/J TightSCF xyzfile
|  2>
|  3> *xyzfile 0 1 D2.xyz
|  4>
|  5> %MaxCore 64000
|  6>
|  7> %pal nprocs 4
|  8> end
|  9>
| 10> %scf
| 11>   MaxIter 150
| 12> end
| 13>
| 14>
| 15>                          ****END OF INPUT****

CARTESIAN COORDINATES (ANGSTROEM)
---------------------------------
  C      2.486452   -2.677121   -2.563447
  C     -0.870963    0.248043   -2.662804
  C     -0.477492    0.608191   -4.101052
  H      0.206773    1.458299   -4.118748
  H     -1.368442    0.929419   -4.647855
  C      0.184673   -0.506640   -4.916760
  C      3.037640   -2.366715   -3.923509
  N      2.280360   -2.454408   -4.967692
  C      4.321736   -2.017932   -4.016641
  H      4.879940   -1.911668   -3.173823
  H      4.710148   -1.670882   -4.883561
  H      1.270423   -2.412650   -4.866143
  H      2.581829   -2.055282   -5.846878
  F     -0.158685   -1.701088   -4.657981
  O      1.055938   -0.174410   -5.740373
  C      2.497991   -1.469464   -1.610303
  C      1.582841   -0.321986   -2.042619
  H      2.193083   -1.833912   -0.625420
  H      3.523356   -1.103982   -1.490392
  C      0.100160   -0.673551   -1.915815
  H      1.822311   -0.040361   -3.072834
  H      1.813180    0.557019   -1.433266
  H     -0.063284   -1.679120   -2.301112
  H     -0.168820   -0.691680   -0.853831
  H     -1.001048    1.181040   -2.104071
  H     -1.844645   -0.246592   -2.663281
  H      1.472592   -3.051527   -2.694366
  H      3.083201   -3.490638   -2.141472

 Total Charge           Charge          ....    0
 Multiplicity           Mult            ....    1
 Number of Electrons    NEL             ....   94
 Basis Dimension        Dim             ....  374

ORBITAL ENERGIES
----------------

  NO   OCC          E(Eh)            E(eV)
   0   2.0000     -24.882499      -677.0872
   1   2.0000     -19.245338      -523.6923
   2   2.0000     -14.374470      -391.1492
   3   2.0000     -10.432839      -283.8920
   4   2.0000     -10.274761      -279.5905
   5   2.0000     -10.255764      -279.0735
   6   2.0000     -10.242155      -278.7032
   7   2.0000     -10.241392      -278.6824
   8   2.0000     -10.234132      -278.4849
   9   2.0000     -10.230743      -278.3927
  10   2.0000     -10.227646      -278.3084
  11   2.0000     -10.151380      -276.2331
  12   2.0000      -1.364546       -37.1312
  13   2.0000      -1.080298       -29.3964
  14   2.0000      -0.942464       -25.6457
  15   2.0000      -0.853433       -23.2231
  16   2.0000      -0.812545       -22.1105
  17   2.0000      -0.771290       -20.9879
  18   2.0000      -0.725798       -19.7500
  19   2.0000      -0.709062       -19.2946
  20   2.0000      -0.684463       -18.6252
  21   2.0000      -0.642437       -17.4816
  22   2.0000      -0.611691       -16.6449
  23   2.0000      -0.601812       -16.3761
  24   2.0000      -0.586334       -15.9550
  25   2.0000      -0.555983       -15.1291
  26   2.0000      -0.528323       -14.3764
  27   2.0000      -0.513710       -13.9788
  28   2.0000      -0.498307       -13.5596
  29   2.0000      -0.491967       -13.3871
  30   2.0000      -0.486702       -13.2438
  31   2.0000      -0.460488       -12.5305
  32   2.0000      -0.444882       -12.1059
  33   2.0000      -0.436152       -11.8683
  34   2.0000      -0.424376       -11.5479
  35   2.0000      -0.407757       -11.0956
  36   2.0000      -0.401590       -10.9278
  37   2.0000      -0.391233       -10.6460
  38   2.0000      -0.380296       -10.3484
  39   2.0000      -0.370747       -10.0885
  40   2.0000      -0.358886        -9.7658
  41   2.0000      -0.351906        -9.5758
  42   2.0000      -0.338284        -9.2052
  43   2.0000      -0.336262        -9.1502
  44   2.0000      -0.327353        -8.9077
  45   2.0000      -0.317642        -8.6435
  46   2.0000      -0.183805        -5.0016
  47   0.0000      -0.044686        -1.2160
  48   0.0000       0.011668         0.3175
  49   0.0000       0.034807         0.9471
  50   0.0000       0.039559         1.0764
  51   0.0000       0.042808         1.1649

MULLIKEN ATOMIC CHARGES
-----------------------
   0 C :    0.393935
   1 C :    0.386117
   2 C :    0.029934
   3 H :    0.290753
   4 H :   -0.181029
   5 C :    0.696108
   6 C :   -0.048744
   7 N :    0.168461
   8 C :    0.283222
   9 H :   -0.067372
  10 H :   -0.326608
  11 H :   -0.273422
  12 H :   -0.016608
  13 F :   -0.580018
  14 O :   -0.531372
  15 C :    0.117016
  16 C :   -0.020711
  17 H :   -0.018563
  18 H :    0.022485
  19 C :   -0.104076
  20 H :   -0.020577
  21 H :   -0.148289
  22 H :    0.089095
  23 H :   -0.136376
  24 H :   -0.051277
  25 H :    0.090007
  26 H :   -0.035537
  27 H :   -0.006554
Sum of atomic charges:   -0.0000000

LOEWDIN ATOMIC CHARGES
----------------------
   0 C :    0.020301
   1 C :   -0.020514
   2 C :    0.058198
   3 H :    0.042194
   4 H :    0.042758
   5 C :    0.011221
   6 C :   -0.243698
   7 N :    0.190218
   8 C :    0.173864
   9 H :   -0.086605
  10 H :   -0.087903
  11 H :   -0.078286
  12 H :    0.013905
  13 F :   -0.047890
  14 O :   -0.119534
  15 C :   -0.017208
  16 C :   -0.015981
  17 H :    0.023456
  18 H :    0.019967
  19 C :   -0.032105
  20 H :    0.010230
  21 H :    0.029453
  22 H :   -0.005841
  23 H :    0.031077
  24 H :    0.028650
  25 H :    0.025288
  26 H :    0.001969
  27 H :    0.032816

  Mayer bond orders larger than 0.100000
B(  0-C ,  6-C ) :   0.9993 B(  0-C ,  7-N ) :   0.1282 B(  0-C , 15-C ) :   1.2092
B(  0-C , 17-H ) :   0.1237 B(  0-C , 18-H ) :   0.1637 B(  0-C , 26-H ) :   0.6606
B(  0-C , 27-H ) :   0.7922 B(  1-C ,  2-C ) :   1.1994 B(  1-C ,  4-H ) :   0.1204
B(  1-C , 19-C ) :   1.3180 B(  1-C , 24-H ) :   0.8113 B(  1-C , 25-H ) :   0.7096
B(  2-C ,  3-H ) :   0.7603 B(  2-C ,  4-H ) :   0.8124 B(  2-C ,  5-C ) :   1.2157
B(  2-C , 24-H ) :   0.1166 B(  3-H ,  5-C ) :   0.1835 B(  4-H ,  5-C ) :   0.2597
B(  5-C , 13-F ) :   0.4789 B(  5-C , 14-O ) :   1.6867 B(  6-C ,  7-N ) :   0.9479
B(  6-C ,  8-C ) :   1.8105 B(  6-C ,  9-H ) :   0.1444 B(  6-C , 10-H ) :   0.1910
B(  6-C , 12-H ) :  -0.1130 B(  6-C , 26-H ) :   0.1803 B(  6-C , 27-H ) :   0.1335
B(  7-N ,  8-C ) :   0.3120 B(  7-N , 11-H ) :   0.9148 B(  7-N , 12-H ) :   0.9995
B(  8-C ,  9-H ) :   0.8512 B(  8-C , 10-H ) :   0.7320 B( 11-H , 12-H ) :  -0.1206
B( 11-H , 13-F ) :   0.1550 B( 15-C , 16-C ) :   1.2527 B( 15-C , 17-H ) :   0.8811
B( 15-C , 18-H ) :   0.7587 B( 15-C , 20-H ) :   0.1535 B( 15-C , 26-H ) :   0.1826
B( 15-C , 27-H ) :   0.1270 B( 16-C , 17-H ) :   0.1400 B( 16-C , 18-H ) :   0.1852
B( 16-C , 19-C ) :   1.1853 B( 16-C , 20-H ) :   0.8718 B( 16-C , 21-H ) :   0.9366
B( 16-C , 23-H ) :   0.2015 B( 19-C , 20-H ) :   0.1075 B( 19-C , 21-H ) :   0.1076
B( 19-C , 22-H ) :   0.8773 B( 19-C , 23-H ) :   0.8760 B( 19-C , 24-H ) :   0.1813
B( 19-C , 25-H ) :   0.1895 B( 22-H , 26-H ) :   0.1085

Dispersion correction           -0.027109474
FINAL SINGLE POINT ENERGY      -581.336773936280

DIPOLE MOMENT
-------------
                                X             Y             Z
Electronic contribution:     -5.33893      -1.78924     -10.87516
Nuclear contribution   :      3.65024       2.44123      11.52670
                        -----------------------------------------
Total Dipole Moment    :     -1.68869       0.65200       0.65155
                        -----------------------------------------
Magnitude (a.u.)       :      1.92387
Magnitude (Debye)      :      4.89009

Rotational constants in cm-1:     0.040600     0.026409     0.019262
Rotational constants in MHz :  1217.142957   791.712481   577.449390

                             ****ORCA TERMINATED NORMALLY****
TOTAL RUN TIME: 0 days 0 hours 1 minutes 55 seconds 898 msec
