                         Program Version 5.0.0 -  RELEASE  -
|  1> !PBE D3BJ RIJCOSX def2-SVPD def2/J TightSCF
|  2> *xyz -1 1
|  3> C          0.61188        1.65763       -4.50029
|  4> C          1.69499        1.54179       -5.57045
|  5> H          2.69733        1.73466       -5.18400
|  6> H          1.50666        2.27224       -6.35808
|  7> S          1.78029       -0.03313       -6.42874
|  8> O          2.56929        0.21366       -7.60736
|  9> O          0.41688       -0.46297       -6.61859
| 10> C          0.68036        0.65542       -3.34804
| 11> H         -0.35687        1.54923       -4.99113
| 12> H          0.65023        2.67544       -4.09600
| 13> O          2.50513       -0.93326       -5.48257
| 14> H          0.64318       -0.34009       -3.73853
| 15> H         -0.14865        0.81153       -2.68980
| 16> H          1.59447        0.79330       -2.80925
| 17> *
| 18> %MaxCore 64000
| 19>
| 20> %pal nprocs 8
| 21> end
| 22>
| 23> %scf
| 24>   MaxIter 150
| 25> end
| 26>
| 27>
| 28>                          ****END OF INPUT****

CARTESIAN COORDINATES (ANGSTROEM)
---------------------------------
  C      0.611880    1.657630   -4.500290
  C      1.694990    1.541790   -5.570450
  H      2.697330    1.734660   -5.184000
  H      1.506660    2.272240   -6.358080
  S      1.780290   -0.033130   -6.428740
  O      2.569290    0.213660   -7.607360
  O      0.416880   -0.462970   -6.618590
  C      0.680360    0.655420   -3.348040
  H     -0.356870    1.549230   -4.991130
  H      0.650230    2.675440   -4.096000
  O      2.505130   -0.933260   -5.482570
  H      0.643180   -0.340090   -3.738530
  H     -0.148650    0.811530   -2.689800
  H      1.594470    0.793300   -2.809250

 Total Charge           Charge          ....   -1
 Multiplicity           Mult            ....    1
 Number of Electrons    NEL             ....   66
 Basis Dimension        Dim             ....  212

ORBITAL ENERGIES
----------------

  NO   OCC          E(Eh)            E(eV)
   0   2.0000     -88.055886     -2396.1225
   1   2.0000     -18.550852      -504.7943
   2   2.0000     -18.549153      -504.7481
   3   2.0000     -18.531769      -504.2751
   4   2.0000      -9.766466      -265.7590
   5   2.0000      -9.757512      -265.5154
   6   2.0000      -9.747556      -265.2445
   7   2.0000      -7.660150      -208.4433
   8   2.0000      -5.687240      -154.7577
   9   2.0000      -5.686981      -154.7506
  10   2.0000      -5.686364      -154.7338
  11   2.0000      -0.843876       -22.9630
  12   2.0000      -0.713224       -19.4078
  13   2.0000      -0.680311       -18.5122
  14   2.0000      -0.578315       -15.7367
  15   2.0000      -0.495301       -13.4778
  16   2.0000      -0.406318       -11.0565
  17   2.0000      -0.323504        -8.8030
  18   2.0000      -0.280171        -7.6238
  19   2.0000      -0.270386        -7.3576
  20   2.0000      -0.246042        -6.6952
  21   2.0000      -0.232960        -6.3392
  22   2.0000      -0.212263        -5.7760
  23   2.0000      -0.204595        -5.5673
  24   2.0000      -0.180163        -4.9025
  25   2.0000      -0.174957        -4.7608
  26   2.0000      -0.160193        -4.3591
  27   2.0000      -0.106645        -2.9019
  28   2.0000      -0.105644        -2.8747
  29   2.0000      -0.075936        -2.0663
  30   2.0000      -0.070881        -1.9288
  31   2.0000      -0.052591        -1.4311
  32   2.0000      -0.020955        -0.5702
  33   0.0000       0.119479         3.2512
  34   0.0000       0.145801         3.9674
  35   0.0000       0.152876         4.1600
  36   0.0000       0.160256         4.3608
  37   0.0000       0.180424         4.9096

MULLIKEN ATOMIC CHARGES
-----------------------
   0 C :   -0.304628
   1 C :    0.023373
   2 H :   -0.010752
   3 H :   -0.008789
   4 S :    1.151759
   5 O :   -0.759616
   6 O :   -0.740200
   7 C :    0.797766
   8 H :    0.011456
   9 H :   -0.158700
  10 O :   -0.780710
  11 H :   -0.080614
  12 H :   -0.098299
  13 H :   -0.042045
Sum of atomic charges:   -1.0000000

LOEWDIN ATOMIC CHARGES
----------------------
   0 C :   -0.102225
   1 C :   -0.102335
   2 H :    0.007101
   3 H :   -0.001315
   4 S :    0.804895
   5 O :   -0.548327
   6 O :   -0.541823
   7 C :    0.119675
   8 H :    0.013310
   9 H :    0.005704
  10 O :   -0.573147
  11 H :   -0.028089
  12 H :   -0.033520
  13 H :   -0.019903

  Mayer bond orders larger than 0.100000
B(  0-C ,  1-C ) :   1.2935 B(  0-C ,  2-H ) :   0.1414 B(  0-C ,  3-H ) :   0.1504
B(  0-C ,  7-C ) :   1.3183 B(  0-C ,  8-H ) :   0.8686 B(  0-C ,  9-H ) :   0.8794
B(  0-C , 11-H ) :   0.2393 B(  0-C , 12-H ) :   0.2312 B(  0-C , 13-H ) :   0.2395
B(  1-C ,  2-H ) :   0.9123 B(  1-C ,  3-H ) :   0.8915 B(  1-C ,  4-S ) :   0.9049
B(  1-C ,  5-O ) :   0.1001 B(  1-C ,  8-H ) :   0.1503 B(  1-C ,  9-H ) :   0.1597
B(  4-S ,  5-O ) :   1.3861 B(  4-S ,  6-O ) :   1.3189 B(  4-S , 10-O ) :   1.2839
B(  7-C , 11-H ) :   0.8054 B(  7-C , 12-H ) :   0.7349 B(  7-C , 13-H ) :   0.7412

Dispersion correction           -0.013351964
FINAL SINGLE POINT ENERGY      -741.520042280829

DIPOLE MOMENT
-------------
                                X             Y             Z
Electronic contribution:      3.19201      -5.32665      -8.64786
Nuclear contribution   :     -3.81113       6.97418       9.97106
                        -----------------------------------------
Total Dipole Moment    :     -0.61912       1.64753       1.32320
                        -----------------------------------------
Magnitude (a.u.)       :      2.20194
Magnitude (Debye)      :      5.59688

Rotational constants in cm-1:     0.136135     0.055477     0.052562
Rotational constants in MHz :  4081.221574  1663.170947  1575.772362

                             ****ORCA TERMINATED NORMALLY****
TOTAL RUN TIME: 0 days 0 hours 0 minutes 5 seconds 774 msec
