                         Program Version 5.0.0 -  RELEASE  -
|  1> !PBE D3BJ RIJCOSX def2-SVPD def2/J TightSCF
|  2> *xyz 1 1
|  3> C          1.96337       -1.74915       -1.89689
|  4> N          2.73849       -2.01517       -3.09711
|  5> C          4.04974       -2.15472       -3.15204
|  6> N          4.65821       -1.98629       -4.31866
|  7> N          4.76423       -2.45444       -2.05049
|  8> H          4.28736       -2.77626       -1.21750
|  9> H          5.75082       -2.65835       -2.12599
| 10> H          2.34518       -1.69027       -3.97145
| 11> H          4.10900       -1.59268       -5.07176
| 12> H          5.64910       -2.15646       -4.42724
| 13> C          2.08852       -0.30091       -1.41520
| 14> H          2.23127       -2.45162       -1.10264
| 15> H          0.93025       -1.97780       -2.15544
| 16> C          1.96899        0.73358       -2.53565
| 17> H          3.05136       -0.16860       -0.91187
| 18> H          1.31650       -0.13623       -0.65725
| 19> H          2.73046        0.55745       -3.26643
| 20> H          2.08619        1.71595       -2.12808
| 21> H          1.00672        0.65098       -2.99620
| 22> *
| 23> %MaxCore 64000
| 24>
| 25> %pal nprocs 8
| 26> end
| 27>
| 28> %scf
| 29>   MaxIter 150
| 30> end
| 31>
| 32>
| 33>                          ****END OF INPUT****

CARTESIAN COORDINATES (ANGSTROEM)
---------------------------------
  C      1.963370   -1.749150   -1.896890
  N      2.738490   -2.015170   -3.097110
  C      4.049740   -2.154720   -3.152040
  N      4.658210   -1.986290   -4.318660
  N      4.764230   -2.454440   -2.050490
  H      4.287360   -2.776260   -1.217500
  H      5.750820   -2.658350   -2.125990
  H      2.345180   -1.690270   -3.971450
  H      4.109000   -1.592680   -5.071760
  H      5.649100   -2.156460   -4.427240
  C      2.088520   -0.300910   -1.415200
  H      2.231270   -2.451620   -1.102640
  H      0.930250   -1.977800   -2.155440
  C      1.968990    0.733580   -2.535650
  H      3.051360   -0.168600   -0.911870
  H      1.316500   -0.136230   -0.657250
  H      2.730460    0.557450   -3.266430
  H      2.086190    1.715950   -2.128080
  H      1.006720    0.650980   -2.996200

 Total Charge           Charge          ....    1
 Multiplicity           Mult            ....    1
 Number of Electrons    NEL             ....   56
 Basis Dimension        Dim             ....  236

ORBITAL ENERGIES
----------------

  NO   OCC          E(Eh)            E(eV)
   0   2.0000     -14.222491      -387.0137
   1   2.0000     -14.221154      -386.9773
   2   2.0000     -14.219905      -386.9433
   3   2.0000     -10.216152      -277.9956
   4   2.0000     -10.098261      -274.7877
   5   2.0000     -10.040331      -273.2113
   6   2.0000     -10.016915      -272.5741
   7   2.0000      -1.123483       -30.5715
   8   2.0000      -1.018948       -27.7270
   9   2.0000      -1.006766       -27.3955
  10   2.0000      -0.864739       -23.5307
  11   2.0000      -0.796682       -21.6788
  12   2.0000      -0.763938       -20.7878
  13   2.0000      -0.729443       -19.8492
  14   2.0000      -0.711931       -19.3726
  15   2.0000      -0.669390       -18.2150
  16   2.0000      -0.644003       -17.5242
  17   2.0000      -0.637015       -17.3340
  18   2.0000      -0.608096       -16.5471
  19   2.0000      -0.578250       -15.7350
  20   2.0000      -0.554518       -15.0892
  21   2.0000      -0.539179       -14.6718
  22   2.0000      -0.504613       -13.7312
  23   2.0000      -0.464999       -12.6533
  24   2.0000      -0.454960       -12.3801
  25   2.0000      -0.441914       -12.0251
  26   2.0000      -0.432176       -11.7601
  27   2.0000      -0.408734       -11.1222
  28   0.0000      -0.201853        -5.4927
  29   0.0000      -0.178307        -4.8520
  30   0.0000      -0.147620        -4.0169
  31   0.0000      -0.134075        -3.6484
  32   0.0000      -0.112979        -3.0743

MULLIKEN ATOMIC CHARGES
-----------------------
   0 C :    0.839360
   1 N :   -0.444241
   2 C :    1.439107
   3 N :   -0.087186
   4 N :    0.031471
   5 H :   -0.048002
   6 H :   -0.178399
   7 H :   -0.147269
   8 H :   -0.003462
   9 H :   -0.119285
  10 C :   -0.318480
  11 H :   -0.118965
  12 H :   -0.281392
  13 C :    0.810967
  14 H :   -0.015378
  15 H :   -0.101926
  16 H :   -0.167966
  17 H :   -0.096632
  18 H :    0.007678
Sum of atomic charges:    1.0000000

LOEWDIN ATOMIC CHARGES
----------------------
   0 C :    0.072276
   1 N :    0.053544
   2 C :   -0.059381
   3 N :    0.277796
   4 N :    0.294016
   5 H :    0.019238
   6 H :    0.034032
   7 H :    0.049552
   8 H :    0.035601
   9 H :    0.040818
  10 C :   -0.047880
  11 H :    0.027735
  12 H :    0.043408
  13 C :    0.137291
  14 H :    0.022213
  15 H :    0.038752
  16 H :   -0.033700
  17 H :   -0.000150
  18 H :   -0.005159

  Mayer bond orders larger than 0.100000
B(  0-C ,  1-N ) :   0.9656 B(  0-C ,  7-H ) :  -0.1503 B(  0-C , 10-C ) :   1.0991
B(  0-C , 11-H ) :   0.8641 B(  0-C , 12-H ) :   0.6869 B(  0-C , 15-H ) :   0.1231
B(  1-N ,  2-C ) :   1.0105 B(  1-N ,  3-N ) :   0.3670 B(  1-N ,  4-N ) :   0.2500
B(  1-N ,  7-H ) :   1.2144 B(  1-N , 11-H ) :   0.1309 B(  1-N , 12-H ) :   0.2865
B(  2-C ,  3-N ) :   0.7054 B(  2-C ,  4-N ) :   0.9133 B(  2-C ,  5-H ) :  -0.1335
B(  2-C ,  6-H ) :  -0.1780 B(  2-C ,  7-H ) :  -0.2147 B(  2-C ,  8-H ) :  -0.1541
B(  2-C ,  9-H ) :  -0.1798 B(  3-N ,  4-N ) :   0.2007 B(  3-N ,  8-H ) :   1.1342
B(  3-N ,  9-H ) :   1.3053 B(  4-N ,  5-H ) :   1.0785 B(  4-N ,  6-H ) :   1.3048
B(  5-H ,  6-H ) :  -0.2184 B(  8-H ,  9-H ) :  -0.1861 B( 10-C , 12-H ) :   0.1443
B( 10-C , 13-C ) :   1.3501 B( 10-C , 14-H ) :   0.9182 B( 10-C , 15-H ) :   0.9349
B( 10-C , 16-H ) :   0.2243 B( 10-C , 17-H ) :   0.2209 B( 10-C , 18-H ) :   0.2184
B( 11-H , 12-H ) :  -0.1113 B( 13-C , 16-H ) :   0.8192 B( 13-C , 17-H ) :   0.7726
B( 13-C , 18-H ) :   0.7403 B( 16-H , 18-H ) :   0.1062

Dispersion correction           -0.016153282
FINAL SINGLE POINT ENERGY      -323.099223485545

DIPOLE MOMENT
-------------
                                X             Y             Z
Electronic contribution:      3.87034      -4.87515      -2.30487
Nuclear contribution   :     -2.72963       4.05673       1.67650
                        -----------------------------------------
Total Dipole Moment    :      1.14072      -0.81842      -0.62837
                        -----------------------------------------
Magnitude (a.u.)       :      1.53815
Magnitude (Debye)      :      3.90966

Rotational constants in cm-1:     0.140891     0.054763     0.048590
Rotational constants in MHz :  4223.814968  1641.764475  1456.690885

                             ****ORCA TERMINATED NORMALLY****
TOTAL RUN TIME: 0 days 0 hours 0 minutes 6 seconds 652 msec
