                         Program Version 5.0.0 -  RELEASE  -
|  1> !PBE D3BJ RIJCOSX def2-SVPD def2/J TightSCF
|  2> *xyz 0 1
|  3> C          0.61188        1.65763       -4.50029
|  4> C          1.69499        1.54179       -5.57045
|  5> H          2.69733        1.73466       -5.18400
|  6> H          1.50666        2.27224       -6.35808
|  7> S          1.78029       -0.03313       -6.42874
|  8> F          2.56929        0.21366       -7.60736
|  9> O          0.41688       -0.46297       -6.61859
| 10> C          0.68036        0.65542       -3.34804
| 11> H         -0.35687        1.54923       -4.99113
| 12> H          0.65023        2.67544       -4.09600
| 13> O          2.50513       -0.93326       -5.48257
| 14> H          0.64318       -0.34009       -3.73853
| 15> H         -0.14865        0.81153       -2.68980
| 16> H          1.59447        0.79330       -2.80925
| 17> *
| 18> %MaxCore 64000
| 19>
| 20> %pal nprocs 8
| 21> end
| 22>
| 23> %scf
| 24>   MaxIter 150
| 25> end
| 26>
| 27>
| 28>                          ****END OF INPUT****

CARTESIAN COORDINATES (ANGSTROEM)
---------------------------------
  C      0.611880    1.657630   -4.500290
  C      1.694990    1.541790   -5.570450
  H      2.697330    1.734660   -5.184000
  H      1.506660    2.272240   -6.358080
  S      1.780290   -0.033130   -6.428740
  F      2.569290    0.213660   -7.607360
  O      0.416880   -0.462970   -6.618590
  C      0.680360    0.655420   -3.348040
  H     -0.356870    1.549230   -4.991130
  H      0.650230    2.675440   -4.096000
  O      2.505130   -0.933260   -5.482570
  H      0.643180   -0.340090   -3.738530
  H     -0.148650    0.811530   -2.689800
  H      1.594470    0.793300   -2.809250

 Total Charge           Charge          ....    0
 Multiplicity           Mult            ....    1
 Number of Electrons    NEL             ....   66
 Basis Dimension        Dim             ....  212

ORBITAL ENERGIES
----------------

  NO   OCC          E(Eh)            E(eV)
   0   2.0000     -88.309114     -2403.0132
   1   2.0000     -24.389401      -663.6693
   2   2.0000     -18.780053      -511.0312
   3   2.0000     -18.761185      -510.5178
   4   2.0000      -9.955592      -270.9054
   5   2.0000      -9.925159      -270.0773
   6   2.0000      -9.887692      -269.0578
   7   2.0000      -7.914397      -215.3617
   8   2.0000      -5.945611      -161.7883
   9   2.0000      -5.939188      -161.6135
  10   2.0000      -5.937565      -161.5693
  11   2.0000      -1.273435       -34.6519
  12   2.0000      -1.017932       -27.6994
  13   2.0000      -0.913065       -24.8458
  14   2.0000      -0.753766       -20.5110
  15   2.0000      -0.686593       -18.6831
  16   2.0000      -0.641557       -17.4577
  17   2.0000      -0.573369       -15.6022
  18   2.0000      -0.524688       -14.2775
  19   2.0000      -0.518000       -14.0955
  20   2.0000      -0.498220       -13.5572
  21   2.0000      -0.442969       -12.0538
  22   2.0000      -0.434982       -11.8365
  23   2.0000      -0.408524       -11.1165
  24   2.0000      -0.397784       -10.8242
  25   2.0000      -0.380978       -10.3670
  26   2.0000      -0.342747        -9.3266
  27   2.0000      -0.333910        -9.0862
  28   2.0000      -0.328486        -8.9386
  29   2.0000      -0.313873        -8.5409
  30   2.0000      -0.292743        -7.9659
  31   2.0000      -0.272069        -7.4034
  32   2.0000      -0.257690        -7.0121
  33   0.0000      -0.027331        -0.7437
  34   0.0000      -0.009276        -0.2524
  35   0.0000       0.015871         0.4319
  36   0.0000       0.020027         0.5450
  37   0.0000       0.021428         0.5831

MULLIKEN ATOMIC CHARGES
-----------------------
   0 C :   -0.291661
   1 C :   -0.002990
   2 H :    0.035877
   3 H :    0.039227
   4 S :    1.365759
   5 F :   -0.389163
   6 O :   -0.608621
   7 C :    0.820439
   8 H :    0.025367
   9 H :   -0.135844
  10 O :   -0.648967
  11 H :   -0.098138
  12 H :   -0.080813
  13 H :   -0.030472
Sum of atomic charges:    0.0000000

LOEWDIN ATOMIC CHARGES
----------------------
   0 C :   -0.071274
   1 C :   -0.068960
   2 H :    0.026329
   3 H :    0.016153
   4 S :    1.070845
   5 F :   -0.239734
   6 O :   -0.433762
   7 C :    0.142539
   8 H :    0.027773
   9 H :    0.033947
  10 O :   -0.462515
  11 H :   -0.022533
  12 H :   -0.011485
  13 H :   -0.007322

  Mayer bond orders larger than 0.100000
B(  0-C ,  1-C ) :   1.3512 B(  0-C ,  2-H ) :   0.1349 B(  0-C ,  3-H ) :   0.1591
B(  0-C ,  7-C ) :   1.3389 B(  0-C ,  8-H ) :   0.8631 B(  0-C ,  9-H ) :   0.8696
B(  0-C , 11-H ) :   0.2244 B(  0-C , 12-H ) :   0.2223 B(  0-C , 13-H ) :   0.2323
B(  1-C ,  2-H ) :   0.9067 B(  1-C ,  3-H ) :   0.8447 B(  1-C ,  4-S ) :   0.9505
B(  1-C ,  8-H ) :   0.1467 B(  1-C ,  9-H ) :   0.1510 B(  4-S ,  5-F ) :   0.7206
B(  4-S ,  6-O ) :   1.5118 B(  4-S , 10-O ) :   1.4689 B(  7-C , 11-H ) :   0.8131
B(  7-C , 12-H ) :   0.7322 B(  7-C , 13-H ) :   0.7408

Dispersion correction           -0.012928658
FINAL SINGLE POINT ENERGY      -765.991182359571

DIPOLE MOMENT
-------------
                                X             Y             Z
Electronic contribution:      5.09203      -5.47018     -11.96635
Nuclear contribution   :     -4.93724       7.05784      11.92827
                        -----------------------------------------
Total Dipole Moment    :      0.15479       1.58766      -0.03807
                        -----------------------------------------
Magnitude (a.u.)       :      1.59564
Magnitude (Debye)      :      4.05579

Rotational constants in cm-1:     0.134572     0.053398     0.050578
Rotational constants in MHz :  4034.377338  1600.833917  1516.302250

                             ****ORCA TERMINATED NORMALLY****
TOTAL RUN TIME: 0 days 0 hours 0 minutes 5 seconds 411 msec
