                         Program Version 5.0.0 -  RELEASE  -
|  1> !PBE D3BJ RIJCOSX def2-SVPD def2/J TightSCF
|  2> *xyz 0 1
|  3> C          1.96337       -1.74915       -1.89689
|  4> C          2.73849       -2.01517       -3.09711
|  5> C          4.04974       -2.15472       -3.15204
|  6> N          4.65821       -1.98629       -4.31866
|  7> N          4.76423       -2.45444       -2.05049
|  8> H          4.28736       -2.77626       -1.21750
|  9> H          5.75082       -2.65835       -2.12599
| 10> H          2.34518       -1.69027       -3.97145
| 11> H          4.10900       -1.59268       -5.07176
| 12> H          5.64910       -2.15646       -4.42724
| 13> C          2.08852       -0.30091       -1.41520
| 14> H          2.23127       -2.45162       -1.10264
| 15> H          0.93025       -1.97780       -2.15544
| 16> C          1.96899        0.73358       -2.53565
| 17> H          3.05136       -0.16860       -0.91187
| 18> H          1.31650       -0.13623       -0.65725
| 19> H          2.73046        0.55745       -3.26643
| 20> H          2.08619        1.71595       -2.12808
| 21> H          1.00672        0.65098       -2.99620
| 22> *
| 23> %MaxCore 64000
| 24>
| 25> %pal nprocs 8
| 26> end
| 27>
| 28> %scf
| 29>   MaxIter 150
| 30> end
| 31>
| 32>
| 33>                          ****END OF INPUT****

CARTESIAN COORDINATES (ANGSTROEM)
---------------------------------
  C      1.963370   -1.749150   -1.896890
  C      2.738490   -2.015170   -3.097110
  C      4.049740   -2.154720   -3.152040
  N      4.658210   -1.986290   -4.318660
  N      4.764230   -2.454440   -2.050490
  H      4.287360   -2.776260   -1.217500
  H      5.750820   -2.658350   -2.125990
  H      2.345180   -1.690270   -3.971450
  H      4.109000   -1.592680   -5.071760
  H      5.649100   -2.156460   -4.427240
  C      2.088520   -0.300910   -1.415200
  H      2.231270   -2.451620   -1.102640
  H      0.930250   -1.977800   -2.155440
  C      1.968990    0.733580   -2.535650
  H      3.051360   -0.168600   -0.911870
  H      1.316500   -0.136230   -0.657250
  H      2.730460    0.557450   -3.266430
  H      2.086190    1.715950   -2.128080
  H      1.006720    0.650980   -2.996200

 Total Charge           Charge          ....    0
 Multiplicity           Mult            ....    1
 Number of Electrons    NEL             ....   56
 Basis Dimension        Dim             ....  236

ORBITAL ENERGIES
----------------

  NO   OCC          E(Eh)            E(eV)
   0   2.0000     -14.003444      -381.0531
   1   2.0000     -14.001702      -381.0057
   2   2.0000      -9.933173      -270.2954
   3   2.0000      -9.872581      -268.6466
   4   2.0000      -9.870141      -268.5802
   5   2.0000      -9.862685      -268.3773
   6   2.0000      -9.818326      -267.1702
   7   2.0000      -0.871797       -23.7228
   8   2.0000      -0.788422       -21.4541
   9   2.0000      -0.706689       -19.2300
  10   2.0000      -0.644268       -17.5314
  11   2.0000      -0.590524       -16.0690
  12   2.0000      -0.538156       -14.6440
  13   2.0000      -0.509683       -13.8692
  14   2.0000      -0.492936       -13.4135
  15   2.0000      -0.451749       -12.2927
  16   2.0000      -0.428256       -11.6534
  17   2.0000      -0.396120       -10.7790
  18   2.0000      -0.387389       -10.5414
  19   2.0000      -0.361136        -9.8270
  20   2.0000      -0.339886        -9.2488
  21   2.0000      -0.329769        -8.9735
  22   2.0000      -0.312313        -8.4985
  23   2.0000      -0.289676        -7.8825
  24   2.0000      -0.272142        -7.4054
  25   2.0000      -0.266728        -7.2580
  26   2.0000      -0.224190        -6.1005
  27   2.0000      -0.130916        -3.5624
  28   0.0000      -0.009046        -0.2461
  29   0.0000       0.017895         0.4869
  30   0.0000       0.021505         0.5852
  31   0.0000       0.034716         0.9447
  32   0.0000       0.049345         1.3427

MULLIKEN ATOMIC CHARGES
-----------------------
   0 C :    0.281898
   1 C :   -0.383112
   2 C :    0.839385
   3 N :   -0.041405
   4 N :   -0.052535
   5 H :   -0.024560
   6 H :   -0.290623
   7 H :   -0.049440
   8 H :    0.022960
   9 H :   -0.236576
  10 C :   -0.293704
  11 H :   -0.095259
  12 H :   -0.078434
  13 C :    0.765334
  14 H :   -0.032888
  15 H :   -0.074485
  16 H :   -0.160116
  17 H :   -0.083264
  18 H :   -0.013177
Sum of atomic charges:   -0.0000000

LOEWDIN ATOMIC CHARGES
----------------------
   0 C :   -0.064744
   1 C :   -0.048878
   2 C :   -0.231420
   3 N :    0.193942
   4 N :    0.215433
   5 H :   -0.010349
   6 H :   -0.016040
   7 H :   -0.048252
   8 H :    0.003963
   9 H :   -0.010757
  10 C :   -0.074321
  11 H :    0.002938
  12 H :    0.014556
  13 C :    0.118631
  14 H :    0.013469
  15 H :    0.012223
  16 H :   -0.030692
  17 H :   -0.023286
  18 H :   -0.016415

  Mayer bond orders larger than 0.100000
B(  0-C ,  1-C ) :   1.2404 B(  0-C ,  7-H ) :   0.3383 B(  0-C , 10-C ) :   1.1593
B(  0-C , 11-H ) :   0.8202 B(  0-C , 12-H ) :   0.7113 B(  0-C , 14-H ) :   0.1157
B(  0-C , 15-H ) :   0.1599 B(  1-C ,  2-C ) :   1.7224 B(  1-C ,  3-N ) :   0.3285
B(  1-C ,  4-N ) :   0.2697 B(  1-C ,  7-H ) :   0.6354 B(  1-C , 11-H ) :   0.2440
B(  1-C , 12-H ) :   0.2909 B(  2-C ,  3-N ) :   0.8112 B(  2-C ,  4-N ) :   0.8821
B(  2-C ,  6-H ) :  -0.2222 B(  2-C ,  7-H ) :   0.3205 B(  2-C ,  9-H ) :  -0.1657
B(  2-C , 11-H ) :  -0.1082 B(  3-N ,  4-N ) :   0.1427 B(  3-N ,  8-H ) :   1.1022
B(  3-N ,  9-H ) :   1.3385 B(  4-N ,  5-H ) :   1.0389 B(  4-N ,  6-H ) :   1.4026
B(  5-H ,  6-H ) :  -0.2162 B(  8-H ,  9-H ) :  -0.1860 B( 10-C , 12-H ) :   0.1237
B( 10-C , 13-C ) :   1.3340 B( 10-C , 14-H ) :   0.9314 B( 10-C , 15-H ) :   0.8684
B( 10-C , 16-H ) :   0.2565 B( 10-C , 17-H ) :   0.2334 B( 10-C , 18-H ) :   0.2341
B( 13-C , 16-H ) :   0.8173 B( 13-C , 17-H ) :   0.7453 B( 13-C , 18-H ) :   0.7441

Dispersion correction           -0.016679126
FINAL SINGLE POINT ENERGY      -306.630724191527

DIPOLE MOMENT
-------------
                                X             Y             Z
Electronic contribution:      3.84040      -4.07490      -1.73988
Nuclear contribution   :     -2.83106       3.92601       1.57906
                        -----------------------------------------
Total Dipole Moment    :      1.00934      -0.14889      -0.16081
                        -----------------------------------------
Magnitude (a.u.)       :      1.03286
Magnitude (Debye)      :      2.62531

Rotational constants in cm-1:     0.142679     0.055043     0.048600
Rotational constants in MHz :  4277.395781  1650.135877  1456.977167

                             ****ORCA TERMINATED NORMALLY****
TOTAL RUN TIME: 0 days 0 hours 0 minutes 6 seconds 912 msec
