                         Program Version 5.0.0 -  RELEASE  -
|  1> !PBE D3BJ RIJCOSX def2-SVPD def2/J TightSCF
|  2> *xyz 0 1
|  3> C          0.61188        1.65763       -4.50029
|  4> C          1.69499        1.54179       -5.57045
|  5> H          2.69733        1.73466       -5.18400
|  6> H          1.50666        2.27224       -6.35808
|  7> S          1.78029       -0.03313       -6.42874
|  8> O          2.56929        0.21366       -7.60736
|  9> F          0.41688       -0.46297       -6.61859
| 10> C          0.68036        0.65542       -3.34804
| 11> H         -0.35687        1.54923       -4.99113
| 12> H          0.65023        2.67544       -4.09600
| 13> O          2.50513       -0.93326       -5.48257
| 14> H          0.64318       -0.34009       -3.73853
| 15> H         -0.14865        0.81153       -2.68980
| 16> H          1.59447        0.79330       -2.80925
| 17> *
| 18> %MaxCore 64000
| 19>
| 20> %pal nprocs 8
| 21> end
| 22>
| 23> %scf
| 24>   MaxIter 150
| 25> end
| 26>
| 27>
| 28>                          ****END OF INPUT****

CARTESIAN COORDINATES (ANGSTROEM)
---------------------------------
  C      0.611880    1.657630   -4.500290
  C      1.694990    1.541790   -5.570450
  H      2.697330    1.734660   -5.184000
  H      1.506660    2.272240   -6.358080
  S      1.780290   -0.033130   -6.428740
  O      2.569290    0.213660   -7.607360
  F      0.416880   -0.462970   -6.618590
  C      0.680360    0.655420   -3.348040
  H     -0.356870    1.549230   -4.991130
  H      0.650230    2.675440   -4.096000
  O      2.505130   -0.933260   -5.482570
  H      0.643180   -0.340090   -3.738530
  H     -0.148650    0.811530   -2.689800
  H      1.594470    0.793300   -2.809250

 Total Charge           Charge          ....    0
 Multiplicity           Mult            ....    1
 Number of Electrons    NEL             ....   66
 Basis Dimension        Dim             ....  212

ORBITAL ENERGIES
----------------

  NO   OCC          E(Eh)            E(eV)
   0   2.0000     -88.308787     -2403.0043
   1   2.0000     -24.389661      -663.6764
   2   2.0000     -18.778841      -510.9982
   3   2.0000     -18.760627      -510.5026
   4   2.0000      -9.955368      -270.8993
   5   2.0000      -9.929829      -270.2044
   6   2.0000      -9.895892      -269.2809
   7   2.0000      -7.914050      -215.3522
   8   2.0000      -5.945466      -161.7844
   9   2.0000      -5.938715      -161.6006
  10   2.0000      -5.937150      -161.5581
  11   2.0000      -1.272405       -34.6239
  12   2.0000      -1.018280       -27.7088
  13   2.0000      -0.912432       -24.8285
  14   2.0000      -0.758470       -20.6390
  15   2.0000      -0.684502       -18.6262
  16   2.0000      -0.646391       -17.5892
  17   2.0000      -0.575796       -15.6682
  18   2.0000      -0.533194       -14.5090
  19   2.0000      -0.523852       -14.2547
  20   2.0000      -0.487417       -13.2633
  21   2.0000      -0.444129       -12.0854
  22   2.0000      -0.434631       -11.8269
  23   2.0000      -0.413926       -11.2635
  24   2.0000      -0.395927       -10.7737
  25   2.0000      -0.388824       -10.5804
  26   2.0000      -0.343520        -9.3477
  27   2.0000      -0.340117        -9.2550
  28   2.0000      -0.338483        -9.2106
  29   2.0000      -0.320909        -8.7324
  30   2.0000      -0.289073        -7.8661
  31   2.0000      -0.272666        -7.4196
  32   2.0000      -0.256072        -6.9681
  33   0.0000      -0.034212        -0.9310
  34   0.0000      -0.000474        -0.0129
  35   0.0000       0.012891         0.3508
  36   0.0000       0.017833         0.4853
  37   0.0000       0.018879         0.5137

MULLIKEN ATOMIC CHARGES
-----------------------
   0 C :   -0.273993
   1 C :    0.030872
   2 H :    0.025698
   3 H :    0.026330
   4 S :    1.318288
   5 O :   -0.615899
   6 F :   -0.360865
   7 C :    0.842943
   8 H :    0.002621
   9 H :   -0.138970
  10 O :   -0.644022
  11 H :   -0.109725
  12 H :   -0.078845
  13 H :   -0.024434
Sum of atomic charges:    0.0000000

LOEWDIN ATOMIC CHARGES
----------------------
   0 C :   -0.086085
   1 C :   -0.056281
   2 H :    0.038961
   3 H :    0.020037
   4 S :    1.067136
   5 O :   -0.434212
   6 F :   -0.236711
   7 C :    0.138361
   8 H :    0.022062
   9 H :    0.031808
  10 O :   -0.460180
  11 H :   -0.028668
  12 H :   -0.011870
  13 H :   -0.004359

  Mayer bond orders larger than 0.100000
B(  0-C ,  1-C ) :   1.2909 B(  0-C ,  2-H ) :   0.1361 B(  0-C ,  3-H ) :   0.1458
B(  0-C ,  7-C ) :   1.3423 B(  0-C ,  8-H ) :   0.8668 B(  0-C ,  9-H ) :   0.8741
B(  0-C , 11-H ) :   0.2305 B(  0-C , 12-H ) :   0.2219 B(  0-C , 13-H ) :   0.2384
B(  1-C ,  2-H ) :   0.9028 B(  1-C ,  3-H ) :   0.8906 B(  1-C ,  4-S ) :   0.9786
B(  1-C ,  8-H ) :   0.1385 B(  1-C ,  9-H ) :   0.1502 B(  4-S ,  5-O ) :   1.5921
B(  4-S ,  6-F ) :   0.7028 B(  4-S , 10-O ) :   1.4955 B(  7-C , 11-H ) :   0.8038
B(  7-C , 12-H ) :   0.7322 B(  7-C , 13-H ) :   0.7407 B( 11-H , 13-H ) :   0.1027

Dispersion correction           -0.012830177
FINAL SINGLE POINT ENERGY      -765.990222229177

DIPOLE MOMENT
-------------
                                X             Y             Z
Electronic contribution:      1.48612      -6.58628     -10.25431
Nuclear contribution   :     -2.62245       7.78551      10.86491
                        -----------------------------------------
Total Dipole Moment    :     -1.13633       1.19923       0.61060
                        -----------------------------------------
Magnitude (a.u.)       :      1.76132
Magnitude (Debye)      :      4.47691

Rotational constants in cm-1:     0.129509     0.054228     0.052367
Rotational constants in MHz :  3882.596420  1625.701900  1569.934536

                             ****ORCA TERMINATED NORMALLY****
TOTAL RUN TIME: 0 days 0 hours 0 minutes 6 seconds 5 msec
