                         Program Version 5.0.0 -  RELEASE  -
|  1> !PBE D3BJ RIJCOSX def2-SVPD def2/J TightSCF
|  2> *xyz 0 1
|  3> C          1.96337       -1.74915       -1.89689
|  4> N          2.73849       -2.01517       -3.09711
|  5> C          4.04974       -2.15472       -3.15204
|  6> C          4.65821       -1.98629       -4.31866
|  7> N          4.76423       -2.45444       -2.05049
|  8> H          4.28736       -2.77626       -1.21750
|  9> H          5.75082       -2.65835       -2.12599
| 10> H          2.34518       -1.69027       -3.97145
| 11> H          4.10900       -1.59268       -5.07176
| 12> H          5.64910       -2.15646       -4.42724
| 13> C          2.08852       -0.30091       -1.41520
| 14> H          2.23127       -2.45162       -1.10264
| 15> H          0.93025       -1.97780       -2.15544
| 16> C          1.96899        0.73358       -2.53565
| 17> H          3.05136       -0.16860       -0.91187
| 18> H          1.31650       -0.13623       -0.65725
| 19> H          2.73046        0.55745       -3.26643
| 20> H          2.08619        1.71595       -2.12808
| 21> H          1.00672        0.65098       -2.99620
| 22> *
| 23> %MaxCore 64000
| 24>
| 25> %pal nprocs 8
| 26> end
| 27>
| 28> %scf
| 29>   MaxIter 150
| 30> end
| 31>
| 32>
| 33>                          ****END OF INPUT****

CARTESIAN COORDINATES (ANGSTROEM)
---------------------------------
  C      1.963370   -1.749150   -1.896890
  N      2.738490   -2.015170   -3.097110
  C      4.049740   -2.154720   -3.152040
  C      4.658210   -1.986290   -4.318660
  N      4.764230   -2.454440   -2.050490
  H      4.287360   -2.776260   -1.217500
  H      5.750820   -2.658350   -2.125990
  H      2.345180   -1.690270   -3.971450
  H      4.109000   -1.592680   -5.071760
  H      5.649100   -2.156460   -4.427240
  C      2.088520   -0.300910   -1.415200
  H      2.231270   -2.451620   -1.102640
  H      0.930250   -1.977800   -2.155440
  C      1.968990    0.733580   -2.535650
  H      3.051360   -0.168600   -0.911870
  H      1.316500   -0.136230   -0.657250
  H      2.730460    0.557450   -3.266430
  H      2.086190    1.715950   -2.128080
  H      1.006720    0.650980   -2.996200

 Total Charge           Charge          ....    0
 Multiplicity           Mult            ....    1
 Number of Electrons    NEL             ....   56
 Basis Dimension        Dim             ....  236

ORBITAL ENERGIES
----------------

  NO   OCC          E(Eh)            E(eV)
   0   2.0000     -14.001078      -380.9887
   1   2.0000     -14.000765      -380.9802
   2   2.0000      -9.933665      -270.3088
   3   2.0000      -9.932503      -270.2771
   4   2.0000      -9.895183      -269.2616
   5   2.0000      -9.881815      -268.8979
   6   2.0000      -9.810185      -266.9487
   7   2.0000      -0.879673       -23.9371
   8   2.0000      -0.799975       -21.7684
   9   2.0000      -0.709708       -19.3121
  10   2.0000      -0.651772       -17.7356
  11   2.0000      -0.600101       -16.3296
  12   2.0000      -0.549764       -14.9598
  13   2.0000      -0.527761       -14.3611
  14   2.0000      -0.481997       -13.1158
  15   2.0000      -0.445307       -12.1174
  16   2.0000      -0.433627       -11.7996
  17   2.0000      -0.409261       -11.1366
  18   2.0000      -0.397416       -10.8142
  19   2.0000      -0.360220        -9.8021
  20   2.0000      -0.346827        -9.4376
  21   2.0000      -0.345194        -9.3932
  22   2.0000      -0.327219        -8.9041
  23   2.0000      -0.309663        -8.4264
  24   2.0000      -0.308575        -8.3968
  25   2.0000      -0.295572        -8.0429
  26   2.0000      -0.213403        -5.8070
  27   2.0000      -0.133612        -3.6358
  28   0.0000      -0.008468        -0.2304
  29   0.0000       0.011922         0.3244
  30   0.0000       0.022868         0.6223
  31   0.0000       0.028723         0.7816
  32   0.0000       0.046986         1.2786

MULLIKEN ATOMIC CHARGES
-----------------------
   0 C :    0.845462
   1 N :   -0.384840
   2 C :    0.650891
   3 C :    0.388876
   4 N :    0.144153
   5 H :   -0.132040
   6 H :   -0.207413
   7 H :   -0.168090
   8 H :   -0.232544
   9 H :   -0.442251
  10 C :   -0.361808
  11 H :   -0.147821
  12 H :   -0.323692
  13 C :    0.792839
  14 H :   -0.001557
  15 H :   -0.151979
  16 H :   -0.144697
  17 H :   -0.114335
  18 H :   -0.009154
Sum of atomic charges:    0.0000000

LOEWDIN ATOMIC CHARGES
----------------------
   0 C :    0.041290
   1 N :   -0.005695
   2 C :   -0.254611
   3 C :    0.148726
   4 N :    0.213775
   5 H :   -0.026735
   6 H :    0.001903
   7 H :    0.026438
   8 H :   -0.100449
   9 H :   -0.099030
  10 C :   -0.067778
  11 H :    0.009421
  12 H :    0.020196
  13 C :    0.124126
  14 H :    0.014877
  15 H :    0.015785
  16 H :   -0.027148
  17 H :   -0.017978
  18 H :   -0.017112

  Mayer bond orders larger than 0.100000
B(  0-C ,  1-N ) :   0.9340 B(  0-C ,  7-H ) :  -0.1532 B(  0-C , 10-C ) :   1.0755
B(  0-C , 11-H ) :   0.8617 B(  0-C , 12-H ) :   0.6869 B(  0-C , 15-H ) :   0.1301
B(  1-N ,  2-C ) :   1.0630 B(  1-N ,  3-C ) :   0.3229 B(  1-N ,  4-N ) :   0.1809
B(  1-N ,  7-H ) :   1.1486 B(  1-N , 11-H ) :   0.1492 B(  1-N , 12-H ) :   0.2914
B(  2-C ,  3-C ) :   1.2272 B(  2-C ,  4-N ) :   0.9878 B(  2-C ,  6-H ) :  -0.1204
B(  2-C ,  7-H ) :  -0.1441 B(  2-C ,  8-H ) :   0.1106 B(  2-C ,  9-H ) :   0.1795
B(  3-C ,  4-N ) :   0.2348 B(  3-C ,  8-H ) :   0.8732 B(  3-C ,  9-H ) :   0.7493
B(  4-N ,  5-H ) :   1.0453 B(  4-N ,  6-H ) :   1.2682 B(  4-N , 11-H ) :   0.1029
B(  5-H ,  6-H ) :  -0.2109 B( 10-C , 12-H ) :   0.1562 B( 10-C , 13-C ) :   1.3411
B( 10-C , 14-H ) :   0.9147 B( 10-C , 15-H ) :   0.9728 B( 10-C , 16-H ) :   0.2289
B( 10-C , 17-H ) :   0.2253 B( 10-C , 18-H ) :   0.2229 B( 11-H , 12-H ) :  -0.1148
B( 13-C , 16-H ) :   0.8284 B( 13-C , 17-H ) :   0.7623 B( 13-C , 18-H ) :   0.7444
B( 16-H , 18-H ) :   0.1071

Dispersion correction           -0.016544041
FINAL SINGLE POINT ENERGY      -306.625161418136

DIPOLE MOMENT
-------------
                                X             Y             Z
Electronic contribution:      1.95547      -3.93124      -0.44353
Nuclear contribution   :     -2.41054       3.93233       1.31148
                        -----------------------------------------
Total Dipole Moment    :     -0.45507       0.00109       0.86795
                        -----------------------------------------
Magnitude (a.u.)       :      0.98002
Magnitude (Debye)      :      2.49100

Rotational constants in cm-1:     0.144008     0.056232     0.050126
Rotational constants in MHz :  4317.255215  1685.791221  1502.728769

                             ****ORCA TERMINATED NORMALLY****
TOTAL RUN TIME: 0 days 0 hours 0 minutes 7 seconds 424 msec
