                         Program Version 5.0.0 -  RELEASE  -
|  1> !PBE D3BJ RIJCOSX def2-SVPD def2/J TightSCF
|  2> *xyz 0 1
|  3> C          0.61188        1.65763       -4.50029
|  4> C          1.69499        1.54179       -5.57045
|  5> H          2.69733        1.73466       -5.18400
|  6> H          1.50666        2.27224       -6.35808
|  7> S          1.78029       -0.03313       -6.42874
|  8> O          2.56929        0.21366       -7.60736
|  9> O          0.41688       -0.46297       -6.61859
| 10> C          0.68036        0.65542       -3.34804
| 11> H         -0.35687        1.54923       -4.99113
| 12> H          0.65023        2.67544       -4.09600
| 13> F          2.50513       -0.93326       -5.48257
| 14> H          0.64318       -0.34009       -3.73853
| 15> H         -0.14865        0.81153       -2.68980
| 16> H          1.59447        0.79330       -2.80925
| 17> *
| 18> %MaxCore 64000
| 19>
| 20> %pal nprocs 8
| 21> end
| 22>
| 23> %scf
| 24>   MaxIter 150
| 25> end
| 26>
| 27>
| 28>                          ****END OF INPUT****

CARTESIAN COORDINATES (ANGSTROEM)
---------------------------------
  C      0.611880    1.657630   -4.500290
  C      1.694990    1.541790   -5.570450
  H      2.697330    1.734660   -5.184000
  H      1.506660    2.272240   -6.358080
  S      1.780290   -0.033130   -6.428740
  O      2.569290    0.213660   -7.607360
  O      0.416880   -0.462970   -6.618590
  C      0.680360    0.655420   -3.348040
  H     -0.356870    1.549230   -4.991130
  H      0.650230    2.675440   -4.096000
  F      2.505130   -0.933260   -5.482570
  H      0.643180   -0.340090   -3.738530
  H     -0.148650    0.811530   -2.689800
  H      1.594470    0.793300   -2.809250

 Total Charge           Charge          ....    0
 Multiplicity           Mult            ....    1
 Number of Electrons    NEL             ....   66
 Basis Dimension        Dim             ....  212

ORBITAL ENERGIES
----------------

  NO   OCC          E(Eh)            E(eV)
   0   2.0000     -88.305970     -2402.9276
   1   2.0000     -24.362373      -662.9339
   2   2.0000     -18.779292      -511.0105
   3   2.0000     -18.778359      -510.9851
   4   2.0000      -9.954294      -270.8701
   5   2.0000      -9.925637      -270.0903
   6   2.0000      -9.900014      -269.3931
   7   2.0000      -7.911245      -215.2759
   8   2.0000      -5.942241      -161.6966
   9   2.0000      -5.936279      -161.5344
  10   2.0000      -5.934622      -161.4893
  11   2.0000      -1.229143       -33.4467
  12   2.0000      -1.028660       -27.9913
  13   2.0000      -0.939671       -25.5698
  14   2.0000      -0.756090       -20.5743
  15   2.0000      -0.680162       -18.5081
  16   2.0000      -0.630477       -17.1562
  17   2.0000      -0.572611       -15.5815
  18   2.0000      -0.508696       -13.8423
  19   2.0000      -0.494411       -13.4536
  20   2.0000      -0.490454       -13.3459
  21   2.0000      -0.445675       -12.1274
  22   2.0000      -0.430887       -11.7250
  23   2.0000      -0.410669       -11.1749
  24   2.0000      -0.402982       -10.9657
  25   2.0000      -0.391719       -10.6592
  26   2.0000      -0.350561        -9.5393
  27   2.0000      -0.343689        -9.3522
  28   2.0000      -0.331815        -9.0291
  29   2.0000      -0.320791        -8.7292
  30   2.0000      -0.296857        -8.0779
  31   2.0000      -0.289521        -7.8783
  32   2.0000      -0.277639        -7.5549
  33   0.0000      -0.025347        -0.6897
  34   0.0000      -0.002285        -0.0622
  35   0.0000       0.011000         0.2993
  36   0.0000       0.017495         0.4761
  37   0.0000       0.024098         0.6557

MULLIKEN ATOMIC CHARGES
-----------------------
   0 C :   -0.245510
   1 C :    0.003632
   2 H :    0.039729
   3 H :    0.031778
   4 S :    1.324202
   5 O :   -0.626545
   6 O :   -0.621434
   7 C :    0.807605
   8 H :    0.026848
   9 H :   -0.134523
  10 F :   -0.375211
  11 H :   -0.124590
  12 H :   -0.077049
  13 H :   -0.028930
Sum of atomic charges:    0.0000000

LOEWDIN ATOMIC CHARGES
----------------------
   0 C :   -0.080963
   1 C :   -0.058727
   2 H :    0.025168
   3 H :    0.031058
   4 S :    1.061970
   5 O :   -0.435174
   6 O :   -0.431851
   7 C :    0.137292
   8 H :    0.028088
   9 H :    0.032024
  10 F :   -0.263166
  11 H :   -0.026218
  12 H :   -0.009546
  13 H :   -0.009955

  Mayer bond orders larger than 0.100000
B(  0-C ,  1-C ) :   1.3309 B(  0-C ,  2-H ) :   0.1394 B(  0-C ,  3-H ) :   0.1394
B(  0-C ,  7-C ) :   1.3355 B(  0-C ,  8-H ) :   0.8685 B(  0-C ,  9-H ) :   0.8618
B(  0-C , 11-H ) :   0.2228 B(  0-C , 12-H ) :   0.2204 B(  0-C , 13-H ) :   0.2312
B(  1-C ,  2-H ) :   0.9029 B(  1-C ,  3-H ) :   0.8747 B(  1-C ,  4-S ) :   0.9774
B(  1-C ,  8-H ) :   0.1498 B(  1-C ,  9-H ) :   0.1514 B(  4-S ,  5-O ) :   1.5856
B(  4-S ,  6-O ) :   1.5355 B(  4-S , 10-F ) :   0.6377 B(  5-O ,  6-O ) :   0.1021
B(  7-C , 11-H ) :   0.8136 B(  7-C , 12-H ) :   0.7401 B(  7-C , 13-H ) :   0.7458

Dispersion correction           -0.012833613
FINAL SINGLE POINT ENERGY      -766.014273329008

DIPOLE MOMENT
-------------
                                X             Y             Z
Electronic contribution:      4.97229      -7.38909      -8.33501
Nuclear contribution   :     -4.86824       8.29128       9.64318
                        -----------------------------------------
Total Dipole Moment    :      0.10405       0.90220       1.30818
                        -----------------------------------------
Magnitude (a.u.)       :      1.59252
Magnitude (Debye)      :      4.04786

Rotational constants in cm-1:     0.129339     0.055092     0.051542
Rotational constants in MHz :  3877.477482  1651.602611  1545.182728

                             ****ORCA TERMINATED NORMALLY****
TOTAL RUN TIME: 0 days 0 hours 0 minutes 5 seconds 589 msec
