                         Program Version 5.0.0 -  RELEASE  -
|  1> !PBE D3BJ RIJCOSX def2-SVPD def2/J TightSCF
|  2> *xyz 0 1
|  3> C          1.96337       -1.74915       -1.89689
|  4> N          2.73849       -2.01517       -3.09711
|  5> C          4.04974       -2.15472       -3.15204
|  6> N          4.65821       -1.98629       -4.31866
|  7> C          4.76423       -2.45444       -2.05049
|  8> H          4.28736       -2.77626       -1.21750
|  9> H          5.75082       -2.65835       -2.12599
| 10> H          2.34518       -1.69027       -3.97145
| 11> H          4.10900       -1.59268       -5.07176
| 12> H          5.64910       -2.15646       -4.42724
| 13> C          2.08852       -0.30091       -1.41520
| 14> H          2.23127       -2.45162       -1.10264
| 15> H          0.93025       -1.97780       -2.15544
| 16> C          1.96899        0.73358       -2.53565
| 17> H          3.05136       -0.16860       -0.91187
| 18> H          1.31650       -0.13623       -0.65725
| 19> H          2.73046        0.55745       -3.26643
| 20> H          2.08619        1.71595       -2.12808
| 21> H          1.00672        0.65098       -2.99620
| 22> *
| 23> %MaxCore 64000
| 24>
| 25> %pal nprocs 8
| 26> end
| 27>
| 28> %scf
| 29>   MaxIter 150
| 30> end
| 31>
| 32>
| 33>                          ****END OF INPUT****

CARTESIAN COORDINATES (ANGSTROEM)
---------------------------------
  C      1.963370   -1.749150   -1.896890
  N      2.738490   -2.015170   -3.097110
  C      4.049740   -2.154720   -3.152040
  N      4.658210   -1.986290   -4.318660
  C      4.764230   -2.454440   -2.050490
  H      4.287360   -2.776260   -1.217500
  H      5.750820   -2.658350   -2.125990
  H      2.345180   -1.690270   -3.971450
  H      4.109000   -1.592680   -5.071760
  H      5.649100   -2.156460   -4.427240
  C      2.088520   -0.300910   -1.415200
  H      2.231270   -2.451620   -1.102640
  H      0.930250   -1.977800   -2.155440
  C      1.968990    0.733580   -2.535650
  H      3.051360   -0.168600   -0.911870
  H      1.316500   -0.136230   -0.657250
  H      2.730460    0.557450   -3.266430
  H      2.086190    1.715950   -2.128080
  H      1.006720    0.650980   -2.996200

 Total Charge           Charge          ....    0
 Multiplicity           Mult            ....    1
 Number of Electrons    NEL             ....   56
 Basis Dimension        Dim             ....  236

ORBITAL ENERGIES
----------------

  NO   OCC          E(Eh)            E(eV)
   0   2.0000     -14.004634      -381.0855
   1   2.0000     -14.003478      -381.0540
   2   2.0000      -9.934985      -270.3447
   3   2.0000      -9.926709      -270.1195
   4   2.0000      -9.889734      -269.1133
   5   2.0000      -9.881382      -268.8861
   6   2.0000      -9.810139      -266.9475
   7   2.0000      -0.885259       -24.0891
   8   2.0000      -0.804075       -21.8800
   9   2.0000      -0.700605       -19.0644
  10   2.0000      -0.637356       -17.3433
  11   2.0000      -0.622234       -16.9318
  12   2.0000      -0.546508       -14.8712
  13   2.0000      -0.497561       -13.5393
  14   2.0000      -0.494910       -13.4672
  15   2.0000      -0.472809       -12.8658
  16   2.0000      -0.425808       -11.5868
  17   2.0000      -0.403418       -10.9776
  18   2.0000      -0.393271       -10.7014
  19   2.0000      -0.357915        -9.7394
  20   2.0000      -0.348967        -9.4959
  21   2.0000      -0.336727        -9.1628
  22   2.0000      -0.324051        -8.8179
  23   2.0000      -0.309044        -8.4095
  24   2.0000      -0.306079        -8.3288
  25   2.0000      -0.289172        -7.8688
  26   2.0000      -0.211678        -5.7600
  27   2.0000      -0.134806        -3.6682
  28   0.0000      -0.012842        -0.3494
  29   0.0000       0.015339         0.4174
  30   0.0000       0.025338         0.6895
  31   0.0000       0.030173         0.8210
  32   0.0000       0.044322         1.2061

MULLIKEN ATOMIC CHARGES
-----------------------
   0 C :    0.803086
   1 N :   -0.411502
   2 C :    0.725327
   3 N :    0.029094
   4 C :    0.386072
   5 H :   -0.051676
   6 H :   -0.612117
   7 H :   -0.261842
   8 H :   -0.113050
   9 H :   -0.149183
  10 C :   -0.320574
  11 H :   -0.015876
  12 H :   -0.345658
  13 C :    0.786615
  14 H :   -0.051050
  15 H :   -0.123596
  16 H :   -0.155457
  17 H :   -0.111345
  18 H :   -0.007269
Sum of atomic charges:    0.0000000

LOEWDIN ATOMIC CHARGES
----------------------
   0 C :    0.050518
   1 N :   -0.008762
   2 C :   -0.256853
   3 N :    0.198846
   4 C :    0.164691
   5 H :   -0.111647
   6 H :   -0.105411
   7 H :    0.012765
   8 H :   -0.013583
   9 H :    0.008694
  10 C :   -0.061202
  11 H :    0.018076
  12 H :    0.020216
  13 C :    0.119183
  14 H :    0.015964
  15 H :    0.018535
  16 H :   -0.032606
  17 H :   -0.018442
  18 H :   -0.018981

  Mayer bond orders larger than 0.100000
B(  0-C ,  1-N ) :   0.9119 B(  0-C ,  4-C ) :   0.1137 B(  0-C ,  7-H ) :  -0.1493
B(  0-C , 10-C ) :   1.0503 B(  0-C , 11-H ) :   0.8509 B(  0-C , 12-H ) :   0.7630
B(  0-C , 14-H ) :   0.1030 B(  0-C , 15-H ) :   0.1260 B(  1-N ,  2-C ) :   0.9146
B(  1-N ,  3-N ) :   0.2554 B(  1-N ,  4-C ) :   0.4087 B(  1-N ,  7-H ) :   1.2358
B(  1-N , 12-H ) :   0.2363 B(  2-C ,  3-N ) :   0.8159 B(  2-C ,  4-C ) :   1.5264
B(  2-C ,  5-H ) :   0.2776 B(  2-C ,  6-H ) :   0.1618 B(  2-C ,  7-H ) :  -0.2069
B(  2-C ,  9-H ) :  -0.1220 B(  3-N ,  4-C ) :   0.2513 B(  3-N ,  8-H ) :   1.1423
B(  3-N ,  9-H ) :   1.2830 B(  4-C ,  5-H ) :   0.5867 B(  4-C ,  6-H ) :   0.9001
B(  5-H , 11-H ) :   0.1366 B(  8-H ,  9-H ) :  -0.1719 B( 10-C , 12-H ) :   0.1505
B( 10-C , 13-C ) :   1.3346 B( 10-C , 14-H ) :   0.9415 B( 10-C , 15-H ) :   0.9362
B( 10-C , 16-H ) :   0.2346 B( 10-C , 17-H ) :   0.2246 B( 10-C , 18-H ) :   0.2245
B( 11-H , 12-H ) :  -0.1563 B( 13-C , 16-H ) :   0.8266 B( 13-C , 17-H ) :   0.7621
B( 13-C , 18-H ) :   0.7413 B( 16-H , 18-H ) :   0.1014

Dispersion correction           -0.016599125
FINAL SINGLE POINT ENERGY      -306.624352614919

DIPOLE MOMENT
-------------
                                X             Y             Z
Electronic contribution:      1.88303      -3.43236      -2.61225
Nuclear contribution   :     -2.38731       3.82978       1.80833
                        -----------------------------------------
Total Dipole Moment    :     -0.50429       0.39743      -0.80392
                        -----------------------------------------
Magnitude (a.u.)       :      1.02885
Magnitude (Debye)      :      2.61513

Rotational constants in cm-1:     0.144922     0.055791     0.049560
Rotational constants in MHz :  4344.653038  1672.561873  1485.775629

                             ****ORCA TERMINATED NORMALLY****
TOTAL RUN TIME: 0 days 0 hours 0 minutes 7 seconds 93 msec
