                         Program Version 5.0.0 -  RELEASE  -
|  1> !PBE D3BJ RIJCOSX def2-SVPD def2/J TightSCF xyzfile
|  2>
|  3> *xyzfile 0 1 D1.xyz
|  4>
|  5> %MaxCore 64000
|  6>
|  7> %pal nprocs 4
|  8> end
|  9>
| 10> %scf
| 11>   MaxIter 150
| 12> end
| 13>
| 14>
| 15>                          ****END OF INPUT****

CARTESIAN COORDINATES (ANGSTROEM)
---------------------------------
  C      1.963365   -1.749150   -1.896887
  C      2.738490   -2.015170   -3.097113
  C      0.611877    1.657634   -4.500288
  C      1.694991    1.541794   -5.570447
  H      2.697326    1.734659   -5.183996
  H      1.506656    2.272239   -6.358076
  S      1.780287   -0.033128   -6.428739
  C      4.049736   -2.154717   -3.152044
  N      4.658206   -1.986293   -4.318655
  N      4.764231   -2.454435   -2.050491
  H      4.287363   -2.776259   -1.217496
  H      5.750825   -2.658351   -2.125988
  H      2.345176   -1.690274   -3.971447
  H      4.109004   -1.592677   -5.071760
  H      5.649095   -2.156462   -4.427237
  F      2.569287    0.213657   -7.607360
  O      0.416880   -0.462969   -6.618595
  C      2.088520   -0.300912   -1.415204
  H      2.231272   -2.451616   -1.102643
  H      0.930249   -1.977801   -2.155438
  C      0.680356    0.655418   -3.348038
  H     -0.356865    1.549231   -4.991128
  H      0.650228    2.675438   -4.096000
  C      1.968993    0.733582   -2.535654
  H      3.051356   -0.168602   -0.911868
  H      1.316501   -0.136231   -0.657252
  O      2.505129   -0.933263   -5.482570
  H      2.824195    0.624726   -3.208464
  H      2.058919    1.730331   -2.093112
  H      0.542252   -0.344731   -3.766662
  H     -0.174219    0.829692   -2.685182

 Total Charge           Charge          ....    0
 Multiplicity           Mult            ....    1
 Number of Electrons    NEL             ....  120
 Basis Dimension        Dim             ....  432

ORBITAL ENERGIES
----------------

  NO   OCC          E(Eh)            E(eV)
   0   2.0000     -88.319648     -2403.2998
   1   2.0000     -24.397300      -663.8843
   2   2.0000     -18.788243      -511.2541
   3   2.0000     -18.776305      -510.9292
   4   2.0000     -13.986591      -380.5945
   5   2.0000     -13.971729      -380.1901
   6   2.0000      -9.958618      -270.9878
   7   2.0000      -9.921649      -269.9818
   8   2.0000      -9.911668      -269.7102
   9   2.0000      -9.890967      -269.1469
  10   2.0000      -9.879952      -268.8472
  11   2.0000      -9.869519      -268.5633
  12   2.0000      -9.858734      -268.2698
  13   2.0000      -9.789598      -266.3885
  14   2.0000      -7.923897      -215.6202
  15   2.0000      -5.955237      -162.0502
  16   2.0000      -5.948865      -161.8769
  17   2.0000      -5.946953      -161.8248
  18   2.0000      -1.281022       -34.8584
  19   2.0000      -1.028383       -27.9837
  20   2.0000      -0.929215       -25.2852
  21   2.0000      -0.850126       -23.1331
  22   2.0000      -0.767277       -20.8787
  23   2.0000      -0.759039       -20.6545
  24   2.0000      -0.714963       -19.4551
  25   2.0000      -0.682977       -18.5847
  26   2.0000      -0.655079       -17.8256
  27   2.0000      -0.622487       -16.9387
  28   2.0000      -0.586391       -15.9565
  29   2.0000      -0.556876       -15.1534
  30   2.0000      -0.540883       -14.7182
  31   2.0000      -0.527270       -14.3477
  32   2.0000      -0.523278       -14.2391
  33   2.0000      -0.495520       -13.4838
  34   2.0000      -0.490752       -13.3541
  35   2.0000      -0.474617       -12.9150
  36   2.0000      -0.449768       -12.2388
  37   2.0000      -0.443759       -12.0753
  38   2.0000      -0.433344       -11.7919
  39   2.0000      -0.419019       -11.4021
  40   2.0000      -0.416238       -11.3264
  41   2.0000      -0.397469       -10.8157
  42   2.0000      -0.388117       -10.5612
  43   2.0000      -0.380475       -10.3532
  44   2.0000      -0.368660       -10.0317
  45   2.0000      -0.353349        -9.6151
  46   2.0000      -0.341406        -9.2901
  47   2.0000      -0.334842        -9.1115
  48   2.0000      -0.324960        -8.8426
  49   2.0000      -0.316538        -8.6134
  50   2.0000      -0.305213        -8.3053
  51   2.0000      -0.295994        -8.0544
  52   2.0000      -0.288878        -7.8608
  53   2.0000      -0.283368        -7.7108
  54   2.0000      -0.275132        -7.4867
  55   2.0000      -0.272903        -7.4261
  56   2.0000      -0.258971        -7.0470
  57   2.0000      -0.245793        -6.6884
  58   2.0000      -0.203572        -5.5395
  59   2.0000      -0.110540        -3.0079
  60   0.0000      -0.032666        -0.8889
  61   0.0000      -0.012125        -0.3299
  62   0.0000       0.003233         0.0880
  63   0.0000       0.009473         0.2578
  64   0.0000       0.016344         0.4447

MULLIKEN ATOMIC CHARGES
-----------------------
   0 C :    0.281423
   1 C :   -0.040414
   2 C :    0.421455
   3 C :    0.076305
   4 H :    0.134816
   5 H :   -0.087581
   6 S :    1.495053
   7 C :    0.788621
   8 N :    0.155313
   9 N :   -0.019390
  10 H :   -0.045247
  11 H :   -0.294271
  12 H :   -0.314381
  13 H :   -0.170605
  14 H :   -0.300721
  15 F :   -0.424758
  16 O :   -0.648564
  17 C :    0.582090
  18 H :   -0.376674
  19 H :    0.129550
  20 C :   -0.022672
  21 H :    0.001506
  22 H :   -0.045733
  23 C :   -0.158623
  24 H :   -0.020751
  25 H :    0.036837
  26 O :   -0.733466
  27 H :    0.058988
  28 H :   -0.216339
  29 H :   -0.043915
  30 H :   -0.197852
Sum of atomic charges:   -0.0000000

LOEWDIN ATOMIC CHARGES
----------------------
   0 C :   -0.050036
   1 C :   -0.024143
   2 C :   -0.023548
   3 C :   -0.053795
   4 H :    0.021169
   5 H :    0.017517
   6 S :    1.139128
   7 C :   -0.209600
   8 N :    0.213154
   9 N :    0.209883
  10 H :   -0.014867
  11 H :   -0.020747
  12 H :   -0.126890
  13 H :   -0.083342
  14 H :   -0.014585
  15 F :   -0.231804
  16 O :   -0.414327
  17 C :   -0.023695
  18 H :   -0.000496
  19 H :    0.010723
  20 C :   -0.018814
  21 H :    0.029585
  22 H :    0.038509
  23 C :   -0.031013
  24 H :    0.017400
  25 H :    0.014247
  26 O :   -0.450281
  27 H :    0.009863
  28 H :    0.021889
  29 H :    0.013931
  30 H :    0.034986

  Mayer bond orders larger than 0.100000
B(  0-C ,  1-C ) :   1.0640 B(  0-C ,  7-C ) :   0.1623 B(  0-C , 12-H ) :   0.4553
B(  0-C , 17-C ) :   1.1181 B(  0-C , 18-H ) :   0.8226 B(  0-C , 19-H ) :   0.6319
B(  0-C , 23-C ) :   0.1766 B(  0-C , 24-H ) :   0.1416 B(  0-C , 25-H ) :   0.2029
B(  1-C ,  7-C ) :   1.6781 B(  1-C ,  8-N ) :   0.2903 B(  1-C ,  9-N ) :   0.2922
B(  1-C , 10-H ) :  -0.1038 B(  1-C , 12-H ) :   0.1563 B(  1-C , 17-C ) :   0.1023
B(  1-C , 18-H ) :   0.2664 B(  1-C , 19-H ) :   0.2953 B(  1-C , 26-O ) :  -0.1110
B(  1-C , 28-H ) :   0.1150 B(  2-C ,  3-C ) :   1.3304 B(  2-C ,  4-H ) :   0.1183
B(  2-C ,  5-H ) :   0.2105 B(  2-C , 20-C ) :   1.2694 B(  2-C , 21-H ) :   0.6370
B(  2-C , 22-H ) :   0.7501 B(  3-C ,  4-H ) :   0.8463 B(  3-C ,  5-H ) :   0.7816
B(  3-C ,  6-S ) :   1.0257 B(  3-C , 21-H ) :   0.1267 B(  3-C , 22-H ) :   0.1483
B(  6-S , 15-F ) :   0.6318 B(  6-S , 16-O ) :   1.4704 B(  6-S , 26-O ) :   1.3342
B(  7-C ,  8-N ) :   0.7548 B(  7-C ,  9-N ) :   0.8568 B(  7-C , 11-H ) :  -0.2047
B(  7-C , 12-H ) :   0.5153 B(  7-C , 13-H ) :  -0.1264 B(  7-C , 14-H ) :  -0.2716
B(  8-N ,  9-N ) :   0.1344 B(  8-N , 12-H ) :   0.1161 B(  8-N , 13-H ) :   1.1531
B(  8-N , 14-H ) :   1.4010 B(  9-N , 10-H ) :   1.0639 B(  9-N , 11-H ) :   1.3893
B( 10-H , 11-H ) :  -0.2228 B( 12-H , 23-C ) :   0.1198 B( 12-H , 26-O ) :   0.1242
B( 12-H , 27-H ) :   0.1113 B( 12-H , 28-H ) :  -0.1480 B( 13-H , 14-H ) :  -0.2160
B( 13-H , 26-O ) :   0.1476 B( 16-O , 26-O ) :   0.1680 B( 17-C , 19-H ) :   0.1038
B( 17-C , 23-C ) :   1.2461 B( 17-C , 24-H ) :   0.7092 B( 17-C , 25-H ) :   0.6537
B( 17-C , 27-H ) :   0.1120 B( 17-C , 28-H ) :   0.1055 B( 20-C , 21-H ) :   0.2861
B( 20-C , 22-H ) :   0.1083 B( 20-C , 23-C ) :   1.2143 B( 20-C , 27-H ) :   0.1152
B( 20-C , 28-H ) :   0.1793 B( 20-C , 29-H ) :   0.9182 B( 20-C , 30-H ) :   0.8190
B( 23-C , 24-H ) :   0.2617 B( 23-C , 25-H ) :   0.1644 B( 23-C , 27-H ) :   0.8789
B( 23-C , 28-H ) :   0.8640 B( 23-C , 29-H ) :   0.1171 B( 23-C , 30-H ) :   0.1673

Dispersion correction           -0.037812192
FINAL SINGLE POINT ENERGY     -1071.435254583048

DIPOLE MOMENT
-------------
                                X             Y             Z
Electronic contribution:      0.72374      -1.06542     -23.48989
Nuclear contribution   :      0.18720       2.58739      22.98820
                        -----------------------------------------
Total Dipole Moment    :      0.91094       1.52197      -0.50169
                        -----------------------------------------
Magnitude (a.u.)       :      1.84334
Magnitude (Debye)      :      4.68540

Rotational constants in cm-1:     0.028798     0.014448     0.010940
Rotational constants in MHz :   863.355869   433.126694   327.985023

                             ****ORCA TERMINATED NORMALLY****
TOTAL RUN TIME: 0 days 0 hours 0 minutes 42 seconds 941 msec
