                         Program Version 5.0.0 -  RELEASE  -
|  1> !PBE D3BJ RIJCOSX def2-SVPD def2/J TightSCF xyzfile
|  2>
|  3> *xyzfile 0 1 D3.xyz
|  4>
|  5> %MaxCore 64000
|  6>
|  7> %pal nprocs 4
|  8> end
|  9>
| 10> %scf
| 11>   MaxIter 150
| 12> end
| 13>
| 14>
| 15>                          ****END OF INPUT****

CARTESIAN COORDINATES (ANGSTROEM)
---------------------------------
  C      1.963365   -1.749150   -1.896887
  N      2.738490   -2.015170   -3.097113
  C      0.611877    1.657634   -4.500288
  C      1.694991    1.541794   -5.570447
  H      2.697326    1.734659   -5.183996
  H      1.506656    2.272239   -6.358076
  S      1.780287   -0.033128   -6.428739
  C      4.049736   -2.154717   -3.152044
  N      4.658206   -1.986293   -4.318655
  C      4.764231   -2.454435   -2.050491
  H      4.287363   -2.776259   -1.217496
  H      5.750825   -2.658351   -2.125988
  H      2.345176   -1.690274   -3.971447
  H      4.109004   -1.592677   -5.071760
  H      5.649095   -2.156462   -4.427237
  F      2.569287    0.213657   -7.607360
  O      0.416880   -0.462969   -6.618595
  C      2.088520   -0.300912   -1.415204
  H      2.231272   -2.451616   -1.102643
  H      0.930249   -1.977801   -2.155438
  C      0.680356    0.655418   -3.348038
  H     -0.356865    1.549231   -4.991128
  H      0.650228    2.675438   -4.096000
  C      1.968993    0.733582   -2.535654
  H      3.051356   -0.168602   -0.911868
  H      1.316501   -0.136231   -0.657252
  O      2.505129   -0.933263   -5.482570
  H      2.824195    0.624726   -3.208464
  H      2.058919    1.730331   -2.093112
  H      0.542252   -0.344731   -3.766662
  H     -0.174219    0.829692   -2.685182

 Total Charge           Charge          ....    0
 Multiplicity           Mult            ....    1
 Number of Electrons    NEL             ....  120
 Basis Dimension        Dim             ....  432

ORBITAL ENERGIES
----------------

  NO   OCC          E(Eh)            E(eV)
   0   2.0000     -88.338731     -2403.8191
   1   2.0000     -24.413718      -664.3310
   2   2.0000     -18.804392      -511.6935
   3   2.0000     -18.797026      -511.4931
   4   2.0000     -13.971510      -380.1841
   5   2.0000     -13.969950      -380.1417
   6   2.0000      -9.972801      -271.3737
   7   2.0000      -9.935590      -270.3611
   8   2.0000      -9.911963      -269.7182
   9   2.0000      -9.911578      -269.7078
  10   2.0000      -9.907665      -269.6013
  11   2.0000      -9.895847      -269.2797
  12   2.0000      -9.884294      -268.9653
  13   2.0000      -9.788846      -266.3680
  14   2.0000      -7.942707      -216.1321
  15   2.0000      -5.973939      -162.5591
  16   2.0000      -5.967903      -162.3949
  17   2.0000      -5.965698      -162.3349
  18   2.0000      -1.297222       -35.2992
  19   2.0000      -1.046134       -28.4668
  20   2.0000      -0.948540       -25.8111
  21   2.0000      -0.858360       -23.3572
  22   2.0000      -0.780052       -21.2263
  23   2.0000      -0.772560       -21.0224
  24   2.0000      -0.722436       -19.6585
  25   2.0000      -0.690242       -18.7824
  26   2.0000      -0.656600       -17.8670
  27   2.0000      -0.619487       -16.8571
  28   2.0000      -0.610162       -16.6033
  29   2.0000      -0.577001       -15.7010
  30   2.0000      -0.551873       -15.0172
  31   2.0000      -0.541875       -14.7452
  32   2.0000      -0.531451       -14.4615
  33   2.0000      -0.512527       -13.9466
  34   2.0000      -0.484253       -13.1772
  35   2.0000      -0.473352       -12.8806
  36   2.0000      -0.465497       -12.6668
  37   2.0000      -0.458015       -12.4632
  38   2.0000      -0.446024       -12.1369
  39   2.0000      -0.432326       -11.7642
  40   2.0000      -0.414537       -11.2801
  41   2.0000      -0.410296       -11.1647
  42   2.0000      -0.394920       -10.7463
  43   2.0000      -0.382649       -10.4124
  44   2.0000      -0.377624       -10.2757
  45   2.0000      -0.369096       -10.0436
  46   2.0000      -0.347688        -9.4611
  47   2.0000      -0.342957        -9.3323
  48   2.0000      -0.327054        -8.8996
  49   2.0000      -0.324309        -8.8249
  50   2.0000      -0.320202        -8.7131
  51   2.0000      -0.308947        -8.4069
  52   2.0000      -0.305766        -8.3203
  53   2.0000      -0.299468        -8.1489
  54   2.0000      -0.290391        -7.9020
  55   2.0000      -0.288927        -7.8621
  56   2.0000      -0.287773        -7.8307
  57   2.0000      -0.276389        -7.5209
  58   2.0000      -0.186120        -5.0646
  59   2.0000      -0.113131        -3.0785
  60   0.0000      -0.047340        -1.2882
  61   0.0000      -0.023544        -0.6407
  62   0.0000      -0.002624        -0.0714
  63   0.0000       0.002419         0.0658
  64   0.0000       0.007331         0.1995

MULLIKEN ATOMIC CHARGES
-----------------------
   0 C :    0.960758
   1 N :    0.121769
   2 C :    0.427372
   3 C :    0.076957
   4 H :    0.144469
   5 H :   -0.089169
   6 S :    1.513194
   7 C :    0.724472
   8 N :    0.415805
   9 C :    0.412859
  10 H :    0.020479
  11 H :   -0.684257
  12 H :   -0.824375
  13 H :   -0.317210
  14 H :   -0.267577
  15 F :   -0.415318
  16 O :   -0.641099
  17 C :    0.452380
  18 H :   -0.336089
  19 H :   -0.183984
  20 C :   -0.030019
  21 H :    0.012495
  22 H :   -0.040486
  23 C :   -0.016108
  24 H :   -0.104752
  25 H :   -0.039655
  26 O :   -0.813874
  27 H :    0.087136
  28 H :   -0.327409
  29 H :   -0.039004
  30 H :   -0.199761
Sum of atomic charges:    0.0000000

LOEWDIN ATOMIC CHARGES
----------------------
   0 C :    0.062764
   1 N :    0.020894
   2 C :   -0.021007
   3 C :   -0.050766
   4 H :    0.023110
   5 H :    0.020145
   6 S :    1.144098
   7 C :   -0.238242
   8 N :    0.217714
   9 C :    0.154488
  10 H :   -0.118718
  11 H :   -0.112005
  12 H :   -0.085348
  13 H :   -0.097079
  14 H :    0.004838
  15 F :   -0.222467
  16 O :   -0.409733
  17 C :   -0.011159
  18 H :    0.014605
  19 H :    0.016520
  20 C :   -0.023937
  21 H :    0.031075
  22 H :    0.041334
  23 C :   -0.030145
  24 H :    0.018679
  25 H :    0.020214
  26 O :   -0.450271
  27 H :    0.009724
  28 H :    0.025221
  29 H :    0.008785
  30 H :    0.036670

  Mayer bond orders larger than 0.100000
B(  0-C ,  1-N ) :   0.9489 B(  0-C , 12-H ) :  -0.3805 B(  0-C , 17-C ) :   1.0285
B(  0-C , 18-H ) :   0.8830 B(  0-C , 19-H ) :   0.6786 B(  0-C , 23-C ) :   0.1225
B(  0-C , 25-H ) :   0.1175 B(  1-N ,  7-C ) :   0.9008 B(  1-N ,  8-N ) :   0.1049
B(  1-N ,  9-C ) :   0.5347 B(  1-N , 12-H ) :   0.9526 B(  1-N , 13-H ) :   0.1191
B(  1-N , 19-H ) :   0.1653 B(  2-C ,  3-C ) :   1.3297 B(  2-C ,  4-H ) :   0.1133
B(  2-C ,  5-H ) :   0.2065 B(  2-C , 20-C ) :   1.2724 B(  2-C , 21-H ) :   0.6298
B(  2-C , 22-H ) :   0.7562 B(  3-C ,  4-H ) :   0.8486 B(  3-C ,  5-H ) :   0.7856
B(  3-C ,  6-S ) :   1.0182 B(  3-C , 21-H ) :   0.1264 B(  3-C , 22-H ) :   0.1483
B(  6-S , 15-F ) :   0.6396 B(  6-S , 16-O ) :   1.4819 B(  6-S , 26-O ) :   1.3187
B(  7-C ,  8-N ) :   0.8226 B(  7-C ,  9-C ) :   1.3774 B(  7-C , 10-H ) :   0.3293
B(  7-C , 11-H ) :   0.2759 B(  7-C , 12-H ) :  -0.3753 B(  7-C , 14-H ) :  -0.1989
B(  8-N ,  9-C ) :   0.2703 B(  8-N , 11-H ) :   0.1046 B(  8-N , 13-H ) :   1.0256
B(  8-N , 14-H ) :   1.3414 B(  9-C , 10-H ) :   0.5409 B(  9-C , 11-H ) :   0.7575
B(  9-C , 12-H ) :  -0.1392 B( 10-H , 18-H ) :   0.1620 B( 10-H , 19-H ) :  -0.1125
B( 12-H , 19-H ) :   0.1173 B( 12-H , 26-O ) :   0.1200 B( 12-H , 27-H ) :   0.1321
B( 12-H , 28-H ) :  -0.1246 B( 13-H , 14-H ) :  -0.2106 B( 13-H , 26-O ) :   0.2471
B( 16-O , 26-O ) :   0.1686 B( 17-C , 18-H ) :   0.1075 B( 17-C , 19-H ) :   0.1071
B( 17-C , 23-C ) :   1.2668 B( 17-C , 24-H ) :   0.7665 B( 17-C , 25-H ) :   0.8029
B( 17-C , 27-H ) :   0.1099 B( 18-H , 19-H ) :  -0.1999 B( 20-C , 21-H ) :   0.2856
B( 20-C , 22-H ) :   0.1059 B( 20-C , 23-C ) :   1.2030 B( 20-C , 27-H ) :   0.1115
B( 20-C , 28-H ) :   0.1737 B( 20-C , 29-H ) :   0.9333 B( 20-C , 30-H ) :   0.8220
B( 23-C , 24-H ) :   0.2348 B( 23-C , 25-H ) :   0.1400 B( 23-C , 27-H ) :   0.8278
B( 23-C , 28-H ) :   0.8822 B( 23-C , 30-H ) :   0.1463

Dispersion correction           -0.037580982
FINAL SINGLE POINT ENERGY     -1071.440671643340

DIPOLE MOMENT
-------------
                                X             Y             Z
Electronic contribution:     -1.12506      -0.28846     -24.48297
Nuclear contribution   :      0.44707       2.53104      23.12246
                        -----------------------------------------
Total Dipole Moment    :     -0.67800       2.24259      -1.36050
                        -----------------------------------------
Magnitude (a.u.)       :      2.70922
Magnitude (Debye)      :      6.88628

Rotational constants in cm-1:     0.028906     0.014696     0.011110
Rotational constants in MHz :   866.591909   440.585554   333.081943

                             ****ORCA TERMINATED NORMALLY****
TOTAL RUN TIME: 0 days 0 hours 0 minutes 47 seconds 178 msec
