                         Program Version 5.0.0 -  RELEASE  -
|  1> !PBE D3BJ RIJCOSX def2-SVPD def2/J TightSCF xyzfile
|  2>
|  3> *xyzfile 0 1 D5.xyz
|  4>
|  5> %MaxCore 64000
|  6>
|  7> %pal nprocs 4
|  8> end
|  9>
| 10> %scf
| 11>   MaxIter 150
| 12> end
| 13>
| 14>
| 15>                          ****END OF INPUT****

CARTESIAN COORDINATES (ANGSTROEM)
---------------------------------
  C      1.963365   -1.749150   -1.896887
  N      2.738490   -2.015170   -3.097113
  C      0.611877    1.657634   -4.500288
  C      1.694991    1.541794   -5.570447
  H      2.697326    1.734659   -5.183996
  H      1.506656    2.272239   -6.358076
  S      1.780287   -0.033128   -6.428739
  C      4.049736   -2.154717   -3.152044
  C      4.658206   -1.986293   -4.318655
  N      4.764231   -2.454435   -2.050491
  H      4.287363   -2.776259   -1.217496
  H      5.750825   -2.658351   -2.125988
  H      2.345176   -1.690274   -3.971447
  H      4.109004   -1.592677   -5.071760
  H      5.649095   -2.156462   -4.427237
  O      2.569287    0.213657   -7.607360
  F      0.416880   -0.462969   -6.618595
  C      2.088520   -0.300912   -1.415204
  H      2.231272   -2.451616   -1.102643
  H      0.930249   -1.977801   -2.155438
  C      0.680356    0.655418   -3.348038
  H     -0.356865    1.549231   -4.991128
  H      0.650228    2.675438   -4.096000
  C      1.968993    0.733582   -2.535654
  H      3.051356   -0.168602   -0.911868
  H      1.316501   -0.136231   -0.657252
  O      2.505129   -0.933263   -5.482570
  H      2.824195    0.624726   -3.208464
  H      2.058919    1.730331   -2.093112
  H      0.542252   -0.344731   -3.766662
  H     -0.174219    0.829692   -2.685182

 Total Charge           Charge          ....    0
 Multiplicity           Mult            ....    1
 Number of Electrons    NEL             ....  120
 Basis Dimension        Dim             ....  432

ORBITAL ENERGIES
----------------

  NO   OCC          E(Eh)            E(eV)
   0   2.0000     -88.321814     -2403.3588
   1   2.0000     -24.398914      -663.9282
   2   2.0000     -18.789058      -511.2762
   3   2.0000     -18.776902      -510.9455
   4   2.0000     -13.983532      -380.5113
   5   2.0000     -13.970268      -380.1503
   6   2.0000      -9.961354      -271.0622
   7   2.0000      -9.933308      -270.2991
   8   2.0000      -9.921069      -269.9660
   9   2.0000      -9.912152      -269.7234
  10   2.0000      -9.910924      -269.6900
  11   2.0000      -9.899042      -269.3666
  12   2.0000      -9.892389      -269.1856
  13   2.0000      -9.781245      -266.1612
  14   2.0000      -7.925807      -215.6722
  15   2.0000      -5.957276      -162.1057
  16   2.0000      -5.950658      -161.9256
  17   2.0000      -5.948906      -161.8780
  18   2.0000      -1.281271       -34.8651
  19   2.0000      -1.030440       -28.0397
  20   2.0000      -0.930209       -25.3123
  21   2.0000      -0.858095       -23.3500
  22   2.0000      -0.782092       -21.2818
  23   2.0000      -0.769655       -20.9434
  24   2.0000      -0.719837       -19.5878
  25   2.0000      -0.687194       -18.6995
  26   2.0000      -0.657204       -17.8834
  27   2.0000      -0.631243       -17.1770
  28   2.0000      -0.593644       -16.1539
  29   2.0000      -0.566701       -15.4207
  30   2.0000      -0.543955       -14.8018
  31   2.0000      -0.541154       -14.7256
  32   2.0000      -0.528575       -14.3833
  33   2.0000      -0.510975       -13.9043
  34   2.0000      -0.493895       -13.4396
  35   2.0000      -0.466534       -12.6950
  36   2.0000      -0.453186       -12.3318
  37   2.0000      -0.446471       -12.1491
  38   2.0000      -0.431549       -11.7430
  39   2.0000      -0.427073       -11.6212
  40   2.0000      -0.420742       -11.4490
  41   2.0000      -0.412687       -11.2298
  42   2.0000      -0.398450       -10.8424
  43   2.0000      -0.387078       -10.5329
  44   2.0000      -0.378907       -10.3106
  45   2.0000      -0.353971        -9.6321
  46   2.0000      -0.351373        -9.5613
  47   2.0000      -0.345572        -9.4035
  48   2.0000      -0.335700        -9.1349
  49   2.0000      -0.320458        -8.7201
  50   2.0000      -0.317969        -8.6524
  51   2.0000      -0.308511        -8.3950
  52   2.0000      -0.298266        -8.1162
  53   2.0000      -0.292641        -7.9632
  54   2.0000      -0.289993        -7.8911
  55   2.0000      -0.286191        -7.7877
  56   2.0000      -0.278787        -7.5862
  57   2.0000      -0.266427        -7.2498
  58   2.0000      -0.193819        -5.2741
  59   2.0000      -0.111691        -3.0393
  60   0.0000      -0.038985        -1.0608
  61   0.0000      -0.008361        -0.2275
  62   0.0000      -0.000778        -0.0212
  63   0.0000       0.003426         0.0932
  64   0.0000       0.009928         0.2702

MULLIKEN ATOMIC CHARGES
-----------------------
   0 C :    1.005304
   1 N :   -0.012562
   2 C :    0.462450
   3 C :    0.104442
   4 H :    0.106439
   5 H :   -0.089801
   6 S :    1.408348
   7 C :    0.715102
   8 C :    0.618485
   9 N :    0.183972
  10 H :   -0.087714
  11 H :   -0.230913
  12 H :   -0.595733
  13 H :   -0.218055
  14 H :   -0.663593
  15 O :   -0.608480
  16 F :   -0.416909
  17 C :    0.394950
  18 H :   -0.441277
  19 H :   -0.180055
  20 C :    0.008836
  21 H :   -0.006068
  22 H :   -0.047571
  23 C :   -0.028600
  24 H :   -0.029757
  25 H :   -0.096790
  26 O :   -0.814382
  27 H :    0.136813
  28 H :   -0.348133
  29 H :   -0.032049
  30 H :   -0.196699
Sum of atomic charges:   -0.0000000

LOEWDIN ATOMIC CHARGES
----------------------
   0 C :    0.052487
   1 N :    0.018999
   2 C :   -0.037549
   3 C :   -0.040172
   4 H :    0.035193
   5 H :    0.022214
   6 S :    1.136271
   7 C :   -0.234771
   8 C :    0.172712
   9 N :    0.207836
  10 H :   -0.031981
  11 H :   -0.002348
  12 H :   -0.080823
  13 H :   -0.158117
  14 H :   -0.098060
  15 O :   -0.410619
  16 F :   -0.227426
  17 C :   -0.017142
  18 H :    0.006121
  19 H :    0.014523
  20 C :   -0.030308
  21 H :    0.024920
  22 H :    0.037460
  23 C :   -0.025438
  24 H :    0.018640
  25 H :    0.017038
  26 O :   -0.447565
  27 H :    0.013417
  28 H :    0.026515
  29 H :    0.003482
  30 H :    0.034490

  Mayer bond orders larger than 0.100000
B(  0-C ,  1-N ) :   0.9122 B(  0-C , 12-H ) :  -0.3475 B(  0-C , 17-C ) :   1.0576
B(  0-C , 18-H ) :   0.8609 B(  0-C , 19-H ) :   0.6045 B(  0-C , 23-C ) :   0.1314
B(  0-C , 25-H ) :   0.1342 B(  1-N ,  7-C ) :   1.0405 B(  1-N ,  8-C ) :   0.2608
B(  1-N ,  9-N ) :   0.2685 B(  1-N , 12-H ) :   1.1001 B(  1-N , 18-H ) :   0.1099
B(  1-N , 19-H ) :   0.1542 B(  2-C ,  3-C ) :   1.2830 B(  2-C ,  4-H ) :   0.1058
B(  2-C ,  5-H ) :   0.1838 B(  2-C , 20-C ) :   1.2782 B(  2-C , 21-H ) :   0.6230
B(  2-C , 22-H ) :   0.7530 B(  3-C ,  4-H ) :   0.8676 B(  3-C ,  5-H ) :   0.8439
B(  3-C ,  6-S ) :   1.0337 B(  3-C , 21-H ) :   0.1233 B(  3-C , 22-H ) :   0.1507
B(  6-S , 15-O ) :   1.5855 B(  6-S , 16-F ) :   0.5868 B(  6-S , 26-O ) :   1.3839
B(  7-C ,  8-C ) :   1.2624 B(  7-C ,  9-N ) :   0.9226 B(  7-C , 11-H ) :  -0.1350
B(  7-C , 12-H ) :  -0.3707 B(  7-C , 13-H ) :   0.1264 B(  7-C , 14-H ) :   0.2546
B(  8-C ,  9-N ) :   0.3020 B(  8-C , 13-H ) :   0.5765 B(  8-C , 14-H ) :   0.7017
B(  9-N , 10-H ) :   0.9644 B(  9-N , 11-H ) :   1.2830 B(  9-N , 18-H ) :   0.1099
B( 10-H , 11-H ) :  -0.2151 B( 12-H , 13-H ) :  -0.1023 B( 12-H , 19-H ) :   0.1938
B( 12-H , 24-H ) :   0.1514 B( 12-H , 27-H ) :   0.1193 B( 12-H , 28-H ) :  -0.1210
B( 13-H , 14-H ) :  -0.1983 B( 13-H , 26-O ) :   0.2550 B( 16-F , 26-O ) :   0.1597
B( 17-C , 18-H ) :   0.1424 B( 17-C , 19-H ) :   0.1162 B( 17-C , 23-C ) :   1.2716
B( 17-C , 24-H ) :   0.7297 B( 17-C , 25-H ) :   0.8609 B( 18-H , 19-H ) :  -0.1526
B( 20-C , 21-H ) :   0.2836 B( 20-C , 22-H ) :   0.1041 B( 20-C , 23-C ) :   1.2056
B( 20-C , 27-H ) :   0.1093 B( 20-C , 28-H ) :   0.1474 B( 20-C , 29-H ) :   0.9133
B( 20-C , 30-H ) :   0.8274 B( 21-H , 22-H ) :  -0.1050 B( 23-C , 24-H ) :   0.2203
B( 23-C , 25-H ) :   0.1382 B( 23-C , 27-H ) :   0.8319 B( 23-C , 28-H ) :   0.9127
B( 23-C , 29-H ) :   0.1100 B( 23-C , 30-H ) :   0.1418

Dispersion correction           -0.037522203
FINAL SINGLE POINT ENERGY     -1071.428601981157

DIPOLE MOMENT
-------------
                                X             Y             Z
Electronic contribution:     -4.54322      -2.03747     -20.73383
Nuclear contribution   :      2.89225       3.36404      21.70199
                        -----------------------------------------
Total Dipole Moment    :     -1.65097       1.32657       0.96816
                        -----------------------------------------
Magnitude (a.u.)       :      2.32870
Magnitude (Debye)      :      5.91908

Rotational constants in cm-1:     0.029431     0.014408     0.011084
Rotational constants in MHz :   882.306106   431.946714   332.288152

                             ****ORCA TERMINATED NORMALLY****
TOTAL RUN TIME: 0 days 0 hours 0 minutes 46 seconds 457 msec
