                         Program Version 5.0.0 -  RELEASE  -
|  1> !wB97X-D3 def2-SVPD TightSCF RIJCOSX def2/J CPCM(Water)
|  2> * xyz -1 1
|  3> C         -1.64100       -2.93200        1.96300
|  4> C         -1.84700       -4.31900        1.34200
|  5> O         -1.14400       -5.24800        1.74200
|  6> N         -2.75300       -4.48100        0.36000
|  7> C         -3.02400       -5.79100       -0.26900
|  8> C         -1.79600       -6.42700       -0.93700
|  9> O         -1.71900       -7.64800       -1.03000
| 10> C         -4.22400       -5.69700       -1.23200
| 11> H         -3.32100       -3.67500        0.09700
| 12> H         -3.30900       -6.47800        0.52900
| 13> N         -0.82800       -5.60700       -1.35500
| 14> C          0.46600       -6.01600       -1.90500
| 15> C          1.48100       -6.46400       -0.83200
| 16> O          2.54500       -6.97100       -1.19400
| 17> C          1.03300       -4.83900       -2.72400
| 18> C          0.67200       -4.90600       -4.21000
| 19> O         -0.53200       -5.05100       -4.52200
| 20> O          1.62700       -4.81500       -5.01700
| 21> H         -1.01000       -4.61600       -1.29100
| 22> H          0.31900       -6.86700       -2.57400
| 23> H          0.64400       -3.92400       -2.32000
| 24> H          2.11600       -4.83700       -2.65000
| 25> N          1.18500       -6.27800        0.46400
| 26> C          2.06000       -6.61800        1.59300
| 27> H          0.26500       -5.90800        0.69300
| 28> H          2.99083       -6.99358        1.22233
| 29> H          1.58897       -7.36524        2.19688
| 30> H          2.23785       -5.74295        2.18254
| 31> H         -3.98630       -5.02976       -2.03399
| 32> H         -5.07797       -5.32871       -0.70284
| 33> H         -4.44069       -6.66727       -1.62761
| 34> H         -2.31988       -2.23646        1.51551
| 35> H         -0.63528       -2.60988        1.79073
| 36> H         -1.82410       -2.98192        3.01603
| 37> *
| 38> %MaxCore 64000
| 39> %pal nprocs 8
| 40> end
| 41> %scf
| 42>   Convergence VeryTight
| 43>   MaxIter 150
| 44> end
| 45>
| 46>                          ****END OF INPUT****

CARTESIAN COORDINATES (ANGSTROEM)
---------------------------------
  C     -1.641000   -2.932000    1.963000
  C     -1.847000   -4.319000    1.342000
  O     -1.144000   -5.248000    1.742000
  N     -2.753000   -4.481000    0.360000
  C     -3.024000   -5.791000   -0.269000
  C     -1.796000   -6.427000   -0.937000
  O     -1.719000   -7.648000   -1.030000
  C     -4.224000   -5.697000   -1.232000
  H     -3.321000   -3.675000    0.097000
  H     -3.309000   -6.478000    0.529000
  N     -0.828000   -5.607000   -1.355000
  C      0.466000   -6.016000   -1.905000
  C      1.481000   -6.464000   -0.832000
  O      2.545000   -6.971000   -1.194000
  C      1.033000   -4.839000   -2.724000
  C      0.672000   -4.906000   -4.210000
  O     -0.532000   -5.051000   -4.522000
  O      1.627000   -4.815000   -5.017000
  H     -1.010000   -4.616000   -1.291000
  H      0.319000   -6.867000   -2.574000
  H      0.644000   -3.924000   -2.320000
  H      2.116000   -4.837000   -2.650000
  N      1.185000   -6.278000    0.464000
  C      2.060000   -6.618000    1.593000
  H      0.265000   -5.908000    0.693000
  H      2.990830   -6.993580    1.222330
  H      1.588970   -7.365240    2.196880
  H      2.237850   -5.742950    2.182540
  H     -3.986300   -5.029760   -2.033990
  H     -5.077970   -5.328710   -0.702840
  H     -4.440690   -6.667270   -1.627610
  H     -2.319880   -2.236460    1.515510
  H     -0.635280   -2.609880    1.790730
  H     -1.824100   -2.981920    3.016030

 Total Charge           Charge          ....   -1
 Multiplicity           Mult            ....    1
 Number of Electrons    NEL             ....  138
 Basis Dimension        Dim             ....  503

ORBITAL ENERGIES
----------------

  NO   OCC          E(Eh)            E(eV)
   0   2.0000     -19.227628      -523.2103
   1   2.0000     -19.225428      -523.1505
   2   2.0000     -19.214138      -522.8433
   3   2.0000     -19.182800      -521.9905
   4   2.0000     -19.182661      -521.9867
   5   2.0000     -14.479276      -394.0011
   6   2.0000     -14.470456      -393.7611
   7   2.0000     -14.456592      -393.3839
   8   2.0000     -10.412095      -283.3275
   9   2.0000     -10.406291      -283.1696
  10   2.0000     -10.397589      -282.9328
  11   2.0000     -10.373835      -282.2864
  12   2.0000     -10.351246      -281.6717
  13   2.0000     -10.347843      -281.5791
  14   2.0000     -10.311117      -280.5798
  15   2.0000     -10.288891      -279.9749
  16   2.0000     -10.288406      -279.9618
  17   2.0000     -10.285712      -279.8885
  18   2.0000      -1.166261       -31.7356
  19   2.0000      -1.156511       -31.4703
  20   2.0000      -1.145682       -31.1756
  21   2.0000      -1.131231       -30.7824
  22   2.0000      -1.053384       -28.6640
  23   2.0000      -1.041237       -28.3335
  24   2.0000      -1.034873       -28.1603
  25   2.0000      -1.019337       -27.7376
  26   2.0000      -0.907450       -24.6930
  27   2.0000      -0.883516       -24.0417
  28   2.0000      -0.842208       -22.9176
  29   2.0000      -0.824846       -22.4452
  30   2.0000      -0.781189       -21.2572
  31   2.0000      -0.753052       -20.4916
  32   2.0000      -0.711337       -19.3565
  33   2.0000      -0.701156       -19.0794
  34   2.0000      -0.682205       -18.5637
  35   2.0000      -0.653898       -17.7935
  36   2.0000      -0.629403       -17.1269
  37   2.0000      -0.611215       -16.6320
  38   2.0000      -0.599564       -16.3150
  39   2.0000      -0.592252       -16.1160
  40   2.0000      -0.579580       -15.7712
  41   2.0000      -0.558745       -15.2042
  42   2.0000      -0.555020       -15.1029
  43   2.0000      -0.552870       -15.0444
  44   2.0000      -0.544490       -14.8163
  45   2.0000      -0.536145       -14.5893
  46   2.0000      -0.529495       -14.4083
  47   2.0000      -0.526266       -14.3204
  48   2.0000      -0.521585       -14.1930
  49   2.0000      -0.513732       -13.9794
  50   2.0000      -0.509473       -13.8635
  51   2.0000      -0.498438       -13.5632
  52   2.0000      -0.490301       -13.3418
  53   2.0000      -0.487471       -13.2648
  54   2.0000      -0.486561       -13.2400
  55   2.0000      -0.480757       -13.0821
  56   2.0000      -0.470965       -12.8156
  57   2.0000      -0.467264       -12.7149
  58   2.0000      -0.451693       -12.2912
  59   2.0000      -0.443264       -12.0618
  60   2.0000      -0.391125       -10.6430
  61   2.0000      -0.387648       -10.5484
  62   2.0000      -0.371484       -10.1086
  63   2.0000      -0.360209        -9.8018
  64   2.0000      -0.353417        -9.6170
  65   2.0000      -0.350596        -9.5402
  66   2.0000      -0.348378        -9.4798
  67   2.0000      -0.331440        -9.0189
  68   2.0000      -0.328347        -8.9348
  69   0.0000       0.077747         2.1156
  70   0.0000       0.083085         2.2609
  71   0.0000       0.087591         2.3835
  72   0.0000       0.092689         2.5222
  73   0.0000       0.100275         2.7286

MULLIKEN ATOMIC CHARGES
-----------------------
   0 C :    0.626038
   1 C :   -0.046326
   2 O :   -0.560079
   3 N :   -0.471699
   4 C :   -0.386289
   5 C :    0.533583
   6 O :   -0.623408
   7 C :    0.980666
   8 H :   -0.043308
   9 H :   -0.097568
  10 N :   -0.569317
  11 C :    0.208880
  12 C :    0.526704
  13 O :   -0.599544
  14 C :    0.346062
  15 C :    0.584831
  16 O :   -0.736701
  17 O :   -0.713280
  18 H :    0.106260
  19 H :   -0.140857
  20 H :   -0.081996
  21 H :   -0.048245
  22 N :   -0.076738
  23 C :    1.283222
  24 H :   -0.720511
  25 H :   -0.214376
  26 H :   -0.080530
  27 H :   -0.089975
  28 H :   -0.017599
  29 H :    0.037129
  30 H :    0.052057
  31 H :   -0.018550
  32 H :    0.037350
  33 H :    0.014111
Sum of atomic charges:   -1.0000000

LOEWDIN ATOMIC CHARGES
----------------------
   0 C :    0.214491
   1 C :   -0.114193
   2 O :   -0.235101
   3 N :    0.067492
   4 C :   -0.051381
   5 C :   -0.099562
   6 O :   -0.232455
   7 C :    0.191848
   8 H :    0.065673
   9 H :    0.059763
  10 N :    0.071189
  11 C :    0.005030
  12 C :   -0.088809
  13 O :   -0.261654
  14 C :    0.085321
  15 C :   -0.307837
  16 O :   -0.345097
  17 O :   -0.349632
  18 H :    0.042158
  19 H :    0.061117
  20 H :    0.026111
  21 H :    0.015032
  22 N :    0.027214
  23 C :    0.247903
  24 H :   -0.065011
  25 H :   -0.019435
  26 H :   -0.003019
  27 H :   -0.003978
  28 H :   -0.002126
  29 H :   -0.000645
  30 H :   -0.000453
  31 H :   -0.011647
  32 H :    0.006561
  33 H :    0.005132

  Mayer bond orders larger than 0.100000
B(  0-C ,  1-C ) :   1.3308 B(  0-C , 31-H ) :   0.8509 B(  0-C , 32-H ) :   0.7441
B(  0-C , 33-H ) :   0.6674 B(  1-C ,  2-O ) :   1.5089 B(  1-C ,  3-N ) :   1.0592
B(  1-C ,  8-H ) :  -0.2325 B(  1-C , 31-H ) :   0.1911 B(  1-C , 32-H ) :   0.2388
B(  1-C , 33-H ) :   0.3304 B(  2-O ,  3-N ) :   0.1475 B(  2-O , 24-H ) :   0.1415
B(  3-N ,  4-C ) :   0.7100 B(  3-N ,  5-C ) :   0.1255 B(  3-N ,  8-H ) :   1.2756
B(  3-N ,  9-H ) :   0.1637 B(  3-N , 18-H ) :  -0.1069 B(  4-C ,  5-C ) :   1.0019
B(  4-C ,  7-C ) :   1.2644 B(  4-C ,  8-H ) :  -0.1606 B(  4-C ,  9-H ) :   0.8741
B(  4-C , 10-N ) :   0.1612 B(  4-C , 28-H ) :   0.2601 B(  4-C , 29-H ) :   0.2791
B(  4-C , 30-H ) :   0.3492 B(  5-C ,  6-O ) :   1.4638 B(  5-C ,  9-H ) :   0.2933
B(  5-C , 10-N ) :   1.2859 B(  5-C , 18-H ) :  -0.2042 B(  6-O , 10-N ) :   0.1251
B(  7-C ,  9-H ) :   0.1157 B(  7-C , 28-H ) :   0.7649 B(  7-C , 29-H ) :   0.7025
B(  7-C , 30-H ) :   0.6317 B( 10-N , 11-C ) :   0.7972 B( 10-N , 14-C ) :   0.1357
B( 10-N , 18-H ) :   1.1091 B( 10-N , 19-H ) :   0.1980 B( 11-C , 12-C ) :   0.9063
B( 11-C , 14-C ) :   1.0732 B( 11-C , 18-H ) :  -0.1877 B( 11-C , 19-H ) :   0.7845
B( 11-C , 20-H ) :   0.2566 B( 11-C , 21-H ) :   0.1412 B( 12-C , 13-O ) :   1.6376
B( 12-C , 19-H ) :   0.1017 B( 12-C , 22-N ) :   1.3677 B( 12-C , 24-H ) :  -0.4100
B( 13-O , 22-N ) :   0.2109 B( 14-C , 15-C ) :   0.9251 B( 14-C , 20-H ) :   0.7152
B( 14-C , 21-H ) :   0.9256 B( 15-C , 16-O ) :   1.4907 B( 15-C , 17-O ) :   1.4823
B( 16-O , 17-O ) :   0.1662 B( 22-N , 23-C ) :   0.9996 B( 22-N , 24-H ) :   1.0691
B( 22-N , 25-H ) :   0.2110 B( 22-N , 26-H ) :   0.2293 B( 22-N , 27-H ) :   0.2289
B( 23-C , 24-H ) :  -0.3611 B( 23-C , 25-H ) :   0.8229 B( 23-C , 26-H ) :   0.7604
B( 23-C , 27-H ) :   0.7459

Dispersion correction           -0.017369016
FINAL SINGLE POINT ENERGY      -930.482870085400

DIPOLE MOMENT
-------------
                                X             Y             Z
Electronic contribution:      3.02362      -3.90473      -6.74413
Nuclear contribution   :     -7.83521       7.17635      14.76166
                        -----------------------------------------
Total Dipole Moment    :     -4.81159       3.27162       8.01752
                        -----------------------------------------
Magnitude (a.u.)       :      9.90634
Magnitude (Debye)      :     25.17991

Rotational constants in cm-1:     0.015612     0.010301     0.007960
Rotational constants in MHz :   468.047481   308.814256   238.644501

                             ****ORCA TERMINATED NORMALLY****
TOTAL RUN TIME: 0 days 0 hours 4 minutes 15 seconds 961 msec
