                         Program Version 5.0.0 -  RELEASE  -
|  1> !wB97X-D3 def2-SVPD TightSCF RIJCOSX def2/J CPCM(Water)
|  2> * xyz 1 1
|  3> C          6.11000       -0.24300       -2.99400
|  4> C          5.04600       -1.17100       -2.37800
|  5> C          3.92300       -1.59200       -3.33800
|  6> N          4.25100       -2.81100       -4.10000
|  7> C          4.85900       -2.91400       -5.27400
|  8> N          5.28900       -1.86400       -5.93700
|  9> N          5.03500       -4.09500       -5.80900
| 10> H          5.53800       -2.05900       -2.03100
| 11> H          4.57900       -0.65200       -1.54900
| 12> H          3.03300       -1.77400       -2.76600
| 13> H          3.66900       -0.76500       -4.00300
| 14> H          3.96300       -3.69400       -3.69800
| 15> H          5.15000       -0.96200       -5.52100
| 16> H          5.76100       -1.96200       -6.81500
| 17> H          4.64900       -4.89400       -5.32700
| 18> H          5.50800       -4.20500       -6.68400
| 19> H          6.58307       -0.73884       -3.81574
| 20> H          6.84347       -0.00050       -2.25365
| 21> H          5.64256        0.65496       -3.34051
| 22> *
| 23> %MaxCore 64000
| 24> %pal nprocs 8
| 25> end
| 26> %scf
| 27>   Convergence VeryTight
| 28>   MaxIter 150
| 29> end
| 30>
| 31>                          ****END OF INPUT****

CARTESIAN COORDINATES (ANGSTROEM)
---------------------------------
  C      6.110000   -0.243000   -2.994000
  C      5.046000   -1.171000   -2.378000
  C      3.923000   -1.592000   -3.338000
  N      4.251000   -2.811000   -4.100000
  C      4.859000   -2.914000   -5.274000
  N      5.289000   -1.864000   -5.937000
  N      5.035000   -4.095000   -5.809000
  H      5.538000   -2.059000   -2.031000
  H      4.579000   -0.652000   -1.549000
  H      3.033000   -1.774000   -2.766000
  H      3.669000   -0.765000   -4.003000
  H      3.963000   -3.694000   -3.698000
  H      5.150000   -0.962000   -5.521000
  H      5.761000   -1.962000   -6.815000
  H      4.649000   -4.894000   -5.327000
  H      5.508000   -4.205000   -6.684000
  H      6.583070   -0.738840   -3.815740
  H      6.843470   -0.000500   -2.253650
  H      5.642560    0.654960   -3.340510

 Total Charge           Charge          ....    1
 Multiplicity           Mult            ....    1
 Number of Electrons    NEL             ....   56
 Basis Dimension        Dim             ....  236

ORBITAL ENERGIES
----------------

  NO   OCC          E(Eh)            E(eV)
   0   2.0000     -14.489077      -394.2678
   1   2.0000     -14.481983      -394.0748
   2   2.0000     -14.479754      -394.0141
   3   2.0000     -10.450543      -284.3737
   4   2.0000     -10.338758      -281.3319
   5   2.0000     -10.288216      -279.9566
   6   2.0000     -10.273724      -279.5622
   7   2.0000      -1.159967       -31.5643
   8   2.0000      -1.042629       -28.3714
   9   2.0000      -1.028948       -27.9991
  10   2.0000      -0.902511       -24.5586
  11   2.0000      -0.822256       -22.3747
  12   2.0000      -0.761165       -20.7124
  13   2.0000      -0.723001       -19.6739
  14   2.0000      -0.715011       -19.4564
  15   2.0000      -0.680677       -18.5222
  16   2.0000      -0.621823       -16.9207
  17   2.0000      -0.608706       -16.5637
  18   2.0000      -0.601968       -16.3804
  19   2.0000      -0.577328       -15.7099
  20   2.0000      -0.544864       -14.8265
  21   2.0000      -0.532147       -14.4804
  22   2.0000      -0.510600       -13.8941
  23   2.0000      -0.464654       -12.6439
  24   2.0000      -0.444066       -12.0836
  25   2.0000      -0.435661       -11.8549
  26   2.0000      -0.396796       -10.7974
  27   2.0000      -0.372300       -10.1308
  28   0.0000       0.086284         2.3479
  29   0.0000       0.093671         2.5489
  30   0.0000       0.113258         3.0819
  31   0.0000       0.118592         3.2270
  32   0.0000       0.127123         3.4592

MULLIKEN ATOMIC CHARGES
-----------------------
   0 C :    0.644137
   1 C :   -0.186118
   2 C :    0.693592
   3 N :   -0.617593
   4 C :    1.525646
   5 N :   -0.141067
   6 N :   -0.141666
   7 H :   -0.135632
   8 H :   -0.044922
   9 H :   -0.260155
  10 H :    0.009769
  11 H :   -0.084189
  12 H :   -0.022599
  13 H :   -0.088945
  14 H :    0.038436
  15 H :   -0.031011
  16 H :   -0.126439
  17 H :   -0.081953
  18 H :    0.050709
Sum of atomic charges:    1.0000000

LOEWDIN ATOMIC CHARGES
----------------------
   0 C :    0.124412
   1 C :   -0.042195
   2 C :    0.098693
   3 N :    0.053771
   4 C :   -0.042675
   5 N :    0.287209
   6 N :    0.265627
   7 H :    0.013327
   8 H :    0.021391
   9 H :    0.027379
  10 H :    0.033314
  11 H :    0.067174
  12 H :    0.006700
  13 H :    0.049764
  14 H :    0.049044
  15 H :    0.045417
  16 H :   -0.032836
  17 H :   -0.014601
  18 H :   -0.010915

  Mayer bond orders larger than 0.100000
B(  0-C ,  1-C ) :   1.2346 B(  0-C , 16-H ) :   0.8716 B(  0-C , 17-H ) :   0.8281
B(  0-C , 18-H ) :   0.7860 B(  1-C ,  2-C ) :   1.0959 B(  1-C ,  7-H ) :   0.9231
B(  1-C ,  8-H ) :   0.9646 B(  1-C , 10-H ) :   0.1102 B(  1-C , 16-H ) :   0.1661
B(  1-C , 17-H ) :   0.1884 B(  1-C , 18-H ) :   0.1758 B(  2-C ,  3-N ) :   0.8711
B(  2-C ,  7-H ) :   0.1687 B(  2-C ,  9-H ) :   0.9619 B(  2-C , 10-H ) :   0.8094
B(  2-C , 11-H ) :  -0.1284 B(  3-N ,  4-C ) :   0.8625 B(  3-N ,  5-N ) :   0.3027
B(  3-N ,  6-N ) :   0.2726 B(  3-N ,  9-H ) :   0.1266 B(  3-N , 10-H ) :   0.1463
B(  3-N , 11-H ) :   1.3054 B(  4-C ,  5-N ) :   0.8168 B(  4-C ,  6-N ) :   0.8191
B(  4-C , 11-H ) :  -0.2197 B(  4-C , 12-H ) :  -0.1162 B(  4-C , 13-H ) :  -0.2428
B(  4-C , 14-H ) :  -0.1311 B(  4-C , 15-H ) :  -0.1537 B(  5-N ,  6-N ) :   0.2018
B(  5-N , 12-H ) :   1.0629 B(  5-N , 13-H ) :   1.4085 B(  6-N , 14-H ) :   1.1514
B(  6-N , 15-H ) :   1.2632 B( 12-H , 13-H ) :  -0.2410 B( 14-H , 15-H ) :  -0.1866

Dispersion correction           -0.005456646
FINAL SINGLE POINT ENERGY      -323.509506618148

DIPOLE MOMENT
-------------
                                X             Y             Z
Electronic contribution:     -1.73827      -5.37110      -5.00284
Nuclear contribution   :      1.49686       3.94787       3.41394
                        -----------------------------------------
Total Dipole Moment    :     -0.24141      -1.42324      -1.58889
                        -----------------------------------------
Magnitude (a.u.)       :      2.14673
Magnitude (Debye)      :      5.45656

Rotational constants in cm-1:     0.156389     0.052033     0.044335
Rotational constants in MHz :  4688.409459  1559.902233  1329.116566

                             ****ORCA TERMINATED NORMALLY****
TOTAL RUN TIME: 0 days 0 hours 0 minutes 39 seconds 114 msec
