                         Program Version 5.0.0 -  RELEASE  -
|  1> !wB97X-D3 def2-SVPD TightSCF RIJCOSX def2/J CPCM(Water)
|  2> * xyz 0 1
|  3> C         -1.64100       -2.93200        1.96300
|  4> C         -1.84700       -4.31900        1.34200
|  5> O         -1.14400       -5.24800        1.74200
|  6> N         -2.75300       -4.48100        0.36000
|  7> C         -3.02400       -5.79100       -0.26900
|  8> C         -1.79600       -6.42700       -0.93700
|  9> O         -1.71900       -7.64800       -1.03000
| 10> C         -4.22400       -5.69700       -1.23200
| 11> H         -3.32100       -3.67500        0.09700
| 12> H         -3.30900       -6.47800        0.52900
| 13> N         -0.82800       -5.60700       -1.35500
| 14> C          0.46600       -6.01600       -1.90500
| 15> C          1.48100       -6.46400       -0.83200
| 16> O          2.54500       -6.97100       -1.19400
| 17> C          1.03300       -4.83900       -2.72400
| 18> C          0.67200       -4.90600       -4.21000
| 19> F         -0.53200       -5.05100       -4.52200
| 20> O          1.62700       -4.81500       -5.01700
| 21> H         -1.01000       -4.61600       -1.29100
| 22> H          0.31900       -6.86700       -2.57400
| 23> H          0.64400       -3.92400       -2.32000
| 24> H          2.11600       -4.83700       -2.65000
| 25> N          1.18500       -6.27800        0.46400
| 26> C          2.06000       -6.61800        1.59300
| 27> H          0.26500       -5.90800        0.69300
| 28> H          2.99083       -6.99358        1.22233
| 29> H          1.58897       -7.36524        2.19688
| 30> H          2.23785       -5.74295        2.18254
| 31> H         -3.98630       -5.02976       -2.03399
| 32> H         -5.07797       -5.32871       -0.70284
| 33> H         -4.44069       -6.66727       -1.62761
| 34> H         -2.31988       -2.23646        1.51551
| 35> H         -0.63528       -2.60988        1.79073
| 36> H         -1.82410       -2.98192        3.01603
| 37> *
| 38> %MaxCore 64000
| 39> %pal nprocs 8
| 40> end
| 41> %scf
| 42>   Convergence VeryTight
| 43>   MaxIter 150
| 44> end
| 45>
| 46>                          ****END OF INPUT****

CARTESIAN COORDINATES (ANGSTROEM)
---------------------------------
  C     -1.641000   -2.932000    1.963000
  C     -1.847000   -4.319000    1.342000
  O     -1.144000   -5.248000    1.742000
  N     -2.753000   -4.481000    0.360000
  C     -3.024000   -5.791000   -0.269000
  C     -1.796000   -6.427000   -0.937000
  O     -1.719000   -7.648000   -1.030000
  C     -4.224000   -5.697000   -1.232000
  H     -3.321000   -3.675000    0.097000
  H     -3.309000   -6.478000    0.529000
  N     -0.828000   -5.607000   -1.355000
  C      0.466000   -6.016000   -1.905000
  C      1.481000   -6.464000   -0.832000
  O      2.545000   -6.971000   -1.194000
  C      1.033000   -4.839000   -2.724000
  C      0.672000   -4.906000   -4.210000
  F     -0.532000   -5.051000   -4.522000
  O      1.627000   -4.815000   -5.017000
  H     -1.010000   -4.616000   -1.291000
  H      0.319000   -6.867000   -2.574000
  H      0.644000   -3.924000   -2.320000
  H      2.116000   -4.837000   -2.650000
  N      1.185000   -6.278000    0.464000
  C      2.060000   -6.618000    1.593000
  H      0.265000   -5.908000    0.693000
  H      2.990830   -6.993580    1.222330
  H      1.588970   -7.365240    2.196880
  H      2.237850   -5.742950    2.182540
  H     -3.986300   -5.029760   -2.033990
  H     -5.077970   -5.328710   -0.702840
  H     -4.440690   -6.667270   -1.627610
  H     -2.319880   -2.236460    1.515510
  H     -0.635280   -2.609880    1.790730
  H     -1.824100   -2.981920    3.016030

 Total Charge           Charge          ....    0
 Multiplicity           Mult            ....    1
 Number of Electrons    NEL             ....  138
 Basis Dimension        Dim             ....  503

ORBITAL ENERGIES
----------------

  NO   OCC          E(Eh)            E(eV)
   0   2.0000     -24.885222      -677.1613
   1   2.0000     -19.270429      -524.3750
   2   2.0000     -19.231213      -523.3079
   3   2.0000     -19.229737      -523.2677
   4   2.0000     -19.220714      -523.0222
   5   2.0000     -14.481512      -394.0620
   6   2.0000     -14.480067      -394.0227
   7   2.0000     -14.462584      -393.5469
   8   2.0000     -10.490608      -285.4640
   9   2.0000     -10.414110      -283.3823
  10   2.0000     -10.412969      -283.3513
  11   2.0000     -10.406431      -283.1734
  12   2.0000     -10.367217      -282.1063
  13   2.0000     -10.354492      -281.7601
  14   2.0000     -10.328479      -281.0522
  15   2.0000     -10.314016      -280.6587
  16   2.0000     -10.290486      -280.0184
  17   2.0000     -10.290205      -280.0107
  18   2.0000      -1.435682       -39.0669
  19   2.0000      -1.170837       -31.8601
  20   2.0000      -1.160611       -31.5818
  21   2.0000      -1.159168       -31.5426
  22   2.0000      -1.152344       -31.3569
  23   2.0000      -1.061762       -28.8920
  24   2.0000      -1.045701       -28.4550
  25   2.0000      -1.025525       -27.9059
  26   2.0000      -0.927476       -25.2379
  27   2.0000      -0.897797       -24.4303
  28   2.0000      -0.844408       -22.9775
  29   2.0000      -0.841719       -22.9043
  30   2.0000      -0.804937       -21.9035
  31   2.0000      -0.774611       -21.0782
  32   2.0000      -0.760040       -20.6817
  33   2.0000      -0.718709       -19.5571
  34   2.0000      -0.708038       -19.2667
  35   2.0000      -0.687832       -18.7169
  36   2.0000      -0.676133       -18.3985
  37   2.0000      -0.666431       -18.1345
  38   2.0000      -0.646391       -17.5892
  39   2.0000      -0.633754       -17.2453
  40   2.0000      -0.618324       -16.8254
  41   2.0000      -0.614874       -16.7316
  42   2.0000      -0.595533       -16.2053
  43   2.0000      -0.584047       -15.8927
  44   2.0000      -0.565353       -15.3840
  45   2.0000      -0.557767       -15.1776
  46   2.0000      -0.556654       -15.1473
  47   2.0000      -0.549170       -14.9437
  48   2.0000      -0.537428       -14.6242
  49   2.0000      -0.532513       -14.4904
  50   2.0000      -0.525606       -14.3025
  51   2.0000      -0.523696       -14.2505
  52   2.0000      -0.516536       -14.0556
  53   2.0000      -0.510304       -13.8861
  54   2.0000      -0.493943       -13.4409
  55   2.0000      -0.491401       -13.3717
  56   2.0000      -0.489321       -13.3151
  57   2.0000      -0.486353       -13.2343
  58   2.0000      -0.481446       -13.1008
  59   2.0000      -0.474759       -12.9188
  60   2.0000      -0.460086       -12.5196
  61   2.0000      -0.452392       -12.3102
  62   2.0000      -0.409989       -11.1564
  63   2.0000      -0.397743       -10.8231
  64   2.0000      -0.391816       -10.6618
  65   2.0000      -0.373718       -10.1694
  66   2.0000      -0.362550        -9.8655
  67   2.0000      -0.357371        -9.7246
  68   2.0000      -0.353686        -9.6243
  69   0.0000       0.042233         1.1492
  70   0.0000       0.074312         2.0221
  71   0.0000       0.079166         2.1542
  72   0.0000       0.084363         2.2956
  73   0.0000       0.089466         2.4345

MULLIKEN ATOMIC CHARGES
-----------------------
   0 C :    0.625149
   1 C :   -0.044699
   2 O :   -0.563653
   3 N :   -0.474932
   4 C :   -0.384472
   5 C :    0.515521
   6 O :   -0.616793
   7 C :    0.972829
   8 H :   -0.043071
   9 H :   -0.087465
  10 N :   -0.512035
  11 C :    0.158830
  12 C :    0.526832
  13 O :   -0.598675
  14 C :    0.178894
  15 C :    1.014939
  16 F :   -0.428717
  17 O :   -0.512172
  18 H :    0.088314
  19 H :   -0.079808
  20 H :    0.021488
  21 H :    0.027247
  22 N :   -0.090331
  23 C :    1.276878
  24 H :   -0.711715
  25 H :   -0.209862
  26 H :   -0.076467
  27 H :   -0.086387
  28 H :   -0.014332
  29 H :    0.039295
  30 H :    0.053945
  31 H :   -0.017853
  32 H :    0.038049
  33 H :    0.015229
Sum of atomic charges:   -0.0000000

LOEWDIN ATOMIC CHARGES
----------------------
   0 C :    0.215088
   1 C :   -0.113469
   2 O :   -0.234136
   3 N :    0.067671
   4 C :   -0.050109
   5 C :   -0.094735
   6 O :   -0.224393
   7 C :    0.192915
   8 H :    0.066215
   9 H :    0.061023
  10 N :    0.069063
  11 C :    0.013331
  12 C :   -0.082665
  13 O :   -0.252953
  14 C :    0.132887
  15 C :    0.021080
  16 F :   -0.017378
  17 O :   -0.165870
  18 H :    0.046160
  19 H :    0.069269
  20 H :    0.045529
  21 H :    0.039160
  22 N :    0.030292
  23 C :    0.251514
  24 H :   -0.063462
  25 H :   -0.017956
  26 H :   -0.001481
  27 H :   -0.002389
  28 H :   -0.001391
  29 H :    0.000143
  30 H :    0.000099
  31 H :   -0.011389
  32 H :    0.006816
  33 H :    0.005521

  Mayer bond orders larger than 0.100000
B(  0-C ,  1-C ) :   1.3310 B(  0-C , 31-H ) :   0.8509 B(  0-C , 32-H ) :   0.7442
B(  0-C , 33-H ) :   0.6675 B(  1-C ,  2-O ) :   1.5077 B(  1-C ,  3-N ) :   1.0569
B(  1-C ,  8-H ) :  -0.2333 B(  1-C , 31-H ) :   0.1912 B(  1-C , 32-H ) :   0.2382
B(  1-C , 33-H ) :   0.3301 B(  2-O ,  3-N ) :   0.1494 B(  2-O , 24-H ) :   0.1427
B(  3-N ,  4-C ) :   0.7089 B(  3-N ,  5-C ) :   0.1271 B(  3-N ,  8-H ) :   1.2764
B(  3-N ,  9-H ) :   0.1658 B(  3-N , 18-H ) :  -0.1055 B(  4-C ,  5-C ) :   1.0047
B(  4-C ,  7-C ) :   1.2685 B(  4-C ,  8-H ) :  -0.1596 B(  4-C ,  9-H ) :   0.8655
B(  4-C , 10-N ) :   0.1547 B(  4-C , 28-H ) :   0.2583 B(  4-C , 29-H ) :   0.2777
B(  4-C , 30-H ) :   0.3484 B(  5-C ,  6-O ) :   1.4697 B(  5-C ,  9-H ) :   0.3001
B(  5-C , 10-N ) :   1.3007 B(  5-C , 18-H ) :  -0.2063 B(  6-O , 10-N ) :   0.1261
B(  7-C ,  9-H ) :   0.1198 B(  7-C , 28-H ) :   0.7665 B(  7-C , 29-H ) :   0.7049
B(  7-C , 30-H ) :   0.6333 B( 10-N , 11-C ) :   0.8103 B( 10-N , 14-C ) :   0.1326
B( 10-N , 18-H ) :   1.1122 B( 10-N , 19-H ) :   0.1883 B( 11-C , 12-C ) :   0.9221
B( 11-C , 14-C ) :   1.0925 B( 11-C , 18-H ) :  -0.1928 B( 11-C , 19-H ) :   0.8029
B( 11-C , 20-H ) :   0.2611 B( 11-C , 21-H ) :   0.1385 B( 12-C , 13-O ) :   1.6417
B( 12-C , 19-H ) :   0.1068 B( 12-C , 22-N ) :   1.3726 B( 12-C , 24-H ) :  -0.4097
B( 13-O , 22-N ) :   0.2166 B( 14-C , 15-C ) :   0.9629 B( 14-C , 16-F ) :   0.1036
B( 14-C , 20-H ) :   0.7361 B( 14-C , 21-H ) :   0.9692 B( 15-C , 16-F ) :   0.6704
B( 15-C , 17-O ) :   1.8091 B( 16-F , 17-O ) :   0.1005 B( 22-N , 23-C ) :   0.9995
B( 22-N , 24-H ) :   1.0787 B( 22-N , 25-H ) :   0.2124 B( 22-N , 26-H ) :   0.2294
B( 22-N , 27-H ) :   0.2300 B( 23-C , 24-H ) :  -0.3584 B( 23-C , 25-H ) :   0.8247
B( 23-C , 26-H ) :   0.7613 B( 23-C , 27-H ) :   0.7462

Dispersion correction           -0.017197483
FINAL SINGLE POINT ENERGY      -954.908045161372

DIPOLE MOMENT
-------------
                                X             Y             Z
Electronic contribution:      4.06317      -2.34153     -16.94985
Nuclear contribution   :     -7.75631       6.61595      18.66625
                        -----------------------------------------
Total Dipole Moment    :     -3.69314       4.27442       1.71640
                        -----------------------------------------
Magnitude (a.u.)       :      5.90390
Magnitude (Debye)      :     15.00652

Rotational constants in cm-1:     0.015397     0.010158     0.007821
Rotational constants in MHz :   461.596596   304.528723   234.478857

                             ****ORCA TERMINATED NORMALLY****
TOTAL RUN TIME: 0 days 0 hours 4 minutes 6 seconds 719 msec
