                         Program Version 5.0.0 -  RELEASE  -
|  1> !wB97X-D3 def2-SVPD TightSCF RIJCOSX def2/J CPCM(Water)
|  2> * xyz 0 1
|  3> C          6.11000       -0.24300       -2.99400
|  4> C          5.04600       -1.17100       -2.37800
|  5> C          3.92300       -1.59200       -3.33800
|  6> C          4.25100       -2.81100       -4.10000
|  7> C          4.85900       -2.91400       -5.27400
|  8> N          5.28900       -1.86400       -5.93700
|  9> N          5.03500       -4.09500       -5.80900
| 10> H          5.53800       -2.05900       -2.03100
| 11> H          4.57900       -0.65200       -1.54900
| 12> H          3.03300       -1.77400       -2.76600
| 13> H          3.66900       -0.76500       -4.00300
| 14> H          3.96300       -3.69400       -3.69800
| 15> H          5.15000       -0.96200       -5.52100
| 16> H          5.76100       -1.96200       -6.81500
| 17> H          4.64900       -4.89400       -5.32700
| 18> H          5.50800       -4.20500       -6.68400
| 19> H          6.58307       -0.73884       -3.81574
| 20> H          6.84347       -0.00050       -2.25365
| 21> H          5.64256        0.65496       -3.34051
| 22> *
| 23> %MaxCore 64000
| 24> %pal nprocs 8
| 25> end
| 26> %scf
| 27>   Convergence VeryTight
| 28>   MaxIter 150
| 29> end
| 30>
| 31>                          ****END OF INPUT****

CARTESIAN COORDINATES (ANGSTROEM)
---------------------------------
  C      6.110000   -0.243000   -2.994000
  C      5.046000   -1.171000   -2.378000
  C      3.923000   -1.592000   -3.338000
  C      4.251000   -2.811000   -4.100000
  C      4.859000   -2.914000   -5.274000
  N      5.289000   -1.864000   -5.937000
  N      5.035000   -4.095000   -5.809000
  H      5.538000   -2.059000   -2.031000
  H      4.579000   -0.652000   -1.549000
  H      3.033000   -1.774000   -2.766000
  H      3.669000   -0.765000   -4.003000
  H      3.963000   -3.694000   -3.698000
  H      5.150000   -0.962000   -5.521000
  H      5.761000   -1.962000   -6.815000
  H      4.649000   -4.894000   -5.327000
  H      5.508000   -4.205000   -6.684000
  H      6.583070   -0.738840   -3.815740
  H      6.843470   -0.000500   -2.253650
  H      5.642560    0.654960   -3.340510

 Total Charge           Charge          ....    0
 Multiplicity           Mult            ....    1
 Number of Electrons    NEL             ....   56
 Basis Dimension        Dim             ....  236

ORBITAL ENERGIES
----------------

  NO   OCC          E(Eh)            E(eV)
   0   2.0000     -14.428854      -392.6291
   1   2.0000     -14.425466      -392.5369
   2   2.0000     -10.332871      -281.1717
   3   2.0000     -10.266099      -279.3547
   4   2.0000     -10.265615      -279.3416
   5   2.0000     -10.262940      -279.2688
   6   2.0000     -10.210708      -277.8475
   7   2.0000      -1.077962       -29.3328
   8   2.0000      -0.975656       -26.5489
   9   2.0000      -0.895964       -24.3804
  10   2.0000      -0.832428       -22.6515
  11   2.0000      -0.768174       -20.9031
  12   2.0000      -0.702699       -19.1214
  13   2.0000      -0.673835       -18.3360
  14   2.0000      -0.646750       -17.5990
  15   2.0000      -0.615366       -16.7450
  16   2.0000      -0.562260       -15.2999
  17   2.0000      -0.548708       -14.9311
  18   2.0000      -0.538785       -14.6611
  19   2.0000      -0.513393       -13.9701
  20   2.0000      -0.497432       -13.5358
  21   2.0000      -0.474561       -12.9135
  22   2.0000      -0.460876       -12.5411
  23   2.0000      -0.424612       -11.5543
  24   2.0000      -0.414152       -11.2696
  25   2.0000      -0.407240       -11.0816
  26   2.0000      -0.355317        -9.6687
  27   2.0000      -0.245994        -6.6938
  28   0.0000       0.096635         2.6296
  29   0.0000       0.117417         3.1951
  30   0.0000       0.122580         3.3356
  31   0.0000       0.130065         3.5392
  32   0.0000       0.145587         3.9616

MULLIKEN ATOMIC CHARGES
-----------------------
   0 C :    0.681749
   1 C :   -0.175054
   2 C :    0.223542
   3 C :   -0.168964
   4 C :    0.964263
   5 N :   -0.157158
   6 N :   -0.057360
   7 H :   -0.143001
   8 H :   -0.126102
   9 H :   -0.061781
  10 H :   -0.065375
  11 H :   -0.383582
  12 H :   -0.007137
  13 H :   -0.214661
  14 H :    0.036200
  15 H :   -0.121928
  16 H :   -0.156593
  17 H :   -0.088254
  18 H :    0.021194
Sum of atomic charges:   -0.0000000

LOEWDIN ATOMIC CHARGES
----------------------
   0 C :    0.116748
   1 C :   -0.068722
   2 C :   -0.055702
   3 C :   -0.044199
   4 C :   -0.248438
   5 N :    0.211412
   6 N :    0.181467
   7 H :    0.002437
   8 H :    0.005903
   9 H :    0.001245
  10 H :    0.010020
  11 H :   -0.060215
  12 H :   -0.014832
  13 H :    0.012652
  14 H :    0.019010
  15 H :    0.007400
  16 H :   -0.037888
  17 H :   -0.021715
  18 H :   -0.016585

  Mayer bond orders larger than 0.100000
B(  0-C ,  1-C ) :   1.2492 B(  0-C , 16-H ) :   0.8650 B(  0-C , 17-H ) :   0.8106
B(  0-C , 18-H ) :   0.7794 B(  1-C ,  2-C ) :   1.1541 B(  1-C ,  7-H ) :   0.9382
B(  1-C ,  8-H ) :   0.9554 B(  1-C , 10-H ) :   0.1232 B(  1-C , 16-H ) :   0.1842
B(  1-C , 17-H ) :   0.1954 B(  1-C , 18-H ) :   0.1913 B(  2-C ,  3-C ) :   1.1866
B(  2-C ,  7-H ) :   0.1656 B(  2-C ,  9-H ) :   0.8451 B(  2-C , 10-H ) :   0.7978
B(  2-C , 11-H ) :   0.2809 B(  3-C ,  4-C ) :   1.5749 B(  3-C ,  5-N ) :   0.2264
B(  3-C ,  6-N ) :   0.3439 B(  3-C ,  9-H ) :   0.1962 B(  3-C , 10-H ) :   0.2029
B(  3-C , 11-H ) :   0.9246 B(  3-C , 12-H ) :  -0.1588 B(  4-C ,  5-N ) :   0.8713
B(  4-C ,  6-N ) :   0.8704 B(  4-C , 13-H ) :  -0.3062 B(  5-N ,  6-N ) :   0.1435
B(  5-N , 12-H ) :   1.0292 B(  5-N , 13-H ) :   1.5245 B(  6-N , 11-H ) :   0.1143
B(  6-N , 14-H ) :   1.1350 B(  6-N , 15-H ) :   1.2308 B( 12-H , 13-H ) :  -0.2404
B( 14-H , 15-H ) :  -0.1745

Dispersion correction           -0.005447599
FINAL SINGLE POINT ENERGY      -306.954593471417

DIPOLE MOMENT
-------------
                                X             Y             Z
Electronic contribution:     -0.78952      -3.98005      -4.64483
Nuclear contribution   :      1.34516       3.79346       3.45521
                        -----------------------------------------
Total Dipole Moment    :      0.55564      -0.18659      -1.18963
                        -----------------------------------------
Magnitude (a.u.)       :      1.32618
Magnitude (Debye)      :      3.37089

Rotational constants in cm-1:     0.158990     0.052082     0.044575
Rotational constants in MHz :  4766.391670  1561.368924  1336.327956

                             ****ORCA TERMINATED NORMALLY****
TOTAL RUN TIME: 0 days 0 hours 0 minutes 41 seconds 894 msec
