                         Program Version 5.0.0 -  RELEASE  -
|  1> !wB97X-D3 def2-SVPD TightSCF RIJCOSX def2/J CPCM(Water)
|  2> * xyz 0 1
|  3> C         -1.64100       -2.93200        1.96300
|  4> C         -1.84700       -4.31900        1.34200
|  5> O         -1.14400       -5.24800        1.74200
|  6> N         -2.75300       -4.48100        0.36000
|  7> C         -3.02400       -5.79100       -0.26900
|  8> C         -1.79600       -6.42700       -0.93700
|  9> O         -1.71900       -7.64800       -1.03000
| 10> C         -4.22400       -5.69700       -1.23200
| 11> H         -3.32100       -3.67500        0.09700
| 12> H         -3.30900       -6.47800        0.52900
| 13> N         -0.82800       -5.60700       -1.35500
| 14> C          0.46600       -6.01600       -1.90500
| 15> C          1.48100       -6.46400       -0.83200
| 16> O          2.54500       -6.97100       -1.19400
| 17> C          1.03300       -4.83900       -2.72400
| 18> C          0.67200       -4.90600       -4.21000
| 19> O         -0.53200       -5.05100       -4.52200
| 20> F          1.62700       -4.81500       -5.01700
| 21> H         -1.01000       -4.61600       -1.29100
| 22> H          0.31900       -6.86700       -2.57400
| 23> H          0.64400       -3.92400       -2.32000
| 24> H          2.11600       -4.83700       -2.65000
| 25> N          1.18500       -6.27800        0.46400
| 26> C          2.06000       -6.61800        1.59300
| 27> H          0.26500       -5.90800        0.69300
| 28> H          2.99083       -6.99358        1.22233
| 29> H          1.58897       -7.36524        2.19688
| 30> H          2.23785       -5.74295        2.18254
| 31> H         -3.98630       -5.02976       -2.03399
| 32> H         -5.07797       -5.32871       -0.70284
| 33> H         -4.44069       -6.66727       -1.62761
| 34> H         -2.31988       -2.23646        1.51551
| 35> H         -0.63528       -2.60988        1.79073
| 36> H         -1.82410       -2.98192        3.01603
| 37> *
| 38> %MaxCore 64000
| 39> %pal nprocs 8
| 40> end
| 41> %scf
| 42>   Convergence VeryTight
| 43>   MaxIter 150
| 44> end
| 45>
| 46>                          ****END OF INPUT****

CARTESIAN COORDINATES (ANGSTROEM)
---------------------------------
  C     -1.641000   -2.932000    1.963000
  C     -1.847000   -4.319000    1.342000
  O     -1.144000   -5.248000    1.742000
  N     -2.753000   -4.481000    0.360000
  C     -3.024000   -5.791000   -0.269000
  C     -1.796000   -6.427000   -0.937000
  O     -1.719000   -7.648000   -1.030000
  C     -4.224000   -5.697000   -1.232000
  H     -3.321000   -3.675000    0.097000
  H     -3.309000   -6.478000    0.529000
  N     -0.828000   -5.607000   -1.355000
  C      0.466000   -6.016000   -1.905000
  C      1.481000   -6.464000   -0.832000
  O      2.545000   -6.971000   -1.194000
  C      1.033000   -4.839000   -2.724000
  C      0.672000   -4.906000   -4.210000
  O     -0.532000   -5.051000   -4.522000
  F      1.627000   -4.815000   -5.017000
  H     -1.010000   -4.616000   -1.291000
  H      0.319000   -6.867000   -2.574000
  H      0.644000   -3.924000   -2.320000
  H      2.116000   -4.837000   -2.650000
  N      1.185000   -6.278000    0.464000
  C      2.060000   -6.618000    1.593000
  H      0.265000   -5.908000    0.693000
  H      2.990830   -6.993580    1.222330
  H      1.588970   -7.365240    2.196880
  H      2.237850   -5.742950    2.182540
  H     -3.986300   -5.029760   -2.033990
  H     -5.077970   -5.328710   -0.702840
  H     -4.440690   -6.667270   -1.627610
  H     -2.319880   -2.236460    1.515510
  H     -0.635280   -2.609880    1.790730
  H     -1.824100   -2.981920    3.016030

 Total Charge           Charge          ....    0
 Multiplicity           Mult            ....    1
 Number of Electrons    NEL             ....  138
 Basis Dimension        Dim             ....  503

ORBITAL ENERGIES
----------------

  NO   OCC          E(Eh)            E(eV)
   0   2.0000     -24.882586      -677.0896
   1   2.0000     -19.271155      -524.3948
   2   2.0000     -19.230340      -523.2841
   3   2.0000     -19.229533      -523.2622
   4   2.0000     -19.220463      -523.0154
   5   2.0000     -14.481272      -394.0555
   6   2.0000     -14.478881      -393.9904
   7   2.0000     -14.462396      -393.5418
   8   2.0000     -10.490378      -285.4577
   9   2.0000     -10.413915      -283.3770
  10   2.0000     -10.412109      -283.3279
  11   2.0000     -10.405999      -283.1616
  12   2.0000     -10.366794      -282.0948
  13   2.0000     -10.354112      -281.7497
  14   2.0000     -10.328162      -281.0436
  15   2.0000     -10.313924      -280.6561
  16   2.0000     -10.290211      -280.0109
  17   2.0000     -10.290108      -280.0081
  18   2.0000      -1.432979       -38.9933
  19   2.0000      -1.170336       -31.8465
  20   2.0000      -1.161060       -31.5940
  21   2.0000      -1.159286       -31.5458
  22   2.0000      -1.152036       -31.3485
  23   2.0000      -1.060455       -28.8565
  24   2.0000      -1.045258       -28.4429
  25   2.0000      -1.025139       -27.8954
  26   2.0000      -0.926028       -25.1985
  27   2.0000      -0.897550       -24.4236
  28   2.0000      -0.844582       -22.9822
  29   2.0000      -0.842230       -22.9183
  30   2.0000      -0.807613       -21.9763
  31   2.0000      -0.771665       -20.9981
  32   2.0000      -0.757671       -20.6173
  33   2.0000      -0.717523       -19.5248
  34   2.0000      -0.707451       -19.2507
  35   2.0000      -0.687452       -18.7065
  36   2.0000      -0.670895       -18.2560
  37   2.0000      -0.664674       -18.0867
  38   2.0000      -0.646990       -17.6055
  39   2.0000      -0.634949       -17.2778
  40   2.0000      -0.621384       -16.9087
  41   2.0000      -0.612938       -16.6789
  42   2.0000      -0.594894       -16.1879
  43   2.0000      -0.583855       -15.8875
  44   2.0000      -0.565142       -15.3783
  45   2.0000      -0.557834       -15.1794
  46   2.0000      -0.556753       -15.1500
  47   2.0000      -0.548641       -14.9293
  48   2.0000      -0.538885       -14.6638
  49   2.0000      -0.532735       -14.4964
  50   2.0000      -0.524487       -14.2720
  51   2.0000      -0.516569       -14.0566
  52   2.0000      -0.514503       -14.0003
  53   2.0000      -0.510626       -13.8948
  54   2.0000      -0.498318       -13.5599
  55   2.0000      -0.492766       -13.4089
  56   2.0000      -0.489046       -13.3076
  57   2.0000      -0.485064       -13.1993
  58   2.0000      -0.478416       -13.0184
  59   2.0000      -0.472956       -12.8698
  60   2.0000      -0.461677       -12.5629
  61   2.0000      -0.452701       -12.3186
  62   2.0000      -0.412344       -11.2204
  63   2.0000      -0.395687       -10.7672
  64   2.0000      -0.391454       -10.6520
  65   2.0000      -0.373513       -10.1638
  66   2.0000      -0.362339        -9.8598
  67   2.0000      -0.356757        -9.7078
  68   2.0000      -0.353619        -9.6225
  69   0.0000       0.039451         1.0735
  70   0.0000       0.074616         2.0304
  71   0.0000       0.080134         2.1806
  72   0.0000       0.084966         2.3120
  73   0.0000       0.090035         2.4500

MULLIKEN ATOMIC CHARGES
-----------------------
   0 C :    0.625080
   1 C :   -0.045269
   2 O :   -0.560016
   3 N :   -0.471716
   4 C :   -0.389036
   5 C :    0.536674
   6 O :   -0.618660
   7 C :    0.979733
   8 H :   -0.043025
   9 H :   -0.094414
  10 N :   -0.584563
  11 C :    0.186298
  12 C :    0.543084
  13 O :   -0.598415
  14 C :    0.169877
  15 C :    0.981654
  16 O :   -0.535276
  17 F :   -0.393922
  18 H :    0.117418
  19 H :   -0.106217
  20 H :    0.005579
  21 H :    0.077298
  22 N :   -0.084224
  23 C :    1.278681
  24 H :   -0.713657
  25 H :   -0.212027
  26 H :   -0.076055
  27 H :   -0.086320
  28 H :   -0.016400
  29 H :    0.038749
  30 H :    0.053779
  31 H :   -0.017894
  32 H :    0.038049
  33 H :    0.015149
Sum of atomic charges:   -0.0000000

LOEWDIN ATOMIC CHARGES
----------------------
   0 C :    0.215008
   1 C :   -0.113564
   2 O :   -0.234281
   3 N :    0.067713
   4 C :   -0.050077
   5 C :   -0.094933
   6 O :   -0.225658
   7 C :    0.192995
   8 H :    0.066171
   9 H :    0.060826
  10 N :    0.072065
  11 C :    0.016942
  12 C :   -0.083539
  13 O :   -0.253897
  14 C :    0.131107
  15 C :    0.024958
  16 O :   -0.163802
  17 F :   -0.021176
  18 H :    0.046669
  19 H :    0.067763
  20 H :    0.046820
  21 H :    0.036406
  22 N :    0.030281
  23 C :    0.251370
  24 H :   -0.063561
  25 H :   -0.018042
  26 H :   -0.001548
  27 H :   -0.002426
  28 H :   -0.001536
  29 H :    0.000071
  30 H :    0.000057
  31 H :   -0.011418
  32 H :    0.006766
  33 H :    0.005471

  Mayer bond orders larger than 0.100000
B(  0-C ,  1-C ) :   1.3314 B(  0-C , 31-H ) :   0.8510 B(  0-C , 32-H ) :   0.7441
B(  0-C , 33-H ) :   0.6673 B(  1-C ,  2-O ) :   1.5082 B(  1-C ,  3-N ) :   1.0578
B(  1-C ,  8-H ) :  -0.2326 B(  1-C , 31-H ) :   0.1910 B(  1-C , 32-H ) :   0.2384
B(  1-C , 33-H ) :   0.3306 B(  2-O ,  3-N ) :   0.1480 B(  2-O , 24-H ) :   0.1406
B(  3-N ,  4-C ) :   0.7098 B(  3-N ,  5-C ) :   0.1246 B(  3-N ,  8-H ) :   1.2762
B(  3-N ,  9-H ) :   0.1644 B(  3-N , 18-H ) :  -0.1062 B(  4-C ,  5-C ) :   1.0023
B(  4-C ,  7-C ) :   1.2653 B(  4-C ,  8-H ) :  -0.1607 B(  4-C ,  9-H ) :   0.8749
B(  4-C , 10-N ) :   0.1638 B(  4-C , 28-H ) :   0.2593 B(  4-C , 29-H ) :   0.2800
B(  4-C , 30-H ) :   0.3481 B(  5-C ,  6-O ) :   1.4681 B(  5-C ,  9-H ) :   0.2923
B(  5-C , 10-N ) :   1.2763 B(  5-C , 18-H ) :  -0.2013 B(  6-O , 10-N ) :   0.1268
B(  7-C ,  9-H ) :   0.1164 B(  7-C , 28-H ) :   0.7656 B(  7-C , 29-H ) :   0.7024
B(  7-C , 30-H ) :   0.6320 B( 10-N , 11-C ) :   0.7861 B( 10-N , 14-C ) :   0.1361
B( 10-N , 18-H ) :   1.1012 B( 10-N , 19-H ) :   0.2067 B( 11-C , 12-C ) :   0.9000
B( 11-C , 14-C ) :   1.1142 B( 11-C , 18-H ) :  -0.1827 B( 11-C , 19-H ) :   0.7943
B( 11-C , 20-H ) :   0.2861 B( 11-C , 21-H ) :   0.1401 B( 12-C , 13-O ) :   1.6444
B( 12-C , 19-H ) :   0.1046 B( 12-C , 22-N ) :   1.3696 B( 12-C , 24-H ) :  -0.4132
B( 13-O , 22-N ) :   0.2153 B( 14-C , 15-C ) :   1.0143 B( 14-C , 20-H ) :   0.7438
B( 14-C , 21-H ) :   0.9075 B( 15-C , 16-O ) :   1.7965 B( 15-C , 17-F ) :   0.6956
B( 22-N , 23-C ) :   1.0002 B( 22-N , 24-H ) :   1.0761 B( 22-N , 25-H ) :   0.2119
B( 22-N , 26-H ) :   0.2290 B( 22-N , 27-H ) :   0.2287 B( 23-C , 24-H ) :  -0.3606
B( 23-C , 25-H ) :   0.8242 B( 23-C , 26-H ) :   0.7606 B( 23-C , 27-H ) :   0.7458

Dispersion correction           -0.017285122
FINAL SINGLE POINT ENERGY      -954.909674801183

DIPOLE MOMENT
-------------
                                X             Y             Z
Electronic contribution:      8.13688      -1.88699     -17.90843
Nuclear contribution   :    -10.13956       6.35543      19.21267
                        -----------------------------------------
Total Dipole Moment    :     -2.00269       4.46845       1.30424
                        -----------------------------------------
Magnitude (a.u.)       :      5.06742
Magnitude (Debye)      :     12.88037

Rotational constants in cm-1:     0.015536     0.009935     0.007741
Rotational constants in MHz :   465.748248   297.849423   232.075748

                             ****ORCA TERMINATED NORMALLY****
TOTAL RUN TIME: 0 days 0 hours 4 minutes 10 seconds 956 msec
