                         Program Version 5.0.0 -  RELEASE  -
|  1> !wB97X-D3 def2-SVPD TightSCF RIJCOSX def2/J CPCM(Water)
|  2> * xyz 0 1
|  3> C          6.11000       -0.24300       -2.99400
|  4> C          5.04600       -1.17100       -2.37800
|  5> C          3.92300       -1.59200       -3.33800
|  6> N          4.25100       -2.81100       -4.10000
|  7> C          4.85900       -2.91400       -5.27400
|  8> C          5.28900       -1.86400       -5.93700
|  9> N          5.03500       -4.09500       -5.80900
| 10> H          5.53800       -2.05900       -2.03100
| 11> H          4.57900       -0.65200       -1.54900
| 12> H          3.03300       -1.77400       -2.76600
| 13> H          3.66900       -0.76500       -4.00300
| 14> H          3.96300       -3.69400       -3.69800
| 15> H          5.15000       -0.96200       -5.52100
| 16> H          5.76100       -1.96200       -6.81500
| 17> H          4.64900       -4.89400       -5.32700
| 18> H          5.50800       -4.20500       -6.68400
| 19> H          6.58307       -0.73884       -3.81574
| 20> H          6.84347       -0.00050       -2.25365
| 21> H          5.64256        0.65496       -3.34051
| 22> *
| 23> %MaxCore 64000
| 24> %pal nprocs 8
| 25> end
| 26> %scf
| 27>   Convergence VeryTight
| 28>   MaxIter 150
| 29> end
| 30>
| 31>                          ****END OF INPUT****

CARTESIAN COORDINATES (ANGSTROEM)
---------------------------------
  C      6.110000   -0.243000   -2.994000
  C      5.046000   -1.171000   -2.378000
  C      3.923000   -1.592000   -3.338000
  N      4.251000   -2.811000   -4.100000
  C      4.859000   -2.914000   -5.274000
  C      5.289000   -1.864000   -5.937000
  N      5.035000   -4.095000   -5.809000
  H      5.538000   -2.059000   -2.031000
  H      4.579000   -0.652000   -1.549000
  H      3.033000   -1.774000   -2.766000
  H      3.669000   -0.765000   -4.003000
  H      3.963000   -3.694000   -3.698000
  H      5.150000   -0.962000   -5.521000
  H      5.761000   -1.962000   -6.815000
  H      4.649000   -4.894000   -5.327000
  H      5.508000   -4.205000   -6.684000
  H      6.583070   -0.738840   -3.815740
  H      6.843470   -0.000500   -2.253650
  H      5.642560    0.654960   -3.340510

 Total Charge           Charge          ....    0
 Multiplicity           Mult            ....    1
 Number of Electrons    NEL             ....   56
 Basis Dimension        Dim             ....  236

ORBITAL ENERGIES
----------------

  NO   OCC          E(Eh)            E(eV)
   0   2.0000     -14.436481      -392.8366
   1   2.0000     -14.428743      -392.6260
   2   2.0000     -10.337959      -281.3102
   3   2.0000     -10.316513      -280.7266
   4   2.0000     -10.276001      -279.6242
   5   2.0000     -10.263455      -279.2828
   6   2.0000     -10.200408      -277.5672
   7   2.0000      -1.081246       -29.4222
   8   2.0000      -0.991034       -26.9674
   9   2.0000      -0.883339       -24.0369
  10   2.0000      -0.829692       -22.5771
  11   2.0000      -0.792278       -21.5590
  12   2.0000      -0.706576       -19.2269
  13   2.0000      -0.663860       -18.0645
  14   2.0000      -0.649164       -17.6647
  15   2.0000      -0.622195       -16.9308
  16   2.0000      -0.571896       -15.5621
  17   2.0000      -0.544961       -14.8291
  18   2.0000      -0.519215       -14.1286
  19   2.0000      -0.514063       -13.9884
  20   2.0000      -0.498499       -13.5648
  21   2.0000      -0.481896       -13.1131
  22   2.0000      -0.475983       -12.9522
  23   2.0000      -0.443054       -12.0561
  24   2.0000      -0.432774       -11.7764
  25   2.0000      -0.420374       -11.4390
  26   2.0000      -0.339507        -9.2385
  27   2.0000      -0.259442        -7.0598
  28   0.0000       0.097110         2.6425
  29   0.0000       0.115532         3.1438
  30   0.0000       0.117861         3.2072
  31   0.0000       0.128417         3.4944
  32   0.0000       0.148996         4.0544

MULLIKEN ATOMIC CHARGES
-----------------------
   0 C :    0.655271
   1 C :   -0.202945
   2 C :    0.745198
   3 N :   -0.558647
   4 C :    0.774310
   5 C :    0.258229
   6 N :    0.050288
   7 H :   -0.154568
   8 H :   -0.069763
   9 H :   -0.278066
  10 H :    0.024129
  11 H :   -0.224443
  12 H :   -0.147935
  13 H :   -0.597511
  14 H :   -0.046600
  15 H :   -0.051310
  16 H :   -0.089388
  17 H :   -0.137622
  18 H :    0.051375
Sum of atomic charges:    0.0000000

LOEWDIN ATOMIC CHARGES
----------------------
   0 C :    0.117924
   1 C :   -0.048591
   2 C :    0.079189
   3 N :   -0.004737
   4 C :   -0.258881
   5 C :    0.123684
   6 N :    0.186147
   7 H :    0.007353
   8 H :    0.013980
   9 H :    0.015023
  10 H :    0.020792
  11 H :    0.036838
  12 H :   -0.133044
  13 H :   -0.107451
  14 H :    0.013892
  15 H :    0.017595
  16 H :   -0.044159
  17 H :   -0.021050
  18 H :   -0.014502

  Mayer bond orders larger than 0.100000
B(  0-C ,  1-C ) :   1.2379 B(  0-C , 16-H ) :   0.8767 B(  0-C , 17-H ) :   0.8290
B(  0-C , 18-H ) :   0.7727 B(  1-C ,  2-C ) :   1.0858 B(  1-C ,  7-H ) :   0.9240
B(  1-C ,  8-H ) :   0.9589 B(  1-C , 10-H ) :   0.1124 B(  1-C , 16-H ) :   0.1691
B(  1-C , 17-H ) :   0.1979 B(  1-C , 18-H ) :   0.1808 B(  2-C ,  3-N ) :   0.8739
B(  2-C ,  7-H ) :   0.1533 B(  2-C ,  9-H ) :   0.9492 B(  2-C , 10-H ) :   0.7970
B(  2-C , 11-H ) :  -0.1341 B(  3-N ,  4-C ) :   0.8126 B(  3-N ,  5-C ) :   0.4183
B(  3-N ,  6-N ) :   0.1657 B(  3-N ,  9-H ) :   0.1045 B(  3-N , 10-H ) :   0.1270
B(  3-N , 11-H ) :   1.4322 B(  4-C ,  5-C ) :   1.6432 B(  4-C ,  6-N ) :   0.9590
B(  4-C , 11-H ) :  -0.3216 B(  4-C , 12-H ) :   0.2541 B(  4-C , 15-H ) :  -0.1011
B(  5-C ,  6-N ) :   0.2770 B(  5-C , 12-H ) :   0.5827 B(  5-C , 13-H ) :   0.9817
B(  6-N , 14-H ) :   1.1072 B(  6-N , 15-H ) :   1.2233 B(  9-H , 10-H ) :  -0.1008
B( 14-H , 15-H ) :  -0.1751

Dispersion correction           -0.005429699
FINAL SINGLE POINT ENERGY      -306.940354736562

DIPOLE MOMENT
-------------
                                X             Y             Z
Electronic contribution:     -2.10990      -5.20024      -2.21211
Nuclear contribution   :      1.57254       4.00091       3.05280
                        -----------------------------------------
Total Dipole Moment    :     -0.53736      -1.19933       0.84069
                        -----------------------------------------
Magnitude (a.u.)       :      1.56010
Magnitude (Debye)      :      3.96547

Rotational constants in cm-1:     0.162000     0.052481     0.044960
Rotational constants in MHz :  4856.630973  1573.334851  1347.874124

                             ****ORCA TERMINATED NORMALLY****
TOTAL RUN TIME: 0 days 0 hours 0 minutes 41 seconds 827 msec
