                         Program Version 5.0.0 -  RELEASE  -
|  1> !wB97X-D3 def2-SVPD TightSCF RIJCOSX def2/J CPCM(Water)
|  2> * xyz 0 1
|  3> C          6.11000       -0.24300       -2.99400
|  4> C          5.04600       -1.17100       -2.37800
|  5> C          3.92300       -1.59200       -3.33800
|  6> N          4.25100       -2.81100       -4.10000
|  7> C          4.85900       -2.91400       -5.27400
|  8> N          5.28900       -1.86400       -5.93700
|  9> C          5.03500       -4.09500       -5.80900
| 10> H          5.53800       -2.05900       -2.03100
| 11> H          4.57900       -0.65200       -1.54900
| 12> H          3.03300       -1.77400       -2.76600
| 13> H          3.66900       -0.76500       -4.00300
| 14> H          3.96300       -3.69400       -3.69800
| 15> H          5.15000       -0.96200       -5.52100
| 16> H          5.76100       -1.96200       -6.81500
| 17> H          4.64900       -4.89400       -5.32700
| 18> H          5.50800       -4.20500       -6.68400
| 19> H          6.58307       -0.73884       -3.81574
| 20> H          6.84347       -0.00050       -2.25365
| 21> H          5.64256        0.65496       -3.34051
| 22> *
| 23> %MaxCore 64000
| 24> %pal nprocs 8
| 25> end
| 26> %scf
| 27>   Convergence VeryTight
| 28>   MaxIter 150
| 29> end
| 30>
| 31>                          ****END OF INPUT****

CARTESIAN COORDINATES (ANGSTROEM)
---------------------------------
  C      6.110000   -0.243000   -2.994000
  C      5.046000   -1.171000   -2.378000
  C      3.923000   -1.592000   -3.338000
  N      4.251000   -2.811000   -4.100000
  C      4.859000   -2.914000   -5.274000
  N      5.289000   -1.864000   -5.937000
  C      5.035000   -4.095000   -5.809000
  H      5.538000   -2.059000   -2.031000
  H      4.579000   -0.652000   -1.549000
  H      3.033000   -1.774000   -2.766000
  H      3.669000   -0.765000   -4.003000
  H      3.963000   -3.694000   -3.698000
  H      5.150000   -0.962000   -5.521000
  H      5.761000   -1.962000   -6.815000
  H      4.649000   -4.894000   -5.327000
  H      5.508000   -4.205000   -6.684000
  H      6.583070   -0.738840   -3.815740
  H      6.843470   -0.000500   -2.253650
  H      5.642560    0.654960   -3.340510

 Total Charge           Charge          ....    0
 Multiplicity           Mult            ....    1
 Number of Electrons    NEL             ....   56
 Basis Dimension        Dim             ....  236

ORBITAL ENERGIES
----------------

  NO   OCC          E(Eh)            E(eV)
   0   2.0000     -14.435234      -392.8027
   1   2.0000     -14.430660      -392.6782
   2   2.0000     -10.339029      -281.3393
   3   2.0000     -10.317762      -280.7606
   4   2.0000     -10.276924      -279.6493
   5   2.0000     -10.267527      -279.3936
   6   2.0000     -10.199391      -277.5395
   7   2.0000      -1.080139       -29.3921
   8   2.0000      -0.991341       -26.9757
   9   2.0000      -0.893149       -24.3038
  10   2.0000      -0.832879       -22.6638
  11   2.0000      -0.778998       -21.1976
  12   2.0000      -0.705348       -19.1935
  13   2.0000      -0.693276       -18.8650
  14   2.0000      -0.642415       -17.4810
  15   2.0000      -0.603758       -16.4291
  16   2.0000      -0.578927       -15.7534
  17   2.0000      -0.548375       -14.9220
  18   2.0000      -0.533750       -14.5241
  19   2.0000      -0.510674       -13.8962
  20   2.0000      -0.488742       -13.2994
  21   2.0000      -0.485578       -13.2132
  22   2.0000      -0.479625       -13.0513
  23   2.0000      -0.446345       -12.1457
  24   2.0000      -0.433559       -11.7977
  25   2.0000      -0.424582       -11.5535
  26   2.0000      -0.343792        -9.3550
  27   2.0000      -0.256599        -6.9824
  28   0.0000       0.093919         2.5557
  29   0.0000       0.115678         3.1477
  30   0.0000       0.122800         3.3416
  31   0.0000       0.127865         3.4794
  32   0.0000       0.148493         4.0407

MULLIKEN ATOMIC CHARGES
-----------------------
   0 C :    0.662508
   1 C :   -0.166589
   2 C :    0.719268
   3 N :   -0.487118
   4 C :    0.625188
   5 N :    0.151306
   6 C :    0.300256
   7 H :   -0.165727
   8 H :   -0.075071
   9 H :   -0.308463
  10 H :   -0.034542
  11 H :   -0.137006
  12 H :   -0.139869
  13 H :   -0.139619
  14 H :   -0.216127
  15 H :   -0.395618
  16 H :   -0.142330
  17 H :   -0.093944
  18 H :    0.043497
Sum of atomic charges:    0.0000000

LOEWDIN ATOMIC CHARGES
----------------------
   0 C :    0.118675
   1 C :   -0.052634
   2 C :    0.075789
   3 N :   -0.002742
   4 C :   -0.263345
   5 N :    0.209907
   6 C :    0.100392
   7 H :    0.008237
   8 H :    0.014480
   9 H :    0.014760
  10 H :    0.021669
  11 H :    0.042648
  12 H :   -0.021638
  13 H :    0.022452
  14 H :   -0.107720
  15 H :   -0.111889
  16 H :   -0.036476
  17 H :   -0.018526
  18 H :   -0.014037

  Mayer bond orders larger than 0.100000
B(  0-C ,  1-C ) :   1.2212 B(  0-C , 16-H ) :   0.8743 B(  0-C , 17-H ) :   0.8246
B(  0-C , 18-H ) :   0.7884 B(  1-C ,  2-C ) :   1.0906 B(  1-C ,  7-H ) :   0.9148
B(  1-C ,  8-H ) :   0.9617 B(  1-C , 10-H ) :   0.1130 B(  1-C , 16-H ) :   0.1727
B(  1-C , 17-H ) :   0.1913 B(  1-C , 18-H ) :   0.1759 B(  2-C ,  3-N ) :   0.9105
B(  2-C ,  7-H ) :   0.1770 B(  2-C ,  9-H ) :   0.9432 B(  2-C , 10-H ) :   0.8022
B(  2-C , 11-H ) :  -0.1384 B(  3-N ,  4-C ) :   0.9886 B(  3-N ,  5-N ) :   0.1928
B(  3-N ,  6-C ) :   0.2129 B(  3-N ,  9-H ) :   0.1297 B(  3-N , 10-H ) :   0.1681
B(  3-N , 11-H ) :   1.2569 B(  4-C ,  5-N ) :   1.0033 B(  4-C ,  6-C ) :   1.5338
B(  4-C , 11-H ) :  -0.1830 B(  4-C , 13-H ) :  -0.1840 B(  4-C , 14-H ) :   0.1538
B(  4-C , 15-H ) :   0.1056 B(  5-N ,  6-C ) :   0.2029 B(  5-N , 12-H ) :   1.0283
B(  5-N , 13-H ) :   1.3449 B(  6-C , 14-H ) :   0.7664 B(  6-C , 15-H ) :   0.8214
B(  9-H , 10-H ) :  -0.1075 B( 12-H , 13-H ) :  -0.2225 B( 14-H , 15-H ) :   0.1527

Dispersion correction           -0.005497829
FINAL SINGLE POINT ENERGY      -306.939426790583

DIPOLE MOMENT
-------------
                                X             Y             Z
Electronic contribution:     -1.78859      -2.14795      -2.34292
Nuclear contribution   :      1.51690       3.51220       3.08084
                        -----------------------------------------
Total Dipole Moment    :     -0.27169       1.36425       0.73793
                        -----------------------------------------
Magnitude (a.u.)       :      1.57465
Magnitude (Debye)      :      4.00244

Rotational constants in cm-1:     0.157356     0.054159     0.045800
Rotational constants in MHz :  4717.408762  1623.658444  1373.061894

                             ****ORCA TERMINATED NORMALLY****
TOTAL RUN TIME: 0 days 0 hours 0 minutes 42 seconds 145 msec
