                         Program Version 5.0.0 -  RELEASE  -
|  1> !wB97X-D3 RIJCOSX def2-TZVPD def2/J TightSCF
|  2> *xyz -1 1
|  3> C          4.93020       -7.37532       -2.64962
|  4> C          3.84189       -6.95161       -3.63283
|  5> H          3.45814       -5.95442       -3.40712
|  6> H          2.98848       -7.64361       -3.56708
|  7> S          4.31812       -6.91593       -5.36869
|  8> O          5.40615       -5.89948       -5.51297
|  9> O          3.11191       -6.44508       -6.04379
| 10> C          6.17399       -6.48552       -2.60631
| 11> H          4.46961       -7.40617       -1.65588
| 12> H          5.23013       -8.39868       -2.88591
| 13> O          4.76340       -8.23942       -5.69863
| 14> H          6.62449       -6.45478       -3.57637
| 15> H          6.87304       -6.88376       -1.90088
| 16> H          5.89434       -5.49571       -2.31140
| 17> *
| 18>
| 19> %MaxCore 64000
| 20>
| 21> %pal nprocs 8
| 22> end
| 23>
| 24> %scf
| 25>   MaxIter 150
| 26> end
| 27>
| 28>
| 29>                          ****END OF INPUT****

CARTESIAN COORDINATES (ANGSTROEM)
---------------------------------
  C      4.930200   -7.375320   -2.649620
  C      3.841890   -6.951610   -3.632830
  H      3.458140   -5.954420   -3.407120
  H      2.988480   -7.643610   -3.567080
  S      4.318120   -6.915930   -5.368690
  O      5.406150   -5.899480   -5.512970
  O      3.111910   -6.445080   -6.043790
  C      6.173990   -6.485520   -2.606310
  H      4.469610   -7.406170   -1.655880
  H      5.230130   -8.398680   -2.885910
  O      4.763400   -8.239420   -5.698630
  H      6.624490   -6.454780   -3.576370
  H      6.873040   -6.883760   -1.900880
  H      5.894340   -5.495710   -2.311400

 Total Charge           Charge          ....   -1
 Multiplicity           Mult            ....    1
 Number of Electrons    NEL             ....   66
 Basis Dimension        Dim             ....  340

ORBITAL ENERGIES
----------------

  NO   OCC          E(Eh)            E(eV)
   0   2.0000     -88.938310     -2420.1345
   1   2.0000     -19.017466      -517.4916
   2   2.0000     -19.007472      -517.2196
   3   2.0000     -19.000687      -517.0350
   4   2.0000     -10.146047      -276.0880
   5   2.0000     -10.141330      -275.9596
   6   2.0000     -10.123296      -275.4689
   7   2.0000      -8.001065      -217.7200
   8   2.0000      -5.955286      -162.0516
   9   2.0000      -5.954163      -162.0210
  10   2.0000      -5.953747      -162.0097
  11   2.0000      -1.040511       -28.3137
  12   2.0000      -0.910369       -24.7724
  13   2.0000      -0.882205       -24.0060
  14   2.0000      -0.774691       -21.0804
  15   2.0000      -0.680858       -18.5271
  16   2.0000      -0.581811       -15.8319
  17   2.0000      -0.490769       -13.3545
  18   2.0000      -0.435096       -11.8396
  19   2.0000      -0.420223       -11.4349
  20   2.0000      -0.392488       -10.6801
  21   2.0000      -0.378199       -10.2913
  22   2.0000      -0.361347        -9.8327
  23   2.0000      -0.351499        -9.5648
  24   2.0000      -0.319051        -8.6818
  25   2.0000      -0.308924        -8.4062
  26   2.0000      -0.297703        -8.1009
  27   2.0000      -0.250534        -6.8174
  28   2.0000      -0.249393        -6.7863
  29   2.0000      -0.214004        -5.8233
  30   2.0000      -0.201446        -5.4816
  31   2.0000      -0.194470        -5.2918
  32   2.0000      -0.159383        -4.3370
  33   0.0000       0.172518         4.6945
  34   0.0000       0.182393         4.9632
  35   0.0000       0.184428         5.0186
  36   0.0000       0.189405         5.1540
  37   0.0000       0.209356         5.6969

MULLIKEN ATOMIC CHARGES
-----------------------
   0 C :   -0.261631
   1 C :   -0.589339
   2 H :    0.287392
   3 H :    0.255571
   4 S :    1.186056
   5 O :   -0.729061
   6 O :   -0.711657
   7 C :   -1.169367
   8 H :    0.224472
   9 H :    0.273359
  10 O :   -0.702066
  11 H :    0.346179
  12 H :    0.298638
  13 H :    0.291455
Sum of atomic charges:   -1.0000000

LOEWDIN ATOMIC CHARGES
----------------------
   0 C :   -0.296223
   1 C :   -0.288081
   2 H :    0.091157
   3 H :    0.092473
   4 S :    0.370389
   5 O :   -0.420466
   6 O :   -0.406611
   7 C :   -0.124128
   8 H :    0.091967
   9 H :    0.098866
  10 O :   -0.375749
  11 H :    0.049792
  12 H :    0.052213
  13 H :    0.064400

  Mayer bond orders larger than 0.100000
B(  0-C ,  1-C ) :   0.9532 B(  0-C ,  4-S ) :   0.1274 B(  0-C ,  7-C ) :   0.6345
B(  0-C ,  8-H ) :   0.9659 B(  0-C ,  9-H ) :   0.9408 B(  1-C ,  2-H ) :   0.9360
B(  1-C ,  3-H ) :   0.9796 B(  1-C ,  4-S ) :   0.8159 B(  1-C ,  5-O ) :   0.1027
B(  1-C ,  6-O ) :   0.1508 B(  1-C ,  7-C ) :   0.1352 B(  1-C , 10-O ) :   0.1083
B(  4-S ,  5-O ) :   1.4677 B(  4-S ,  6-O ) :   1.4666 B(  4-S , 10-O ) :   1.5229
B(  7-C , 11-H ) :   0.9659 B(  7-C , 12-H ) :   0.9498 B(  7-C , 13-H ) :   0.9790

Dispersion correction           -0.004547932
FINAL SINGLE POINT ENERGY      -742.540244573957

DIPOLE MOMENT
-------------
                                X             Y             Z
Electronic contribution:     -3.08492      -0.30462     -10.18361
Nuclear contribution   :      3.14317       0.05805      12.49367
                        -----------------------------------------
Total Dipole Moment    :      0.05825      -0.24658       2.31006
                        -----------------------------------------
Magnitude (a.u.)       :      2.32391
Magnitude (Debye)      :      5.90692

Rotational constants in cm-1:     0.133431     0.055055     0.052069
Rotational constants in MHz :  4000.170974  1650.506165  1561.001383

                             ****ORCA TERMINATED NORMALLY****
TOTAL RUN TIME: 0 days 0 hours 0 minutes 46 seconds 926 msec
