                         Program Version 5.0.0 -  RELEASE  -
|  1> !wB97X-D3 RIJCOSX def2-TZVPD def2/J TightSCF
|  2> *xyz 1 1
|  3> C          5.55821       -1.99291       -6.21505
|  4> C          4.18188       -2.58967       -6.29891
|  5> N          3.14587       -1.76843       -6.48675
|  6> N          4.01910       -3.86431       -6.22743
|  7> H          4.76849       -4.59115       -5.99077
|  8> H          3.12241       -4.33339       -6.31462
|  9> H          3.28164       -0.77779       -6.56655
| 10> H          2.21255       -2.13419       -6.56225
| 11> C          6.41926       -2.54294       -5.07763
| 12> C          5.89651       -2.16931       -3.69455
| 13> H          7.42888       -2.14367       -5.20808
| 14> H          6.50589       -3.62754       -5.17550
| 15> H          6.03683       -2.19819       -7.17685
| 16> H          5.46761       -0.90737       -6.12797
| 17> H          5.81870       -1.10488       -3.61824
| 18> H          6.57185       -2.53200       -2.94804
| 19> H          4.93221       -2.60892       -3.54698
| 20> *
| 21>
| 22> %MaxCore 64000
| 23>
| 24> %pal nprocs 8
| 25> end
| 26>
| 27> %scf
| 28>   MaxIter 150
| 29> end
| 30>
| 31>
| 32>                          ****END OF INPUT****

CARTESIAN COORDINATES (ANGSTROEM)
---------------------------------
  C      5.558210   -1.992910   -6.215050
  C      4.181880   -2.589670   -6.298910
  N      3.145870   -1.768430   -6.486750
  N      4.019100   -3.864310   -6.227430
  H      4.768490   -4.591150   -5.990770
  H      3.122410   -4.333390   -6.314620
  H      3.281640   -0.777790   -6.566550
  H      2.212550   -2.134190   -6.562250
  C      6.419260   -2.542940   -5.077630
  C      5.896510   -2.169310   -3.694550
  H      7.428880   -2.143670   -5.208080
  H      6.505890   -3.627540   -5.175500
  H      6.036830   -2.198190   -7.176850
  H      5.467610   -0.907370   -6.127970
  H      5.818700   -1.104880   -3.618240
  H      6.571850   -2.532000   -2.948040
  H      4.932210   -2.608920   -3.546980

 Total Charge           Charge          ....    1
 Multiplicity           Mult            ....    1
 Number of Electrons    NEL             ....   48
 Basis Dimension        Dim             ....  321

ORBITAL ENERGIES
----------------

  NO   OCC          E(Eh)            E(eV)
   0   2.0000     -14.669828      -399.1863
   1   2.0000     -14.658288      -398.8723
   2   2.0000     -10.598820      -288.4086
   3   2.0000     -10.467572      -284.8371
   4   2.0000     -10.434649      -283.9412
   5   2.0000     -10.396012      -282.8899
   6   2.0000      -1.318485       -35.8778
   7   2.0000      -1.218304       -33.1517
   8   2.0000      -1.089534       -29.6477
   9   2.0000      -1.001726       -27.2584
  10   2.0000      -0.943948       -25.6861
  11   2.0000      -0.886309       -24.1177
  12   2.0000      -0.870808       -23.6959
  13   2.0000      -0.834959       -22.7204
  14   2.0000      -0.793095       -21.5812
  15   2.0000      -0.755286       -20.5524
  16   2.0000      -0.725829       -19.7508
  17   2.0000      -0.685945       -18.6655
  18   2.0000      -0.671233       -18.2652
  19   2.0000      -0.657525       -17.8922
  20   2.0000      -0.594295       -16.1716
  21   2.0000      -0.592196       -16.1145
  22   2.0000      -0.587163       -15.9775
  23   2.0000      -0.581573       -15.8254
  24   0.0000      -0.123058        -3.3486
  25   0.0000      -0.090478        -2.4620
  26   0.0000      -0.059518        -1.6196
  27   0.0000      -0.046817        -1.2740
  28   0.0000      -0.026541        -0.7222

MULLIKEN ATOMIC CHARGES
-----------------------
   0 C :   -0.370699
   1 C :    0.626797
   2 N :   -0.397344
   3 N :   -0.365157
   4 H :    0.256408
   5 H :    0.216418
   6 H :    0.245641
   7 H :    0.189317
   8 C :   -0.396465
   9 C :   -1.282510
  10 H :    0.298116
  11 H :    0.350432
  12 H :    0.288440
  13 H :    0.319085
  14 H :    0.347934
  15 H :    0.354237
  16 H :    0.319351
Sum of atomic charges:    1.0000000

LOEWDIN ATOMIC CHARGES
----------------------
   0 C :   -0.114196
   1 C :   -0.355357
   2 N :    0.222716
   3 N :    0.217216
   4 H :    0.190746
   5 H :    0.151485
   6 H :    0.139050
   7 H :    0.139906
   8 C :   -0.239125
   9 C :   -0.083366
  10 H :    0.124438
  11 H :    0.102045
  12 H :    0.144140
  13 H :    0.130493
  14 H :    0.079444
  15 H :    0.080935
  16 H :    0.069430

  Mayer bond orders larger than 0.100000
B(  0-C ,  1-C ) :   0.7472 B(  0-C ,  8-C ) :   0.7448 B(  0-C , 12-H ) :   0.9266
B(  0-C , 13-H ) :   0.9275 B(  1-C ,  2-N ) :   1.1221 B(  1-C ,  3-N ) :   1.2217
B(  1-C ,  8-C ) :   0.1173 B(  1-C ,  9-C ) :   0.1374 B(  1-C , 13-H ) :  -0.1053
B(  2-N ,  3-N ) :   0.1089 B(  2-N ,  6-H ) :   0.9523 B(  2-N ,  7-H ) :   1.0640
B(  3-N ,  4-H ) :   0.9226 B(  3-N ,  5-H ) :   1.0205 B(  8-C ,  9-C ) :   0.6634
B(  8-C , 10-H ) :   0.9581 B(  8-C , 11-H ) :   0.8947 B(  9-C , 14-H ) :   0.9482
B(  9-C , 15-H ) :   0.9347 B(  9-C , 16-H ) :   0.9528

Dispersion correction           -0.004499177
FINAL SINGLE POINT ENERGY      -268.373586738726

DIPOLE MOMENT
-------------
                                X             Y             Z
Electronic contribution:     -4.01410      -0.93709      -3.72124
Nuclear contribution   :      2.70373       0.48594       2.85544
                        -----------------------------------------
Total Dipole Moment    :     -1.31037      -0.45115      -0.86580
                        -----------------------------------------
Magnitude (a.u.)       :      1.63408
Magnitude (Debye)      :      4.15351

Rotational constants in cm-1:     0.185545     0.074107     0.068805
Rotational constants in MHz :  5562.487769  2221.680591  2062.713441

                             ****ORCA TERMINATED NORMALLY****
TOTAL RUN TIME: 0 days 0 hours 0 minutes 49 seconds 959 msec
