                         Program Version 5.0.0 -  RELEASE  -
|  1> !wB97X-D3 RIJCOSX def2-TZVPD def2/J TightSCF
|  2> *xyz 0 1
|  3> C          4.93020       -7.37532       -2.64962
|  4> C          3.84189       -6.95161       -3.63283
|  5> H          3.45814       -5.95442       -3.40712
|  6> H          2.98848       -7.64361       -3.56708
|  7> S          4.31812       -6.91593       -5.36869
|  8> F          5.40615       -5.89948       -5.51297
|  9> O          3.11191       -6.44508       -6.04379
| 10> C          6.17399       -6.48552       -2.60631
| 11> H          4.46961       -7.40617       -1.65588
| 12> H          5.23013       -8.39868       -2.88591
| 13> O          4.76340       -8.23942       -5.69863
| 14> H          6.62449       -6.45478       -3.57637
| 15> H          6.87304       -6.88376       -1.90088
| 16> H          5.89434       -5.49571       -2.31140
| 17> *
| 18>
| 19> %MaxCore 64000
| 20>
| 21> %pal nprocs 8
| 22> end
| 23>
| 24> %scf
| 25>   MaxIter 150
| 26> end
| 27>
| 28>
| 29>                          ****END OF INPUT****

CARTESIAN COORDINATES (ANGSTROEM)
---------------------------------
  C      4.930200   -7.375320   -2.649620
  C      3.841890   -6.951610   -3.632830
  H      3.458140   -5.954420   -3.407120
  H      2.988480   -7.643610   -3.567080
  S      4.318120   -6.915930   -5.368690
  F      5.406150   -5.899480   -5.512970
  O      3.111910   -6.445080   -6.043790
  C      6.173990   -6.485520   -2.606310
  H      4.469610   -7.406170   -1.655880
  H      5.230130   -8.398680   -2.885910
  O      4.763400   -8.239420   -5.698630
  H      6.624490   -6.454780   -3.576370
  H      6.873040   -6.883760   -1.900880
  H      5.894340   -5.495710   -2.311400

 Total Charge           Charge          ....    0
 Multiplicity           Mult            ....    1
 Number of Electrons    NEL             ....   66
 Basis Dimension        Dim             ....  340

ORBITAL ENERGIES
----------------

  NO   OCC          E(Eh)            E(eV)
   0   2.0000     -89.194286     -2427.0999
   1   2.0000     -24.883669      -677.1190
   2   2.0000     -19.248590      -523.7808
   3   2.0000     -19.238434      -523.5044
   4   2.0000     -10.338397      -281.3221
   5   2.0000     -10.305838      -280.4361
   6   2.0000     -10.279582      -279.7216
   7   2.0000      -8.257641      -224.7018
   8   2.0000      -6.215094      -169.1213
   9   2.0000      -6.208865      -168.9518
  10   2.0000      -6.208085      -168.9306
  11   2.0000      -1.459674       -39.7197
  12   2.0000      -1.229300       -33.4510
  13   2.0000      -1.135278       -30.8925
  14   2.0000      -0.952124       -25.9086
  15   2.0000      -0.865899       -23.5623
  16   2.0000      -0.807269       -21.9669
  17   2.0000      -0.748028       -20.3549
  18   2.0000      -0.675685       -18.3863
  19   2.0000      -0.663872       -18.0649
  20   2.0000      -0.651920       -17.7397
  21   2.0000      -0.595646       -16.2084
  22   2.0000      -0.580284       -15.7903
  23   2.0000      -0.564010       -15.3475
  24   2.0000      -0.552887       -15.0448
  25   2.0000      -0.534867       -14.5545
  26   2.0000      -0.494976       -13.4690
  27   2.0000      -0.482965       -13.1421
  28   2.0000      -0.468840       -12.7578
  29   2.0000      -0.459578       -12.5058
  30   2.0000      -0.436340       -11.8734
  31   2.0000      -0.420970       -11.4552
  32   2.0000      -0.414062       -11.2672
  33   0.0000       0.054326         1.4783
  34   0.0000       0.062726         1.7069
  35   0.0000       0.069474         1.8905
  36   0.0000       0.072804         1.9811
  37   0.0000       0.096942         2.6379

MULLIKEN ATOMIC CHARGES
-----------------------
   0 C :   -0.291415
   1 C :   -0.578076
   2 H :    0.359110
   3 H :    0.316402
   4 S :    1.205040
   5 F :   -0.171201
   6 O :   -0.599239
   7 C :   -1.225538
   8 H :    0.272173
   9 H :    0.302949
  10 O :   -0.585198
  11 H :    0.348430
  12 H :    0.309641
  13 H :    0.336923
Sum of atomic charges:    0.0000000

LOEWDIN ATOMIC CHARGES
----------------------
   0 C :   -0.275809
   1 C :   -0.239370
   2 H :    0.108282
   3 H :    0.120379
   4 S :    0.613360
   5 F :   -0.093513
   6 O :   -0.293708
   7 C :   -0.101218
   8 H :    0.113290
   9 H :    0.110262
  10 O :   -0.264710
  11 H :    0.055677
  12 H :    0.072321
  13 H :    0.074756

  Mayer bond orders larger than 0.100000
B(  0-C ,  1-C ) :   0.9342 B(  0-C ,  4-S ) :   0.1162 B(  0-C ,  7-C ) :   0.6027
B(  0-C ,  8-H ) :   0.9386 B(  0-C ,  9-H ) :   0.9387 B(  1-C ,  2-H ) :   0.8915
B(  1-C ,  3-H ) :   0.9167 B(  1-C ,  4-S ) :   0.7863 B(  1-C ,  6-O ) :   0.1182
B(  1-C ,  7-C ) :   0.1651 B(  4-S ,  5-F ) :   0.9562 B(  4-S ,  6-O ) :   1.6213
B(  4-S , 10-O ) :   1.6834 B(  7-C , 11-H ) :   0.9286 B(  7-C , 12-H ) :   0.9720
B(  7-C , 13-H ) :   0.9674

Dispersion correction           -0.004510730
FINAL SINGLE POINT ENERGY      -767.074794190413

DIPOLE MOMENT
-------------
                                X             Y             Z
Electronic contribution:     -1.88047       1.40993     -11.76782
Nuclear contribution   :      2.27444      -1.01744      13.40618
                        -----------------------------------------
Total Dipole Moment    :      0.39397       0.39249       1.63837
                        -----------------------------------------
Magnitude (a.u.)       :      1.73018
Magnitude (Debye)      :      4.39776

Rotational constants in cm-1:     0.126966     0.054929     0.051005
Rotational constants in MHz :  3806.345018  1646.729702  1529.089209

                             ****ORCA TERMINATED NORMALLY****
TOTAL RUN TIME: 0 days 0 hours 0 minutes 52 seconds 303 msec
