                         Program Version 5.0.0 -  RELEASE  -
|  1> !wB97X-D3 RIJCOSX def2-TZVPD def2/J TightSCF
|  2> *xyz 0 1
|  3> C          5.55821       -1.99291       -6.21505
|  4> C          4.18188       -2.58967       -6.29891
|  5> C          3.14587       -1.76843       -6.48675
|  6> N          4.01910       -3.86431       -6.22743
|  7> H          4.76849       -4.59115       -5.99077
|  8> H          3.12241       -4.33339       -6.31462
|  9> H          3.28164       -0.77779       -6.56655
| 10> H          2.21255       -2.13419       -6.56225
| 11> C          6.41926       -2.54294       -5.07763
| 12> C          5.89651       -2.16931       -3.69455
| 13> H          7.42888       -2.14367       -5.20808
| 14> H          6.50589       -3.62754       -5.17550
| 15> H          6.03683       -2.19819       -7.17685
| 16> H          5.46761       -0.90737       -6.12797
| 17> H          5.81870       -1.10488       -3.61824
| 18> H          6.57185       -2.53200       -2.94804
| 19> H          4.93221       -2.60892       -3.54698
| 20> *
| 21>
| 22> %MaxCore 64000
| 23>
| 24> %pal nprocs 8
| 25> end
| 26>
| 27> %scf
| 28>   MaxIter 150
| 29> end
| 30>
| 31>
| 32>                          ****END OF INPUT****

CARTESIAN COORDINATES (ANGSTROEM)
---------------------------------
  C      5.558210   -1.992910   -6.215050
  C      4.181880   -2.589670   -6.298910
  C      3.145870   -1.768430   -6.486750
  N      4.019100   -3.864310   -6.227430
  H      4.768490   -4.591150   -5.990770
  H      3.122410   -4.333390   -6.314620
  H      3.281640   -0.777790   -6.566550
  H      2.212550   -2.134190   -6.562250
  C      6.419260   -2.542940   -5.077630
  C      5.896510   -2.169310   -3.694550
  H      7.428880   -2.143670   -5.208080
  H      6.505890   -3.627540   -5.175500
  H      6.036830   -2.198190   -7.176850
  H      5.467610   -0.907370   -6.127970
  H      5.818700   -1.104880   -3.618240
  H      6.571850   -2.532000   -2.948040
  H      4.932210   -2.608920   -3.546980

 Total Charge           Charge          ....    0
 Multiplicity           Mult            ....    1
 Number of Electrons    NEL             ....   48
 Basis Dimension        Dim             ....  321

ORBITAL ENERGIES
----------------

  NO   OCC          E(Eh)            E(eV)
   0   2.0000     -14.429762      -392.6538
   1   2.0000     -10.298449      -280.2351
   2   2.0000     -10.273192      -279.5478
   3   2.0000     -10.271800      -279.5099
   4   2.0000     -10.252536      -278.9857
   5   2.0000     -10.200057      -277.5577
   6   2.0000      -1.051876       -28.6230
   7   2.0000      -0.910661       -24.7803
   8   2.0000      -0.848465       -23.0879
   9   2.0000      -0.793191       -21.5838
  10   2.0000      -0.710737       -19.3401
  11   2.0000      -0.684300       -18.6208
  12   2.0000      -0.621191       -16.9035
  13   2.0000      -0.567496       -15.4424
  14   2.0000      -0.555663       -15.1203
  15   2.0000      -0.547190       -14.8898
  16   2.0000      -0.492388       -13.3986
  17   2.0000      -0.486758       -13.2454
  18   2.0000      -0.469877       -12.7860
  19   2.0000      -0.463964       -12.6251
  20   2.0000      -0.431645       -11.7457
  21   2.0000      -0.419629       -11.4187
  22   2.0000      -0.413861       -11.2617
  23   2.0000      -0.272575        -7.4172
  24   0.0000       0.065237         1.7752
  25   0.0000       0.087359         2.3771
  26   0.0000       0.089310         2.4302
  27   0.0000       0.092213         2.5092
  28   0.0000       0.116079         3.1587

MULLIKEN ATOMIC CHARGES
-----------------------
   0 C :   -0.314608
   1 C :    0.902613
   2 C :   -1.716769
   3 N :   -0.420977
   4 H :    0.194308
   5 H :    0.174044
   6 H :    0.342419
   7 H :    0.368636
   8 C :   -0.351539
   9 C :   -1.216918
  10 H :    0.264107
  11 H :    0.299760
  12 H :    0.240969
  13 H :    0.267373
  14 H :    0.322514
  15 H :    0.336199
  16 H :    0.307868
Sum of atomic charges:   -0.0000000

LOEWDIN ATOMIC CHARGES
----------------------
   0 C :   -0.163378
   1 C :   -0.507554
   2 C :    0.021752
   3 N :    0.090623
   4 H :    0.145166
   5 H :    0.117355
   6 H :    0.012381
   7 H :    0.015127
   8 C :   -0.262983
   9 C :   -0.102366
  10 H :    0.105210
  11 H :    0.090824
  12 H :    0.119874
  13 H :    0.116410
  14 H :    0.070661
  15 H :    0.063427
  16 H :    0.067473

  Mayer bond orders larger than 0.100000
B(  0-C ,  1-C ) :   0.8948 B(  0-C ,  8-C ) :   0.7437 B(  0-C , 12-H ) :   0.9530
B(  0-C , 13-H ) :   0.9066 B(  1-C ,  2-C ) :   0.7868 B(  1-C ,  3-N ) :   1.0575
B(  1-C ,  7-H ) :  -0.1424 B(  1-C ,  9-C ) :   0.1290 B(  2-C ,  3-N ) :   0.1272
B(  2-C ,  6-H ) :   0.9033 B(  2-C ,  7-H ) :   0.9838 B(  3-N ,  4-H ) :   0.9794
B(  3-N ,  5-H ) :   1.0132 B(  8-C ,  9-C ) :   0.6941 B(  8-C , 10-H ) :   0.9700
B(  8-C , 11-H ) :   0.9250 B(  9-C , 14-H ) :   0.9557 B(  9-C , 15-H ) :   0.9287
B(  9-C , 16-H ) :   0.9773

Dispersion correction           -0.004522724
FINAL SINGLE POINT ENERGY      -251.895326581380

DIPOLE MOMENT
-------------
                                X             Y             Z
Electronic contribution:     -1.91763      -1.41013      -2.51241
Nuclear contribution   :      2.30279       0.65856       2.66048
                        -----------------------------------------
Total Dipole Moment    :      0.38517      -0.75157       0.14806
                        -----------------------------------------
Magnitude (a.u.)       :      0.85740
Magnitude (Debye)      :      2.17933

Rotational constants in cm-1:     0.189707     0.076319     0.071159
Rotational constants in MHz :  5687.269526  2287.988194  2133.283230

                             ****ORCA TERMINATED NORMALLY****
TOTAL RUN TIME: 0 days 0 hours 0 minutes 50 seconds 941 msec
