                         Program Version 5.0.0 -  RELEASE  -
|  1> !wB97X-D3 RIJCOSX def2-TZVPD def2/J TightSCF
|  2> *xyz 0 1
|  3> C          4.93020       -7.37532       -2.64962
|  4> C          3.84189       -6.95161       -3.63283
|  5> H          3.45814       -5.95442       -3.40712
|  6> H          2.98848       -7.64361       -3.56708
|  7> S          4.31812       -6.91593       -5.36869
|  8> O          5.40615       -5.89948       -5.51297
|  9> F          3.11191       -6.44508       -6.04379
| 10> C          6.17399       -6.48552       -2.60631
| 11> H          4.46961       -7.40617       -1.65588
| 12> H          5.23013       -8.39868       -2.88591
| 13> O          4.76340       -8.23942       -5.69863
| 14> H          6.62449       -6.45478       -3.57637
| 15> H          6.87304       -6.88376       -1.90088
| 16> H          5.89434       -5.49571       -2.31140
| 17> *
| 18>
| 19> %MaxCore 64000
| 20>
| 21> %pal nprocs 8
| 22> end
| 23>
| 24> %scf
| 25>   MaxIter 150
| 26> end
| 27>
| 28>
| 29>                          ****END OF INPUT****

CARTESIAN COORDINATES (ANGSTROEM)
---------------------------------
  C      4.930200   -7.375320   -2.649620
  C      3.841890   -6.951610   -3.632830
  H      3.458140   -5.954420   -3.407120
  H      2.988480   -7.643610   -3.567080
  S      4.318120   -6.915930   -5.368690
  O      5.406150   -5.899480   -5.512970
  F      3.111910   -6.445080   -6.043790
  C      6.173990   -6.485520   -2.606310
  H      4.469610   -7.406170   -1.655880
  H      5.230130   -8.398680   -2.885910
  O      4.763400   -8.239420   -5.698630
  H      6.624490   -6.454780   -3.576370
  H      6.873040   -6.883760   -1.900880
  H      5.894340   -5.495710   -2.311400

 Total Charge           Charge          ....    0
 Multiplicity           Mult            ....    1
 Number of Electrons    NEL             ....   66
 Basis Dimension        Dim             ....  340

ORBITAL ENERGIES
----------------

  NO   OCC          E(Eh)            E(eV)
   0   2.0000     -89.196926     -2427.1718
   1   2.0000     -24.899186      -677.5413
   2   2.0000     -19.248714      -523.7841
   3   2.0000     -19.231636      -523.3194
   4   2.0000     -10.339486      -281.3517
   5   2.0000     -10.304143      -280.3900
   6   2.0000     -10.262756      -279.2638
   7   2.0000      -8.260243      -224.7726
   8   2.0000      -6.217580      -169.1890
   9   2.0000      -6.211272      -169.0173
  10   2.0000      -6.210935      -169.0081
  11   2.0000      -1.486573       -40.4517
  12   2.0000      -1.223723       -33.2992
  13   2.0000      -1.118422       -30.4338
  14   2.0000      -0.948533       -25.8109
  15   2.0000      -0.868924       -23.6446
  16   2.0000      -0.811742       -22.0886
  17   2.0000      -0.742926       -20.2160
  18   2.0000      -0.683355       -18.5950
  19   2.0000      -0.678270       -18.4567
  20   2.0000      -0.660890       -17.9837
  21   2.0000      -0.595611       -16.2074
  22   2.0000      -0.585616       -15.9354
  23   2.0000      -0.550510       -14.9801
  24   2.0000      -0.545094       -14.8328
  25   2.0000      -0.528077       -14.3697
  26   2.0000      -0.488034       -13.2801
  27   2.0000      -0.469704       -12.7813
  28   2.0000      -0.467955       -12.7337
  29   2.0000      -0.453498       -12.3403
  30   2.0000      -0.433307       -11.7909
  31   2.0000      -0.410416       -11.1680
  32   2.0000      -0.402713       -10.9584
  33   0.0000       0.048950         1.3320
  34   0.0000       0.062938         1.7126
  35   0.0000       0.067597         1.8394
  36   0.0000       0.074331         2.0227
  37   0.0000       0.096012         2.6126

MULLIKEN ATOMIC CHARGES
-----------------------
   0 C :   -0.344882
   1 C :   -0.598116
   2 H :    0.373535
   3 H :    0.342234
   4 S :    1.193086
   5 O :   -0.610036
   6 F :   -0.128290
   7 C :   -1.196066
   8 H :    0.259124
   9 H :    0.306580
  10 O :   -0.582590
  11 H :    0.348656
  12 H :    0.313001
  13 H :    0.323764
Sum of atomic charges:   -0.0000000

LOEWDIN ATOMIC CHARGES
----------------------
   0 C :   -0.266174
   1 C :   -0.247001
   2 H :    0.106909
   3 H :    0.109154
   4 S :    0.618765
   5 O :   -0.313141
   6 F :   -0.068308
   7 C :   -0.100300
   8 H :    0.114143
   9 H :    0.111315
  10 O :   -0.266139
  11 H :    0.055755
  12 H :    0.070209
  13 H :    0.074813

  Mayer bond orders larger than 0.100000
B(  0-C ,  1-C ) :   1.0079 B(  0-C ,  4-S ) :   0.1316 B(  0-C ,  7-C ) :   0.6735
B(  0-C ,  8-H ) :   0.9428 B(  0-C ,  9-H ) :   0.9172 B(  1-C ,  2-H ) :   0.8511
B(  1-C ,  3-H ) :   0.8825 B(  1-C ,  4-S ) :   0.7940 B(  1-C ,  7-C ) :   0.1340
B(  4-S ,  5-O ) :   1.6226 B(  4-S ,  6-F ) :   0.9655 B(  4-S , 10-O ) :   1.6819
B(  7-C , 11-H ) :   0.9524 B(  7-C , 12-H ) :   0.9580 B(  7-C , 13-H ) :   0.9598

Dispersion correction           -0.004531135
FINAL SINGLE POINT ENERGY      -767.063751152324

DIPOLE MOMENT
-------------
                                X             Y             Z
Electronic contribution:     -5.86316       0.47639     -12.76962
Nuclear contribution   :      4.74176      -0.43068      13.97705
                        -----------------------------------------
Total Dipole Moment    :     -1.12140       0.04571       1.20743
                        -----------------------------------------
Magnitude (a.u.)       :      1.64849
Magnitude (Debye)      :      4.19013

Rotational constants in cm-1:     0.131248     0.052952     0.050354
Rotational constants in MHz :  3934.713341  1587.473971  1509.583923

                             ****ORCA TERMINATED NORMALLY****
TOTAL RUN TIME: 0 days 0 hours 0 minutes 50 seconds 646 msec
