                         Program Version 5.0.0 -  RELEASE  -
|  1> !wB97X-D3 RIJCOSX def2-TZVPD def2/J TightSCF
|  2> *xyz 0 1
|  3> C          5.55821       -1.99291       -6.21505
|  4> C          4.18188       -2.58967       -6.29891
|  5> N          3.14587       -1.76843       -6.48675
|  6> C          4.01910       -3.86431       -6.22743
|  7> H          4.76849       -4.59115       -5.99077
|  8> H          3.12241       -4.33339       -6.31462
|  9> H          3.28164       -0.77779       -6.56655
| 10> H          2.21255       -2.13419       -6.56225
| 11> C          6.41926       -2.54294       -5.07763
| 12> C          5.89651       -2.16931       -3.69455
| 13> H          7.42888       -2.14367       -5.20808
| 14> H          6.50589       -3.62754       -5.17550
| 15> H          6.03683       -2.19819       -7.17685
| 16> H          5.46761       -0.90737       -6.12797
| 17> H          5.81870       -1.10488       -3.61824
| 18> H          6.57185       -2.53200       -2.94804
| 19> H          4.93221       -2.60892       -3.54698
| 20> *
| 21>
| 22> %MaxCore 64000
| 23>
| 24> %pal nprocs 8
| 25> end
| 26>
| 27> %scf
| 28>   MaxIter 150
| 29> end
| 30>
| 31>
| 32>                          ****END OF INPUT****

CARTESIAN COORDINATES (ANGSTROEM)
---------------------------------
  C      5.558210   -1.992910   -6.215050
  C      4.181880   -2.589670   -6.298910
  N      3.145870   -1.768430   -6.486750
  C      4.019100   -3.864310   -6.227430
  H      4.768490   -4.591150   -5.990770
  H      3.122410   -4.333390   -6.314620
  H      3.281640   -0.777790   -6.566550
  H      2.212550   -2.134190   -6.562250
  C      6.419260   -2.542940   -5.077630
  C      5.896510   -2.169310   -3.694550
  H      7.428880   -2.143670   -5.208080
  H      6.505890   -3.627540   -5.175500
  H      6.036830   -2.198190   -7.176850
  H      5.467610   -0.907370   -6.127970
  H      5.818700   -1.104880   -3.618240
  H      6.571850   -2.532000   -2.948040
  H      4.932210   -2.608920   -3.546980

 Total Charge           Charge          ....    0
 Multiplicity           Mult            ....    1
 Number of Electrons    NEL             ....   48
 Basis Dimension        Dim             ....  321

ORBITAL ENERGIES
----------------

  NO   OCC          E(Eh)            E(eV)
   0   2.0000     -14.418603      -392.3501
   1   2.0000     -10.295960      -280.1673
   2   2.0000     -10.272903      -279.5399
   3   2.0000     -10.267613      -279.3960
   4   2.0000     -10.248672      -278.8805
   5   2.0000     -10.207173      -277.7513
   6   2.0000      -1.041429       -28.3387
   7   2.0000      -0.911846       -24.8126
   8   2.0000      -0.846400       -23.0317
   9   2.0000      -0.796851       -21.6834
  10   2.0000      -0.716438       -19.4953
  11   2.0000      -0.657558       -17.8931
  12   2.0000      -0.623305       -16.9610
  13   2.0000      -0.592054       -16.1106
  14   2.0000      -0.553679       -15.0664
  15   2.0000      -0.536591       -14.6014
  16   2.0000      -0.497063       -13.5258
  17   2.0000      -0.486495       -13.2382
  18   2.0000      -0.462313       -12.5802
  19   2.0000      -0.446396       -12.1470
  20   2.0000      -0.426615       -11.6088
  21   2.0000      -0.419603       -11.4180
  22   2.0000      -0.414001       -11.2655
  23   2.0000      -0.281318        -7.6551
  24   0.0000       0.070147         1.9088
  25   0.0000       0.087637         2.3847
  26   0.0000       0.090917         2.4740
  27   0.0000       0.093076         2.5327
  28   0.0000       0.115415         3.1406

MULLIKEN ATOMIC CHARGES
-----------------------
   0 C :   -0.283538
   1 C :    0.921604
   2 N :   -0.443723
   3 C :   -1.567117
   4 H :    0.218162
   5 H :    0.332186
   6 H :    0.188894
   7 H :    0.155987
   8 C :   -0.275522
   9 C :   -1.306200
  10 H :    0.282457
  11 H :    0.288753
  12 H :    0.222785
  13 H :    0.262952
  14 H :    0.326624
  15 H :    0.336206
  16 H :    0.339490
Sum of atomic charges:    0.0000000

LOEWDIN ATOMIC CHARGES
----------------------
   0 C :   -0.162418
   1 C :   -0.488946
   2 N :    0.099543
   3 C :   -0.000952
   4 H :    0.057780
   5 H :    0.025373
   6 H :    0.095717
   7 H :    0.106579
   8 C :   -0.259391
   9 C :   -0.102812
  10 H :    0.104721
  11 H :    0.096343
  12 H :    0.121267
  13 H :    0.108913
  14 H :    0.066969
  15 H :    0.064051
  16 H :    0.067264

  Mayer bond orders larger than 0.100000
B(  0-C ,  1-C ) :   0.5922 B(  0-C ,  3-C ) :  -0.1914 B(  0-C ,  8-C ) :   0.7501
B(  0-C ,  9-C ) :   0.1095 B(  0-C , 12-H ) :   0.9590 B(  0-C , 13-H ) :   1.0273
B(  1-C ,  2-N ) :   0.9655 B(  1-C ,  3-C ) :   0.9041 B(  1-C ,  5-H ) :  -0.1538
B(  1-C ,  8-C ) :   0.1366 B(  1-C ,  9-C ) :   0.1175 B(  1-C , 13-H ) :  -0.1573
B(  2-N ,  3-C ) :   0.1358 B(  2-N ,  6-H ) :   1.0275 B(  2-N ,  7-H ) :   1.0549
B(  3-C ,  4-H ) :   1.0406 B(  3-C ,  5-H ) :   1.0651 B(  3-C ,  8-C ) :   0.1444
B(  8-C ,  9-C ) :   0.6208 B(  8-C , 10-H ) :   0.9684 B(  8-C , 11-H ) :   0.9293
B(  9-C , 14-H ) :   0.9525 B(  9-C , 15-H ) :   0.9264 B(  9-C , 16-H ) :   0.9678

Dispersion correction           -0.004481361
FINAL SINGLE POINT ENERGY      -251.905384674581

DIPOLE MOMENT
-------------
                                X             Y             Z
Electronic contribution:     -2.68421       0.43302      -2.77981
Nuclear contribution   :      2.50934       0.16282       2.72182
                        -----------------------------------------
Total Dipole Moment    :     -0.17487       0.59584      -0.05800
                        -----------------------------------------
Magnitude (a.u.)       :      0.62368
Magnitude (Debye)      :      1.58526

Rotational constants in cm-1:     0.192764     0.074934     0.070466
Rotational constants in MHz :  5778.908020  2246.454937  2112.518546

                             ****ORCA TERMINATED NORMALLY****
TOTAL RUN TIME: 0 days 0 hours 0 minutes 48 seconds 868 msec
