                         Program Version 5.0.0 -  RELEASE  -
|  1> !wB97X-D3 RIJCOSX def2-TZVPD def2/J TightSCF
|  2> *xyz 0 1
|  3> C          4.93020       -7.37532       -2.64962
|  4> C          3.84189       -6.95161       -3.63283
|  5> H          3.45814       -5.95442       -3.40712
|  6> H          2.98848       -7.64361       -3.56708
|  7> S          4.31812       -6.91593       -5.36869
|  8> O          5.40615       -5.89948       -5.51297
|  9> O          3.11191       -6.44508       -6.04379
| 10> C          6.17399       -6.48552       -2.60631
| 11> H          4.46961       -7.40617       -1.65588
| 12> H          5.23013       -8.39868       -2.88591
| 13> F          4.76340       -8.23942       -5.69863
| 14> H          6.62449       -6.45478       -3.57637
| 15> H          6.87304       -6.88376       -1.90088
| 16> H          5.89434       -5.49571       -2.31140
| 17> *
| 18>
| 19> %MaxCore 64000
| 20>
| 21> %pal nprocs 8
| 22> end
| 23>
| 24> %scf
| 25>   MaxIter 150
| 26> end
| 27>
| 28>
| 29>                          ****END OF INPUT****

CARTESIAN COORDINATES (ANGSTROEM)
---------------------------------
  C      4.930200   -7.375320   -2.649620
  C      3.841890   -6.951610   -3.632830
  H      3.458140   -5.954420   -3.407120
  H      2.988480   -7.643610   -3.567080
  S      4.318120   -6.915930   -5.368690
  O      5.406150   -5.899480   -5.512970
  O      3.111910   -6.445080   -6.043790
  C      6.173990   -6.485520   -2.606310
  H      4.469610   -7.406170   -1.655880
  H      5.230130   -8.398680   -2.885910
  F      4.763400   -8.239420   -5.698630
  H      6.624490   -6.454780   -3.576370
  H      6.873040   -6.883760   -1.900880
  H      5.894340   -5.495710   -2.311400

 Total Charge           Charge          ....    0
 Multiplicity           Mult            ....    1
 Number of Electrons    NEL             ....   66
 Basis Dimension        Dim             ....  340

ORBITAL ENERGIES
----------------

  NO   OCC          E(Eh)            E(eV)
   0   2.0000     -89.198409     -2427.2121
   1   2.0000     -24.913506      -677.9310
   2   2.0000     -19.239301      -523.5280
   3   2.0000     -19.232256      -523.3363
   4   2.0000     -10.339652      -281.3562
   5   2.0000     -10.306572      -280.4561
   6   2.0000     -10.266977      -279.3786
   7   2.0000      -8.261680      -224.8117
   8   2.0000      -6.219168      -169.2322
   9   2.0000      -6.212548      -169.0520
  10   2.0000      -6.212313      -169.0456
  11   2.0000      -1.509139       -41.0658
  12   2.0000      -1.211974       -32.9795
  13   2.0000      -1.110819       -30.2269
  14   2.0000      -0.951895       -25.9024
  15   2.0000      -0.869487       -23.6600
  16   2.0000      -0.824000       -22.4222
  17   2.0000      -0.747555       -20.3420
  18   2.0000      -0.704391       -19.1674
  19   2.0000      -0.697580       -18.9821
  20   2.0000      -0.651372       -17.7247
  21   2.0000      -0.593847       -16.1594
  22   2.0000      -0.587355       -15.9827
  23   2.0000      -0.555050       -15.1037
  24   2.0000      -0.537696       -14.6315
  25   2.0000      -0.530611       -14.4387
  26   2.0000      -0.482939       -13.1414
  27   2.0000      -0.478928       -13.0323
  28   2.0000      -0.471037       -12.8176
  29   2.0000      -0.454623       -12.3709
  30   2.0000      -0.421997       -11.4831
  31   2.0000      -0.411646       -11.2015
  32   2.0000      -0.394576       -10.7370
  33   0.0000       0.048840         1.3290
  34   0.0000       0.061742         1.6801
  35   0.0000       0.070633         1.9220
  36   0.0000       0.071337         1.9412
  37   0.0000       0.095435         2.5969

MULLIKEN ATOMIC CHARGES
-----------------------
   0 C :   -0.320629
   1 C :   -0.567505
   2 H :    0.346079
   3 H :    0.328002
   4 S :    1.169850
   5 O :   -0.601116
   6 O :   -0.587243
   7 C :   -1.178412
   8 H :    0.254186
   9 H :    0.307572
  10 F :   -0.129987
  11 H :    0.338589
  12 H :    0.316184
  13 H :    0.324430
Sum of atomic charges:   -0.0000000

LOEWDIN ATOMIC CHARGES
----------------------
   0 C :   -0.276719
   1 C :   -0.239208
   2 H :    0.117998
   3 H :    0.110168
   4 S :    0.617434
   5 O :   -0.308873
   6 O :   -0.292819
   7 C :   -0.103961
   8 H :    0.112591
   9 H :    0.106044
  10 F :   -0.040603
  11 H :    0.051745
  12 H :    0.069521
  13 H :    0.076681

  Mayer bond orders larger than 0.100000
B(  0-C ,  1-C ) :   0.9240 B(  0-C ,  4-S ) :   0.1057 B(  0-C ,  7-C ) :   0.6877
B(  0-C ,  8-H ) :   0.9648 B(  0-C ,  9-H ) :   0.9132 B(  1-C ,  2-H ) :   0.8799
B(  1-C ,  3-H ) :   0.9313 B(  1-C ,  4-S ) :   0.8112 B(  1-C ,  6-O ) :   0.1170
B(  1-C ,  7-C ) :   0.1101 B(  4-S ,  5-O ) :   1.6424 B(  4-S ,  6-O ) :   1.6383
B(  4-S , 10-F ) :   1.0034 B(  7-C , 11-H ) :   0.9503 B(  7-C , 12-H ) :   0.9653
B(  7-C , 13-H ) :   0.9694

Dispersion correction           -0.004476074
FINAL SINGLE POINT ENERGY      -767.051669429427

DIPOLE MOMENT
-------------
                                X             Y             Z
Electronic contribution:     -3.00493      -2.59687     -12.15141
Nuclear contribution   :      2.96568       1.49902      13.60585
                        -----------------------------------------
Total Dipole Moment    :     -0.03926      -1.09784       1.45444
                        -----------------------------------------
Magnitude (a.u.)       :      1.82269
Magnitude (Debye)      :      4.63290

Rotational constants in cm-1:     0.127173     0.053596     0.051689
Rotational constants in MHz :  3812.547794  1606.772866  1549.597841

                             ****ORCA TERMINATED NORMALLY****
TOTAL RUN TIME: 0 days 0 hours 0 minutes 56 seconds 966 msec
