                         Program Version 5.0.0 -  RELEASE  -
|  1> !wB97X-D3 RIJCOSX def2-TZVPD def2/J TightSCF xyzfile
|  2>
|  3> *xyzfile 0 1 D2.xyz
|  4>
|  5> %MaxCore 64000
|  6>
|  7> %pal nprocs 18
|  8> end
|  9>
| 10> %scf
| 11>   MaxIter 150
| 12> end
| 13>
| 14>
| 15>                          ****END OF INPUT****

CARTESIAN COORDINATES (ANGSTROEM)
---------------------------------
  C      5.558206   -1.992914   -6.215054
  C      4.930199   -7.375319   -2.649623
  C      3.841892   -6.951611   -3.632829
  H      3.458144   -5.954425   -3.407121
  H      2.988484   -7.643606   -3.567078
  S      4.318115   -6.915930   -5.368692
  C      4.181880   -2.589671   -6.298911
  N      3.145873   -1.768431   -6.486753
  C      4.019102   -3.864307   -6.227427
  H      4.768490   -4.591153   -5.990773
  H      3.122405   -4.333392   -6.314620
  H      3.281635   -0.777786   -6.566549
  H      2.212549   -2.134193   -6.562246
  F      5.406154   -5.899480   -5.512972
  O      3.111910   -6.445079   -6.043792
  C      6.419260   -2.542944   -5.077630
  C      5.872267   -5.002756   -2.427819
  C      6.173994   -6.485522   -2.606315
  H      6.734852   -6.613767   -3.534015
  H      6.821463   -6.831018   -1.793617
  H      4.469612   -7.406168   -1.655876
  H      5.230134   -8.398678   -2.885906
  C      5.896512   -2.169314   -3.694552
  H      7.428880   -2.143665   -5.208078
  H      6.505894   -3.627541   -5.175502
  C      6.807804   -2.623428   -2.551019
  H      4.894708   -2.589732   -3.557501
  H      5.778823   -1.081255   -3.635790
  C      7.111544   -4.122463   -2.520363
  H      7.751615   -2.071393   -2.614406
  H      6.345837   -2.326401   -1.604086
  H      5.362882   -4.828697   -1.471335
  H      5.174429   -4.702577   -3.211298
  H      7.778329   -4.329347   -1.677651
  H      7.673189   -4.402845   -3.417586
  O      4.763396   -8.239424   -5.698629
  H      6.036826   -2.198189   -7.176852
  H      5.467610   -0.907371   -6.127968

 Total Charge           Charge          ....    0
 Multiplicity           Mult            ....    1
 Number of Electrons    NEL             ....  136
 Basis Dimension        Dim             ....  808

ORBITAL ENERGIES
----------------

  NO   OCC          E(Eh)            E(eV)
   0   2.0000     -89.192441     -2427.0497
   1   2.0000     -24.884483      -677.1412
   2   2.0000     -19.246700      -523.7293
   3   2.0000     -19.234376      -523.3940
   4   2.0000     -14.411457      -392.1557
   5   2.0000     -10.333980      -281.2019
   6   2.0000     -10.300498      -280.2908
   7   2.0000     -10.286256      -279.9033
   8   2.0000     -10.285570      -279.8846
   9   2.0000     -10.277677      -279.6698
  10   2.0000     -10.273431      -279.5543
  11   2.0000     -10.270876      -279.4847
  12   2.0000     -10.270563      -279.4762
  13   2.0000     -10.269776      -279.4548
  14   2.0000     -10.266108      -279.3550
  15   2.0000     -10.184995      -277.1478
  16   2.0000      -8.256058      -224.6588
  17   2.0000      -6.213682      -169.0829
  18   2.0000      -6.207167      -168.9056
  19   2.0000      -6.206362      -168.8837
  20   2.0000      -1.467391       -39.9297
  21   2.0000      -1.228238       -33.4221
  22   2.0000      -1.133806       -30.8524
  23   2.0000      -1.033990       -28.1363
  24   2.0000      -0.959082       -26.0979
  25   2.0000      -0.933392       -25.3989
  26   2.0000      -0.903570       -24.5874
  27   2.0000      -0.874088       -23.7851
  28   2.0000      -0.836295       -22.7567
  29   2.0000      -0.824318       -22.4308
  30   2.0000      -0.796784       -21.6816
  31   2.0000      -0.772000       -21.0072
  32   2.0000      -0.733505       -19.9597
  33   2.0000      -0.714663       -19.4470
  34   2.0000      -0.697761       -18.9870
  35   2.0000      -0.672209       -18.2917
  36   2.0000      -0.671148       -18.2629
  37   2.0000      -0.651174       -17.7193
  38   2.0000      -0.644197       -17.5295
  39   2.0000      -0.616460       -16.7747
  40   2.0000      -0.598164       -16.2769
  41   2.0000      -0.593155       -16.1406
  42   2.0000      -0.587463       -15.9857
  43   2.0000      -0.571108       -15.5406
  44   2.0000      -0.558159       -15.1883
  45   2.0000      -0.556225       -15.1357
  46   2.0000      -0.549364       -14.9490
  47   2.0000      -0.534759       -14.5515
  48   2.0000      -0.516907       -14.0658
  49   2.0000      -0.511471       -13.9178
  50   2.0000      -0.506222       -13.7750
  51   2.0000      -0.497988       -13.5509
  52   2.0000      -0.475500       -12.9390
  53   2.0000      -0.470005       -12.7895
  54   2.0000      -0.462476       -12.5846
  55   2.0000      -0.456746       -12.4287
  56   2.0000      -0.446381       -12.1466
  57   2.0000      -0.443896       -12.0790
  58   2.0000      -0.438120       -11.9218
  59   2.0000      -0.432014       -11.7557
  60   2.0000      -0.424096       -11.5402
  61   2.0000      -0.423234       -11.5168
  62   2.0000      -0.414973       -11.2920
  63   2.0000      -0.409107       -11.1324
  64   2.0000      -0.404880       -11.0174
  65   2.0000      -0.400380       -10.8949
  66   2.0000      -0.397184       -10.8079
  67   2.0000      -0.271865        -7.3978
  68   0.0000       0.054996         1.4965
  69   0.0000       0.061889         1.6841
  70   0.0000       0.067286         1.8309
  71   0.0000       0.070769         1.9257
  72   0.0000       0.082172         2.2360

MULLIKEN ATOMIC CHARGES
-----------------------
   0 C :   -0.605617
   1 C :   -0.722052
   2 C :   -0.587318
   3 H :    0.376387
   4 H :    0.450589
   5 S :    1.056379
   6 C :    1.068442
   7 N :   -0.449176
   8 C :   -1.568836
   9 H :    0.221185
  10 H :    0.486758
  11 H :    0.182769
  12 H :    0.168296
  13 F :   -0.220009
  14 O :   -0.633321
  15 C :   -0.171861
  16 C :    0.196545
  17 C :   -0.562891
  18 H :    0.208660
  19 H :    0.361372
  20 H :    0.316141
  21 H :    0.262096
  22 C :   -0.314694
  23 H :    0.325311
  24 H :   -0.109898
  25 C :   -0.892831
  26 H :    0.219343
  27 H :    0.342443
  28 C :   -0.552498
  29 H :    0.314258
  30 H :    0.292049
  31 H :    0.331970
  32 H :   -0.406088
  33 H :    0.330917
  34 H :    0.305742
  35 O :   -0.587365
  36 H :    0.253744
  37 H :    0.313058
Sum of atomic charges:    0.0000000

LOEWDIN ATOMIC CHARGES
----------------------
   0 C :   -0.142874
   1 C :   -0.221991
   2 C :   -0.218145
   3 H :    0.105127
   4 H :    0.122897
   5 S :    0.633205
   6 C :   -0.461838
   7 N :    0.101285
   8 C :    0.001536
   9 H :    0.008836
  10 H :    0.024281
  11 H :    0.094011
  12 H :    0.107853
  13 F :   -0.128730
  14 O :   -0.285932
  15 C :   -0.203436
  16 C :   -0.221143
  17 C :   -0.214055
  18 H :    0.106930
  19 H :    0.121115
  20 H :    0.120140
  21 H :    0.113929
  22 C :   -0.211992
  23 H :    0.119351
  24 H :    0.091598
  25 C :   -0.211322
  26 H :    0.108709
  27 H :    0.115834
  28 C :   -0.214695
  29 H :    0.110418
  30 H :    0.110248
  31 H :    0.131051
  32 H :    0.081812
  33 H :    0.115069
  34 H :    0.109874
  35 O :   -0.252162
  36 H :    0.123469
  37 H :    0.109737

  Mayer bond orders larger than 0.100000
B(  0-C ,  6-C ) :   0.3848 B(  0-C , 15-C ) :   0.8055 B(  0-C , 22-C ) :   0.2283
B(  0-C , 36-H ) :   0.8947 B(  0-C , 37-H ) :   0.9837 B(  1-C ,  2-C ) :   1.0919
B(  1-C ,  5-S ) :   0.2288 B(  1-C , 16-C ) :   0.2504 B(  1-C , 17-C ) :   0.9135
B(  1-C , 20-H ) :   0.8997 B(  1-C , 21-H ) :   0.9508 B(  2-C ,  3-H ) :   0.8848
B(  2-C ,  4-H ) :   0.7547 B(  2-C ,  5-S ) :   0.7834 B(  2-C , 14-O ) :   0.1109
B(  2-C , 32-H ) :   0.1110 B(  2-C , 35-O ) :   0.1161 B(  5-S ,  8-C ) :   0.1555
B(  5-S , 13-F ) :   1.1588 B(  5-S , 14-O ) :   1.5596 B(  5-S , 35-O ) :   1.4306
B(  6-C ,  7-N ) :   0.9548 B(  6-C ,  8-C ) :   0.7941 B(  6-C ,  9-H ) :   0.1973
B(  6-C , 10-H ) :  -0.2819 B(  6-C , 22-C ) :   0.1224 B(  6-C , 37-H ) :  -0.1852
B(  7-N , 11-H ) :   1.0358 B(  7-N , 12-H ) :   1.0492 B(  8-C ,  9-H ) :   1.0131
B(  8-C , 10-H ) :   0.9621 B(  8-C , 13-F ) :   0.1243 B(  9-H , 13-F ) :  -0.2453
B( 15-C , 22-C ) :   0.4612 B( 15-C , 23-H ) :   0.7909 B( 15-C , 24-H ) :   1.2631
B( 15-C , 25-C ) :   0.3462 B( 15-C , 28-C ) :   0.1891 B( 16-C , 17-C ) :   0.3069
B( 16-C , 18-H ) :  -0.1127 B( 16-C , 25-C ) :   0.3625 B( 16-C , 28-C ) :   0.3566
B( 16-C , 31-H ) :   0.7928 B( 16-C , 32-H ) :   1.4668 B( 17-C , 18-H ) :   0.9872
B( 17-C , 19-H ) :   0.8479 B( 17-C , 28-C ) :   0.5919 B( 17-C , 31-H ) :  -0.1075
B( 22-C , 25-C ) :   0.8559 B( 22-C , 26-H ) :   1.0556 B( 22-C , 27-H ) :   0.8002
B( 25-C , 28-C ) :   0.9130 B( 25-C , 29-H ) :   0.9261 B( 25-C , 30-H ) :   0.9370
B( 28-C , 31-H ) :  -0.1211 B( 28-C , 33-H ) :   0.8848 B( 28-C , 34-H ) :   0.9101

Dispersion correction           -0.020708039
FINAL SINGLE POINT ENERGY     -1135.703919539696

DIPOLE MOMENT
-------------
                                X             Y             Z
Electronic contribution:     -7.71846     -16.95246     -13.61379
Nuclear contribution   :      7.91684      17.85507      15.13212
                        -----------------------------------------
Total Dipole Moment    :      0.19838       0.90261       1.51832
                        -----------------------------------------
Magnitude (a.u.)       :      1.77746
Magnitude (Debye)      :      4.51794

Rotational constants in cm-1:     0.018015     0.012410     0.008313
Rotational constants in MHz :   540.084467   372.038374   249.228144

                             ****ORCA TERMINATED NORMALLY****
TOTAL RUN TIME: 0 days 0 hours 4 minutes 26 seconds 573 msec
