                         Program Version 5.0.0 -  RELEASE  -
|  1> !wB97X-D3 RIJCOSX def2-TZVPD def2/J TightSCF xyzfile
|  2>
|  3> *xyzfile 0 1 D5.xyz
|  4>
|  5> %MaxCore 64000
|  6>
|  7> %pal nprocs 18
|  8> end
|  9>
| 10> %scf
| 11>   MaxIter 150
| 12> end
| 13>
| 14>
| 15>                          ****END OF INPUT****

CARTESIAN COORDINATES (ANGSTROEM)
---------------------------------
  C      5.558206   -1.992914   -6.215054
  C      4.930199   -7.375319   -2.649623
  C      3.841892   -6.951611   -3.632829
  H      3.458144   -5.954425   -3.407121
  H      2.988484   -7.643606   -3.567078
  S      4.318115   -6.915930   -5.368692
  C      4.181880   -2.589671   -6.298911
  C      3.145873   -1.768431   -6.486753
  N      4.019102   -3.864307   -6.227427
  H      4.768490   -4.591153   -5.990773
  H      3.122405   -4.333392   -6.314620
  H      3.281635   -0.777786   -6.566549
  H      2.212549   -2.134193   -6.562246
  O      5.406154   -5.899480   -5.512972
  O      3.111910   -6.445079   -6.043792
  C      6.419260   -2.542944   -5.077630
  C      5.872267   -5.002756   -2.427819
  C      6.173994   -6.485522   -2.606315
  H      6.734852   -6.613767   -3.534015
  H      6.821463   -6.831018   -1.793617
  H      4.469612   -7.406168   -1.655876
  H      5.230134   -8.398678   -2.885906
  C      5.896512   -2.169314   -3.694552
  H      7.428880   -2.143665   -5.208078
  H      6.505894   -3.627541   -5.175502
  C      6.807804   -2.623428   -2.551019
  H      4.894708   -2.589732   -3.557501
  H      5.778823   -1.081255   -3.635790
  C      7.111544   -4.122463   -2.520363
  H      7.751615   -2.071393   -2.614406
  H      6.345837   -2.326401   -1.604086
  H      5.362882   -4.828697   -1.471335
  H      5.174429   -4.702577   -3.211298
  H      7.778329   -4.329347   -1.677651
  H      7.673189   -4.402845   -3.417586
  F      4.763396   -8.239424   -5.698629
  H      6.036826   -2.198189   -7.176852
  H      5.467610   -0.907371   -6.127968

 Total Charge           Charge          ....    0
 Multiplicity           Mult            ....    1
 Number of Electrons    NEL             ....  136
 Basis Dimension        Dim             ....  808

ORBITAL ENERGIES
----------------

  NO   OCC          E(Eh)            E(eV)
   0   2.0000     -89.227520     -2428.0043
   1   2.0000     -24.937212      -678.5760
   2   2.0000     -19.266464      -524.2671
   3   2.0000     -19.265919      -524.2523
   4   2.0000     -14.375498      -391.1772
   5   2.0000     -10.356019      -281.8016
   6   2.0000     -10.316615      -280.7294
   7   2.0000     -10.287616      -279.9403
   8   2.0000     -10.275277      -279.6045
   9   2.0000     -10.269193      -279.4389
  10   2.0000     -10.268410      -279.4176
  11   2.0000     -10.263188      -279.2755
  12   2.0000     -10.255513      -279.0667
  13   2.0000     -10.255189      -279.0579
  14   2.0000     -10.251608      -278.9604
  15   2.0000     -10.172238      -276.8007
  16   2.0000      -8.291027      -225.6103
  17   2.0000      -6.248315      -170.0253
  18   2.0000      -6.242166      -169.8580
  19   2.0000      -6.241562      -169.8415
  20   2.0000      -1.532695       -41.7068
  21   2.0000      -1.246110       -33.9084
  22   2.0000      -1.147691       -31.2303
  23   2.0000      -1.013573       -27.5807
  24   2.0000      -0.973002       -26.4767
  25   2.0000      -0.929612       -25.2960
  26   2.0000      -0.902496       -24.5582
  27   2.0000      -0.872448       -23.7405
  28   2.0000      -0.853163       -23.2157
  29   2.0000      -0.821847       -22.3636
  30   2.0000      -0.799956       -21.7679
  31   2.0000      -0.764524       -20.8038
  32   2.0000      -0.736709       -20.0469
  33   2.0000      -0.725411       -19.7394
  34   2.0000      -0.716161       -19.4877
  35   2.0000      -0.702389       -19.1130
  36   2.0000      -0.678463       -18.4619
  37   2.0000      -0.663205       -18.0467
  38   2.0000      -0.652748       -17.7622
  39   2.0000      -0.615367       -16.7450
  40   2.0000      -0.612050       -16.6547
  41   2.0000      -0.604447       -16.4478
  42   2.0000      -0.582897       -15.8614
  43   2.0000      -0.565816       -15.3966
  44   2.0000      -0.562009       -15.2930
  45   2.0000      -0.552757       -15.0413
  46   2.0000      -0.541495       -14.7348
  47   2.0000      -0.530068       -14.4239
  48   2.0000      -0.521259       -14.1842
  49   2.0000      -0.518124       -14.0989
  50   2.0000      -0.502409       -13.6712
  51   2.0000      -0.496256       -13.5038
  52   2.0000      -0.488160       -13.2835
  53   2.0000      -0.473337       -12.8802
  54   2.0000      -0.464893       -12.6504
  55   2.0000      -0.455258       -12.3882
  56   2.0000      -0.452266       -12.3068
  57   2.0000      -0.443831       -12.0772
  58   2.0000      -0.442543       -12.0422
  59   2.0000      -0.432876       -11.7791
  60   2.0000      -0.422391       -11.4938
  61   2.0000      -0.419838       -11.4244
  62   2.0000      -0.416555       -11.3350
  63   2.0000      -0.406075       -11.0499
  64   2.0000      -0.398363       -10.8400
  65   2.0000      -0.388274       -10.5655
  66   2.0000      -0.384656       -10.4670
  67   2.0000      -0.241614        -6.5747
  68   0.0000       0.032583         0.8866
  69   0.0000       0.051314         1.3963
  70   0.0000       0.060842         1.6556
  71   0.0000       0.067501         1.8368
  72   0.0000       0.076324         2.0769

MULLIKEN ATOMIC CHARGES
-----------------------
   0 C :   -0.537376
   1 C :   -0.724139
   2 C :   -0.582318
   3 H :    0.369428
   4 H :    0.433945
   5 S :    1.039499
   6 C :    1.049388
   7 C :   -1.876138
   8 N :   -0.139981
   9 H :    0.055921
  10 H :    0.175217
  11 H :    0.376095
  12 H :    0.407462
  13 O :   -0.689870
  14 O :   -0.677747
  15 C :   -0.334213
  16 C :    0.151018
  17 C :   -0.493654
  18 H :    0.203727
  19 H :    0.376712
  20 H :    0.310596
  21 H :    0.282185
  22 C :   -0.260426
  23 H :    0.301847
  24 H :    0.006827
  25 C :   -0.826329
  26 H :    0.213094
  27 H :    0.302628
  28 C :   -0.621638
  29 H :    0.317065
  30 H :    0.298518
  31 H :    0.340934
  32 H :   -0.368867
  33 H :    0.335831
  34 H :    0.315486
  35 F :   -0.082336
  36 H :    0.265156
  37 H :    0.286452
Sum of atomic charges:   -0.0000000

LOEWDIN ATOMIC CHARGES
----------------------
   0 C :   -0.144926
   1 C :   -0.220778
   2 C :   -0.213130
   3 H :    0.116458
   4 H :    0.115984
   5 S :    0.674686
   6 C :   -0.494866
   7 C :    0.010787
   8 N :    0.103819
   9 H :    0.041956
  10 H :    0.095217
  11 H :    0.004300
  12 H :    0.010689
  13 O :   -0.307234
  14 O :   -0.274828
  15 C :   -0.205549
  16 C :   -0.220588
  17 C :   -0.217865
  18 H :    0.103283
  19 H :    0.120549
  20 H :    0.122274
  21 H :    0.110970
  22 C :   -0.210609
  23 H :    0.117605
  24 H :    0.088276
  25 C :   -0.211967
  26 H :    0.109397
  27 H :    0.117796
  28 C :   -0.213523
  29 H :    0.110227
  30 H :    0.109358
  31 H :    0.129911
  32 H :    0.082095
  33 H :    0.113852
  34 H :    0.111371
  35 F :   -0.020395
  36 H :    0.121024
  37 H :    0.114372

  Mayer bond orders larger than 0.100000
B(  0-C ,  6-C ) :   0.7586 B(  0-C , 15-C ) :   0.8115 B(  0-C , 22-C ) :   0.1724
B(  0-C , 24-H ) :   0.1091 B(  0-C , 36-H ) :   0.9016 B(  0-C , 37-H ) :   0.8952
B(  1-C ,  2-C ) :   1.0007 B(  1-C ,  5-S ) :   0.1851 B(  1-C , 16-C ) :   0.2943
B(  1-C , 17-C ) :   0.8732 B(  1-C , 20-H ) :   0.9114 B(  1-C , 21-H ) :   0.9243
B(  2-C ,  3-H ) :   0.8732 B(  2-C ,  4-H ) :   0.7886 B(  2-C ,  5-S ) :   0.7929
B(  2-C , 14-O ) :   0.1179 B(  2-C , 32-H ) :   0.1272 B(  5-S , 13-O ) :   1.7811
B(  5-S , 14-O ) :   1.6185 B(  5-S , 35-F ) :   0.9088 B(  6-C ,  7-C ) :   0.7611
B(  6-C ,  8-N ) :   1.1356 B(  6-C ,  9-H ) :  -0.1472 B(  6-C , 22-C ) :   0.1421
B(  7-C , 11-H ) :   0.9514 B(  7-C , 12-H ) :   0.8594 B(  8-N ,  9-H ) :   0.9498
B(  8-N , 10-H ) :   0.9622 B(  8-N , 13-O ) :  -0.1002 B(  8-N , 15-C ) :   0.1592
B( 13-O , 14-O ) :   0.1126 B( 15-C , 22-C ) :   0.5254 B( 15-C , 23-H ) :   0.8049
B( 15-C , 24-H ) :   1.2212 B( 15-C , 25-C ) :   0.3417 B( 15-C , 28-C ) :   0.1992
B( 16-C , 17-C ) :   0.3856 B( 16-C , 25-C ) :   0.3580 B( 16-C , 28-C ) :   0.3498
B( 16-C , 31-H ) :   0.7699 B( 16-C , 32-H ) :   1.4677 B( 17-C , 18-H ) :   0.9601
B( 17-C , 19-H ) :   0.8517 B( 17-C , 28-C ) :   0.6153 B( 17-C , 31-H ) :  -0.1137
B( 22-C , 25-C ) :   0.8515 B( 22-C , 26-H ) :   1.0250 B( 22-C , 27-H ) :   0.8463
B( 25-C , 28-C ) :   0.8873 B( 25-C , 29-H ) :   0.9227 B( 25-C , 30-H ) :   0.9321
B( 28-C , 31-H ) :  -0.1188 B( 28-C , 33-H ) :   0.8766 B( 28-C , 34-H ) :   0.9060
B( 31-H , 32-H ) :   0.1054

Dispersion correction           -0.020833071
FINAL SINGLE POINT ENERGY     -1135.699305955485

DIPOLE MOMENT
-------------
                                X             Y             Z
Electronic contribution:     -8.07251     -23.40173     -13.60594
Nuclear contribution   :      8.54118      20.92489      15.31138
                        -----------------------------------------
Total Dipole Moment    :      0.46867      -2.47683       1.70544
                        -----------------------------------------
Magnitude (a.u.)       :      3.04349
Magnitude (Debye)      :      7.73595

Rotational constants in cm-1:     0.018156     0.012306     0.008278
Rotational constants in MHz :   544.309022   368.914527   248.178402

                             ****ORCA TERMINATED NORMALLY****
TOTAL RUN TIME: 0 days 0 hours 4 minutes 8 seconds 60 msec
