                         Program Version 5.0.0 -  RELEASE  -
|  1> !wB97X-D3 RIJCOSX def2-TZVPD def2/J TightSCF xyzfile
|  2>
|  3> *xyzfile 0 1 D6.xyz
|  4>
|  5> %MaxCore 64000
|  6>
|  7> %pal nprocs 18
|  8> end
|  9>
| 10> %scf
| 11>   MaxIter 150
| 12> end
| 13>
| 14>
| 15>                          ****END OF INPUT****

CARTESIAN COORDINATES (ANGSTROEM)
---------------------------------
  C      5.558206   -1.992914   -6.215054
  C      4.930199   -7.375319   -2.649623
  C      3.841892   -6.951611   -3.632829
  H      3.458144   -5.954425   -3.407121
  H      2.988484   -7.643606   -3.567078
  S      4.318115   -6.915930   -5.368692
  C      4.181880   -2.589671   -6.298911
  N      3.145873   -1.768431   -6.486753
  C      4.019102   -3.864307   -6.227427
  H      4.768490   -4.591153   -5.990773
  H      3.122405   -4.333392   -6.314620
  H      3.281635   -0.777786   -6.566549
  H      2.212549   -2.134193   -6.562246
  O      5.406154   -5.899480   -5.512972
  O      3.111910   -6.445079   -6.043792
  C      6.419260   -2.542944   -5.077630
  C      5.872267   -5.002756   -2.427819
  C      6.173994   -6.485522   -2.606315
  H      6.734852   -6.613767   -3.534015
  H      6.821463   -6.831018   -1.793617
  H      4.469612   -7.406168   -1.655876
  H      5.230134   -8.398678   -2.885906
  C      5.896512   -2.169314   -3.694552
  H      7.428880   -2.143665   -5.208078
  H      6.505894   -3.627541   -5.175502
  C      6.807804   -2.623428   -2.551019
  H      4.894708   -2.589732   -3.557501
  H      5.778823   -1.081255   -3.635790
  C      7.111544   -4.122463   -2.520363
  H      7.751615   -2.071393   -2.614406
  H      6.345837   -2.326401   -1.604086
  H      5.362882   -4.828697   -1.471335
  H      5.174429   -4.702577   -3.211298
  H      7.778329   -4.329347   -1.677651
  H      7.673189   -4.402845   -3.417586
  F      4.763396   -8.239424   -5.698629
  H      6.036826   -2.198189   -7.176852
  H      5.467610   -0.907371   -6.127968

 Total Charge           Charge          ....    0
 Multiplicity           Mult            ....    1
 Number of Electrons    NEL             ....  136
 Basis Dimension        Dim             ....  808

ORBITAL ENERGIES
----------------

  NO   OCC          E(Eh)            E(eV)
   0   2.0000     -89.202877     -2427.3337
   1   2.0000     -24.915727      -677.9914
   2   2.0000     -19.242362      -523.6113
   3   2.0000     -19.237664      -523.4834
   4   2.0000     -14.394975      -391.7072
   5   2.0000     -10.339278      -281.3461
   6   2.0000     -10.304363      -280.3960
   7   2.0000     -10.277007      -279.6516
   8   2.0000     -10.266115      -279.3552
   9   2.0000     -10.265364      -279.3348
  10   2.0000     -10.262132      -279.2468
  11   2.0000     -10.259493      -279.1750
  12   2.0000     -10.254465      -279.0382
  13   2.0000     -10.252654      -278.9889
  14   2.0000     -10.251853      -278.9671
  15   2.0000     -10.159180      -276.4453
  16   2.0000      -8.266345      -224.9387
  17   2.0000      -6.223755      -169.3570
  18   2.0000      -6.217298      -169.1813
  19   2.0000      -6.216976      -169.1725
  20   2.0000      -1.511563       -41.1317
  21   2.0000      -1.220459       -33.2104
  22   2.0000      -1.121457       -30.5164
  23   2.0000      -1.016936       -27.6722
  24   2.0000      -0.958631       -26.0857
  25   2.0000      -0.923514       -25.1301
  26   2.0000      -0.894157       -24.3313
  27   2.0000      -0.869188       -23.6518
  28   2.0000      -0.838397       -22.8139
  29   2.0000      -0.817179       -22.2366
  30   2.0000      -0.791406       -21.5353
  31   2.0000      -0.760614       -20.6974
  32   2.0000      -0.726559       -19.7707
  33   2.0000      -0.713170       -19.4063
  34   2.0000      -0.703950       -19.1554
  35   2.0000      -0.691176       -18.8079
  36   2.0000      -0.664492       -18.0817
  37   2.0000      -0.653941       -17.7946
  38   2.0000      -0.634881       -17.2760
  39   2.0000      -0.606034       -16.4910
  40   2.0000      -0.599983       -16.3264
  41   2.0000      -0.591322       -16.0907
  42   2.0000      -0.575180       -15.6515
  43   2.0000      -0.566476       -15.4146
  44   2.0000      -0.559933       -15.2366
  45   2.0000      -0.548936       -14.9373
  46   2.0000      -0.543688       -14.7945
  47   2.0000      -0.520413       -14.1612
  48   2.0000      -0.514492       -14.0000
  49   2.0000      -0.509065       -13.8524
  50   2.0000      -0.508860       -13.8468
  51   2.0000      -0.487762       -13.2727
  52   2.0000      -0.470104       -12.7922
  53   2.0000      -0.463161       -12.6033
  54   2.0000      -0.450704       -12.2643
  55   2.0000      -0.443279       -12.0622
  56   2.0000      -0.441459       -12.0127
  57   2.0000      -0.434405       -11.8208
  58   2.0000      -0.426058       -11.5936
  59   2.0000      -0.420803       -11.4506
  60   2.0000      -0.414269       -11.2728
  61   2.0000      -0.411476       -11.1968
  62   2.0000      -0.408003       -11.1023
  63   2.0000      -0.396488       -10.7890
  64   2.0000      -0.391121       -10.6429
  65   2.0000      -0.385463       -10.4890
  66   2.0000      -0.359988        -9.7958
  67   2.0000      -0.251831        -6.8527
  68   0.0000       0.041785         1.1370
  69   0.0000       0.058114         1.5814
  70   0.0000       0.067958         1.8492
  71   0.0000       0.073587         2.0024
  72   0.0000       0.083483         2.2717

MULLIKEN ATOMIC CHARGES
-----------------------
   0 C :   -0.576027
   1 C :   -0.733749
   2 C :   -0.573385
   3 H :    0.360968
   4 H :    0.434578
   5 S :    0.972670
   6 C :    0.971066
   7 N :   -0.446915
   8 C :   -1.303165
   9 H :    0.103841
  10 H :    0.427472
  11 H :    0.177936
  12 H :    0.163904
  13 O :   -0.647777
  14 O :   -0.637254
  15 C :   -0.223666
  16 C :    0.190687
  17 C :   -0.503524
  18 H :    0.211611
  19 H :    0.375953
  20 H :    0.302224
  21 H :    0.276860
  22 C :   -0.313608
  23 H :    0.315014
  24 H :   -0.053798
  25 C :   -0.881051
  26 H :    0.213648
  27 H :    0.344305
  28 C :   -0.598720
  29 H :    0.311465
  30 H :    0.287978
  31 H :    0.328905
  32 H :   -0.411692
  33 H :    0.332058
  34 H :    0.324078
  35 F :   -0.086228
  36 H :    0.249664
  37 H :    0.313674
Sum of atomic charges:    0.0000000

LOEWDIN ATOMIC CHARGES
----------------------
   0 C :   -0.144265
   1 C :   -0.222591
   2 C :   -0.215462
   3 H :    0.114945
   4 H :    0.113510
   5 S :    0.661419
   6 C :   -0.467011
   7 N :    0.092192
   8 C :    0.000814
   9 H :   -0.014420
  10 H :    0.023487
  11 H :    0.089750
  12 H :    0.103857
  13 O :   -0.318169
  14 O :   -0.281696
  15 C :   -0.201376
  16 C :   -0.219928
  17 C :   -0.218667
  18 H :    0.103308
  19 H :    0.118987
  20 H :    0.120156
  21 H :    0.109946
  22 C :   -0.212257
  23 H :    0.117483
  24 H :    0.093789
  25 C :   -0.212636
  26 H :    0.108545
  27 H :    0.114195
  28 C :   -0.213367
  29 H :    0.109273
  30 H :    0.108586
  31 H :    0.128701
  32 H :    0.083915
  33 H :    0.113187
  34 H :    0.111941
  35 F :   -0.029313
  36 H :    0.121970
  37 H :    0.107201

  Mayer bond orders larger than 0.100000
B(  0-C ,  6-C ) :   0.3731 B(  0-C , 15-C ) :   0.7958 B(  0-C , 22-C ) :   0.2330
B(  0-C , 24-H ) :   0.1046 B(  0-C , 36-H ) :   0.8821 B(  0-C , 37-H ) :   0.9899
B(  1-C ,  2-C ) :   1.0025 B(  1-C ,  5-S ) :   0.1950 B(  1-C , 16-C ) :   0.2848
B(  1-C , 17-C ) :   0.8634 B(  1-C , 20-H ) :   0.9146 B(  1-C , 21-H ) :   0.9271
B(  2-C ,  3-H ) :   0.8884 B(  2-C ,  4-H ) :   0.7902 B(  2-C ,  5-S ) :   0.7779
B(  2-C , 14-O ) :   0.1173 B(  2-C , 32-H ) :   0.1243 B(  5-S ,  8-C ) :   0.1117
B(  5-S , 13-O ) :   1.8362 B(  5-S , 14-O ) :   1.6130 B(  5-S , 35-F ) :   0.8961
B(  6-C ,  7-N ) :   0.9613 B(  6-C ,  8-C ) :   0.9080 B(  6-C ,  9-H ) :   0.2471
B(  6-C , 10-H ) :  -0.3009 B(  6-C , 22-C ) :   0.1255 B(  6-C , 37-H ) :  -0.1941
B(  7-N , 11-H ) :   1.0410 B(  7-N , 12-H ) :   1.0502 B(  8-C ,  9-H ) :   1.0649
B(  8-C , 10-H ) :   1.0491 B(  9-H , 13-O ) :  -0.2533 B( 13-O , 14-O ) :   0.1135
B( 15-C , 22-C ) :   0.4364 B( 15-C , 23-H ) :   0.7909 B( 15-C , 24-H ) :   1.2496
B( 15-C , 25-C ) :   0.3449 B( 15-C , 28-C ) :   0.1989 B( 16-C , 17-C ) :   0.3806
B( 16-C , 22-C ) :   0.1048 B( 16-C , 25-C ) :   0.3509 B( 16-C , 28-C ) :   0.3355
B( 16-C , 31-H ) :   0.7921 B( 16-C , 32-H ) :   1.4479 B( 17-C , 18-H ) :   0.9474
B( 17-C , 19-H ) :   0.8560 B( 17-C , 28-C ) :   0.6324 B( 17-C , 31-H ) :  -0.1178
B( 22-C , 25-C ) :   0.8428 B( 22-C , 26-H ) :   1.0543 B( 22-C , 27-H ) :   0.8040
B( 25-C , 28-C ) :   0.9047 B( 25-C , 29-H ) :   0.9272 B( 25-C , 30-H ) :   0.9366
B( 28-C , 31-H ) :  -0.1174 B( 28-C , 33-H ) :   0.8824 B( 28-C , 34-H ) :   0.8978

Dispersion correction           -0.020790691
FINAL SINGLE POINT ENERGY     -1135.682988867087

DIPOLE MOMENT
-------------
                                X             Y             Z
Electronic contribution:     -8.82614     -21.52789     -14.04287
Nuclear contribution   :      8.67311      20.60825      15.35056
                        -----------------------------------------
Total Dipole Moment    :     -0.15303      -0.91964       1.30769
                        -----------------------------------------
Magnitude (a.u.)       :      1.60599
Magnitude (Debye)      :      4.08210

Rotational constants in cm-1:     0.017976     0.012151     0.008188
Rotational constants in MHz :   538.898457   364.286417   245.482451

                             ****ORCA TERMINATED NORMALLY****
TOTAL RUN TIME: 0 days 0 hours 4 minutes 9 seconds 554 msec
