                         Program Version 5.0.0 -  RELEASE  -
|  1> !BLYP D3BJ RIJCOSX def2-SVPD def2/J TightSCF
|  2> *xyz -1 1
|  3> C          3.93993        0.32036       -4.36773
|  4> C          5.10585        0.66802       -5.30546
|  5> O          4.80913        1.15019       -6.41436
|  6> O          6.26737        0.56500       -4.81948
|  7> H          3.01376        0.44480       -4.88890
|  8> H          3.96058        0.96928       -3.51722
|  9> H          4.03331       -0.69517       -4.04388
| 10> *
| 11>
| 12> %MaxCore 64000
| 13>
| 14> %pal nprocs 4
| 15> end
| 16>
| 17> %scf
| 18>   MaxIter 150
| 19> end
| 20>
| 21>
| 22>                          ****END OF INPUT****

CARTESIAN COORDINATES (ANGSTROEM)
---------------------------------
  C      3.939930    0.320360   -4.367730
  C      5.105850    0.668020   -5.305460
  O      4.809130    1.150190   -6.414360
  O      6.267370    0.565000   -4.819480
  H      3.013760    0.444800   -4.888900
  H      3.960580    0.969280   -3.517220
  H      4.033310   -0.695170   -4.043880

 Total Charge           Charge          ....   -1
 Multiplicity           Mult            ....    1
 Number of Electrons    NEL             ....   32
 Basis Dimension        Dim             ....  110

ORBITAL ENERGIES
----------------

  NO   OCC          E(Eh)            E(eV)
   0   2.0000     -18.531435      -504.2660
   1   2.0000     -18.527547      -504.1602
   2   2.0000      -9.802350      -266.7355
   3   2.0000      -9.733876      -264.8722
   4   2.0000      -0.716016       -19.4838
   5   2.0000      -0.629197       -17.1213
   6   2.0000      -0.460162       -12.5216
   7   2.0000      -0.239534        -6.5181
   8   2.0000      -0.207326        -5.6416
   9   2.0000      -0.191675        -5.2157
  10   2.0000      -0.166607        -4.5336
  11   2.0000      -0.132119        -3.5951
  12   2.0000      -0.118657        -3.2288
  13   2.0000      -0.008555        -0.2328
  14   2.0000       0.005772         0.1571
  15   2.0000       0.021619         0.5883
  16   0.0000       0.155623         4.2347
  17   0.0000       0.198594         5.4040
  18   0.0000       0.201367         5.4795
  19   0.0000       0.223936         6.0936
  20   0.0000       0.242248         6.5919

MULLIKEN ATOMIC CHARGES
-----------------------
   0 C :    0.846587
   1 C :   -0.153580
   2 O :   -0.524007
   3 O :   -0.583238
   4 H :   -0.215122
   5 H :   -0.186770
   6 H :   -0.183871
Sum of atomic charges:   -1.0000000

LOEWDIN ATOMIC CHARGES
----------------------
   0 C :    0.155783
   1 C :   -0.359643
   2 O :   -0.312448
   3 O :   -0.329337
   4 H :   -0.056284
   5 H :   -0.046769
   6 H :   -0.051301

  Mayer bond orders larger than 0.100000
B(  0-C ,  1-C ) :   1.2151 B(  0-C ,  4-H ) :   0.8037 B(  0-C ,  5-H ) :   0.7605
B(  0-C ,  6-H ) :   0.7414 B(  1-C ,  2-O ) :   1.5755 B(  1-C ,  3-O ) :   1.5662
B(  1-C ,  4-H ) :   0.3055 B(  1-C ,  5-H ) :   0.2075 B(  1-C ,  6-H ) :   0.2251

Dispersion correction           -0.007720928
FINAL SINGLE POINT ENERGY      -228.325360196029

DIPOLE MOMENT
-------------
                                X             Y             Z
Electronic contribution:      2.77904       0.88754      -2.27471
Nuclear contribution   :     -3.81330      -1.22874       3.01208
                        -----------------------------------------
Total Dipole Moment    :     -1.03427      -0.34120       0.73737
                        -----------------------------------------
Magnitude (a.u.)       :      1.31524
Magnitude (Debye)      :      3.34307

Rotational constants in cm-1:     0.390282     0.335702     0.186718
Rotational constants in MHz : 11700.346989 10064.094211  5597.661196

                             ****ORCA TERMINATED NORMALLY****
TOTAL RUN TIME: 0 days 0 hours 0 minutes 3 seconds 509 msec
