                         Program Version 5.0.0 -  RELEASE  -
|  1> !BLYP D3BJ RIJCOSX def2-SVPD def2/J TightSCF
|  2> *xyz 1 1
|  3> C          3.90595        2.81985       -3.75292
|  4> N          5.29562        3.13151       -4.10533
|  5> C          5.70862        3.46889       -5.32419
|  6> N          6.90470        3.03895       -5.71708
|  7> N          4.98188        4.29357       -6.09746
|  8> H          5.00055        4.10131       -7.08776
|  9> H          4.08469        4.59690       -5.73965
| 10> H          5.96336        2.52611       -3.64239
| 11> H          7.04716        2.06686       -5.47360
| 12> H          7.19815        3.30799       -6.64523
| 13> H          3.24866        3.48801       -4.26909
| 14> H          3.77188        2.93227       -2.69732
| 15> H          3.68381        1.81198       -4.03533
| 16> *
| 17>
| 18> %MaxCore 64000
| 19>
| 20> %pal nprocs 4
| 21> end
| 22>
| 23> %scf
| 24>   MaxIter 150
| 25> end
| 26>
| 27>
| 28>                          ****END OF INPUT****

CARTESIAN COORDINATES (ANGSTROEM)
---------------------------------
  C      3.905950    2.819850   -3.752920
  N      5.295620    3.131510   -4.105330
  C      5.708620    3.468890   -5.324190
  N      6.904700    3.038950   -5.717080
  N      4.981880    4.293570   -6.097460
  H      5.000550    4.101310   -7.087760
  H      4.084690    4.596900   -5.739650
  H      5.963360    2.526110   -3.642390
  H      7.047160    2.066860   -5.473600
  H      7.198150    3.307990   -6.645230
  H      3.248660    3.488010   -4.269090
  H      3.771880    2.932270   -2.697320
  H      3.683810    1.811980   -4.035330

 Total Charge           Charge          ....    1
 Multiplicity           Mult            ....    1
 Number of Electrons    NEL             ....   40
 Basis Dimension        Dim             ....  164

ORBITAL ENERGIES
----------------

  NO   OCC          E(Eh)            E(eV)
   0   2.0000     -14.257372      -387.9628
   1   2.0000     -14.255515      -387.9123
   2   2.0000     -14.255106      -387.9011
   3   2.0000     -10.255508      -279.0666
   4   2.0000     -10.134046      -275.7614
   5   2.0000      -1.126839       -30.6629
   6   2.0000      -1.021273       -27.7902
   7   2.0000      -1.014252       -27.5992
   8   2.0000      -0.835411       -22.7327
   9   2.0000      -0.762562       -20.7504
  10   2.0000      -0.726238       -19.7619
  11   2.0000      -0.702058       -19.1040
  12   2.0000      -0.654129       -17.7997
  13   2.0000      -0.642636       -17.4870
  14   2.0000      -0.601928       -16.3793
  15   2.0000      -0.589582       -16.0433
  16   2.0000      -0.542065       -14.7503
  17   2.0000      -0.535645       -14.5756
  18   2.0000      -0.451192       -12.2776
  19   2.0000      -0.427545       -11.6341
  20   0.0000      -0.230656        -6.2765
  21   0.0000      -0.186247        -5.0680
  22   0.0000      -0.148853        -4.0505
  23   0.0000      -0.140090        -3.8120
  24   0.0000      -0.116925        -3.1817

MULLIKEN ATOMIC CHARGES
-----------------------
   0 C :    1.580270
   1 N :   -0.269606
   2 C :    0.422225
   3 N :    0.279930
   4 N :    0.366896
   5 H :   -0.087140
   6 H :   -0.107506
   7 H :   -0.229863
   8 H :   -0.051933
   9 H :   -0.060563
  10 H :   -0.319771
  11 H :   -0.319123
  12 H :   -0.203817
Sum of atomic charges:    1.0000000

LOEWDIN ATOMIC CHARGES
----------------------
   0 C :    0.275307
   1 N :    0.051332
   2 C :   -0.081808
   3 N :    0.293282
   4 N :    0.304742
   5 H :    0.033078
   6 H :    0.014082
   7 H :    0.046825
   8 H :    0.033170
   9 H :    0.032708
  10 H :   -0.017375
  11 H :    0.008811
  12 H :    0.005845

  Mayer bond orders larger than 0.100000
B(  0-C ,  1-N ) :   0.9775 B(  0-C , 10-H ) :   0.7217 B(  0-C , 11-H ) :   0.6581
B(  0-C , 12-H ) :   0.6919 B(  1-N ,  2-C ) :   1.2440 B(  1-N ,  3-N ) :   0.1921
B(  1-N ,  7-H ) :   1.1404 B(  1-N , 10-H ) :   0.1618 B(  1-N , 11-H ) :   0.2391
B(  1-N , 12-H ) :   0.1529 B(  2-C ,  3-N ) :   1.1035 B(  2-C ,  4-N ) :   1.1013
B(  2-C ,  7-H ) :  -0.1665 B(  3-N ,  4-N ) :   0.1360 B(  3-N ,  8-H ) :   1.0449
B(  3-N ,  9-H ) :   0.9867 B(  4-N ,  5-H ) :   1.1109 B(  4-N ,  6-H ) :   0.9946
B(  5-H ,  6-H ) :  -0.1328

Dispersion correction           -0.018588756
FINAL SINGLE POINT ENERGY      -244.825405967773

DIPOLE MOMENT
-------------
                                X             Y             Z
Electronic contribution:      2.50713       1.10333      -1.17192
Nuclear contribution   :     -2.62204      -1.73043       0.52001
                        -----------------------------------------
Total Dipole Moment    :     -0.11491      -0.62710      -0.65191
                        -----------------------------------------
Magnitude (a.u.)       :      0.91184
Magnitude (Debye)      :      2.31770

Rotational constants in cm-1:     0.299316     0.133886     0.097604
Rotational constants in MHz :  8973.254382  4013.798371  2926.103660

                             ****ORCA TERMINATED NORMALLY****
TOTAL RUN TIME: 0 days 0 hours 0 minutes 6 seconds 549 msec
