                         Program Version 5.0.0 -  RELEASE  -
|  1> !BLYP D3BJ RIJCOSX def2-SVPD def2/J TightSCF xyzfile
|  2>
|  3> *xyzfile 0 1 B.xyz
|  4>
|  5> %MaxCore 64000
|  6>
|  7> %pal nprocs 4
|  8> end
|  9>
| 10> %scf
| 11>   MaxIter 150
| 12> end
| 13>
| 14>
| 15>                          ****END OF INPUT****

CARTESIAN COORDINATES (ANGSTROEM)
---------------------------------
  C      3.905947    2.819855   -3.752920
  N      5.295615    3.131515   -4.105334
  C      3.803511    1.374716   -3.260807
  C      3.939934    0.320362   -4.367729
  H      4.105043   -0.655085   -3.907733
  H      3.022801    0.280517   -4.957117
  C      5.105846    0.668022   -5.305463
  C      5.708619    3.468885   -5.324190
  N      6.904696    3.038954   -5.717084
  N      4.981884    4.293570   -6.097457
  H      5.000546    4.101311   -7.087761
  H      4.084693    4.596899   -5.739652
  H      5.963358    2.526112   -3.642391
  H      7.047164    2.066861   -5.473604
  H      7.198145    3.307994   -6.645225
  H      3.282025    2.949187   -4.640259
  H      3.565254    3.514574   -2.982523
  H      4.574833    1.215157   -2.500443
  H      2.843514    1.260845   -2.751465
  O      4.809132    1.150187   -6.414361
  O      6.267366    0.564999   -4.819481

 Total Charge           Charge          ....    0
 Multiplicity           Mult            ....    1
 Number of Electrons    NEL             ....   78
 Basis Dimension        Dim             ....  294

ORBITAL ENERGIES
----------------

  NO   OCC          E(Eh)            E(eV)
   0   2.0000     -18.714622      -509.2508
   1   2.0000     -18.710289      -509.1328
   2   2.0000     -14.088248      -383.3607
   3   2.0000     -14.078917      -383.1068
   4   2.0000     -14.058022      -382.5382
   5   2.0000     -10.078079      -274.2385
   6   2.0000      -9.982569      -271.6395
   7   2.0000      -9.978322      -271.5239
   8   2.0000      -9.933952      -270.3166
   9   2.0000      -9.901099      -269.4226
  10   2.0000      -0.950670       -25.8690
  11   2.0000      -0.902163       -24.5491
  12   2.0000      -0.851142       -23.1607
  13   2.0000      -0.833261       -22.6742
  14   2.0000      -0.815008       -22.1775
  15   2.0000      -0.713032       -19.4026
  16   2.0000      -0.637752       -17.3541
  17   2.0000      -0.591683       -16.1005
  18   2.0000      -0.557465       -15.1694
  19   2.0000      -0.548043       -14.9130
  20   2.0000      -0.516843       -14.0640
  21   2.0000      -0.481713       -13.1081
  22   2.0000      -0.463975       -12.6254
  23   2.0000      -0.442903       -12.0520
  24   2.0000      -0.429974       -11.7002
  25   2.0000      -0.415941       -11.3183
  26   2.0000      -0.380002       -10.3404
  27   2.0000      -0.369568       -10.0565
  28   2.0000      -0.358795        -9.7633
  29   2.0000      -0.341506        -9.2928
  30   2.0000      -0.332563        -9.0495
  31   2.0000      -0.325300        -8.8519
  32   2.0000      -0.296101        -8.0573
  33   2.0000      -0.292132        -7.9493
  34   2.0000      -0.273027        -7.4294
  35   2.0000      -0.251969        -6.8564
  36   2.0000      -0.195787        -5.3276
  37   2.0000      -0.174335        -4.7439
  38   2.0000      -0.161832        -4.4037
  39   0.0000      -0.051818        -1.4101
  40   0.0000      -0.025344        -0.6897
  41   0.0000      -0.001397        -0.0380
  42   0.0000       0.009514         0.2589
  43   0.0000       0.025084         0.6826

MULLIKEN ATOMIC CHARGES
-----------------------
   0 C :    1.069239
   1 N :   -0.191594
   2 C :    0.361758
   3 C :    0.687508
   4 H :   -0.256461
   5 H :   -0.155204
   6 C :    0.161809
   7 C :    0.479814
   8 N :    0.415044
   9 N :    0.189541
  10 H :   -0.092354
  11 H :   -0.064277
  12 H :   -0.160915
  13 H :   -0.181501
  14 H :   -0.055566
  15 H :   -0.115601
  16 H :   -0.545587
  17 H :   -0.068403
  18 H :   -0.361585
  19 O :   -0.486317
  20 O :   -0.629347
Sum of atomic charges:   -0.0000000

LOEWDIN ATOMIC CHARGES
----------------------
   0 C :    0.076649
   1 N :    0.081439
   2 C :   -0.001131
   3 C :    0.047583
   4 H :    0.019119
   5 H :    0.013444
   6 C :   -0.280438
   7 C :   -0.108204
   8 N :    0.300200
   9 N :    0.281468
  10 H :    0.018068
  11 H :    0.000817
  12 H :    0.018101
  13 H :   -0.070327
  14 H :    0.019850
  15 H :    0.018616
  16 H :    0.013963
  17 H :    0.022076
  18 H :    0.016645
  19 O :   -0.239865
  20 O :   -0.248076

  Mayer bond orders larger than 0.100000
B(  0-C ,  1-N ) :   0.9343 B(  0-C ,  2-C ) :   1.1647 B(  0-C ,  3-C ) :   0.1354
B(  0-C , 12-H ) :  -0.1070 B(  0-C , 15-H ) :   0.6443 B(  0-C , 16-H ) :   0.6639
B(  0-C , 18-H ) :   0.2404 B(  1-N ,  2-C ) :   0.1806 B(  1-N ,  7-C ) :   1.1458
B(  1-N ,  8-N ) :   0.1815 B(  1-N ,  9-N ) :   0.1164 B(  1-N , 12-H ) :   1.0936
B(  1-N , 15-H ) :   0.1424 B(  1-N , 16-H ) :   0.1206 B(  2-C ,  3-C ) :   1.1911
B(  2-C ,  4-H ) :   0.2255 B(  2-C ,  5-H ) :   0.1671 B(  2-C , 15-H ) :   0.1089
B(  2-C , 17-H ) :   0.7513 B(  2-C , 18-H ) :   0.7859 B(  3-C ,  4-H ) :   0.6686
B(  3-C ,  5-H ) :   0.7202 B(  3-C ,  6-C ) :   0.9786 B(  3-C , 17-H ) :   0.1122
B(  4-H ,  6-C ) :   0.1542 B(  5-H ,  6-C ) :   0.3348 B(  5-H , 19-O ) :  -0.1087
B(  6-C , 19-O ) :   1.6676 B(  6-C , 20-O ) :   1.4439 B(  7-C ,  8-N ) :   1.0546
B(  7-C ,  9-N ) :   0.9116 B(  7-C , 12-H ) :  -0.2298 B(  8-N ,  9-N ) :   0.1828
B(  8-N , 13-H ) :   0.9382 B(  8-N , 14-H ) :   0.9184 B(  9-N , 10-H ) :   1.1332
B(  9-N , 11-H ) :   0.9436 B( 10-H , 11-H ) :  -0.1341 B( 13-H , 20-O ) :   0.1853
B( 15-H , 16-H ) :  -0.1745 B( 17-H , 18-H ) :  -0.1366

Dispersion correction           -0.046531852
FINAL SINGLE POINT ENERGY      -511.414975950020

DIPOLE MOMENT
-------------
                                X             Y             Z
Electronic contribution:      4.20348       0.36952      -3.42558
Nuclear contribution   :     -4.94498       2.03334       3.78956
                        -----------------------------------------
Total Dipole Moment    :     -0.74150       2.40286       0.36398
                        -----------------------------------------
Magnitude (a.u.)       :      2.54087
Magnitude (Debye)      :      6.45839

Rotational constants in cm-1:     0.062533     0.042832     0.033687
Rotational constants in MHz :  1874.701390  1284.063603  1009.911042

                             ****ORCA TERMINATED NORMALLY****
TOTAL RUN TIME: 0 days 0 hours 0 minutes 23 seconds 658 msec
