                         Program Version 5.0.0 -  RELEASE  -
|  1> !BLYP D3BJ RIJCOSX def2-SVPD def2/J TightSCF
|  2> *xyz 0 1
|  3> C          3.93993        0.32036       -4.36773
|  4> C          5.10585        0.66802       -5.30546
|  5> F          4.80913        1.15019       -6.41436
|  6> O          6.26737        0.56500       -4.81948
|  7> H          3.01376        0.44480       -4.88890
|  8> H          3.96058        0.96928       -3.51722
|  9> H          4.03331       -0.69517       -4.04388
| 10> *
| 11>
| 12> %MaxCore 64000
| 13>
| 14> %pal nprocs 4
| 15> end
| 16>
| 17> %scf
| 18>   MaxIter 150
| 19> end
| 20>
| 21>
| 22>                          ****END OF INPUT****

CARTESIAN COORDINATES (ANGSTROEM)
---------------------------------
  C      3.939930    0.320360   -4.367730
  C      5.105850    0.668020   -5.305460
  F      4.809130    1.150190   -6.414360
  O      6.267370    0.565000   -4.819480
  H      3.013760    0.444800   -4.888900
  H      3.960580    0.969280   -3.517220
  H      4.033310   -0.695170   -4.043880

 Total Charge           Charge          ....    0
 Multiplicity           Mult            ....    1
 Number of Electrons    NEL             ....   32
 Basis Dimension        Dim             ....  110

ORBITAL ENERGIES
----------------

  NO   OCC          E(Eh)            E(eV)
   0   2.0000     -24.382768      -663.4889
   1   2.0000     -18.800714      -511.5934
   2   2.0000     -10.103787      -274.9380
   3   2.0000      -9.950236      -270.7597
   4   2.0000      -1.208753       -32.8918
   5   2.0000      -0.930283       -25.3143
   6   2.0000      -0.689711       -18.7680
   7   2.0000      -0.595911       -16.2156
   8   2.0000      -0.494632       -13.4596
   9   2.0000      -0.486546       -13.2396
  10   2.0000      -0.442463       -12.0400
  11   2.0000      -0.396468       -10.7884
  12   2.0000      -0.383796       -10.4436
  13   2.0000      -0.349567        -9.5122
  14   2.0000      -0.311196        -8.4681
  15   2.0000      -0.245255        -6.6737
  16   0.0000      -0.072428        -1.9709
  17   0.0000      -0.006842        -0.1862
  18   0.0000       0.040630         1.1056
  19   0.0000       0.065225         1.7749
  20   0.0000       0.068758         1.8710

MULLIKEN ATOMIC CHARGES
-----------------------
   0 C :    0.802333
   1 C :    0.247959
   2 F :   -0.263577
   3 O :   -0.385400
   4 H :   -0.182076
   5 H :   -0.105312
   6 H :   -0.113929
Sum of atomic charges:   -0.0000000

LOEWDIN ATOMIC CHARGES
----------------------
   0 C :    0.228514
   1 C :   -0.066284
   2 F :   -0.009816
   3 O :   -0.123012
   4 H :   -0.022687
   5 H :   -0.002164
   6 H :   -0.004551

  Mayer bond orders larger than 0.100000
B(  0-C ,  1-C ) :   1.2351 B(  0-C ,  4-H ) :   0.8159 B(  0-C ,  5-H ) :   0.7529
B(  0-C ,  6-H ) :   0.7289 B(  1-C ,  2-F ) :   0.9019 B(  1-C ,  3-O ) :   1.8752
B(  1-C ,  4-H ) :   0.2042 B(  1-C ,  5-H ) :   0.1748 B(  1-C ,  6-H ) :   0.2014
B(  2-F ,  3-O ) :   0.1100

Dispersion correction           -0.007108340
FINAL SINGLE POINT ENERGY      -252.858291987659

DIPOLE MOMENT
-------------
                                X             Y             Z
Electronic contribution:      2.44199       1.63454      -4.17356
Nuclear contribution   :     -3.58567      -1.71656       4.24175
                        -----------------------------------------
Total Dipole Moment    :     -1.14367      -0.08202       0.06819
                        -----------------------------------------
Magnitude (a.u.)       :      1.14864
Magnitude (Debye)      :      2.91961

Rotational constants in cm-1:     0.365806     0.323297     0.177262
Rotational constants in MHz : 10966.600844  9692.195205  5314.176777

                             ****ORCA TERMINATED NORMALLY****
TOTAL RUN TIME: 0 days 0 hours 0 minutes 3 seconds 362 msec
