                         Program Version 5.0.0 -  RELEASE  -
|  1> !BLYP D3BJ RIJCOSX def2-SVPD def2/J TightSCF
|  2> *xyz 0 1
|  3> C          3.90595        2.81985       -3.75292
|  4> C          5.29562        3.13151       -4.10533
|  5> C          5.70862        3.46889       -5.32419
|  6> N          6.90470        3.03895       -5.71708
|  7> N          4.98188        4.29357       -6.09746
|  8> H          5.00055        4.10131       -7.08776
|  9> H          4.08469        4.59690       -5.73965
| 10> H          5.96336        2.52611       -3.64239
| 11> H          7.04716        2.06686       -5.47360
| 12> H          7.19815        3.30799       -6.64523
| 13> H          3.24866        3.48801       -4.26909
| 14> H          3.77188        2.93227       -2.69732
| 15> H          3.68381        1.81198       -4.03533
| 16> *
| 17>
| 18> %MaxCore 64000
| 19>
| 20> %pal nprocs 4
| 21> end
| 22>
| 23> %scf
| 24>   MaxIter 150
| 25> end
| 26>
| 27>
| 28>                          ****END OF INPUT****

CARTESIAN COORDINATES (ANGSTROEM)
---------------------------------
  C      3.905950    2.819850   -3.752920
  C      5.295620    3.131510   -4.105330
  C      5.708620    3.468890   -5.324190
  N      6.904700    3.038950   -5.717080
  N      4.981880    4.293570   -6.097460
  H      5.000550    4.101310   -7.087760
  H      4.084690    4.596900   -5.739650
  H      5.963360    2.526110   -3.642390
  H      7.047160    2.066860   -5.473600
  H      7.198150    3.307990   -6.645230
  H      3.248660    3.488010   -4.269090
  H      3.771880    2.932270   -2.697320
  H      3.683810    1.811980   -4.035330

 Total Charge           Charge          ....    0
 Multiplicity           Mult            ....    1
 Number of Electrons    NEL             ....   40
 Basis Dimension        Dim             ....  164

ORBITAL ENERGIES
----------------

  NO   OCC          E(Eh)            E(eV)
   0   2.0000     -14.027550      -381.7090
   1   2.0000     -14.026190      -381.6720
   2   2.0000      -9.959261      -271.0053
   3   2.0000      -9.892818      -269.1973
   4   2.0000      -9.851658      -268.0773
   5   2.0000      -0.868275       -23.6270
   6   2.0000      -0.786403       -21.3991
   7   2.0000      -0.670683       -18.2502
   8   2.0000      -0.583265       -15.8715
   9   2.0000      -0.519914       -14.1476
  10   2.0000      -0.481546       -13.1035
  11   2.0000      -0.450859       -12.2685
  12   2.0000      -0.426690       -11.6108
  13   2.0000      -0.378488       -10.2992
  14   2.0000      -0.353289        -9.6135
  15   2.0000      -0.331348        -9.0164
  16   2.0000      -0.307092        -8.3564
  17   2.0000      -0.288151        -7.8410
  18   2.0000      -0.228888        -6.2283
  19   2.0000      -0.134920        -3.6714
  20   0.0000      -0.010668        -0.2903
  21   0.0000       0.016041         0.4365
  22   0.0000       0.029451         0.8014
  23   0.0000       0.033827         0.9205
  24   0.0000       0.065520         1.7829

MULLIKEN ATOMIC CHARGES
-----------------------
   0 C :    1.271908
   1 C :   -0.303042
   2 C :   -0.011663
   3 N :    0.307985
   4 N :    0.324307
   5 H :   -0.162230
   6 H :   -0.104734
   7 H :   -0.346405
   8 H :   -0.066857
   9 H :   -0.169845
  10 H :   -0.394189
  11 H :   -0.124628
  12 H :   -0.220608
Sum of atomic charges:    0.0000000

LOEWDIN ATOMIC CHARGES
----------------------
   0 C :    0.110003
   1 C :   -0.043659
   2 C :   -0.262130
   3 N :    0.209021
   4 N :    0.217887
   5 H :   -0.022067
   6 H :   -0.019515
   7 H :   -0.060407
   8 H :   -0.004224
   9 H :   -0.020768
  10 H :   -0.049717
  11 H :   -0.028140
  12 H :   -0.026285

  Mayer bond orders larger than 0.100000
B(  0-C ,  1-C ) :   1.0954 B(  0-C ,  7-H ) :   0.2560 B(  0-C , 10-H ) :   0.5707
B(  0-C , 11-H ) :   0.5772 B(  0-C , 12-H ) :   0.7199 B(  1-C ,  2-C ) :   1.8223
B(  1-C ,  3-N ) :   0.3298 B(  1-C ,  4-N ) :   0.1706 B(  1-C ,  7-H ) :   0.5624
B(  1-C , 10-H ) :   0.4025 B(  1-C , 11-H ) :   0.2987 B(  1-C , 12-H ) :   0.1385
B(  2-C ,  3-N ) :   1.0634 B(  2-C ,  4-N ) :   1.1505 B(  2-C ,  7-H ) :   0.4127
B(  2-C ,  9-H ) :   0.1018 B(  3-N ,  4-N ) :   0.1064 B(  3-N ,  8-H ) :   1.0215
B(  3-N ,  9-H ) :   0.9310 B(  4-N ,  5-H ) :   1.0632 B(  4-N ,  6-H ) :   0.9771
B(  5-H ,  6-H ) :  -0.1013 B( 10-H , 11-H ) :   0.1370

Dispersion correction           -0.019543963
FINAL SINGLE POINT ENERGY      -228.352756477087

DIPOLE MOMENT
-------------
                                X             Y             Z
Electronic contribution:      2.53963       1.36904      -1.77965
Nuclear contribution   :     -2.63304      -1.77161       0.70501
                        -----------------------------------------
Total Dipole Moment    :     -0.09342      -0.40257      -1.07464
                        -----------------------------------------
Magnitude (a.u.)       :      1.15136
Magnitude (Debye)      :      2.92654

Rotational constants in cm-1:     0.303572     0.135185     0.098519
Rotational constants in MHz :  9100.846149  4052.756012  2953.539431

                             ****ORCA TERMINATED NORMALLY****
TOTAL RUN TIME: 0 days 0 hours 0 minutes 6 seconds 534 msec
