                         Program Version 5.0.0 -  RELEASE  -
|  1> !BLYP D3BJ RIJCOSX def2-SVPD def2/J TightSCF
|  2> *xyz 0 1
|  3> C          3.93993        0.32036       -4.36773
|  4> C          5.10585        0.66802       -5.30546
|  5> O          4.80913        1.15019       -6.41436
|  6> F          6.26737        0.56500       -4.81948
|  7> H          3.01376        0.44480       -4.88890
|  8> H          3.96058        0.96928       -3.51722
|  9> H          4.03331       -0.69517       -4.04388
| 10> *
| 11>
| 12> %MaxCore 64000
| 13>
| 14> %pal nprocs 4
| 15> end
| 16>
| 17> %scf
| 18>   MaxIter 150
| 19> end
| 20>
| 21>
| 22>                          ****END OF INPUT****

CARTESIAN COORDINATES (ANGSTROEM)
---------------------------------
  C      3.939930    0.320360   -4.367730
  C      5.105850    0.668020   -5.305460
  O      4.809130    1.150190   -6.414360
  F      6.267370    0.565000   -4.819480
  H      3.013760    0.444800   -4.888900
  H      3.960580    0.969280   -3.517220
  H      4.033310   -0.695170   -4.043880

 Total Charge           Charge          ....    0
 Multiplicity           Mult            ....    1
 Number of Electrons    NEL             ....   32
 Basis Dimension        Dim             ....  110

ORBITAL ENERGIES
----------------

  NO   OCC          E(Eh)            E(eV)
   0   2.0000     -24.376216      -663.3106
   1   2.0000     -18.803577      -511.6713
   2   2.0000     -10.102220      -274.8954
   3   2.0000      -9.949963      -270.7523
   4   2.0000      -1.195185       -32.5226
   5   2.0000      -0.941336       -25.6151
   6   2.0000      -0.689157       -18.7529
   7   2.0000      -0.588856       -16.0236
   8   2.0000      -0.487653       -13.2697
   9   2.0000      -0.480727       -13.0812
  10   2.0000      -0.441726       -12.0200
  11   2.0000      -0.394923       -10.7464
  12   2.0000      -0.384756       -10.4698
  13   2.0000      -0.351579        -9.5670
  14   2.0000      -0.319983        -8.7072
  15   2.0000      -0.247518        -6.7353
  16   0.0000      -0.068307        -1.8587
  17   0.0000      -0.006503        -0.1770
  18   0.0000       0.040862         1.1119
  19   0.0000       0.064260         1.7486
  20   0.0000       0.071466         1.9447

MULLIKEN ATOMIC CHARGES
-----------------------
   0 C :    0.816741
   1 C :    0.258799
   2 O :   -0.339282
   3 F :   -0.310627
   4 H :   -0.195338
   5 H :   -0.111339
   6 H :   -0.118954
Sum of atomic charges:   -0.0000000

LOEWDIN ATOMIC CHARGES
----------------------
   0 C :    0.228625
   1 C :   -0.066955
   2 O :   -0.110971
   3 F :   -0.021749
   4 H :   -0.008647
   5 H :   -0.007606
   6 H :   -0.012696

  Mayer bond orders larger than 0.100000
B(  0-C ,  1-C ) :   1.2154 B(  0-C ,  4-H ) :   0.8089 B(  0-C ,  5-H ) :   0.7517
B(  0-C ,  6-H ) :   0.7377 B(  1-C ,  2-O ) :   1.9198 B(  1-C ,  3-F ) :   0.8327
B(  1-C ,  4-H ) :   0.2696 B(  1-C ,  5-H ) :   0.1640 B(  1-C ,  6-H ) :   0.1769
B(  2-O ,  3-F ) :   0.1168

Dispersion correction           -0.007107938
FINAL SINGLE POINT ENERGY      -252.863742312764

DIPOLE MOMENT
-------------
                                X             Y             Z
Electronic contribution:      4.78677       0.69176      -1.60304
Nuclear contribution   :     -5.09247      -1.11188       2.59376
                        -----------------------------------------
Total Dipole Moment    :     -0.30570      -0.42012       0.99072
                        -----------------------------------------
Magnitude (a.u.)       :      1.11870
Magnitude (Debye)      :      2.84350

Rotational constants in cm-1:     0.367940     0.321271     0.177147
Rotational constants in MHz : 11030.570495  9631.458923  5310.737691

                             ****ORCA TERMINATED NORMALLY****
TOTAL RUN TIME: 0 days 0 hours 0 minutes 3 seconds 377 msec
