                         Program Version 5.0.0 -  RELEASE  -
|  1> !BLYP D3BJ RIJCOSX def2-SVPD def2/J TightSCF
|  2> *xyz 0 1
|  3> C          3.90595        2.81985       -3.75292
|  4> N          5.29562        3.13151       -4.10533
|  5> C          5.70862        3.46889       -5.32419
|  6> C          6.90470        3.03895       -5.71708
|  7> N          4.98188        4.29357       -6.09746
|  8> H          5.00055        4.10131       -7.08776
|  9> H          4.08469        4.59690       -5.73965
| 10> H          5.96336        2.52611       -3.64239
| 11> H          7.04716        2.06686       -5.47360
| 12> H          7.19815        3.30799       -6.64523
| 13> H          3.24866        3.48801       -4.26909
| 14> H          3.77188        2.93227       -2.69732
| 15> H          3.68381        1.81198       -4.03533
| 16> *
| 17>
| 18> %MaxCore 64000
| 19>
| 20> %pal nprocs 4
| 21> end
| 22>
| 23> %scf
| 24>   MaxIter 150
| 25> end
| 26>
| 27>
| 28>                          ****END OF INPUT****

CARTESIAN COORDINATES (ANGSTROEM)
---------------------------------
  C      3.905950    2.819850   -3.752920
  N      5.295620    3.131510   -4.105330
  C      5.708620    3.468890   -5.324190
  C      6.904700    3.038950   -5.717080
  N      4.981880    4.293570   -6.097460
  H      5.000550    4.101310   -7.087760
  H      4.084690    4.596900   -5.739650
  H      5.963360    2.526110   -3.642390
  H      7.047160    2.066860   -5.473600
  H      7.198150    3.307990   -6.645230
  H      3.248660    3.488010   -4.269090
  H      3.771880    2.932270   -2.697320
  H      3.683810    1.811980   -4.035330

 Total Charge           Charge          ....    0
 Multiplicity           Mult            ....    1
 Number of Electrons    NEL             ....   40
 Basis Dimension        Dim             ....  164

ORBITAL ENERGIES
----------------

  NO   OCC          E(Eh)            E(eV)
   0   2.0000     -14.029136      -381.7522
   1   2.0000     -14.028282      -381.7290
   2   2.0000      -9.964968      -271.1606
   3   2.0000      -9.956377      -270.9268
   4   2.0000      -9.839509      -267.7467
   5   2.0000      -0.873380       -23.7659
   6   2.0000      -0.795942       -21.6587
   7   2.0000      -0.666283       -18.1305
   8   2.0000      -0.597244       -16.2518
   9   2.0000      -0.534730       -14.5508
  10   2.0000      -0.478492       -13.0204
  11   2.0000      -0.439318       -11.9544
  12   2.0000      -0.429183       -11.6787
  13   2.0000      -0.400182       -10.8895
  14   2.0000      -0.360333        -9.8052
  15   2.0000      -0.342439        -9.3182
  16   2.0000      -0.338737        -9.2175
  17   2.0000      -0.296258        -8.0616
  18   2.0000      -0.216477        -5.8906
  19   2.0000      -0.142254        -3.8709
  20   0.0000      -0.011250        -0.3061
  21   0.0000       0.012390         0.3372
  22   0.0000       0.027851         0.7579
  23   0.0000       0.036301         0.9878
  24   0.0000       0.059471         1.6183

MULLIKEN ATOMIC CHARGES
-----------------------
   0 C :    1.560685
   1 N :   -0.309242
   2 C :   -0.041259
   3 C :    0.787999
   4 N :    0.398921
   5 H :   -0.127138
   6 H :   -0.209713
   7 H :   -0.207560
   8 H :   -0.387667
   9 H :   -0.504061
  10 H :   -0.364277
  11 H :   -0.377104
  12 H :   -0.219584
Sum of atomic charges:    0.0000000

LOEWDIN ATOMIC CHARGES
----------------------
   0 C :    0.217785
   1 N :   -0.012636
   2 C :   -0.262612
   3 C :    0.158414
   4 N :    0.223813
   5 H :   -0.002952
   6 H :   -0.033595
   7 H :    0.016198
   8 H :   -0.110676
   9 H :   -0.111091
  10 H :   -0.038453
  11 H :   -0.021147
  12 H :   -0.023047

  Mayer bond orders larger than 0.100000
B(  0-C ,  1-N ) :   0.9636 B(  0-C , 10-H ) :   0.7138 B(  0-C , 11-H ) :   0.6271
B(  0-C , 12-H ) :   0.6931 B(  1-N ,  2-C ) :   1.2629 B(  1-N ,  3-C ) :   0.2255
B(  1-N ,  7-H ) :   1.1028 B(  1-N , 10-H ) :   0.1677 B(  1-N , 11-H ) :   0.2518
B(  1-N , 12-H ) :   0.1383 B(  2-C ,  3-C ) :   1.7022 B(  2-C ,  4-N ) :   1.1004
B(  2-C ,  7-H ) :  -0.1090 B(  2-C ,  8-H ) :   0.2977 B(  2-C ,  9-H ) :   0.4060
B(  3-C ,  4-N ) :   0.2372 B(  3-C ,  8-H ) :   0.7071 B(  3-C ,  9-H ) :   0.4084
B(  4-N ,  5-H ) :   1.0793 B(  4-N ,  6-H ) :   0.9587 B(  5-H ,  6-H ) :  -0.1281
B(  8-H ,  9-H ) :   0.2255

Dispersion correction           -0.019385420
FINAL SINGLE POINT ENERGY      -228.340620950841

DIPOLE MOMENT
-------------
                                X             Y             Z
Electronic contribution:      0.98517       1.47826      -0.28847
Nuclear contribution   :     -2.30713      -1.79036       0.37856
                        -----------------------------------------
Total Dipole Moment    :     -1.32196      -0.31210       0.09009
                        -----------------------------------------
Magnitude (a.u.)       :      1.36129
Magnitude (Debye)      :      3.46012

Rotational constants in cm-1:     0.307513     0.139026     0.101190
Rotational constants in MHz :  9218.994719  4167.905268  3033.592538

                             ****ORCA TERMINATED NORMALLY****
TOTAL RUN TIME: 0 days 0 hours 0 minutes 6 seconds 534 msec
