                         Program Version 5.0.0 -  RELEASE  -
|  1> !BLYP D3BJ RIJCOSX def2-SVPD def2/J TightSCF
|  2> *xyz 0 1
|  3> C          3.90595        2.81985       -3.75292
|  4> N          5.29562        3.13151       -4.10533
|  5> C          5.70862        3.46889       -5.32419
|  6> N          6.90470        3.03895       -5.71708
|  7> C          4.98188        4.29357       -6.09746
|  8> H          5.00055        4.10131       -7.08776
|  9> H          4.08469        4.59690       -5.73965
| 10> H          5.96336        2.52611       -3.64239
| 11> H          7.04716        2.06686       -5.47360
| 12> H          7.19815        3.30799       -6.64523
| 13> H          3.24866        3.48801       -4.26909
| 14> H          3.77188        2.93227       -2.69732
| 15> H          3.68381        1.81198       -4.03533
| 16> *
| 17>
| 18> %MaxCore 64000
| 19>
| 20> %pal nprocs 4
| 21> end
| 22>
| 23> %scf
| 24>   MaxIter 150
| 25> end
| 26>
| 27>
| 28>                          ****END OF INPUT****

CARTESIAN COORDINATES (ANGSTROEM)
---------------------------------
  C      3.905950    2.819850   -3.752920
  N      5.295620    3.131510   -4.105330
  C      5.708620    3.468890   -5.324190
  N      6.904700    3.038950   -5.717080
  C      4.981880    4.293570   -6.097460
  H      5.000550    4.101310   -7.087760
  H      4.084690    4.596900   -5.739650
  H      5.963360    2.526110   -3.642390
  H      7.047160    2.066860   -5.473600
  H      7.198150    3.307990   -6.645230
  H      3.248660    3.488010   -4.269090
  H      3.771880    2.932270   -2.697320
  H      3.683810    1.811980   -4.035330

 Total Charge           Charge          ....    0
 Multiplicity           Mult            ....    1
 Number of Electrons    NEL             ....   40
 Basis Dimension        Dim             ....  164

ORBITAL ENERGIES
----------------

  NO   OCC          E(Eh)            E(eV)
   0   2.0000     -14.029976      -381.7751
   1   2.0000     -14.028528      -381.7356
   2   2.0000      -9.964534      -271.1487
   3   2.0000      -9.950753      -270.7737
   4   2.0000      -9.843750      -267.8621
   5   2.0000      -0.878391       -23.9022
   6   2.0000      -0.797502       -21.7011
   7   2.0000      -0.644523       -17.5384
   8   2.0000      -0.620948       -16.8969
   9   2.0000      -0.506020       -13.7695
  10   2.0000      -0.485101       -13.2003
  11   2.0000      -0.466344       -12.6899
  12   2.0000      -0.404201       -10.9989
  13   2.0000      -0.397497       -10.8164
  14   2.0000      -0.369232       -10.0473
  15   2.0000      -0.337363        -9.1801
  16   2.0000      -0.332691        -9.0530
  17   2.0000      -0.299373        -8.1464
  18   2.0000      -0.217405        -5.9159
  19   2.0000      -0.143062        -3.8929
  20   0.0000      -0.009975        -0.2714
  21   0.0000       0.015711         0.4275
  22   0.0000       0.028131         0.7655
  23   0.0000       0.034611         0.9418
  24   0.0000       0.059087         1.6079

MULLIKEN ATOMIC CHARGES
-----------------------
   0 C :    1.594587
   1 N :   -0.188635
   2 C :   -0.093521
   3 N :    0.240825
   4 C :    0.738906
   5 H :   -0.470091
   6 H :   -0.380850
   7 H :   -0.345321
   8 H :   -0.099656
   9 H :   -0.043352
  10 H :   -0.342757
  11 H :   -0.356671
  12 H :   -0.253465
Sum of atomic charges:    0.0000000

LOEWDIN ATOMIC CHARGES
----------------------
   0 C :    0.226754
   1 N :   -0.013485
   2 C :   -0.273266
   3 N :    0.209902
   4 C :    0.177093
   5 H :   -0.111597
   6 H :   -0.121258
   7 H :    0.003487
   8 H :   -0.018539
   9 H :   -0.004151
  10 H :   -0.031626
  11 H :   -0.020985
  12 H :   -0.022328

  Mayer bond orders larger than 0.100000
B(  0-C ,  1-N ) :   0.9447 B(  0-C , 10-H ) :   0.7229 B(  0-C , 11-H ) :   0.6248
B(  0-C , 12-H ) :   0.6779 B(  1-N ,  2-C ) :   1.2461 B(  1-N ,  3-N ) :   0.1544
B(  1-N ,  4-C ) :   0.2379 B(  1-N ,  7-H ) :   1.0453 B(  1-N , 10-H ) :   0.1451
B(  1-N , 11-H ) :   0.2371 B(  1-N , 12-H ) :   0.1806 B(  2-C ,  3-N ) :   1.1201
B(  2-C ,  4-C ) :   1.7678 B(  2-C ,  5-H ) :   0.2691 B(  2-C ,  6-H ) :   0.3423
B(  2-C , 10-H ) :   0.1158 B(  3-N ,  4-C ) :   0.1906 B(  3-N ,  8-H ) :   0.9651
B(  3-N ,  9-H ) :   0.9793 B(  4-C ,  5-H ) :   0.6581 B(  4-C ,  6-H ) :   0.4122
B(  5-H ,  6-H ) :   0.3404

Dispersion correction           -0.019476838
FINAL SINGLE POINT ENERGY      -228.343937691190

DIPOLE MOMENT
-------------
                                X             Y             Z
Electronic contribution:      2.78803       0.32002       0.00677
Nuclear contribution   :     -2.69659      -1.53624       0.30152
                        -----------------------------------------
Total Dipole Moment    :      0.09145      -1.21623       0.30828
                        -----------------------------------------
Magnitude (a.u.)       :      1.25802
Magnitude (Debye)      :      3.19763

Rotational constants in cm-1:     0.320409     0.134796     0.100241
Rotational constants in MHz :  9605.632807  4041.079317  3005.150506

                             ****ORCA TERMINATED NORMALLY****
TOTAL RUN TIME: 0 days 0 hours 0 minutes 7 seconds 110 msec
