                         Program Version 5.0.0 -  RELEASE  -
|  1> !BLYP D3BJ RIJCOSX def2-SVPD def2/J TightSCF xyzfile
|  2>
|  3> *xyzfile 0 1 D1.xyz
|  4>
|  5> %MaxCore 64000
|  6>
|  7> %pal nprocs 4
|  8> end
|  9>
| 10> %scf
| 11>   MaxIter 150
| 12> end
| 13>
| 14>
| 15>                          ****END OF INPUT****

CARTESIAN COORDINATES (ANGSTROEM)
---------------------------------
  C      3.905947    2.819855   -3.752920
  C      5.295615    3.131515   -4.105334
  C      3.803511    1.374716   -3.260807
  C      3.939934    0.320362   -4.367729
  H      4.105043   -0.655085   -3.907733
  H      3.022801    0.280517   -4.957117
  C      5.105846    0.668022   -5.305463
  C      5.708619    3.468885   -5.324190
  N      6.904696    3.038954   -5.717084
  N      4.981884    4.293570   -6.097457
  H      5.000546    4.101311   -7.087761
  H      4.084693    4.596899   -5.739652
  H      5.963358    2.526112   -3.642391
  H      7.047164    2.066861   -5.473604
  H      7.198145    3.307994   -6.645225
  H      3.282025    2.949187   -4.640259
  H      3.565254    3.514574   -2.982523
  H      4.574833    1.215157   -2.500443
  H      2.843514    1.260845   -2.751465
  F      4.809132    1.150187   -6.414361
  O      6.267366    0.564999   -4.819481

 Total Charge           Charge          ....    0
 Multiplicity           Mult            ....    1
 Number of Electrons    NEL             ....   78
 Basis Dimension        Dim             ....  294

ORBITAL ENERGIES
----------------

  NO   OCC          E(Eh)            E(eV)
   0   2.0000     -24.381962      -663.4669
   1   2.0000     -18.797819      -511.5147
   2   2.0000     -14.030532      -381.7902
   3   2.0000     -14.009300      -381.2124
   4   2.0000     -10.098988      -274.8074
   5   2.0000      -9.961063      -271.0543
   6   2.0000      -9.948410      -270.7100
   7   2.0000      -9.928620      -270.1715
   8   2.0000      -9.912594      -269.7354
   9   2.0000      -9.853675      -268.1321
  10   2.0000      -1.208250       -32.8781
  11   2.0000      -0.935019       -25.4432
  12   2.0000      -0.865329       -23.5468
  13   2.0000      -0.781980       -21.2788
  14   2.0000      -0.730897       -19.8887
  15   2.0000      -0.670082       -18.2339
  16   2.0000      -0.618589       -16.8327
  17   2.0000      -0.589278       -16.0351
  18   2.0000      -0.541548       -14.7363
  19   2.0000      -0.518836       -14.1183
  20   2.0000      -0.496520       -13.5110
  21   2.0000      -0.482668       -13.1341
  22   2.0000      -0.471097       -12.8192
  23   2.0000      -0.461619       -12.5613
  24   2.0000      -0.444088       -12.0843
  25   2.0000      -0.416308       -11.3283
  26   2.0000      -0.408383       -11.1127
  27   2.0000      -0.389206       -10.5908
  28   2.0000      -0.380938       -10.3659
  29   2.0000      -0.346541        -9.4299
  30   2.0000      -0.339318        -9.2333
  31   2.0000      -0.323537        -8.8039
  32   2.0000      -0.316217        -8.6047
  33   2.0000      -0.304031        -8.2731
  34   2.0000      -0.292324        -7.9546
  35   2.0000      -0.280407        -7.6303
  36   2.0000      -0.249566        -6.7910
  37   2.0000      -0.221643        -6.0312
  38   2.0000      -0.141308        -3.8452
  39   0.0000      -0.071108        -1.9349
  40   0.0000      -0.009327        -0.2538
  41   0.0000       0.010905         0.2967
  42   0.0000       0.018987         0.5167
  43   0.0000       0.024881         0.6770

MULLIKEN ATOMIC CHARGES
-----------------------
   0 C :    0.690711
   1 C :    0.146156
   2 C :    0.487296
   3 C :    0.616509
   4 H :   -0.237156
   5 H :   -0.159579
   6 C :    0.632369
   7 C :   -0.064899
   8 N :    0.530860
   9 N :    0.253505
  10 H :   -0.124198
  11 H :   -0.064878
  12 H :   -0.421282
  13 H :   -0.183990
  14 H :   -0.117150
  15 H :   -0.295814
  16 H :   -0.395138
  17 H :   -0.067303
  18 H :   -0.351917
  19 F :   -0.335808
  20 O :   -0.538297
Sum of atomic charges:   -0.0000000

LOEWDIN ATOMIC CHARGES
----------------------
   0 C :   -0.038552
   1 C :    0.000031
   2 C :   -0.006346
   3 C :    0.072597
   4 H :    0.031191
   5 H :    0.017959
   6 C :   -0.024165
   7 C :   -0.258297
   8 N :    0.242044
   9 N :    0.228972
  10 H :   -0.018476
  11 H :   -0.012816
  12 H :   -0.055724
  13 H :   -0.080357
  14 H :   -0.010325
  15 H :    0.001555
  16 H :    0.006221
  17 H :    0.028511
  18 H :    0.015336
  19 F :   -0.005217
  20 O :   -0.134143

  Mayer bond orders larger than 0.100000
B(  0-C ,  1-C ) :   0.9836 B(  0-C ,  2-C ) :   1.2083 B(  0-C ,  3-C ) :   0.1045
B(  0-C , 12-H ) :   0.2742 B(  0-C , 15-H ) :   0.6296 B(  0-C , 16-H ) :   0.6395
B(  0-C , 17-H ) :   0.1008 B(  0-C , 18-H ) :   0.2751 B(  1-C ,  2-C ) :   0.2123
B(  1-C ,  7-C ) :   1.6425 B(  1-C ,  8-N ) :   0.3746 B(  1-C ,  9-N ) :   0.2145
B(  1-C , 12-H ) :   0.2204 B(  1-C , 15-H ) :   0.1482 B(  1-C , 16-H ) :   0.2147
B(  2-C ,  3-C ) :   1.1743 B(  2-C ,  4-H ) :   0.2262 B(  2-C ,  5-H ) :   0.1634
B(  2-C , 17-H ) :   0.7296 B(  2-C , 18-H ) :   0.7066 B(  3-C ,  4-H ) :   0.6774
B(  3-C ,  5-H ) :   0.7779 B(  3-C ,  6-C ) :   1.0813 B(  3-C , 17-H ) :   0.1201
B(  4-H ,  6-C ) :   0.1462 B(  5-H ,  6-C ) :   0.1631 B(  6-C , 19-F ) :   0.7441
B(  6-C , 20-O ) :   1.6867 B(  7-C ,  8-N ) :   0.9401 B(  7-C ,  9-N ) :   1.0714
B(  7-C , 12-H ) :   0.3980 B(  7-C , 14-H ) :   0.2228 B(  8-N ,  9-N ) :   0.1728
B(  8-N , 13-H ) :   0.8861 B(  8-N , 14-H ) :   0.7875 B(  9-N , 10-H ) :   1.0422
B(  9-N , 11-H ) :   0.9764 B( 10-H , 11-H ) :  -0.1136 B( 12-H , 15-H ) :   0.1178
B( 13-H , 20-O ) :   0.1303 B( 15-H , 16-H ) :  -0.1631 B( 17-H , 18-H ) :  -0.1458
B( 19-F , 20-O ) :   0.1097

Dispersion correction           -0.046480141
FINAL SINGLE POINT ENERGY      -519.295210995494

DIPOLE MOMENT
-------------
                                X             Y             Z
Electronic contribution:      3.47369      -3.52669      -6.42503
Nuclear contribution   :     -4.60158       3.22721       5.56005
                        -----------------------------------------
Total Dipole Moment    :     -1.12789      -0.29948      -0.86497
                        -----------------------------------------
Magnitude (a.u.)       :      1.45259
Magnitude (Debye)      :      3.69218

Rotational constants in cm-1:     0.061224     0.042534     0.033552
Rotational constants in MHz :  1835.464095  1275.135177  1005.856966

                             ****ORCA TERMINATED NORMALLY****
TOTAL RUN TIME: 0 days 0 hours 0 minutes 21 seconds 217 msec
