                         Program Version 5.0.0 -  RELEASE  -
|  1> !BLYP D3BJ RIJCOSX def2-SVPD def2/J TightSCF xyzfile
|  2>
|  3> *xyzfile 0 1 D5.xyz
|  4>
|  5> %MaxCore 64000
|  6>
|  7> %pal nprocs 4
|  8> end
|  9>
| 10> %scf
| 11>   MaxIter 150
| 12> end
| 13>
| 14>
| 15>                          ****END OF INPUT****

CARTESIAN COORDINATES (ANGSTROEM)
---------------------------------
  C      3.905947    2.819855   -3.752920
  N      5.295615    3.131515   -4.105334
  C      3.803511    1.374716   -3.260807
  C      3.939934    0.320362   -4.367729
  H      4.105043   -0.655085   -3.907733
  H      3.022801    0.280517   -4.957117
  C      5.105846    0.668022   -5.305463
  C      5.708619    3.468885   -5.324190
  C      6.904696    3.038954   -5.717084
  N      4.981884    4.293570   -6.097457
  H      5.000546    4.101311   -7.087761
  H      4.084693    4.596899   -5.739652
  H      5.963358    2.526112   -3.642391
  H      7.047164    2.066861   -5.473604
  H      7.198145    3.307994   -6.645225
  H      3.282025    2.949187   -4.640259
  H      3.565254    3.514574   -2.982523
  H      4.574833    1.215157   -2.500443
  H      2.843514    1.260845   -2.751465
  O      4.809132    1.150187   -6.414361
  F      6.267366    0.564999   -4.819481

 Total Charge           Charge          ....    0
 Multiplicity           Mult            ....    1
 Number of Electrons    NEL             ....   78
 Basis Dimension        Dim             ....  294

ORBITAL ENERGIES
----------------

  NO   OCC          E(Eh)            E(eV)
   0   2.0000     -24.376315      -663.3132
   1   2.0000     -18.800423      -511.5855
   2   2.0000     -14.031891      -381.8272
   3   2.0000     -14.022713      -381.5774
   4   2.0000     -10.096229      -274.7324
   5   2.0000      -9.969028      -271.2710
   6   2.0000      -9.958653      -270.9887
   7   2.0000      -9.958077      -270.9730
   8   2.0000      -9.953758      -270.8555
   9   2.0000      -9.828053      -267.4349
  10   2.0000      -1.198554       -32.6143
  11   2.0000      -0.940826       -25.6012
  12   2.0000      -0.875382       -23.8204
  13   2.0000      -0.798525       -21.7290
  14   2.0000      -0.734517       -19.9872
  15   2.0000      -0.664466       -18.0810
  16   2.0000      -0.624157       -16.9842
  17   2.0000      -0.588902       -16.0248
  18   2.0000      -0.555357       -15.1120
  19   2.0000      -0.537615       -14.6292
  20   2.0000      -0.495267       -13.4769
  21   2.0000      -0.490719       -13.3531
  22   2.0000      -0.466383       -12.6909
  23   2.0000      -0.447611       -12.1801
  24   2.0000      -0.443321       -12.0634
  25   2.0000      -0.433027       -11.7833
  26   2.0000      -0.415793       -11.3143
  27   2.0000      -0.390571       -10.6280
  28   2.0000      -0.371531       -10.1099
  29   2.0000      -0.357797        -9.7361
  30   2.0000      -0.346065        -9.4169
  31   2.0000      -0.336135        -9.1467
  32   2.0000      -0.329624        -8.9695
  33   2.0000      -0.321649        -8.7525
  34   2.0000      -0.315402        -8.5825
  35   2.0000      -0.280195        -7.6245
  36   2.0000      -0.244108        -6.6425
  37   2.0000      -0.219516        -5.9733
  38   2.0000      -0.134384        -3.6568
  39   0.0000      -0.068917        -1.8753
  40   0.0000      -0.012336        -0.3357
  41   0.0000       0.005110         0.1391
  42   0.0000       0.016471         0.4482
  43   0.0000       0.021776         0.5925

MULLIKEN ATOMIC CHARGES
-----------------------
   0 C :    1.071296
   1 N :   -0.122226
   2 C :    0.391409
   3 C :    0.609150
   4 H :   -0.241987
   5 H :   -0.132047
   6 C :    0.431827
   7 C :   -0.108038
   8 C :    1.109446
   9 N :    0.299335
  10 H :   -0.087609
  11 H :   -0.091496
  12 H :   -0.127091
  13 H :   -0.702745
  14 H :   -0.398666
  15 H :   -0.117624
  16 H :   -0.538723
  17 H :   -0.120706
  18 H :   -0.339722
  19 O :   -0.326341
  20 F :   -0.457444
Sum of atomic charges:    0.0000000

LOEWDIN ATOMIC CHARGES
----------------------
   0 C :    0.062740
   1 N :    0.032127
   2 C :   -0.002543
   3 C :    0.072001
   4 H :    0.024879
   5 H :    0.030127
   6 C :   -0.043340
   7 C :   -0.266565
   8 C :    0.173621
   9 N :    0.235926
  10 H :    0.002363
  11 H :   -0.025349
  12 H :    0.007414
  13 H :   -0.142569
  14 H :   -0.091941
  15 H :    0.015190
  16 H :    0.010423
  17 H :    0.021764
  18 H :    0.019133
  19 O :   -0.102462
  20 F :   -0.032938

  Mayer bond orders larger than 0.100000
B(  0-C ,  1-N ) :   0.9143 B(  0-C ,  2-C ) :   1.1492 B(  0-C ,  3-C ) :   0.1198
B(  0-C , 12-H ) :  -0.1042 B(  0-C , 15-H ) :   0.6399 B(  0-C , 16-H ) :   0.6425
B(  0-C , 18-H ) :   0.2328 B(  1-N ,  2-C ) :   0.1840 B(  1-N ,  7-C ) :   1.2298
B(  1-N ,  8-C ) :   0.2050 B(  1-N , 12-H ) :   1.0103 B(  1-N , 15-H ) :   0.1577
B(  1-N , 16-H ) :   0.1194 B(  2-C ,  3-C ) :   1.1765 B(  2-C ,  4-H ) :   0.2320
B(  2-C ,  5-H ) :   0.1448 B(  2-C , 17-H ) :   0.7357 B(  2-C , 18-H ) :   0.7886
B(  3-C ,  4-H ) :   0.6853 B(  3-C ,  5-H ) :   0.7457 B(  3-C ,  6-C ) :   1.0818
B(  3-C , 17-H ) :   0.1091 B(  4-H ,  6-C ) :   0.1333 B(  5-H ,  6-C ) :   0.2735
B(  6-C , 13-H ) :   0.1202 B(  6-C , 19-O ) :   1.8657 B(  6-C , 20-F ) :   0.6918
B(  7-C ,  8-C ) :   1.7269 B(  7-C ,  9-N ) :   0.9694 B(  7-C , 11-H ) :   0.1967
B(  7-C , 12-H ) :  -0.1471 B(  7-C , 13-H ) :   0.2724 B(  7-C , 14-H ) :   0.5409
B(  8-C ,  9-N ) :   0.3104 B(  8-C , 13-H ) :   0.2080 B(  8-C , 14-H ) :   0.1134
B(  9-N , 10-H ) :   1.0411 B(  9-N , 11-H ) :   0.8309 B(  9-N , 14-H ) :   0.1174
B( 10-H , 11-H ) :  -0.1396 B( 13-H , 14-H ) :   0.1622 B( 13-H , 20-F ) :   0.2464
B( 15-H , 16-H ) :  -0.1800 B( 17-H , 18-H ) :  -0.1213 B( 19-O , 20-F ) :   0.1152

Dispersion correction           -0.046241847
FINAL SINGLE POINT ENERGY      -519.271546742964

DIPOLE MOMENT
-------------
                                X             Y             Z
Electronic contribution:      4.48720      -4.58087      -2.61987
Nuclear contribution   :     -6.05797       3.87976       3.55209
                        -----------------------------------------
Total Dipole Moment    :     -1.57077      -0.70111       0.93221
                        -----------------------------------------
Magnitude (a.u.)       :      1.95650
Magnitude (Debye)      :      4.97302

Rotational constants in cm-1:     0.061282     0.043164     0.033679
Rotational constants in MHz :  1837.191639  1294.028651  1009.659886

                             ****ORCA TERMINATED NORMALLY****
TOTAL RUN TIME: 0 days 0 hours 0 minutes 21 seconds 394 msec
