                         Program Version 5.0.0 -  RELEASE  -
|  1> !BLYP D3BJ RIJCOSX def2-SVPD def2/J TightSCF
|  2> *xyz -1 1
|  3> C         -0.96015       -0.52236       -0.48987
|  4> O          0.26170       -0.58031        0.13861
|  5> H         -0.85050       -0.82220       -1.51113
|  6> H         -1.33436        0.47929       -0.45044
|  7> H         -1.64624       -1.17908        0.00297
|  8> *
|  9>
| 10> %MaxCore 64000
| 11>
| 12> %pal nprocs 4
| 13> end
| 14>
| 15> %scf
| 16>   MaxIter 150
| 17> end
| 18>
| 19>
| 20>                          ****END OF INPUT****

CARTESIAN COORDINATES (ANGSTROEM)
---------------------------------
  C     -0.960150   -0.522360   -0.489870
  O      0.261700   -0.580310    0.138610
  H     -0.850500   -0.822200   -1.511130
  H     -1.334360    0.479290   -0.450440
  H     -1.646240   -1.179080    0.002970

 Total Charge           Charge          ....   -1
 Multiplicity           Mult            ....    1
 Number of Electrons    NEL             ....   18
 Basis Dimension        Dim             ....   67

ORBITAL ENERGIES
----------------

  NO   OCC          E(Eh)            E(eV)
   0   2.0000     -18.444640      -501.9042
   1   2.0000      -9.711658      -264.2677
   2   2.0000      -0.561326       -15.2745
   3   2.0000      -0.324167        -8.8210
   4   2.0000      -0.146204        -3.9784
   5   2.0000      -0.146204        -3.9784
   6   2.0000      -0.051636        -1.4051
   7   2.0000       0.093545         2.5455
   8   2.0000       0.093547         2.5455
   9   0.0000       0.181101         4.9280
  10   0.0000       0.250009         6.8031
  11   0.0000       0.250010         6.8031
  12   0.0000       0.257525         7.0076
  13   0.0000       0.295367         8.0373

MULLIKEN ATOMIC CHARGES
-----------------------
   0 C :    1.159963
   1 O :   -0.992539
   2 H :   -0.389123
   3 H :   -0.389151
   4 H :   -0.389150
Sum of atomic charges:   -1.0000000

LOEWDIN ATOMIC CHARGES
----------------------
   0 C :   -0.111120
   1 O :   -0.620446
   2 H :   -0.089476
   3 H :   -0.089479
   4 H :   -0.089479

  Mayer bond orders larger than 0.100000
B(  0-C ,  1-O ) :   1.1628 B(  0-C ,  2-H ) :   0.8332 B(  0-C ,  3-H ) :   0.8333
B(  0-C ,  4-H ) :   0.8332

Dispersion correction           -0.003031135
FINAL SINGLE POINT ENERGY      -114.985737570233

DIPOLE MOMENT
-------------
                                X             Y             Z
Electronic contribution:      1.69076      -0.08019       0.86968
Nuclear contribution   :     -2.56864       0.12183      -1.32123
                        -----------------------------------------
Total Dipole Moment    :     -0.87788       0.04164      -0.45154
                        -----------------------------------------
Magnitude (a.u.)       :      0.98808
Magnitude (Debye)      :      2.51149

Rotational constants in cm-1:     5.477744     0.932677     0.932677
Rotational constants in MHz : 164218.635293 27960.967920 27960.945417

                             ****ORCA TERMINATED NORMALLY****
TOTAL RUN TIME: 0 days 0 hours 0 minutes 2 seconds 301 msec
