                         Program Version 5.0.0 -  RELEASE  -
|  1> !BLYP D3BJ RIJCOSX def2-SVPD def2/J TightSCF
|  2> *xyz 1 1
|  3> C          4.36645       -0.13321       -1.41606
|  4> C          3.05650       -0.32080       -0.70738
|  5> N          2.38983        0.71129       -0.24391
|  6> N          2.51600       -1.50772       -0.55023
|  7> H          2.96768       -2.32291       -0.95631
|  8> H          1.54987       -1.49063       -0.24988
|  9> H          2.74307        1.64947       -0.41280
| 10> H          1.44036        0.50278        0.03703
| 11> H          4.74975       -1.08632       -1.71533
| 12> H          5.06373        0.34075       -0.75722
| 13> H          4.21960        0.47966       -2.28077
| 14> *
| 15>
| 16> %MaxCore 64000
| 17>
| 18> %pal nprocs 4
| 19> end
| 20>
| 21> %scf
| 22>   MaxIter 150
| 23> end
| 24>
| 25>
| 26>                          ****END OF INPUT****

CARTESIAN COORDINATES (ANGSTROEM)
---------------------------------
  C      4.366450   -0.133210   -1.416060
  C      3.056500   -0.320800   -0.707380
  N      2.389830    0.711290   -0.243910
  N      2.516000   -1.507720   -0.550230
  H      2.967680   -2.322910   -0.956310
  H      1.549870   -1.490630   -0.249880
  H      2.743070    1.649470   -0.412800
  H      1.440360    0.502780    0.037030
  H      4.749750   -1.086320   -1.715330
  H      5.063730    0.340750   -0.757220
  H      4.219600    0.479660   -2.280770

 Total Charge           Charge          ....    1
 Multiplicity           Mult            ....    1
 Number of Electrons    NEL             ....   32
 Basis Dimension        Dim             ....  136

ORBITAL ENERGIES
----------------

  NO   OCC          E(Eh)            E(eV)
   0   2.0000     -14.278226      -388.5303
   1   2.0000     -14.275874      -388.4663
   2   2.0000     -10.246413      -278.8191
   3   2.0000     -10.125097      -275.5179
   4   2.0000      -1.121537       -30.5186
   5   2.0000      -1.022798       -27.8318
   6   2.0000      -0.877231       -23.8707
   7   2.0000      -0.776494       -21.1295
   8   2.0000      -0.725828       -19.7508
   9   2.0000      -0.717059       -19.5122
  10   2.0000      -0.660229       -17.9657
  11   2.0000      -0.612060       -16.6550
  12   2.0000      -0.574880       -15.6433
  13   2.0000      -0.556074       -15.1315
  14   2.0000      -0.534157       -14.5352
  15   2.0000      -0.459167       -12.4946
  16   0.0000      -0.251838        -6.8528
  17   0.0000      -0.195470        -5.3190
  18   0.0000      -0.149703        -4.0736
  19   0.0000      -0.140697        -3.8286
  20   0.0000      -0.120686        -3.2840

MULLIKEN ATOMIC CHARGES
-----------------------
   0 C :    1.010260
   1 C :   -0.003632
   2 N :    0.380704
   3 N :    0.275452
   4 H :   -0.045662
   5 H :   -0.110548
   6 H :   -0.058020
   7 H :   -0.161865
   8 H :   -0.086337
   9 H :   -0.089623
  10 H :   -0.110730
Sum of atomic charges:    1.0000000

LOEWDIN ATOMIC CHARGES
----------------------
   0 C :    0.253110
   1 C :   -0.088529
   2 N :    0.297779
   3 N :    0.302192
   4 H :    0.056504
   5 H :    0.040166
   6 H :    0.060725
   7 H :    0.038928
   8 H :    0.002588
   9 H :    0.017960
  10 H :    0.018576

  Mayer bond orders larger than 0.100000
B(  0-C ,  1-C ) :   1.3510 B(  0-C ,  8-H ) :   0.6695 B(  0-C ,  9-H ) :   0.6126
B(  0-C , 10-H ) :   0.7044 B(  1-C ,  2-N ) :   1.2804 B(  1-C ,  3-N ) :   1.1653
B(  1-C ,  5-H ) :  -0.1480 B(  1-C ,  7-H ) :  -0.1125 B(  1-C ,  8-H ) :   0.3630
B(  1-C ,  9-H ) :   0.2806 B(  1-C , 10-H ) :   0.2117 B(  2-N ,  3-N ) :   0.2269
B(  2-N ,  6-H ) :   1.1223 B(  2-N ,  7-H ) :   1.1738 B(  3-N ,  4-H ) :   1.1161
B(  3-N ,  5-H ) :   1.2115 B(  4-H ,  5-H ) :  -0.1587 B(  6-H ,  7-H ) :  -0.1459
B(  8-H ,  9-H ) :   0.1126 B(  8-H , 10-H ) :   0.1025 B(  9-H , 10-H ) :   0.1068

Dispersion correction           -0.014164816
FINAL SINGLE POINT ENERGY      -189.514488585555

DIPOLE MOMENT
-------------
                                X             Y             Z
Electronic contribution:     -1.74975      -0.26818       1.11783
Nuclear contribution   :      1.22976       0.25273      -1.15956
                        -----------------------------------------
Total Dipole Moment    :     -0.51999      -0.01545      -0.04173
                        -----------------------------------------
Magnitude (a.u.)       :      0.52189
Magnitude (Debye)      :      1.32654

Rotational constants in cm-1:     0.347067     0.291236     0.163306
Rotational constants in MHz : 10404.811357  8731.035118  4895.793931

                             ****ORCA TERMINATED NORMALLY****
TOTAL RUN TIME: 0 days 0 hours 0 minutes 4 seconds 620 msec
