                         Program Version 5.0.0 -  RELEASE  -
|  1> !BLYP D3BJ RIJCOSX def2-SVPD def2/J TightSCF
|  2> *xyz 0 1
|  3> C         -0.96015       -0.52236       -0.48987
|  4> F          0.26170       -0.58031        0.13861
|  5> H         -0.85050       -0.82220       -1.51113
|  6> H         -1.33436        0.47929       -0.45044
|  7> H         -1.64624       -1.17908        0.00297
|  8> *
|  9>
| 10> %MaxCore 64000
| 11>
| 12> %pal nprocs 4
| 13> end
| 14>
| 15> %scf
| 16>   MaxIter 150
| 17> end
| 18>
| 19>
| 20>                          ****END OF INPUT****

CARTESIAN COORDINATES (ANGSTROEM)
---------------------------------
  C     -0.960150   -0.522360   -0.489870
  F      0.261700   -0.580310    0.138610
  H     -0.850500   -0.822200   -1.511130
  H     -1.334360    0.479290   -0.450440
  H     -1.646240   -1.179080    0.002970

 Total Charge           Charge          ....    0
 Multiplicity           Mult            ....    1
 Number of Electrons    NEL             ....   18
 Basis Dimension        Dim             ....   67

ORBITAL ENERGIES
----------------

  NO   OCC          E(Eh)            E(eV)
   0   2.0000     -24.290321      -660.9732
   1   2.0000      -9.994395      -271.9613
   2   2.0000      -1.074481       -29.2381
   3   2.0000      -0.629175       -17.1207
   4   2.0000      -0.442538       -12.0421
   5   2.0000      -0.430749       -11.7213
   6   2.0000      -0.430749       -11.7213
   7   2.0000      -0.296846        -8.0776
   8   2.0000      -0.296845        -8.0776
   9   0.0000       0.006442         0.1753
  10   0.0000       0.031679         0.8620
  11   0.0000       0.078558         2.1377
  12   0.0000       0.078559         2.1377
  13   0.0000       0.125229         3.4077

MULLIKEN ATOMIC CHARGES
-----------------------
   0 C :    1.212854
   1 F :   -0.444224
   2 H :   -0.256187
   3 H :   -0.256239
   4 H :   -0.256203
Sum of atomic charges:   -0.0000000

LOEWDIN ATOMIC CHARGES
----------------------
   0 C :    0.266791
   1 F :   -0.230057
   2 H :   -0.012243
   3 H :   -0.012246
   4 H :   -0.012244

  Mayer bond orders larger than 0.100000
B(  0-C ,  1-F ) :   0.9035 B(  0-C ,  2-H ) :   0.8709 B(  0-C ,  3-H ) :   0.8709
B(  0-C ,  4-H ) :   0.8709

Dispersion correction           -0.002646799
FINAL SINGLE POINT ENERGY      -139.611226410139

DIPOLE MOMENT
-------------
                                X             Y             Z
Electronic contribution:      2.62968      -0.12472       1.35263
Nuclear contribution   :     -3.25854       0.15455      -1.67609
                        -----------------------------------------
Total Dipole Moment    :     -0.62886       0.02982      -0.32346
                        -----------------------------------------
Magnitude (a.u.)       :      0.70780
Magnitude (Debye)      :      1.79908

Rotational constants in cm-1:     5.477744     0.868130     0.868129
Rotational constants in MHz : 164218.635293 26025.869915 26025.850419

                             ****ORCA TERMINATED NORMALLY****
TOTAL RUN TIME: 0 days 0 hours 0 minutes 2 seconds 347 msec
