                         Program Version 5.0.0 -  RELEASE  -
|  1> !BLYP D3BJ RIJCOSX def2-SVPD def2/J TightSCF
|  2> *xyz 0 1
|  3> C          4.36645       -0.13321       -1.41606
|  4> C          3.05650       -0.32080       -0.70738
|  5> C          2.38983        0.71129       -0.24391
|  6> N          2.51600       -1.50772       -0.55023
|  7> H          2.96768       -2.32291       -0.95631
|  8> H          1.54987       -1.49063       -0.24988
|  9> H          2.74307        1.64947       -0.41280
| 10> H          1.44036        0.50278        0.03703
| 11> H          4.74975       -1.08632       -1.71533
| 12> H          5.06373        0.34075       -0.75722
| 13> H          4.21960        0.47966       -2.28077
| 14> *
| 15>
| 16> %MaxCore 64000
| 17>
| 18> %pal nprocs 4
| 19> end
| 20>
| 21> %scf
| 22>   MaxIter 150
| 23> end
| 24>
| 25>
| 26>                          ****END OF INPUT****

CARTESIAN COORDINATES (ANGSTROEM)
---------------------------------
  C      4.366450   -0.133210   -1.416060
  C      3.056500   -0.320800   -0.707380
  C      2.389830    0.711290   -0.243910
  N      2.516000   -1.507720   -0.550230
  H      2.967680   -2.322910   -0.956310
  H      1.549870   -1.490630   -0.249880
  H      2.743070    1.649470   -0.412800
  H      1.440360    0.502780    0.037030
  H      4.749750   -1.086320   -1.715330
  H      5.063730    0.340750   -0.757220
  H      4.219600    0.479660   -2.280770

 Total Charge           Charge          ....    0
 Multiplicity           Mult            ....    1
 Number of Electrons    NEL             ....   32
 Basis Dimension        Dim             ....  136

ORBITAL ENERGIES
----------------

  NO   OCC          E(Eh)            E(eV)
   0   2.0000     -14.026164      -381.6713
   1   2.0000      -9.937244      -270.4061
   2   2.0000      -9.916248      -269.8348
   3   2.0000      -9.851667      -268.0775
   4   2.0000      -0.838483       -22.8163
   5   2.0000      -0.672206       -18.2917
   6   2.0000      -0.614066       -16.7096
   7   2.0000      -0.503244       -13.6940
   8   2.0000      -0.477122       -12.9832
   9   2.0000      -0.413285       -11.2461
  10   2.0000      -0.380723       -10.3600
  11   2.0000      -0.352618        -9.5952
  12   2.0000      -0.341547        -9.2940
  13   2.0000      -0.312297        -8.4980
  14   2.0000      -0.289460        -7.8766
  15   2.0000      -0.151501        -4.1225
  16   0.0000      -0.003199        -0.0870
  17   0.0000       0.016126         0.4388
  18   0.0000       0.035380         0.9627
  19   0.0000       0.041959         1.1418
  20   0.0000       0.069847         1.9006

MULLIKEN ATOMIC CHARGES
-----------------------
   0 C :    1.202555
   1 C :   -0.589064
   2 C :    0.683128
   3 N :    0.431176
   4 H :   -0.202031
   5 H :   -0.123291
   6 H :   -0.371064
   7 H :   -0.531383
   8 H :   -0.242378
   9 H :   -0.110900
  10 H :   -0.146749
Sum of atomic charges:   -0.0000000

LOEWDIN ATOMIC CHARGES
----------------------
   0 C :    0.184914
   1 C :   -0.295079
   2 C :    0.169688
   3 N :    0.183402
   4 H :   -0.004681
   5 H :   -0.002200
   6 H :   -0.080777
   7 H :   -0.095825
   8 H :   -0.033770
   9 H :   -0.012848
  10 H :   -0.012824

  Mayer bond orders larger than 0.100000
B(  0-C ,  1-C ) :   1.1745 B(  0-C ,  3-N ) :   0.1092 B(  0-C ,  8-H ) :   0.5483
B(  0-C ,  9-H ) :   0.6140 B(  0-C , 10-H ) :   0.6893 B(  1-C ,  2-C ) :   1.7164
B(  1-C ,  3-N ) :   1.2174 B(  1-C ,  6-H ) :   0.1455 B(  1-C ,  7-H ) :   0.3213
B(  1-C ,  8-H ) :   0.4259 B(  1-C ,  9-H ) :   0.2786 B(  1-C , 10-H ) :   0.2131
B(  2-C ,  3-N ) :   0.3046 B(  2-C ,  6-H ) :   0.7253 B(  2-C ,  7-H ) :   0.6109
B(  3-N ,  4-H ) :   1.1247 B(  3-N ,  5-H ) :   1.1131 B(  4-H ,  5-H ) :  -0.1394

Dispersion correction           -0.014936793
FINAL SINGLE POINT ENERGY      -173.047132072135

DIPOLE MOMENT
-------------
                                X             Y             Z
Electronic contribution:     -1.01849      -1.15871       0.68247
Nuclear contribution   :      1.07959       0.48266      -1.05101
                        -----------------------------------------
Total Dipole Moment    :      0.06110      -0.67604      -0.36854
                        -----------------------------------------
Magnitude (a.u.)       :      0.77240
Magnitude (Debye)      :      1.96327

Rotational constants in cm-1:     0.369235     0.294626     0.169175
Rotational constants in MHz : 11069.394850  8832.653024  5071.734673

                             ****ORCA TERMINATED NORMALLY****
TOTAL RUN TIME: 0 days 0 hours 0 minutes 4 seconds 604 msec
