                         Program Version 5.0.0 -  RELEASE  -
|  1> !BLYP D3BJ RIJCOSX def2-SVPD def2/J TightSCF
|  2> *xyz 0 1
|  3> C          4.36645       -0.13321       -1.41606
|  4> C          3.05650       -0.32080       -0.70738
|  5> N          2.38983        0.71129       -0.24391
|  6> C          2.51600       -1.50772       -0.55023
|  7> H          2.96768       -2.32291       -0.95631
|  8> H          1.54987       -1.49063       -0.24988
|  9> H          2.74307        1.64947       -0.41280
| 10> H          1.44036        0.50278        0.03703
| 11> H          4.74975       -1.08632       -1.71533
| 12> H          5.06373        0.34075       -0.75722
| 13> H          4.21960        0.47966       -2.28077
| 14> *
| 15>
| 16> %MaxCore 64000
| 17>
| 18> %pal nprocs 4
| 19> end
| 20>
| 21> %scf
| 22>   MaxIter 150
| 23> end
| 24>
| 25>
| 26>                          ****END OF INPUT****

CARTESIAN COORDINATES (ANGSTROEM)
---------------------------------
  C      4.366450   -0.133210   -1.416060
  C      3.056500   -0.320800   -0.707380
  N      2.389830    0.711290   -0.243910
  C      2.516000   -1.507720   -0.550230
  H      2.967680   -2.322910   -0.956310
  H      1.549870   -1.490630   -0.249880
  H      2.743070    1.649470   -0.412800
  H      1.440360    0.502780    0.037030
  H      4.749750   -1.086320   -1.715330
  H      5.063730    0.340750   -0.757220
  H      4.219600    0.479660   -2.280770

 Total Charge           Charge          ....    0
 Multiplicity           Mult            ....    1
 Number of Electrons    NEL             ....   32
 Basis Dimension        Dim             ....  136

ORBITAL ENERGIES
----------------

  NO   OCC          E(Eh)            E(eV)
   0   2.0000     -14.024901      -381.6370
   1   2.0000      -9.938226      -270.4329
   2   2.0000      -9.915649      -269.8185
   3   2.0000      -9.855861      -268.1916
   4   2.0000      -0.838641       -22.8206
   5   2.0000      -0.671409       -18.2700
   6   2.0000      -0.615637       -16.7523
   7   2.0000      -0.503223       -13.6934
   8   2.0000      -0.477442       -12.9919
   9   2.0000      -0.413597       -11.2545
  10   2.0000      -0.382212       -10.4005
  11   2.0000      -0.350587        -9.5400
  12   2.0000      -0.344038        -9.3618
  13   2.0000      -0.312583        -8.5058
  14   2.0000      -0.288205        -7.8425
  15   2.0000      -0.155324        -4.2266
  16   0.0000      -0.002804        -0.0763
  17   0.0000       0.019098         0.5197
  18   0.0000       0.035363         0.9623
  19   0.0000       0.043391         1.1807
  20   0.0000       0.069141         1.8814

MULLIKEN ATOMIC CHARGES
-----------------------
   0 C :    1.235716
   1 C :   -0.722461
   2 N :    0.539076
   3 C :    0.672424
   4 H :   -0.307094
   5 H :   -0.554531
   6 H :   -0.238215
   7 H :   -0.180611
   8 H :   -0.093628
   9 H :   -0.166002
  10 H :   -0.184674
Sum of atomic charges:    0.0000000

LOEWDIN ATOMIC CHARGES
----------------------
   0 C :    0.182984
   1 C :   -0.302739
   2 N :    0.181345
   3 C :    0.179882
   4 H :   -0.085661
   5 H :   -0.093561
   6 H :   -0.000306
   7 H :   -0.003367
   8 H :   -0.019839
   9 H :   -0.020587
  10 H :   -0.018150

  Mayer bond orders larger than 0.100000
B(  0-C ,  1-C ) :   1.3458 B(  0-C ,  8-H ) :   0.7022 B(  0-C ,  9-H ) :   0.5253
B(  0-C , 10-H ) :   0.5348 B(  1-C ,  2-N ) :   1.3231 B(  1-C ,  3-C ) :   1.6373
B(  1-C ,  5-H ) :   0.2910 B(  1-C ,  8-H ) :   0.3306 B(  1-C ,  9-H ) :   0.3641
B(  1-C , 10-H ) :   0.3777 B(  2-N ,  3-C ) :   0.3050 B(  2-N ,  6-H ) :   1.1275
B(  2-N ,  7-H ) :   1.0868 B(  3-C ,  4-H ) :   0.8547 B(  3-C ,  5-H ) :   0.5935
B(  6-H ,  7-H ) :  -0.1136 B(  8-H ,  9-H ) :   0.1014 B(  8-H , 10-H ) :   0.1153

Dispersion correction           -0.014935869
FINAL SINGLE POINT ENERGY      -173.050117303067

DIPOLE MOMENT
-------------
                                X             Y             Z
Electronic contribution:     -1.15488       0.75622       0.96331
Nuclear contribution   :      1.10788      -0.01499      -1.11971
                        -----------------------------------------
Total Dipole Moment    :     -0.04700       0.74123      -0.15640
                        -----------------------------------------
Magnitude (a.u.)       :      0.75901
Magnitude (Debye)      :      1.92925

Rotational constants in cm-1:     0.367851     0.295709     0.169239
Rotational constants in MHz : 11027.892768  8865.123922  5073.656136

                             ****ORCA TERMINATED NORMALLY****
TOTAL RUN TIME: 0 days 0 hours 0 minutes 4 seconds 686 msec
