                         Program Version 5.0.0 -  RELEASE  -
|  1> !BLYP D3BJ RIJCOSX def2-SVPD def2/J TightSCF xyzfile
|  2>
|  3> *xyzfile 0 1 D1.xyz
|  4>
|  5> %MaxCore 64000
|  6>
|  7> %pal nprocs 4
|  8> end
|  9>
| 10> %scf
| 11>   MaxIter 150
| 12> end
| 13>
| 14>
| 15>                          ****END OF INPUT****

CARTESIAN COORDINATES (ANGSTROEM)
---------------------------------
  C      4.366454   -0.133215   -1.416062
  C      4.508292   -0.931872   -2.724249
  H      4.753716   -1.972051   -2.488408
  C      3.294164   -0.918214   -3.656570
  H      5.385637   -0.536236   -3.242640
  H      2.483463   -1.477378   -3.185764
  H      3.553092   -1.478495   -4.560331
  C      2.772335    0.460100   -4.051448
  H      2.608762    1.065107   -3.155194
  C      1.465354    0.410537   -4.853644
  H      3.532940    0.988848   -4.635671
  C      0.326171   -0.375613   -4.192580
  H      1.666704   -0.022269   -5.839323
  H      1.138198    1.439246   -5.035449
  C     -0.017405    0.080588   -2.778406
  H      0.585573   -1.439385   -4.168057
  H     -0.560005   -0.311425   -4.831461
  H      0.902090    0.201296   -2.206729
  C     -0.903495   -0.873945   -1.987388
  H     -0.479549    1.074657   -2.811915
  H     -0.502554   -1.892096   -2.081204
  H     -1.917039   -0.895427   -2.406277
  C     -0.960148   -0.522365   -0.489867
  H     -1.690392   -1.208130   -0.021677
  H     -1.414490    0.486329   -0.406677
  F      0.261703   -0.580307    0.138611
  C      3.056503   -0.320797   -0.707384
  C      2.389825    0.711285   -0.243909
  N      2.515999   -1.507721   -0.550229
  H      2.967683   -2.322915   -0.956305
  H      1.549872   -1.490634   -0.249876
  H      2.743071    1.649471   -0.412802
  H      1.440364    0.502778    0.037031
  H      4.487835    0.932997   -1.611569
  H      5.169672   -0.414432   -0.729817

 Total Charge           Charge          ....    0
 Multiplicity           Mult            ....    1
 Number of Electrons    NEL             ....  104
 Basis Dimension        Dim             ....  439

ORBITAL ENERGIES
----------------

  NO   OCC          E(Eh)            E(eV)
   0   2.0000     -24.324103      -661.8925
   1   2.0000     -14.001187      -380.9917
   2   2.0000     -10.012719      -272.4599
   3   2.0000      -9.934215      -270.3237
   4   2.0000      -9.918854      -269.9057
   5   2.0000      -9.914238      -269.7801
   6   2.0000      -9.913991      -269.7734
   7   2.0000      -9.912410      -269.7304
   8   2.0000      -9.911823      -269.7144
   9   2.0000      -9.908958      -269.6365
  10   2.0000      -9.907532      -269.5976
  11   2.0000      -9.905740      -269.5489
  12   2.0000      -9.830328      -267.4968
  13   2.0000      -1.115216       -30.3466
  14   2.0000      -0.821820       -22.3629
  15   2.0000      -0.731193       -19.8968
  16   2.0000      -0.710445       -19.3322
  17   2.0000      -0.686174       -18.6717
  18   2.0000      -0.650836       -17.7101
  19   2.0000      -0.625709       -17.0264
  20   2.0000      -0.608394       -16.5552
  21   2.0000      -0.564451       -15.3595
  22   2.0000      -0.546613       -14.8741
  23   2.0000      -0.517944       -14.0940
  24   2.0000      -0.494215       -13.4483
  25   2.0000      -0.480243       -13.0681
  26   2.0000      -0.475294       -12.9334
  27   2.0000      -0.467291       -12.7156
  28   2.0000      -0.453485       -12.3400
  29   2.0000      -0.431062       -11.7298
  30   2.0000      -0.415835       -11.3154
  31   2.0000      -0.406096       -11.0504
  32   2.0000      -0.390796       -10.6341
  33   2.0000      -0.386320       -10.5123
  34   2.0000      -0.376907       -10.2562
  35   2.0000      -0.371233       -10.1018
  36   2.0000      -0.347223        -9.4484
  37   2.0000      -0.340560        -9.2671
  38   2.0000      -0.332587        -9.0502
  39   2.0000      -0.325685        -8.8623
  40   2.0000      -0.319087        -8.6828
  41   2.0000      -0.309428        -8.4200
  42   2.0000      -0.303005        -8.2452
  43   2.0000      -0.298447        -8.1212
  44   2.0000      -0.293830        -7.9955
  45   2.0000      -0.288035        -7.8378
  46   2.0000      -0.271883        -7.3983
  47   2.0000      -0.267622        -7.2824
  48   2.0000      -0.264350        -7.1933
  49   2.0000      -0.261272        -7.1096
  50   2.0000      -0.255846        -6.9619
  51   2.0000      -0.138500        -3.7688
  52   0.0000      -0.003207        -0.0873
  53   0.0000       0.005333         0.1451
  54   0.0000       0.013982         0.3805
  55   0.0000       0.016460         0.4479
  56   0.0000       0.024706         0.6723

MULLIKEN ATOMIC CHARGES
-----------------------
   0 C :    0.839043
   1 C :    0.866487
   2 H :   -0.147906
   3 C :    0.145650
   4 H :   -0.299901
   5 H :   -0.115038
   6 H :   -0.353929
   7 C :    0.251569
   8 H :   -0.013497
   9 C :    1.019250
  10 H :   -0.560502
  11 C :    0.368256
  12 H :   -0.170965
  13 H :   -0.149381
  14 C :    0.777052
  15 H :    0.053619
  16 H :   -0.640678
  17 H :   -1.084312
  18 C :    0.362707
  19 H :   -0.120867
  20 H :   -0.123654
  21 H :   -0.340298
  22 C :    1.362785
  23 H :   -0.305807
  24 H :   -0.154848
  25 F :   -0.742272
  26 C :   -0.867396
  27 C :    1.012992
  28 N :    0.870191
  29 H :   -0.186640
  30 H :   -0.441438
  31 H :   -0.427944
  32 H :   -0.452220
  33 H :    0.289135
  34 H :   -0.519242
Sum of atomic charges:   -0.0000000

LOEWDIN ATOMIC CHARGES
----------------------
   0 C :    0.028777
   1 C :   -0.014789
   2 H :    0.006975
   3 C :   -0.022203
   4 H :    0.013541
   5 H :   -0.016251
   6 H :    0.020994
   7 C :   -0.017843
   8 H :    0.000310
   9 C :   -0.015966
  10 H :    0.019262
  11 C :   -0.025279
  12 H :    0.015267
  13 H :    0.016294
  14 C :   -0.017816
  15 H :    0.006388
  16 H :    0.015165
  17 H :   -0.030470
  18 C :   -0.004503
  19 H :    0.033426
  20 H :    0.021975
  21 H :    0.028470
  22 C :    0.160700
  23 H :    0.028336
  24 H :    0.038565
  25 F :   -0.197319
  26 C :   -0.246687
  27 C :    0.192637
  28 N :    0.219276
  29 H :   -0.002492
  30 H :   -0.068806
  31 H :   -0.077941
  32 H :   -0.139938
  33 H :    0.014585
  34 H :    0.017359

  Mayer bond orders larger than 0.100000
B(  0-C ,  1-C ) :   1.1198 B(  0-C ,  2-H ) :   0.1990 B(  0-C ,  3-C ) :   0.1005
B(  0-C ,  4-H ) :   0.3000 B(  0-C ,  6-H ) :  -0.1133 B(  0-C , 26-C ) :   1.1397
B(  0-C , 27-C ) :   0.1798 B(  0-C , 28-N ) :   0.1134 B(  0-C , 31-H ) :  -0.1607
B(  0-C , 33-H ) :   0.7438 B(  0-C , 34-H ) :   0.3093 B(  1-C ,  2-H ) :   0.4335
B(  1-C ,  3-C ) :   1.1980 B(  1-C ,  4-H ) :   0.5440 B(  1-C ,  5-H ) :   0.1496
B(  1-C ,  6-H ) :   0.1232 B(  1-C , 26-C ) :   0.3019 B(  1-C , 33-H ) :   0.2062
B(  1-C , 34-H ) :   0.1225 B(  2-H ,  3-C ) :   0.4045 B(  2-H ,  4-H ) :  -0.2270
B(  2-H , 31-H ) :  -0.1040 B(  3-C ,  4-H ) :   0.2308 B(  3-C ,  5-H ) :   0.7551
B(  3-C ,  6-H ) :   0.6934 B(  3-C ,  7-C ) :   1.2421 B(  3-C ,  8-H ) :   0.1766
B(  3-C , 10-H ) :   0.2131 B(  3-C , 33-H ) :  -0.1073 B(  5-H ,  7-C ) :   0.1918
B(  5-H , 15-H ) :   0.2012 B(  5-H , 16-H ) :  -0.1416 B(  6-H ,  7-C ) :   0.1564
B(  7-C ,  8-H ) :   0.7899 B(  7-C ,  9-C ) :   1.0707 B(  7-C , 10-H ) :   0.7500
B(  7-C , 11-C ) :   0.2590 B(  7-C , 12-H ) :   0.1439 B(  7-C , 13-H ) :   0.3583
B(  8-H , 17-H ) :   0.2104 B(  9-C , 11-C ) :   1.0934 B(  9-C , 12-H ) :   0.5619
B(  9-C , 13-H ) :   0.4823 B( 10-H , 17-H ) :  -0.1006 B( 11-C , 12-H ) :   0.2675
B( 11-C , 13-H ) :   0.1782 B( 11-C , 14-C ) :   1.1129 B( 11-C , 15-H ) :   0.7501
B( 11-C , 16-H ) :   0.7735 B( 11-C , 17-H ) :   0.2546 B( 11-C , 18-C ) :   0.1208
B( 11-C , 19-H ) :   0.1466 B( 12-H , 13-H ) :  -0.1787 B( 14-C , 15-H ) :   0.2008
B( 14-C , 16-H ) :   0.2823 B( 14-C , 18-C ) :   1.1296 B( 14-C , 19-H ) :   0.5156
B( 14-C , 20-H ) :   0.1698 B( 14-C , 21-H ) :   0.3032 B( 14-C , 22-C ) :   0.1804
B( 14-C , 27-C ) :   0.2577 B( 14-C , 32-H ) :  -0.1005 B( 15-H , 16-H ) :  -0.1548
B( 17-H , 18-C ) :   0.2467 B( 17-H , 19-H ) :   0.2517 B( 17-H , 26-C ) :   0.1679
B( 17-H , 27-C ) :  -0.1940 B( 17-H , 32-H ) :   0.1867 B( 18-C , 19-H ) :   0.1327
B( 18-C , 20-H ) :   0.8260 B( 18-C , 21-H ) :   0.6578 B( 18-C , 22-C ) :   1.0904
B( 18-C , 23-H ) :   0.2914 B( 18-C , 24-H ) :   0.1592 B( 18-C , 25-F ) :   0.1390
B( 20-H , 22-C ) :   0.1084 B( 22-C , 23-H ) :   0.5585 B( 22-C , 24-H ) :   0.6817
B( 22-C , 25-F ) :   0.6677 B( 23-H , 24-H ) :  -0.1054 B( 24-H , 25-F ) :   0.1938
B( 25-F , 26-C ) :   0.1310 B( 25-F , 27-C ) :  -0.1627 B( 25-F , 30-H ) :   0.1671
B( 25-F , 32-H ) :   0.1890 B( 26-C , 27-C ) :   1.9799 B( 26-C , 28-N ) :   1.0577
B( 26-C , 31-H ) :   0.2159 B( 26-C , 32-H ) :   0.7457 B( 26-C , 34-H ) :   0.5036
B( 27-C , 28-N ) :   0.4316 B( 27-C , 31-H ) :   0.8687 B( 27-C , 32-H ) :  -0.2700
B( 28-N , 29-H ) :   1.0338 B( 28-N , 30-H ) :   0.9655 B( 28-N , 31-H ) :   0.1966
B( 29-H , 30-H ) :  -0.2462 B( 29-H , 32-H ) :  -0.1056 B( 30-H , 32-H ) :   0.1181
B( 31-H , 32-H ) :  -0.2528 B( 33-H , 34-H ) :  -0.1761

Dispersion correction           -0.078386322
FINAL SINGLE POINT ENERGY      -586.320778056727

DIPOLE MOMENT
-------------
                                X             Y             Z
Electronic contribution:     -2.69353      -1.60397      10.48703
Nuclear contribution   :      1.82572       1.04089     -11.09065
                        -----------------------------------------
Total Dipole Moment    :     -0.86781      -0.56308      -0.60362
                        -----------------------------------------
Magnitude (a.u.)       :      1.19771
Magnitude (Debye)      :      3.04434

Rotational constants in cm-1:     0.028436     0.022359     0.014416
Rotational constants in MHz :   852.496561   670.291843   432.183951

                             ****ORCA TERMINATED NORMALLY****
TOTAL RUN TIME: 0 days 0 hours 0 minutes 51 seconds 874 msec
