                         Program Version 5.0.0 -  RELEASE  -
|  1> !CAM-B3LYP RIJCOSX def2-SVPD def2/J TightSCF
|  2> *xyz -1 1
|  3> C         -0.95121        1.33498       -0.97250
|  4> C         -0.77455        2.78833       -0.54394
|  5> H         -1.35261        3.45937       -1.19259
|  6> H         -1.17101        2.90233        0.46997
|  7> C          0.69721        3.22791       -0.52513
|  8> O          1.48929        2.37470        0.19919
|  9> H          0.71600        4.26403       -0.13077
| 10> H          1.03615        3.33092       -1.58367
| 11> H         -0.56808        1.20618       -1.96322
| 12> H         -1.99081        1.08225       -0.95647
| 13> H         -0.41866        0.69710       -0.29841
| 14> *
| 15>
| 16> %MaxCore 64000
| 17> %pal nprocs 4
| 18> end
| 19>
| 20> %scf
| 21>   MaxIter 150
| 22> end
| 23>
| 24>
| 25>                          ****END OF INPUT****

CARTESIAN COORDINATES (ANGSTROEM)
---------------------------------
  C     -0.951210    1.334980   -0.972500
  C     -0.774550    2.788330   -0.543940
  H     -1.352610    3.459370   -1.192590
  H     -1.171010    2.902330    0.469970
  C      0.697210    3.227910   -0.525130
  O      1.489290    2.374700    0.199190
  H      0.716000    4.264030   -0.130770
  H      1.036150    3.330920   -1.583670
  H     -0.568080    1.206180   -1.963220
  H     -1.990810    1.082250   -0.956470
  H     -0.418660    0.697100   -0.298410

 Total Charge           Charge          ....   -1
 Multiplicity           Mult            ....    1
 Number of Electrons    NEL             ....   34
 Basis Dimension        Dim             ....  139

ORBITAL ENERGIES
----------------

  NO   OCC          E(Eh)            E(eV)
   0   2.0000     -18.882511      -513.8192
   1   2.0000     -10.075298      -274.1628
   2   2.0000     -10.073322      -274.1090
   3   2.0000     -10.066566      -273.9252
   4   2.0000      -0.756013       -20.5722
   5   2.0000      -0.657269       -17.8852
   6   2.0000      -0.540940       -14.7197
   7   2.0000      -0.434838       -11.8326
   8   2.0000      -0.345306        -9.3963
   9   2.0000      -0.335788        -9.1373
  10   2.0000      -0.284934        -7.7535
  11   2.0000      -0.254807        -6.9337
  12   2.0000      -0.227687        -6.1957
  13   2.0000      -0.215878        -5.8743
  14   2.0000      -0.177861        -4.8399
  15   2.0000      -0.037225        -1.0129
  16   2.0000      -0.034188        -0.9303
  17   0.0000       0.194594         5.2952
  18   0.0000       0.218762         5.9528
  19   0.0000       0.236277         6.4294
  20   0.0000       0.264510         7.1977
  21   0.0000       0.284131         7.7316

MULLIKEN ATOMIC CHARGES
-----------------------
   0 C :    0.812417
   1 C :   -0.370750
   2 H :   -0.162833
   3 H :   -0.125877
   4 C :    0.512538
   5 O :   -0.875176
   6 H :   -0.222901
   7 H :   -0.166274
   8 H :   -0.139710
   9 H :   -0.173520
  10 H :   -0.087915
Sum of atomic charges:   -1.0000000

LOEWDIN ATOMIC CHARGES
----------------------
   0 C :    0.086403
   1 C :   -0.116889
   2 H :   -0.010823
   3 H :    0.000579
   4 C :   -0.220199
   5 O :   -0.563858
   6 H :   -0.032289
   7 H :   -0.026151
   8 H :   -0.032440
   9 H :   -0.049809
  10 H :   -0.034523

  Mayer bond orders larger than 0.100000
B(  0-C ,  1-C ) :   1.2602 B(  0-C ,  8-H ) :   0.7771 B(  0-C ,  9-H ) :   0.7456
B(  0-C , 10-H ) :   0.7933 B(  1-C ,  2-H ) :   0.9830 B(  1-C ,  3-H ) :   0.9284
B(  1-C ,  4-C ) :   1.0580 B(  1-C ,  6-H ) :   0.1607 B(  1-C ,  7-H ) :   0.1429
B(  1-C ,  8-H ) :   0.2112 B(  1-C ,  9-H ) :   0.2263 B(  1-C , 10-H ) :   0.2237
B(  2-H ,  4-C ) :   0.1078 B(  3-H ,  4-C ) :   0.1292 B(  4-C ,  5-O ) :   1.1931
B(  4-C ,  6-H ) :   0.9222 B(  4-C ,  7-H ) :   0.9244

FINAL SINGLE POINT ENERGY      -193.511529062879

DIPOLE MOMENT
-------------
                                X             Y             Z
Electronic contribution:      2.46090       0.05138       1.41154
Nuclear contribution   :     -4.35230      -0.04018      -2.29108
                        -----------------------------------------
Total Dipole Moment    :     -1.89140       0.01119      -0.87954
                        -----------------------------------------
Magnitude (a.u.)       :      2.08594
Magnitude (Debye)      :      5.30203

Rotational constants in cm-1:     0.489965     0.184028     0.151025
Rotational constants in MHz : 14688.769521  5517.006179  4527.605157

                             ****ORCA TERMINATED NORMALLY****
TOTAL RUN TIME: 0 days 0 hours 0 minutes 14 seconds 566 msec
