                         Program Version 5.0.0 -  RELEASE  -
|  1> !CAM-B3LYP RIJCOSX def2-SVPD def2/J TightSCF
|  2> *xyz 1 1
|  3> C          3.95643        0.50147       -0.37910
|  4> H          3.16840        0.02920        0.20738
|  5> N          3.80389        1.96157       -0.15675
|  6> C          3.84232        0.14849       -1.85406
|  7> H          4.92323        0.17798        0.00937
|  8> H          4.62002        0.69450       -2.40215
|  9> H          4.09601       -0.91093       -1.95510
| 10> C          2.47562        0.41271       -2.48538
| 11> H          4.20643        2.24441        0.74536
| 12> H          2.80827        2.21132       -0.09610
| 13> H          4.28076        2.50155       -0.89104
| 14> H          2.49958        0.13290       -3.51787
| 15> H          2.23992        1.45318       -2.40319
| 16> H          1.73061       -0.16300       -1.97702
| 17> *
| 18>
| 19> %MaxCore 64000
| 20> %pal nprocs 4
| 21> end
| 22>
| 23> %scf
| 24>   MaxIter 150
| 25> end
| 26>
| 27>
| 28>                          ****END OF INPUT****

CARTESIAN COORDINATES (ANGSTROEM)
---------------------------------
  C      3.956430    0.501470   -0.379100
  H      3.168400    0.029200    0.207380
  N      3.803890    1.961570   -0.156750
  C      3.842320    0.148490   -1.854060
  H      4.923230    0.177980    0.009370
  H      4.620020    0.694500   -2.402150
  H      4.096010   -0.910930   -1.955100
  C      2.475620    0.412710   -2.485380
  H      4.206430    2.244410    0.745360
  H      2.808270    2.211320   -0.096100
  H      4.280760    2.501550   -0.891040
  H      2.499580    0.132900   -3.517870
  H      2.239920    1.453180   -2.403190
  H      1.730610   -0.163000   -1.977020

 Total Charge           Charge          ....    1
 Multiplicity           Mult            ....    1
 Number of Electrons    NEL             ....   34
 Basis Dimension        Dim             ....  160

ORBITAL ENERGIES
----------------

  NO   OCC          E(Eh)            E(eV)
   0   2.0000     -14.736536      -401.0015
   1   2.0000     -10.506267      -285.8900
   2   2.0000     -10.437246      -284.0119
   3   2.0000     -10.403621      -283.0969
   4   2.0000      -1.287824       -35.0435
   5   2.0000      -1.050619       -28.5888
   6   2.0000      -0.958333       -26.0776
   7   2.0000      -0.882029       -24.0012
   8   2.0000      -0.861815       -23.4512
   9   2.0000      -0.842813       -22.9341
  10   2.0000      -0.760008       -20.6809
  11   2.0000      -0.701757       -19.0958
  12   2.0000      -0.678073       -18.4513
  13   2.0000      -0.654717       -17.8158
  14   2.0000      -0.592179       -16.1140
  15   2.0000      -0.586075       -15.9479
  16   2.0000      -0.578554       -15.7433
  17   0.0000      -0.154777        -4.2117
  18   0.0000      -0.097161        -2.6439
  19   0.0000      -0.096100        -2.6150
  20   0.0000      -0.084367        -2.2958
  21   0.0000      -0.059036        -1.6065

MULLIKEN ATOMIC CHARGES
-----------------------
   0 C :    0.724912
   1 H :   -0.130366
   2 N :   -0.690808
   3 C :   -0.215842
   4 H :   -0.134664
   5 H :   -0.115202
   6 H :   -0.139007
   7 C :    0.944486
   8 H :    0.310384
   9 H :    0.369776
  10 H :    0.393665
  11 H :   -0.107048
  12 H :   -0.158899
  13 H :   -0.051387
Sum of atomic charges:    1.0000000

LOEWDIN ATOMIC CHARGES
----------------------
   0 C :    0.082962
   1 H :    0.054522
   2 N :    0.333216
   3 C :   -0.050938
   4 H :    0.054284
   5 H :    0.034318
   6 H :    0.046284
   7 C :    0.149009
   8 H :    0.106974
   9 H :    0.104207
  10 H :    0.106766
  11 H :    0.005213
  12 H :   -0.024847
  13 H :   -0.001973

  Mayer bond orders larger than 0.100000
B(  0-C ,  1-H ) :   0.8296 B(  0-C ,  2-N ) :   0.7967 B(  0-C ,  3-C ) :   1.1535
B(  0-C ,  4-H ) :   0.8904 B(  0-C ,  5-H ) :   0.1066 B(  0-C ,  6-H ) :   0.1266
B(  1-H ,  2-N ) :   0.1435 B(  2-N ,  8-H ) :   0.8181 B(  2-N ,  9-H ) :   0.7890
B(  2-N , 10-H ) :   0.7180 B(  3-C ,  5-H ) :   0.9084 B(  3-C ,  6-H ) :   0.9559
B(  3-C ,  7-C ) :   1.2700 B(  3-C , 11-H ) :   0.2294 B(  3-C , 12-H ) :   0.2082
B(  3-C , 13-H ) :   0.2039 B(  7-C , 11-H ) :   0.7513 B(  7-C , 12-H ) :   0.7719
B(  7-C , 13-H ) :   0.7655

FINAL SINGLE POINT ENERGY      -174.626142098397

DIPOLE MOMENT
-------------
                                X             Y             Z
Electronic contribution:      1.01769       1.17329       1.83691
Nuclear contribution   :     -0.57302       0.26376      -0.39709
                        -----------------------------------------
Total Dipole Moment    :      0.44467       1.43706       1.43981
                        -----------------------------------------
Magnitude (a.u.)       :      2.08229
Magnitude (Debye)      :      5.29275

Rotational constants in cm-1:     0.449370     0.157244     0.134525
Rotational constants in MHz : 13471.775278  4714.062641  4032.958796

                             ****ORCA TERMINATED NORMALLY****
TOTAL RUN TIME: 0 days 0 hours 0 minutes 19 seconds 189 msec
