                         Program Version 5.0.0 -  RELEASE  -
|  1> !CAM-B3LYP RIJCOSX def2-SVPD def2/J TightSCF
|  2> *xyz 0 1
|  3> C         -0.95121        1.33498       -0.97250
|  4> C         -0.77455        2.78833       -0.54394
|  5> H         -1.35261        3.45937       -1.19259
|  6> H         -1.17101        2.90233        0.46997
|  7> C          0.69721        3.22791       -0.52513
|  8> F          1.48929        2.37470        0.19919
|  9> H          0.71600        4.26403       -0.13077
| 10> H          1.03615        3.33092       -1.58367
| 11> H         -0.56808        1.20618       -1.96322
| 12> H         -1.99081        1.08225       -0.95647
| 13> H         -0.41866        0.69710       -0.29841
| 14> *
| 15>
| 16> %MaxCore 64000
| 17> %pal nprocs 4
| 18> end
| 19>
| 20> %scf
| 21>   MaxIter 150
| 22> end
| 23>
| 24>
| 25>                          ****END OF INPUT****

CARTESIAN COORDINATES (ANGSTROEM)
---------------------------------
  C     -0.951210    1.334980   -0.972500
  C     -0.774550    2.788330   -0.543940
  H     -1.352610    3.459370   -1.192590
  H     -1.171010    2.902330    0.469970
  C      0.697210    3.227910   -0.525130
  F      1.489290    2.374700    0.199190
  H      0.716000    4.264030   -0.130770
  H      1.036150    3.330920   -1.583670
  H     -0.568080    1.206180   -1.963220
  H     -1.990810    1.082250   -0.956470
  H     -0.418660    0.697100   -0.298410

 Total Charge           Charge          ....    0
 Multiplicity           Mult            ....    1
 Number of Electrons    NEL             ....   34
 Basis Dimension        Dim             ....  139

ORBITAL ENERGIES
----------------

  NO   OCC          E(Eh)            E(eV)
   0   2.0000     -24.763828      -673.8580
   1   2.0000     -10.339137      -281.3422
   2   2.0000     -10.265319      -279.3335
   3   2.0000     -10.245021      -278.7812
   4   2.0000      -1.267134       -34.4805
   5   2.0000      -0.867285       -23.6000
   6   2.0000      -0.765738       -20.8368
   7   2.0000      -0.669642       -18.2219
   8   2.0000      -0.585355       -15.9283
   9   2.0000      -0.569469       -15.4960
  10   2.0000      -0.546141       -14.8612
  11   2.0000      -0.507983       -13.8229
  12   2.0000      -0.470031       -12.7902
  13   2.0000      -0.444752       -12.1023
  14   2.0000      -0.421841       -11.4789
  15   2.0000      -0.395210       -10.7542
  16   2.0000      -0.392451       -10.6791
  17   0.0000       0.050852         1.3837
  18   0.0000       0.076019         2.0686
  19   0.0000       0.085925         2.3382
  20   0.0000       0.102263         2.7827
  21   0.0000       0.126271         3.4360

MULLIKEN ATOMIC CHARGES
-----------------------
   0 C :    0.827444
   1 C :   -0.343006
   2 H :   -0.145581
   3 H :   -0.126764
   4 C :    0.815891
   5 F :   -0.433873
   6 H :   -0.143176
   7 H :   -0.088186
   8 H :   -0.124442
   9 H :   -0.145237
  10 H :   -0.093070
Sum of atomic charges:   -0.0000000

LOEWDIN ATOMIC CHARGES
----------------------
   0 C :    0.121276
   1 C :   -0.068748
   2 H :    0.027608
   3 H :    0.022070
   4 C :    0.092591
   5 F :   -0.209951
   6 H :    0.030348
   7 H :    0.037212
   8 H :   -0.016095
   9 H :   -0.019074
  10 H :   -0.017237

  Mayer bond orders larger than 0.100000
B(  0-C ,  1-C ) :   1.2925 B(  0-C ,  8-H ) :   0.7760 B(  0-C ,  9-H ) :   0.7730
B(  0-C , 10-H ) :   0.7882 B(  1-C ,  2-H ) :   0.9505 B(  1-C ,  3-H ) :   0.9194
B(  1-C ,  4-C ) :   1.1858 B(  1-C ,  6-H ) :   0.1271 B(  1-C ,  7-H ) :   0.1180
B(  1-C ,  8-H ) :   0.1948 B(  1-C ,  9-H ) :   0.2123 B(  1-C , 10-H ) :   0.1977
B(  4-C ,  5-F ) :   0.7500 B(  4-C ,  6-H ) :   0.8881 B(  4-C ,  7-H ) :   0.8790

FINAL SINGLE POINT ENERGY      -218.124352063235

DIPOLE MOMENT
-------------
                                X             Y             Z
Electronic contribution:      5.49158       0.36744       2.72726
Nuclear contribution   :     -6.00193       0.02246      -3.08821
                        -----------------------------------------
Total Dipole Moment    :     -0.51035       0.38990      -0.36095
                        -----------------------------------------
Magnitude (a.u.)       :      0.73673
Magnitude (Debye)      :      1.87261

Rotational constants in cm-1:     0.475356     0.173608     0.142756
Rotational constants in MHz : 14250.818869  5204.623090  4279.716550

                             ****ORCA TERMINATED NORMALLY****
TOTAL RUN TIME: 0 days 0 hours 0 minutes 13 seconds 682 msec
