                         Program Version 5.0.0 -  RELEASE  -
|  1> !CAM-B3LYP RIJCOSX def2-SVPD def2/J TightSCF
|  2> *xyz 0 1
|  3> C          3.95643        0.50147       -0.37910
|  4> H          3.16840        0.02920        0.20738
|  5> C          3.80389        1.96157       -0.15675
|  6> C          3.84232        0.14849       -1.85406
|  7> H          4.92323        0.17798        0.00937
|  8> H          4.62002        0.69450       -2.40215
|  9> H          4.09601       -0.91093       -1.95510
| 10> C          2.47562        0.41271       -2.48538
| 11> H          4.20643        2.24441        0.74536
| 12> H          2.80827        2.21132       -0.09610
| 13> H          4.28076        2.50155       -0.89104
| 14> H          2.49958        0.13290       -3.51787
| 15> H          2.23992        1.45318       -2.40319
| 16> H          1.73061       -0.16300       -1.97702
| 17> *
| 18>
| 19> %MaxCore 64000
| 20> %pal nprocs 4
| 21> end
| 22>
| 23> %scf
| 24>   MaxIter 150
| 25> end
| 26>
| 27>
| 28>                          ****END OF INPUT****

CARTESIAN COORDINATES (ANGSTROEM)
---------------------------------
  C      3.956430    0.501470   -0.379100
  H      3.168400    0.029200    0.207380
  C      3.803890    1.961570   -0.156750
  C      3.842320    0.148490   -1.854060
  H      4.923230    0.177980    0.009370
  H      4.620020    0.694500   -2.402150
  H      4.096010   -0.910930   -1.955100
  C      2.475620    0.412710   -2.485380
  H      4.206430    2.244410    0.745360
  H      2.808270    2.211320   -0.096100
  H      4.280760    2.501550   -0.891040
  H      2.499580    0.132900   -3.517870
  H      2.239920    1.453180   -2.403190
  H      1.730610   -0.163000   -1.977020

 Total Charge           Charge          ....    0
 Multiplicity           Mult            ....    1
 Number of Electrons    NEL             ....   34
 Basis Dimension        Dim             ....  160

ORBITAL ENERGIES
----------------

  NO   OCC          E(Eh)            E(eV)
   0   2.0000     -10.247088      -278.8374
   1   2.0000     -10.242779      -278.7202
   2   2.0000     -10.238315      -278.5987
   3   2.0000     -10.219525      -278.0874
   4   2.0000      -0.880468       -23.9588
   5   2.0000      -0.804605       -21.8944
   6   2.0000      -0.718041       -19.5389
   7   2.0000      -0.638301       -17.3690
   8   2.0000      -0.536983       -14.6121
   9   2.0000      -0.533568       -14.5191
  10   2.0000      -0.495682       -13.4882
  11   2.0000      -0.457626       -12.4526
  12   2.0000      -0.450681       -12.2636
  13   2.0000      -0.429442       -11.6857
  14   2.0000      -0.388670       -10.5762
  15   2.0000      -0.385239       -10.4829
  16   2.0000      -0.383182       -10.4269
  17   0.0000       0.055522         1.5108
  18   0.0000       0.080729         2.1968
  19   0.0000       0.081453         2.2165
  20   0.0000       0.091303         2.4845
  21   0.0000       0.128151         3.4872

MULLIKEN ATOMIC CHARGES
-----------------------
   0 C :   -0.072685
   1 H :   -0.135479
   2 C :    1.193828
   3 C :   -0.225180
   4 H :   -0.193141
   5 H :   -0.063200
   6 H :   -0.198290
   7 C :    0.900540
   8 H :   -0.386859
   9 H :   -0.192081
  10 H :   -0.265431
  11 H :   -0.127577
  12 H :   -0.147123
  13 H :   -0.087323
Sum of atomic charges:    0.0000000

LOEWDIN ATOMIC CHARGES
----------------------
   0 C :   -0.079874
   1 H :    0.023534
   2 C :    0.115625
   3 C :   -0.087296
   4 H :    0.022175
   5 H :    0.021697
   6 H :    0.014462
   7 C :    0.126491
   8 H :   -0.035207
   9 H :   -0.031371
  10 H :   -0.028331
  11 H :   -0.020059
  12 H :   -0.025161
  13 H :   -0.016684

  Mayer bond orders larger than 0.100000
B(  0-C ,  1-H ) :   0.8450 B(  0-C ,  2-C ) :   1.2293 B(  0-C ,  3-C ) :   1.1673
B(  0-C ,  4-H ) :   0.8963 B(  0-C ,  5-H ) :   0.1123 B(  0-C ,  6-H ) :   0.1503
B(  0-C ,  8-H ) :   0.2558 B(  0-C ,  9-H ) :   0.2871 B(  0-C , 10-H ) :   0.2562
B(  1-H ,  2-C ) :   0.1557 B(  1-H ,  3-C ) :   0.1271 B(  2-C ,  8-H ) :   0.6140
B(  2-C ,  9-H ) :   0.6090 B(  2-C , 10-H ) :   0.6510 B(  3-C ,  5-H ) :   0.8780
B(  3-C ,  6-H ) :   0.9370 B(  3-C ,  7-C ) :   1.2715 B(  3-C , 11-H ) :   0.2357
B(  3-C , 12-H ) :   0.2187 B(  3-C , 13-H ) :   0.2112 B(  7-C , 11-H ) :   0.7108
B(  7-C , 12-H ) :   0.7984 B(  7-C , 13-H ) :   0.7599

FINAL SINGLE POINT ENERGY      -158.225720674081

DIPOLE MOMENT
-------------
                                X             Y             Z
Electronic contribution:      0.49803      -0.62666       0.09780
Nuclear contribution   :     -0.48267       0.62853      -0.07145
                        -----------------------------------------
Total Dipole Moment    :      0.01536       0.00187       0.02635
                        -----------------------------------------
Magnitude (a.u.)       :      0.03056
Magnitude (Debye)      :      0.07768

Rotational constants in cm-1:     0.457318     0.164089     0.140183
Rotational constants in MHz : 13710.038687  4919.250587  4202.581436

                             ****ORCA TERMINATED NORMALLY****
TOTAL RUN TIME: 0 days 0 hours 0 minutes 19 seconds 658 msec
