                         Program Version 5.0.0 -  RELEASE  -
|  1> !CAM-B3LYP RIJCOSX def2-SVP def2/J TightSCF
|  2> *xyz -1 1
|  3> C          3.80351        1.37472       -3.26081
|  4> C          3.93993        0.32036       -4.36773
|  5> H          4.10504       -0.65508       -3.90773
|  6> H          3.02280        0.28052       -4.95712
|  7> C          5.10585        0.66802       -5.30546
|  8> O          4.80913        1.15019       -6.41436
|  9> O          6.26737        0.56500       -4.81948
| 10> H          3.64113        2.33595       -3.70189
| 11> H          4.69995        1.39701       -2.67703
| 12> H          2.97435        1.12625       -2.63180
| 13> *
| 14>
| 15> %MaxCore 64000
| 16>
| 17> %pal nprocs 4
| 18> end
| 19>
| 20> %scf
| 21>   MaxIter 150
| 22> end
| 23>
| 24>
| 25>                          ****END OF INPUT****

CARTESIAN COORDINATES (ANGSTROEM)
---------------------------------
  C      3.803510    1.374720   -3.260810
  C      3.939930    0.320360   -4.367730
  H      4.105040   -0.655080   -3.907730
  H      3.022800    0.280520   -4.957120
  C      5.105850    0.668020   -5.305460
  O      4.809130    1.150190   -6.414360
  O      6.267370    0.565000   -4.819480
  H      3.641130    2.335950   -3.701890
  H      4.699950    1.397010   -2.677030
  H      2.974350    1.126250   -2.631800

 Total Charge           Charge          ....   -1
 Multiplicity           Mult            ....    1
 Number of Electrons    NEL             ....   40
 Basis Dimension        Dim             ....   95

ORBITAL ENERGIES
----------------

  NO   OCC          E(Eh)            E(eV)
   0   2.0000     -18.907391      -514.4963
   1   2.0000     -18.903310      -514.3852
   2   2.0000     -10.111834      -275.1570
   3   2.0000     -10.088345      -274.5178
   4   2.0000     -10.064937      -273.8809
   5   2.0000      -0.856325       -23.3018
   6   2.0000      -0.760691       -20.6994
   7   2.0000      -0.666957       -18.1488
   8   2.0000      -0.529562       -14.4101
   9   2.0000      -0.371928       -10.1207
  10   2.0000      -0.348887        -9.4937
  11   2.0000      -0.305354        -8.3091
  12   2.0000      -0.277846        -7.5606
  13   2.0000      -0.260372        -7.0851
  14   2.0000      -0.252616        -6.8740
  15   2.0000      -0.217732        -5.9248
  16   2.0000      -0.205417        -5.5897
  17   2.0000      -0.074440        -2.0256
  18   2.0000      -0.071419        -1.9434
  19   2.0000      -0.059287        -1.6133
  20   0.0000       0.258822         7.0429
  21   0.0000       0.309847         8.4314
  22   0.0000       0.323526         8.8036
  23   0.0000       0.325845         8.8667
  24   0.0000       0.343359         9.3433

MULLIKEN ATOMIC CHARGES
-----------------------
   0 C :    0.026848
   1 C :    0.042796
   2 H :   -0.059243
   3 H :   -0.065243
   4 C :    0.000790
   5 O :   -0.413934
   6 O :   -0.447633
   7 H :   -0.018342
   8 H :   -0.012573
   9 H :   -0.053466
Sum of atomic charges:   -1.0000000

LOEWDIN ATOMIC CHARGES
----------------------
   0 C :   -0.057359
   1 C :   -0.086933
   2 H :   -0.004190
   3 H :   -0.007452
   4 C :   -0.054057
   5 O :   -0.386367
   6 O :   -0.415343
   7 H :    0.009757
   8 H :    0.010109
   9 H :   -0.008165

  Mayer bond orders larger than 0.100000
B(  0-C ,  1-C ) :   1.1039 B(  0-C ,  7-H ) :   0.9700 B(  0-C ,  8-H ) :   0.9652
B(  0-C ,  9-H ) :   0.9667 B(  1-C ,  2-H ) :   0.9309 B(  1-C ,  3-H ) :   0.9327
B(  1-C ,  4-C ) :   0.9220 B(  4-C ,  5-O ) :   1.8878 B(  4-C ,  6-O ) :   1.8363
B(  5-O ,  6-O ) :   0.1129

FINAL SINGLE POINT ENERGY      -267.497068413896

DIPOLE MOMENT
-------------
                                X             Y             Z
Electronic contribution:      3.86685      -0.44382      -4.60861
Nuclear contribution   :     -5.15232       0.33441       5.87398
                        -----------------------------------------
Total Dipole Moment    :     -1.28547      -0.10941       1.26537
                        -----------------------------------------
Magnitude (a.u.)       :      1.80709
Magnitude (Debye)      :      4.59326

Rotational constants in cm-1:     0.295355     0.137164     0.110193
Rotational constants in MHz :  8854.523706  4112.077980  3303.490503

                             ****ORCA TERMINATED NORMALLY****
TOTAL RUN TIME: 0 days 0 hours 0 minutes 16 seconds 304 msec
