                         Program Version 5.0.0 -  RELEASE  -
|  1> !CAM-B3LYP RIJCOSX def2-SVP def2/J TightSCF
|  2> *xyz 1 1
|  3> C          3.90595        2.81985       -3.75292
|  4> N          5.29562        3.13151       -4.10533
|  5> C          3.80351        1.37472       -3.26081
|  6> C          5.70862        3.46889       -5.32419
|  7> N          6.90470        3.03895       -5.71708
|  8> N          4.98188        4.29357       -6.09746
|  9> H          5.00055        4.10131       -7.08776
| 10> H          4.08469        4.59690       -5.73965
| 11> H          5.96336        2.52611       -3.64239
| 12> H          7.04716        2.06686       -5.47360
| 13> H          7.19815        3.30799       -6.64523
| 14> H          3.28202        2.94919       -4.64026
| 15> H          3.56525        3.51457       -2.98252
| 16> H          4.14157        0.71142       -4.02935
| 17> H          2.78528        1.15146       -3.01944
| 18> H          4.41205        1.25066       -2.38949
| 19> *
| 20>
| 21> %MaxCore 64000
| 22>
| 23> %pal nprocs 4
| 24> end
| 25>
| 26> %scf
| 27>   MaxIter 150
| 28> end
| 29>
| 30>
| 31>                          ****END OF INPUT****

CARTESIAN COORDINATES (ANGSTROEM)
---------------------------------
  C      3.905950    2.819850   -3.752920
  N      5.295620    3.131510   -4.105330
  C      3.803510    1.374720   -3.260810
  C      5.708620    3.468890   -5.324190
  N      6.904700    3.038950   -5.717080
  N      4.981880    4.293570   -6.097460
  H      5.000550    4.101310   -7.087760
  H      4.084690    4.596900   -5.739650
  H      5.963360    2.526110   -3.642390
  H      7.047160    2.066860   -5.473600
  H      7.198150    3.307990   -6.645230
  H      3.282020    2.949190   -4.640260
  H      3.565250    3.514570   -2.982520
  H      4.141570    0.711420   -4.029350
  H      2.785280    1.151460   -3.019440
  H      4.412050    1.250660   -2.389490

 Total Charge           Charge          ....    1
 Multiplicity           Mult            ....    1
 Number of Electrons    NEL             ....   48
 Basis Dimension        Dim             ....  134

ORBITAL ENERGIES
----------------

  NO   OCC          E(Eh)            E(eV)
   0   2.0000     -14.630810      -398.1246
   1   2.0000     -14.629520      -398.0895
   2   2.0000     -14.627552      -398.0359
   3   2.0000     -10.598162      -288.3907
   4   2.0000     -10.468096      -284.8514
   5   2.0000     -10.402843      -283.0758
   6   2.0000      -1.297656       -35.3110
   7   2.0000      -1.182259       -32.1709
   8   2.0000      -1.173151       -31.9231
   9   2.0000      -1.009198       -27.4617
  10   2.0000      -0.905814       -24.6485
  11   2.0000      -0.881011       -23.9735
  12   2.0000      -0.849430       -23.1142
  13   2.0000      -0.816640       -22.2219
  14   2.0000      -0.772101       -21.0099
  15   2.0000      -0.757834       -20.6217
  16   2.0000      -0.721375       -19.6296
  17   2.0000      -0.696199       -18.9445
  18   2.0000      -0.664794       -18.0900
  19   2.0000      -0.626476       -17.0473
  20   2.0000      -0.602082       -16.3835
  21   2.0000      -0.586797       -15.9676
  22   2.0000      -0.552618       -15.0375
  23   2.0000      -0.520838       -14.1727
  24   0.0000      -0.137010        -3.7282
  25   0.0000      -0.095948        -2.6109
  26   0.0000      -0.061330        -1.6689
  27   0.0000      -0.046087        -1.2541
  28   0.0000      -0.026658        -0.7254

MULLIKEN ATOMIC CHARGES
-----------------------
   0 C :    0.049107
   1 N :   -0.095561
   2 C :   -0.021656
   3 C :   -0.018662
   4 N :   -0.005166
   5 N :   -0.017202
   6 H :    0.174066
   7 H :    0.171986
   8 H :    0.153372
   9 H :    0.174268
  10 H :    0.166833
  11 H :    0.038628
  12 H :    0.078274
  13 H :    0.028271
  14 H :    0.070493
  15 H :    0.052948
Sum of atomic charges:    1.0000000

LOEWDIN ATOMIC CHARGES
----------------------
   0 C :    0.043912
   1 N :    0.031895
   2 C :   -0.043612
   3 C :    0.142555
   4 N :    0.048649
   5 N :    0.048039
   6 H :    0.109401
   7 H :    0.108954
   8 H :    0.101474
   9 H :    0.109541
  10 H :    0.109742
  11 H :    0.027927
  12 H :    0.044181
  13 H :    0.027653
  14 H :    0.052937
  15 H :    0.036753

  Mayer bond orders larger than 0.100000
B(  0-C ,  1-N ) :   0.9253 B(  0-C ,  2-C ) :   1.1043 B(  0-C , 11-H ) :   0.9510
B(  0-C , 12-H ) :   0.9481 B(  1-N ,  3-C ) :   1.4041 B(  1-N ,  8-H ) :   0.9118
B(  2-C , 13-H ) :   0.9729 B(  2-C , 14-H ) :   0.9612 B(  2-C , 15-H ) :   0.9687
B(  3-C ,  4-N ) :   1.3797 B(  3-C ,  5-N ) :   1.3859 B(  4-N ,  9-H ) :   0.9290
B(  4-N , 10-H ) :   0.9281 B(  5-N ,  6-H ) :   0.9278 B(  5-N ,  7-H ) :   0.9234

FINAL SINGLE POINT ENERGY      -284.031160942426

DIPOLE MOMENT
-------------
                                X             Y             Z
Electronic contribution:      3.55292       3.39911      -2.73915
Nuclear contribution   :     -3.31456      -3.64300       1.57303
                        -----------------------------------------
Total Dipole Moment    :      0.23835      -0.24388      -1.16612
                        -----------------------------------------
Magnitude (a.u.)       :      1.21496
Magnitude (Debye)      :      3.08818

Rotational constants in cm-1:     0.229487     0.071000     0.059428
Rotational constants in MHz :  6879.840828  2128.520047  1781.605314

                             ****ORCA TERMINATED NORMALLY****
TOTAL RUN TIME: 0 days 0 hours 0 minutes 25 seconds 916 msec
