                         Program Version 5.0.0 -  RELEASE  -
|  1> !CAM-B3LYP RIJCOSX def2-SVP def2/J TightSCF
|  2> *xyz 0 1
|  3> C          3.80351        1.37472       -3.26081
|  4> C          3.93993        0.32036       -4.36773
|  5> H          4.10504       -0.65508       -3.90773
|  6> H          3.02280        0.28052       -4.95712
|  7> C          5.10585        0.66802       -5.30546
|  8> F          4.80913        1.15019       -6.41436
|  9> O          6.26737        0.56500       -4.81948
| 10> H          3.64113        2.33595       -3.70189
| 11> H          4.69995        1.39701       -2.67703
| 12> H          2.97435        1.12625       -2.63180
| 13> *
| 14>
| 15> %MaxCore 64000
| 16>
| 17> %pal nprocs 4
| 18> end
| 19>
| 20> %scf
| 21>   MaxIter 150
| 22> end
| 23>
| 24>
| 25>                          ****END OF INPUT****

CARTESIAN COORDINATES (ANGSTROEM)
---------------------------------
  C      3.803510    1.374720   -3.260810
  C      3.939930    0.320360   -4.367730
  H      4.105040   -0.655080   -3.907730
  H      3.022800    0.280520   -4.957120
  C      5.105850    0.668020   -5.305460
  F      4.809130    1.150190   -6.414360
  O      6.267370    0.565000   -4.819480
  H      3.641130    2.335950   -3.701890
  H      4.699950    1.397010   -2.677030
  H      2.974350    1.126250   -2.631800

 Total Charge           Charge          ....    0
 Multiplicity           Mult            ....    1
 Number of Electrons    NEL             ....   40
 Basis Dimension        Dim             ....   95

ORBITAL ENERGIES
----------------

  NO   OCC          E(Eh)            E(eV)
   0   2.0000     -24.832735      -675.7331
   1   2.0000     -19.207464      -522.6617
   2   2.0000     -10.433378      -283.9066
   3   2.0000     -10.285564      -279.8844
   4   2.0000     -10.265028      -279.3256
   5   2.0000      -1.385767       -37.7086
   6   2.0000      -1.091846       -29.7106
   7   2.0000      -0.873784       -23.7769
   8   2.0000      -0.757651       -20.6167
   9   2.0000      -0.710357       -19.3298
  10   2.0000      -0.622867       -16.9491
  11   2.0000      -0.607484       -16.5305
  12   2.0000      -0.570878       -15.5344
  13   2.0000      -0.532231       -14.4827
  14   2.0000      -0.498972       -13.5777
  15   2.0000      -0.463216       -12.6047
  16   2.0000      -0.442293       -12.0354
  17   2.0000      -0.437065       -11.8931
  18   2.0000      -0.404451       -11.0057
  19   2.0000      -0.349973        -9.5233
  20   0.0000       0.029487         0.8024
  21   0.0000       0.102333         2.7846
  22   0.0000       0.148151         4.0314
  23   0.0000       0.152720         4.1557
  24   0.0000       0.174610         4.7514

MULLIKEN ATOMIC CHARGES
-----------------------
   0 C :    0.007131
   1 C :   -0.041249
   2 H :    0.049346
   3 H :    0.016252
   4 C :    0.203793
   5 F :   -0.055129
   6 O :   -0.259483
   7 H :    0.017153
   8 H :    0.038385
   9 H :    0.023802
Sum of atomic charges:   -0.0000000

LOEWDIN ATOMIC CHARGES
----------------------
   0 C :   -0.036265
   1 C :   -0.066756
   2 H :    0.045743
   3 H :    0.025273
   4 C :    0.099120
   5 F :    0.056605
   6 O :   -0.206419
   7 H :    0.024162
   8 H :    0.030789
   9 H :    0.027747

  Mayer bond orders larger than 0.100000
B(  0-C ,  1-C ) :   1.0904 B(  0-C ,  7-H ) :   0.9756 B(  0-C ,  8-H ) :   0.9728
B(  0-C ,  9-H ) :   0.9714 B(  1-C ,  2-H ) :   0.9406 B(  1-C ,  3-H ) :   0.9388
B(  1-C ,  4-C ) :   0.9949 B(  4-C ,  5-F ) :   1.2233 B(  4-C ,  6-O ) :   2.0781

FINAL SINGLE POINT ENERGY      -292.050416321708

DIPOLE MOMENT
-------------
                                X             Y             Z
Electronic contribution:      4.06792      -0.00617      -7.46981
Nuclear contribution   :     -5.17129      -0.01923       7.59895
                        -----------------------------------------
Total Dipole Moment    :     -1.10337      -0.02541       0.12914
                        -----------------------------------------
Magnitude (a.u.)       :      1.11119
Magnitude (Debye)      :      2.82443

Rotational constants in cm-1:     0.282073     0.131822     0.105134
Rotational constants in MHz :  8456.328792  3951.925810  3151.840112

                             ****ORCA TERMINATED NORMALLY****
TOTAL RUN TIME: 0 days 0 hours 0 minutes 16 seconds 744 msec
