                         Program Version 5.0.0 -  RELEASE  -
|  1> !CAM-B3LYP RIJCOSX def2-SVP def2/J TightSCF
|  2> *xyz 0 1
|  3> C          3.90595        2.81985       -3.75292
|  4> C          5.29562        3.13151       -4.10533
|  5> C          3.80351        1.37472       -3.26081
|  6> C          5.70862        3.46889       -5.32419
|  7> N          6.90470        3.03895       -5.71708
|  8> N          4.98188        4.29357       -6.09746
|  9> H          5.00055        4.10131       -7.08776
| 10> H          4.08469        4.59690       -5.73965
| 11> H          5.96336        2.52611       -3.64239
| 12> H          7.04716        2.06686       -5.47360
| 13> H          7.19815        3.30799       -6.64523
| 14> H          3.28202        2.94919       -4.64026
| 15> H          3.56525        3.51457       -2.98252
| 16> H          4.14157        0.71142       -4.02935
| 17> H          2.78528        1.15146       -3.01944
| 18> H          4.41205        1.25066       -2.38949
| 19> *
| 20>
| 21> %MaxCore 64000
| 22>
| 23> %pal nprocs 4
| 24> end
| 25>
| 26> %scf
| 27>   MaxIter 150
| 28> end
| 29>
| 30>
| 31>                          ****END OF INPUT****

CARTESIAN COORDINATES (ANGSTROEM)
---------------------------------
  C      3.905950    2.819850   -3.752920
  C      5.295620    3.131510   -4.105330
  C      3.803510    1.374720   -3.260810
  C      5.708620    3.468890   -5.324190
  N      6.904700    3.038950   -5.717080
  N      4.981880    4.293570   -6.097460
  H      5.000550    4.101310   -7.087760
  H      4.084690    4.596900   -5.739650
  H      5.963360    2.526110   -3.642390
  H      7.047160    2.066860   -5.473600
  H      7.198150    3.307990   -6.645230
  H      3.282020    2.949190   -4.640260
  H      3.565250    3.514570   -2.982520
  H      4.141570    0.711420   -4.029350
  H      2.785280    1.151460   -3.019440
  H      4.412050    1.250660   -2.389490

 Total Charge           Charge          ....    0
 Multiplicity           Mult            ....    1
 Number of Electrons    NEL             ....   48
 Basis Dimension        Dim             ....  134

ORBITAL ENERGIES
----------------

  NO   OCC          E(Eh)            E(eV)
   0   2.0000     -14.399950      -391.8426
   1   2.0000     -14.395854      -391.7311
   2   2.0000     -10.295324      -280.1500
   3   2.0000     -10.230607      -278.3890
   4   2.0000     -10.226561      -278.2789
   5   2.0000     -10.173961      -276.8475
   6   2.0000      -1.032790       -28.1036
   7   2.0000      -0.941612       -25.6226
   8   2.0000      -0.846787       -23.0422
   9   2.0000      -0.762709       -20.7544
  10   2.0000      -0.679304       -18.4848
  11   2.0000      -0.641627       -17.4596
  12   2.0000      -0.599795       -16.3212
  13   2.0000      -0.574201       -15.6248
  14   2.0000      -0.539969       -14.6933
  15   2.0000      -0.510716       -13.8973
  16   2.0000      -0.484844       -13.1933
  17   2.0000      -0.450675       -12.2635
  18   2.0000      -0.430964       -11.7271
  19   2.0000      -0.411772       -11.2049
  20   2.0000      -0.386732       -10.5235
  21   2.0000      -0.382269       -10.4021
  22   2.0000      -0.330463        -8.9924
  23   2.0000      -0.217361        -5.9147
  24   0.0000       0.083782         2.2798
  25   0.0000       0.117639         3.2011
  26   0.0000       0.125997         3.4286
  27   0.0000       0.135863         3.6970
  28   0.0000       0.152076         4.1382

MULLIKEN ATOMIC CHARGES
-----------------------
   0 C :    0.038787
   1 C :   -0.076912
   2 C :    0.022887
   3 C :   -0.145583
   4 N :   -0.055054
   5 N :   -0.053645
   6 H :    0.094836
   7 H :    0.115959
   8 H :   -0.102271
   9 H :    0.128220
  10 H :    0.090060
  11 H :   -0.038407
  12 H :   -0.010043
  13 H :   -0.009524
  14 H :   -0.006468
  15 H :    0.007158
Sum of atomic charges:    0.0000000

LOEWDIN ATOMIC CHARGES
----------------------
   0 C :   -0.038447
   1 C :   -0.207761
   2 C :   -0.048509
   3 C :    0.012397
   4 N :   -0.018948
   5 N :   -0.024851
   6 H :    0.058241
   7 H :    0.077965
   8 H :   -0.011894
   9 H :    0.079840
  10 H :    0.060929
  11 H :    0.002185
  12 H :    0.011861
  13 H :    0.013099
  14 H :    0.014917
  15 H :    0.018978

  Mayer bond orders larger than 0.100000
B(  0-C ,  1-C ) :   1.0605 B(  0-C ,  2-C ) :   1.0962 B(  0-C , 11-H ) :   0.9431
B(  0-C , 12-H ) :   0.9286 B(  1-C ,  3-C ) :   1.7373 B(  1-C ,  8-H ) :   0.9183
B(  2-C , 13-H ) :   0.9721 B(  2-C , 14-H ) :   0.9655 B(  2-C , 15-H ) :   0.9740
B(  3-C ,  4-N ) :   1.2008 B(  3-C ,  5-N ) :   1.2355 B(  4-N ,  9-H ) :   0.9502
B(  4-N , 10-H ) :   0.9546 B(  5-N ,  6-H ) :   0.9434 B(  5-N ,  7-H ) :   0.9445

FINAL SINGLE POINT ENERGY      -267.557864119936

DIPOLE MOMENT
-------------
                                X             Y             Z
Electronic contribution:      3.22842       3.29210      -2.96783
Nuclear contribution   :     -3.27358      -3.61654       1.70633
                        -----------------------------------------
Total Dipole Moment    :     -0.04516      -0.32444      -1.26150
                        -----------------------------------------
Magnitude (a.u.)       :      1.30334
Magnitude (Debye)      :      3.31282

Rotational constants in cm-1:     0.231961     0.071249     0.059473
Rotational constants in MHz :  6954.024434  2135.976855  1782.962814

                             ****ORCA TERMINATED NORMALLY****
TOTAL RUN TIME: 0 days 0 hours 0 minutes 26 seconds 634 msec
