                         Program Version 5.0.0 -  RELEASE  -
|  1> !CAM-B3LYP RIJCOSX def2-SVP def2/J TightSCF
|  2> *xyz 0 1
|  3> C          3.80351        1.37472       -3.26081
|  4> C          3.93993        0.32036       -4.36773
|  5> H          4.10504       -0.65508       -3.90773
|  6> H          3.02280        0.28052       -4.95712
|  7> C          5.10585        0.66802       -5.30546
|  8> O          4.80913        1.15019       -6.41436
|  9> F          6.26737        0.56500       -4.81948
| 10> H          3.64113        2.33595       -3.70189
| 11> H          4.69995        1.39701       -2.67703
| 12> H          2.97435        1.12625       -2.63180
| 13> *
| 14>
| 15> %MaxCore 64000
| 16>
| 17> %pal nprocs 4
| 18> end
| 19>
| 20> %scf
| 21>   MaxIter 150
| 22> end
| 23>
| 24>
| 25>                          ****END OF INPUT****

CARTESIAN COORDINATES (ANGSTROEM)
---------------------------------
  C      3.803510    1.374720   -3.260810
  C      3.939930    0.320360   -4.367730
  H      4.105040   -0.655080   -3.907730
  H      3.022800    0.280520   -4.957120
  C      5.105850    0.668020   -5.305460
  O      4.809130    1.150190   -6.414360
  F      6.267370    0.565000   -4.819480
  H      3.641130    2.335950   -3.701890
  H      4.699950    1.397010   -2.677030
  H      2.974350    1.126250   -2.631800

 Total Charge           Charge          ....    0
 Multiplicity           Mult            ....    1
 Number of Electrons    NEL             ....   40
 Basis Dimension        Dim             ....   95

ORBITAL ENERGIES
----------------

  NO   OCC          E(Eh)            E(eV)
   0   2.0000     -24.826127      -675.5533
   1   2.0000     -19.210445      -522.7428
   2   2.0000     -10.431562      -283.8572
   3   2.0000     -10.284917      -279.8668
   4   2.0000     -10.267783      -279.4006
   5   2.0000      -1.372065       -37.3358
   6   2.0000      -1.102903       -30.0115
   7   2.0000      -0.875783       -23.8313
   8   2.0000      -0.752410       -20.4741
   9   2.0000      -0.707813       -19.2606
  10   2.0000      -0.617349       -16.7989
  11   2.0000      -0.603113       -16.4115
  12   2.0000      -0.567618       -15.4457
  13   2.0000      -0.531541       -14.4640
  14   2.0000      -0.500837       -13.6285
  15   2.0000      -0.466573       -12.6961
  16   2.0000      -0.448023       -12.1913
  17   2.0000      -0.437672       -11.9097
  18   2.0000      -0.413298       -11.2464
  19   2.0000      -0.350899        -9.5485
  20   0.0000       0.034308         0.9336
  21   0.0000       0.099901         2.7184
  22   0.0000       0.146199         3.9783
  23   0.0000       0.154241         4.1971
  24   0.0000       0.178111         4.8467

MULLIKEN ATOMIC CHARGES
-----------------------
   0 C :   -0.006977
   1 C :   -0.036584
   2 H :    0.028141
   3 H :    0.043292
   4 C :    0.204884
   5 O :   -0.232484
   6 F :   -0.082105
   7 H :    0.030831
   8 H :    0.022962
   9 H :    0.028042
Sum of atomic charges:    0.0000000

LOEWDIN ATOMIC CHARGES
----------------------
   0 C :   -0.041585
   1 C :   -0.064384
   2 H :    0.032470
   3 H :    0.042021
   4 C :    0.100909
   5 O :   -0.183608
   6 F :    0.032278
   7 H :    0.028202
   8 H :    0.024061
   9 H :    0.029638

  Mayer bond orders larger than 0.100000
B(  0-C ,  1-C ) :   1.0809 B(  0-C ,  7-H ) :   0.9750 B(  0-C ,  8-H ) :   0.9751
B(  0-C ,  9-H ) :   0.9712 B(  1-C ,  2-H ) :   0.9347 B(  1-C ,  3-H ) :   0.9500
B(  1-C ,  4-C ) :   1.0024 B(  4-C ,  5-O ) :   2.1160 B(  4-C ,  6-F ) :   1.1892

FINAL SINGLE POINT ENERGY      -292.055838749223

DIPOLE MOMENT
-------------
                                X             Y             Z
Electronic contribution:      6.45816      -0.96701      -4.83678
Nuclear contribution   :     -6.76123       0.61881       5.86003
                        -----------------------------------------
Total Dipole Moment    :     -0.30307      -0.34821       1.02325
                        -----------------------------------------
Magnitude (a.u.)       :      1.12256
Magnitude (Debye)      :      2.85331

Rotational constants in cm-1:     0.275298     0.134631     0.105723
Rotational constants in MHz :  8253.224169  4036.137572  3169.487264

                             ****ORCA TERMINATED NORMALLY****
TOTAL RUN TIME: 0 days 0 hours 0 minutes 15 seconds 623 msec
