                         Program Version 5.0.0 -  RELEASE  -
|  1> !CAM-B3LYP RIJCOSX def2-SVP def2/J TightSCF
|  2> *xyz 0 1
|  3> C          3.90595        2.81985       -3.75292
|  4> N          5.29562        3.13151       -4.10533
|  5> C          3.80351        1.37472       -3.26081
|  6> C          5.70862        3.46889       -5.32419
|  7> C          6.90470        3.03895       -5.71708
|  8> N          4.98188        4.29357       -6.09746
|  9> H          5.00055        4.10131       -7.08776
| 10> H          4.08469        4.59690       -5.73965
| 11> H          5.96336        2.52611       -3.64239
| 12> H          7.04716        2.06686       -5.47360
| 13> H          7.19815        3.30799       -6.64523
| 14> H          3.28202        2.94919       -4.64026
| 15> H          3.56525        3.51457       -2.98252
| 16> H          4.14157        0.71142       -4.02935
| 17> H          2.78528        1.15146       -3.01944
| 18> H          4.41205        1.25066       -2.38949
| 19> *
| 20>
| 21> %MaxCore 64000
| 22>
| 23> %pal nprocs 4
| 24> end
| 25>
| 26> %scf
| 27>   MaxIter 150
| 28> end
| 29>
| 30>
| 31>                          ****END OF INPUT****

CARTESIAN COORDINATES (ANGSTROEM)
---------------------------------
  C      3.905950    2.819850   -3.752920
  N      5.295620    3.131510   -4.105330
  C      3.803510    1.374720   -3.260810
  C      5.708620    3.468890   -5.324190
  C      6.904700    3.038950   -5.717080
  N      4.981880    4.293570   -6.097460
  H      5.000550    4.101310   -7.087760
  H      4.084690    4.596900   -5.739650
  H      5.963360    2.526110   -3.642390
  H      7.047160    2.066860   -5.473600
  H      7.198150    3.307990   -6.645230
  H      3.282020    2.949190   -4.640260
  H      3.565250    3.514570   -2.982520
  H      4.141570    0.711420   -4.029350
  H      2.785280    1.151460   -3.019440
  H      4.412050    1.250660   -2.389490

 Total Charge           Charge          ....    0
 Multiplicity           Mult            ....    1
 Number of Electrons    NEL             ....   48
 Basis Dimension        Dim             ....  134

ORBITAL ENERGIES
----------------

  NO   OCC          E(Eh)            E(eV)
   0   2.0000     -14.400004      -391.8440
   1   2.0000     -14.396236      -391.7415
   2   2.0000     -10.300314      -280.2858
   3   2.0000     -10.296422      -280.1799
   4   2.0000     -10.258165      -279.1389
   5   2.0000     -10.163357      -276.5590
   6   2.0000      -1.039248       -28.2794
   7   2.0000      -0.955074       -25.9889
   8   2.0000      -0.845934       -23.0190
   9   2.0000      -0.774870       -21.0853
  10   2.0000      -0.699238       -19.0272
  11   2.0000      -0.663033       -18.0420
  12   2.0000      -0.599648       -16.3172
  13   2.0000      -0.559515       -15.2252
  14   2.0000      -0.552032       -15.0216
  15   2.0000      -0.517361       -14.0781
  16   2.0000      -0.487416       -13.2633
  17   2.0000      -0.465501       -12.6669
  18   2.0000      -0.443641       -12.0721
  19   2.0000      -0.436367       -11.8741
  20   2.0000      -0.435464       -11.8496
  21   2.0000      -0.398160       -10.8345
  22   2.0000      -0.317693        -8.6449
  23   2.0000      -0.222577        -6.0566
  24   0.0000       0.087282         2.3751
  25   0.0000       0.108443         2.9509
  26   0.0000       0.122357         3.3295
  27   0.0000       0.132717         3.6114
  28   0.0000       0.149744         4.0748

MULLIKEN ATOMIC CHARGES
-----------------------
   0 C :    0.090720
   1 N :   -0.128840
   2 C :   -0.011306
   3 C :   -0.084281
   4 C :   -0.066782
   5 N :   -0.074841
   6 H :    0.126708
   7 H :    0.097953
   8 H :    0.108933
   9 H :   -0.049887
  10 H :   -0.074322
  11 H :   -0.003515
  12 H :    0.014493
  13 H :    0.020833
  14 H :    0.014595
  15 H :    0.019540
Sum of atomic charges:    0.0000000

LOEWDIN ATOMIC CHARGES
----------------------
   0 C :    0.030997
   1 N :   -0.030448
   2 C :   -0.057436
   3 C :    0.036562
   4 C :   -0.260585
   5 N :   -0.018716
   6 H :    0.079448
   7 H :    0.061679
   8 H :    0.079704
   9 H :   -0.009022
  10 H :   -0.013228
  11 H :    0.012087
  12 H :    0.014830
  13 H :    0.024604
  14 H :    0.026642
  15 H :    0.022881

  Mayer bond orders larger than 0.100000
B(  0-C ,  1-N ) :   0.9956 B(  0-C ,  2-C ) :   1.1082 B(  0-C , 11-H ) :   0.9461
B(  0-C , 12-H ) :   0.9531 B(  1-N ,  3-C ) :   1.2263 B(  1-N ,  8-H ) :   0.9328
B(  2-C , 13-H ) :   0.9740 B(  2-C , 14-H ) :   0.9645 B(  2-C , 15-H ) :   0.9709
B(  3-C ,  4-C ) :   1.7412 B(  3-C ,  5-N ) :   1.2053 B(  4-C ,  9-H ) :   0.9439
B(  4-C , 10-H ) :   0.9435 B(  5-N ,  6-H ) :   0.9516 B(  5-N ,  7-H ) :   0.9537

FINAL SINGLE POINT ENERGY      -267.548183911120

DIPOLE MOMENT
-------------
                                X             Y             Z
Electronic contribution:      1.49547       3.26910      -1.29191
Nuclear contribution   :     -2.93222      -3.63618       1.36440
                        -----------------------------------------
Total Dipole Moment    :     -1.43675      -0.36708       0.07250
                        -----------------------------------------
Magnitude (a.u.)       :      1.48467
Magnitude (Debye)      :      3.77373

Rotational constants in cm-1:     0.237993     0.072843     0.061284
Rotational constants in MHz :  7134.860770  2183.763760  1837.240960

                             ****ORCA TERMINATED NORMALLY****
TOTAL RUN TIME: 0 days 0 hours 0 minutes 28 seconds 74 msec
