                         Program Version 5.0.0 -  RELEASE  -
|  1> !CAM-B3LYP RIJCOSX def2-SVP def2/J TightSCF
|  2> *xyz 0 1
|  3> C          3.90595        2.81985       -3.75292
|  4> N          5.29562        3.13151       -4.10533
|  5> C          3.80351        1.37472       -3.26081
|  6> C          5.70862        3.46889       -5.32419
|  7> N          6.90470        3.03895       -5.71708
|  8> C          4.98188        4.29357       -6.09746
|  9> H          5.00055        4.10131       -7.08776
| 10> H          4.08469        4.59690       -5.73965
| 11> H          5.96336        2.52611       -3.64239
| 12> H          7.04716        2.06686       -5.47360
| 13> H          7.19815        3.30799       -6.64523
| 14> H          3.28202        2.94919       -4.64026
| 15> H          3.56525        3.51457       -2.98252
| 16> H          4.14157        0.71142       -4.02935
| 17> H          2.78528        1.15146       -3.01944
| 18> H          4.41205        1.25066       -2.38949
| 19> *
| 20>
| 21> %MaxCore 64000
| 22>
| 23> %pal nprocs 4
| 24> end
| 25>
| 26> %scf
| 27>   MaxIter 150
| 28> end
| 29>
| 30>
| 31>                          ****END OF INPUT****

CARTESIAN COORDINATES (ANGSTROEM)
---------------------------------
  C      3.905950    2.819850   -3.752920
  N      5.295620    3.131510   -4.105330
  C      3.803510    1.374720   -3.260810
  C      5.708620    3.468890   -5.324190
  N      6.904700    3.038950   -5.717080
  C      4.981880    4.293570   -6.097460
  H      5.000550    4.101310   -7.087760
  H      4.084690    4.596900   -5.739650
  H      5.963360    2.526110   -3.642390
  H      7.047160    2.066860   -5.473600
  H      7.198150    3.307990   -6.645230
  H      3.282020    2.949190   -4.640260
  H      3.565250    3.514570   -2.982520
  H      4.141570    0.711420   -4.029350
  H      2.785280    1.151460   -3.019440
  H      4.412050    1.250660   -2.389490

 Total Charge           Charge          ....    0
 Multiplicity           Mult            ....    1
 Number of Electrons    NEL             ....   48
 Basis Dimension        Dim             ....  134

ORBITAL ENERGIES
----------------

  NO   OCC          E(Eh)            E(eV)
   0   2.0000     -14.399034      -391.8176
   1   2.0000     -14.398446      -391.8016
   2   2.0000     -10.299600      -280.2664
   3   2.0000     -10.289273      -279.9853
   4   2.0000     -10.255674      -279.0711
   5   2.0000     -10.168979      -276.7120
   6   2.0000      -1.044117       -28.4119
   7   2.0000      -0.957293       -26.0493
   8   2.0000      -0.834511       -22.7082
   9   2.0000      -0.775507       -21.1026
  10   2.0000      -0.713076       -19.4038
  11   2.0000      -0.632902       -17.2221
  12   2.0000      -0.602491       -16.3946
  13   2.0000      -0.581384       -15.8203
  14   2.0000      -0.539483       -14.6801
  15   2.0000      -0.522470       -14.2171
  16   2.0000      -0.468849       -12.7580
  17   2.0000      -0.466521       -12.6947
  18   2.0000      -0.455475       -12.3941
  19   2.0000      -0.435515       -11.8510
  20   2.0000      -0.426107       -11.5950
  21   2.0000      -0.399736       -10.8774
  22   2.0000      -0.315204        -8.5771
  23   2.0000      -0.225893        -6.1469
  24   0.0000       0.084599         2.3021
  25   0.0000       0.114050         3.1034
  26   0.0000       0.124656         3.3921
  27   0.0000       0.135992         3.7005
  28   0.0000       0.149211         4.0602

MULLIKEN ATOMIC CHARGES
-----------------------
   0 C :    0.114362
   1 N :   -0.144437
   2 C :   -0.015914
   3 C :   -0.080631
   4 N :   -0.054577
   5 C :   -0.077266
   6 H :   -0.054019
   7 H :   -0.056655
   8 H :    0.085171
   9 H :    0.095044
  10 H :    0.113642
  11 H :    0.020840
  12 H :    0.014691
  13 H :    0.009401
  14 H :    0.016679
  15 H :    0.013670
Sum of atomic charges:   -0.0000000

LOEWDIN ATOMIC CHARGES
----------------------
   0 C :    0.044792
   1 N :   -0.027845
   2 C :   -0.060377
   3 C :    0.027951
   4 N :   -0.020877
   5 C :   -0.249776
   6 H :   -0.009967
   7 H :   -0.010638
   8 H :    0.058642
   9 H :    0.058442
  10 H :    0.080680
  11 H :    0.024537
  12 H :    0.017179
  13 H :    0.019593
  14 H :    0.028070
  15 H :    0.019594

  Mayer bond orders larger than 0.100000
B(  0-C ,  1-N ) :   0.9941 B(  0-C ,  2-C ) :   1.1078 B(  0-C , 11-H ) :   0.9418
B(  0-C , 12-H ) :   0.9557 B(  1-N ,  3-C ) :   1.1966 B(  1-N ,  8-H ) :   0.9386
B(  2-C , 13-H ) :   0.9734 B(  2-C , 14-H ) :   0.9640 B(  2-C , 15-H ) :   0.9702
B(  3-C ,  4-N ) :   1.2234 B(  3-C ,  5-C ) :   1.7386 B(  4-N ,  9-H ) :   0.9476
B(  4-N , 10-H ) :   0.9471 B(  5-C ,  6-H ) :   0.9401 B(  5-C ,  7-H ) :   0.9392

FINAL SINGLE POINT ENERGY      -267.552514523272

DIPOLE MOMENT
-------------
                                X             Y             Z
Electronic contribution:      3.48443       2.03293      -0.99920
Nuclear contribution   :     -3.34013      -3.37002       1.28371
                        -----------------------------------------
Total Dipole Moment    :      0.14430      -1.33709       0.28451
                        -----------------------------------------
Magnitude (a.u.)       :      1.37462
Magnitude (Debye)      :      3.49400

Rotational constants in cm-1:     0.239537     0.072280     0.060961
Rotational constants in MHz :  7181.153552  2166.902802  1827.551447

                             ****ORCA TERMINATED NORMALLY****
TOTAL RUN TIME: 0 days 0 hours 0 minutes 27 seconds 910 msec
