                         Program Version 5.0.0 -  RELEASE  -
|  1> !CAM-B3LYP RIJCOSX def2-TZVP def2/J TightSCF xyzfile
|  2>
|  3> *xyzfile 0 1 D2.xyz
|  4>
|  5> %MaxCore 64000
|  6>
|  7> %pal nprocs 18
|  8> end
|  9>
| 10> %scf
| 11>   MaxIter 150
| 12> end
| 13>
| 14>
| 15>                          ****END OF INPUT****

CARTESIAN COORDINATES (ANGSTROEM)
---------------------------------
  C      3.905947    2.819855   -3.752920
  N      5.295615    3.131515   -4.105334
  C      3.803511    1.374716   -3.260807
  C      3.939934    0.320362   -4.367729
  H      4.105043   -0.655085   -3.907733
  H      3.022801    0.280517   -4.957117
  C      5.105846    0.668022   -5.305463
  C      5.708619    3.468885   -5.324190
  C      6.904696    3.038954   -5.717084
  N      4.981884    4.293570   -6.097457
  H      5.000546    4.101311   -7.087761
  H      4.084693    4.596899   -5.739652
  H      5.963358    2.526112   -3.642391
  H      7.047164    2.066861   -5.473604
  H      7.198145    3.307994   -6.645225
  H      3.282025    2.949187   -4.640259
  H      3.565254    3.514574   -2.982523
  H      4.574833    1.215157   -2.500443
  H      2.843514    1.260845   -2.751465
  F      4.809132    1.150187   -6.414361
  O      6.267366    0.564999   -4.819481

 Total Charge           Charge          ....    0
 Multiplicity           Mult            ....    1
 Number of Electrons    NEL             ....   78
 Basis Dimension        Dim             ....  376

ORBITAL ENERGIES
----------------

  NO   OCC          E(Eh)            E(eV)
   0   2.0000     -24.836577      -675.8376
   1   2.0000     -19.207119      -522.6523
   2   2.0000     -14.389094      -391.5472
   3   2.0000     -14.386312      -391.4714
   4   2.0000     -10.435429      -283.9625
   5   2.0000     -10.292505      -280.0733
   6   2.0000     -10.284565      -279.8572
   7   2.0000     -10.282317      -279.7961
   8   2.0000     -10.274648      -279.5874
   9   2.0000     -10.135085      -275.7897
  10   2.0000      -1.416707       -38.5505
  11   2.0000      -1.122459       -30.5437
  12   2.0000      -1.053508       -28.6674
  13   2.0000      -0.971296       -26.4303
  14   2.0000      -0.903882       -24.5959
  15   2.0000      -0.826012       -22.4769
  16   2.0000      -0.780895       -21.2492
  17   2.0000      -0.744372       -20.2554
  18   2.0000      -0.700072       -19.0499
  19   2.0000      -0.669653       -18.2222
  20   2.0000      -0.640110       -17.4183
  21   2.0000      -0.623937       -16.9782
  22   2.0000      -0.609460       -16.5843
  23   2.0000      -0.584551       -15.9064
  24   2.0000      -0.568621       -15.4730
  25   2.0000      -0.554985       -15.1019
  26   2.0000      -0.538802       -14.6615
  27   2.0000      -0.513204       -13.9650
  28   2.0000      -0.488196       -13.2845
  29   2.0000      -0.474864       -12.9217
  30   2.0000      -0.464568       -12.6415
  31   2.0000      -0.459944       -12.5157
  32   2.0000      -0.435438       -11.8489
  33   2.0000      -0.433893       -11.8068
  34   2.0000      -0.411451       -11.1962
  35   2.0000      -0.403790       -10.9877
  36   2.0000      -0.350614        -9.5407
  37   2.0000      -0.322774        -8.7831
  38   2.0000      -0.222958        -6.0670
  39   0.0000       0.008608         0.2342
  40   0.0000       0.055930         1.5219
  41   0.0000       0.076021         2.0686
  42   0.0000       0.091206         2.4818
  43   0.0000       0.098943         2.6924

MULLIKEN ATOMIC CHARGES
-----------------------
   0 C :   -0.140045
   1 N :   -0.269265
   2 C :   -0.259402
   3 C :   -0.221702
   4 H :    0.141582
   5 H :    0.122491
   6 C :    0.392101
   7 C :    0.204604
   8 C :   -0.453478
   9 N :   -0.456507
  10 H :    0.240881
  11 H :    0.209767
  12 H :    0.233629
  13 H :    0.132937
  14 H :    0.056375
  15 H :    0.105803
  16 H :    0.130010
  17 H :    0.138317
  18 H :    0.120600
  19 F :   -0.081999
  20 O :   -0.346701
Sum of atomic charges:    0.0000000

LOEWDIN ATOMIC CHARGES
----------------------
   0 C :   -0.284939
   1 N :    0.119878
   2 C :   -0.259690
   3 C :   -0.227548
   4 H :    0.155827
   5 H :    0.141877
   6 C :   -0.496453
   7 C :   -0.491804
   8 C :   -0.339183
   9 N :   -0.016801
  10 H :    0.173213
  11 H :    0.156924
  12 H :    0.200711
  13 H :    0.104039
  14 H :    0.093375
  15 H :    0.129923
  16 H :    0.129135
  17 H :    0.145517
  18 H :    0.142380
  19 F :    0.360740
  20 O :    0.062879

  Mayer bond orders larger than 0.100000
B(  0-C ,  1-N ) :   0.9345 B(  0-C ,  2-C ) :   0.9424 B(  0-C , 15-H ) :   0.9799
B(  0-C , 16-H ) :   0.9752 B(  1-N ,  7-C ) :   1.1733 B(  1-N , 12-H ) :   0.9216
B(  2-C ,  3-C ) :   0.9427 B(  2-C , 17-H ) :   0.9734 B(  2-C , 18-H ) :   0.9740
B(  3-C ,  4-H ) :   0.9601 B(  3-C ,  5-H ) :   0.9623 B(  3-C ,  6-C ) :   0.9662
B(  6-C , 19-F ) :   1.1857 B(  6-C , 20-O ) :   2.0031 B(  7-C ,  8-C ) :   1.6890
B(  7-C ,  9-N ) :   1.0629 B(  8-C , 13-H ) :   0.9651 B(  8-C , 14-H ) :   1.0249
B(  9-N , 10-H ) :   0.9253 B(  9-N , 11-H ) :   0.9386

FINAL SINGLE POINT ENERGY      -519.732790598273

DIPOLE MOMENT
-------------
                                X             Y             Z
Electronic contribution:      2.02623      -3.78297      -5.18295
Nuclear contribution   :     -4.40347       3.21582       5.36161
                        -----------------------------------------
Total Dipole Moment    :     -2.37724      -0.56715       0.17866
                        -----------------------------------------
Magnitude (a.u.)       :      2.45048
Magnitude (Debye)      :      6.22863

Rotational constants in cm-1:     0.061226     0.043199     0.033926
Rotational constants in MHz :  1835.503528  1295.087558  1017.061512

                             ****ORCA TERMINATED NORMALLY****
TOTAL RUN TIME: 0 days 0 hours 0 minutes 38 seconds 712 msec
