                         Program Version 5.0.0 -  RELEASE  -
|  1> !CAM-B3LYP RIJCOSX def2-TZVP def2/J TightSCF xyzfile
|  2>
|  3> *xyzfile 0 1 D3.xyz
|  4>
|  5> %MaxCore 64000
|  6>
|  7> %pal nprocs 18
|  8> end
|  9>
| 10> %scf
| 11>   MaxIter 150
| 12> end
| 13>
| 14>
| 15>                          ****END OF INPUT****

CARTESIAN COORDINATES (ANGSTROEM)
---------------------------------
  C      3.905947    2.819855   -3.752920
  N      5.295615    3.131515   -4.105334
  C      3.803511    1.374716   -3.260807
  C      3.939934    0.320362   -4.367729
  H      4.105043   -0.655085   -3.907733
  H      3.022801    0.280517   -4.957117
  C      5.105846    0.668022   -5.305463
  C      5.708619    3.468885   -5.324190
  N      6.904696    3.038954   -5.717084
  C      4.981884    4.293570   -6.097457
  H      5.000546    4.101311   -7.087761
  H      4.084693    4.596899   -5.739652
  H      5.963358    2.526112   -3.642391
  H      7.047164    2.066861   -5.473604
  H      7.198145    3.307994   -6.645225
  H      3.282025    2.949187   -4.640259
  H      3.565254    3.514574   -2.982523
  H      4.574833    1.215157   -2.500443
  H      2.843514    1.260845   -2.751465
  F      4.809132    1.150187   -6.414361
  O      6.267366    0.564999   -4.819481

 Total Charge           Charge          ....    0
 Multiplicity           Mult            ....    1
 Number of Electrons    NEL             ....   78
 Basis Dimension        Dim             ....  376

ORBITAL ENERGIES
----------------

  NO   OCC          E(Eh)            E(eV)
   0   2.0000     -24.847825      -676.1437
   1   2.0000     -19.225788      -523.1603
   2   2.0000     -14.391426      -391.6106
   3   2.0000     -14.367607      -390.9625
   4   2.0000     -10.451603      -284.4026
   5   2.0000     -10.290325      -280.0140
   6   2.0000     -10.288828      -279.9732
   7   2.0000     -10.285253      -279.8760
   8   2.0000     -10.275910      -279.6217
   9   2.0000     -10.152412      -276.2612
  10   2.0000      -1.427739       -38.8508
  11   2.0000      -1.141522       -31.0624
  12   2.0000      -1.054792       -28.7024
  13   2.0000      -0.969555       -26.3829
  14   2.0000      -0.903196       -24.5772
  15   2.0000      -0.820888       -22.3375
  16   2.0000      -0.784457       -21.3461
  17   2.0000      -0.758469       -20.6390
  18   2.0000      -0.712609       -19.3911
  19   2.0000      -0.651116       -17.7178
  20   2.0000      -0.643092       -17.4994
  21   2.0000      -0.634239       -17.2585
  22   2.0000      -0.617033       -16.7903
  23   2.0000      -0.587117       -15.9763
  24   2.0000      -0.576203       -15.6793
  25   2.0000      -0.555665       -15.1204
  26   2.0000      -0.544948       -14.8288
  27   2.0000      -0.506433       -13.7808
  28   2.0000      -0.498722       -13.5709
  29   2.0000      -0.478242       -13.0136
  30   2.0000      -0.461300       -12.5526
  31   2.0000      -0.459144       -12.4940
  32   2.0000      -0.444702       -12.1009
  33   2.0000      -0.438030       -11.9194
  34   2.0000      -0.425124       -11.5682
  35   2.0000      -0.399922       -10.8824
  36   2.0000      -0.382251       -10.4016
  37   2.0000      -0.316537        -8.6134
  38   2.0000      -0.229347        -6.2408
  39   0.0000      -0.004813        -0.1310
  40   0.0000       0.060801         1.6545
  41   0.0000       0.088099         2.3973
  42   0.0000       0.098138         2.6705
  43   0.0000       0.101186         2.7534

MULLIKEN ATOMIC CHARGES
-----------------------
   0 C :   -0.118796
   1 N :   -0.264949
   2 C :   -0.261407
   3 C :   -0.219242
   4 H :    0.142655
   5 H :    0.129800
   6 C :    0.388345
   7 C :    0.170359
   8 N :   -0.404735
   9 C :   -0.454047
  10 H :    0.082464
  11 H :    0.061418
  12 H :    0.205395
  13 H :    0.236927
  14 H :    0.226006
  15 H :    0.132216
  16 H :    0.129913
  17 H :    0.136103
  18 H :    0.125234
  19 F :   -0.065243
  20 O :   -0.378414
Sum of atomic charges:   -0.0000000

LOEWDIN ATOMIC CHARGES
----------------------
   0 C :   -0.270072
   1 N :    0.125662
   2 C :   -0.259129
   3 C :   -0.224007
   4 H :    0.156331
   5 H :    0.145174
   6 C :   -0.491489
   7 C :   -0.496190
   8 N :   -0.011158
   9 C :   -0.347727
  10 H :    0.095231
  11 H :    0.093776
  12 H :    0.183406
  13 H :    0.154173
  14 H :    0.172693
  15 H :    0.140854
  16 H :    0.131826
  17 H :    0.144168
  18 H :    0.144191
  19 F :    0.371426
  20 O :    0.040861

  Mayer bond orders larger than 0.100000
B(  0-C ,  1-N ) :   0.9318 B(  0-C ,  2-C ) :   0.9418 B(  0-C , 15-H ) :   0.9756
B(  0-C , 16-H ) :   0.9794 B(  1-N ,  7-C ) :   1.1408 B(  1-N , 12-H ) :   0.9288
B(  2-C ,  3-C ) :   0.9396 B(  2-C , 17-H ) :   0.9746 B(  2-C , 18-H ) :   0.9747
B(  3-C ,  4-H ) :   0.9581 B(  3-C ,  5-H ) :   0.9607 B(  3-C ,  6-C ) :   0.9674
B(  6-C , 19-F ) :   1.2119 B(  6-C , 20-O ) :   1.9489 B(  7-C ,  8-N ) :   1.2035
B(  7-C ,  9-C ) :   1.6672 B(  8-N , 13-H ) :   0.8883 B(  8-N , 14-H ) :   0.9287
B(  9-C , 10-H ) :   0.9829 B(  9-C , 11-H ) :   1.0192

FINAL SINGLE POINT ENERGY      -519.752330976431

DIPOLE MOMENT
-------------
                                X             Y             Z
Electronic contribution:      3.55766      -4.88947      -4.87863
Nuclear contribution   :     -4.64021       3.37029       5.31478
                        -----------------------------------------
Total Dipole Moment    :     -1.08255      -1.51918       0.43615
                        -----------------------------------------
Magnitude (a.u.)       :      1.91574
Magnitude (Debye)      :      4.86941

Rotational constants in cm-1:     0.061077     0.043622     0.034103
Rotational constants in MHz :  1831.041375  1307.759852  1022.388536

                             ****ORCA TERMINATED NORMALLY****
TOTAL RUN TIME: 0 days 0 hours 0 minutes 46 seconds 409 msec
