                         Program Version 5.0.0 -  RELEASE  -
|  1> !CAM-B3LYP RIJCOSX def2-TZVP def2/J TightSCF xyzfile
|  2>
|  3> *xyzfile 0 1 D5.xyz
|  4>
|  5> %MaxCore 64000
|  6>
|  7> %pal nprocs 18
|  8> end
|  9>
| 10> %scf
| 11>   MaxIter 150
| 12> end
| 13>
| 14>
| 15>                          ****END OF INPUT****

CARTESIAN COORDINATES (ANGSTROEM)
---------------------------------
  C      3.905947    2.819855   -3.752920
  N      5.295615    3.131515   -4.105334
  C      3.803511    1.374716   -3.260807
  C      3.939934    0.320362   -4.367729
  H      4.105043   -0.655085   -3.907733
  H      3.022801    0.280517   -4.957117
  C      5.105846    0.668022   -5.305463
  C      5.708619    3.468885   -5.324190
  C      6.904696    3.038954   -5.717084
  N      4.981884    4.293570   -6.097457
  H      5.000546    4.101311   -7.087761
  H      4.084693    4.596899   -5.739652
  H      5.963358    2.526112   -3.642391
  H      7.047164    2.066861   -5.473604
  H      7.198145    3.307994   -6.645225
  H      3.282025    2.949187   -4.640259
  H      3.565254    3.514574   -2.982523
  H      4.574833    1.215157   -2.500443
  H      2.843514    1.260845   -2.751465
  O      4.809132    1.150187   -6.414361
  F      6.267366    0.564999   -4.819481

 Total Charge           Charge          ....    0
 Multiplicity           Mult            ....    1
 Number of Electrons    NEL             ....   78
 Basis Dimension        Dim             ....  376

ORBITAL ENERGIES
----------------

  NO   OCC          E(Eh)            E(eV)
   0   2.0000     -24.829999      -675.6586
   1   2.0000     -19.208844      -522.6992
   2   2.0000     -14.394305      -391.6890
   3   2.0000     -14.383072      -391.3833
   4   2.0000     -10.430155      -283.8190
   5   2.0000     -10.291891      -280.0566
   6   2.0000     -10.284528      -279.8562
   7   2.0000     -10.282919      -279.8124
   8   2.0000     -10.276225      -279.6303
   9   2.0000     -10.140090      -275.9259
  10   2.0000      -1.406565       -38.2746
  11   2.0000      -1.127563       -30.6825
  12   2.0000      -1.054954       -28.7067
  13   2.0000      -0.970717       -26.4145
  14   2.0000      -0.904242       -24.6057
  15   2.0000      -0.825871       -22.4731
  16   2.0000      -0.781893       -21.2764
  17   2.0000      -0.739090       -20.1117
  18   2.0000      -0.701190       -19.0803
  19   2.0000      -0.674168       -18.3450
  20   2.0000      -0.633765       -17.2456
  21   2.0000      -0.630685       -17.1618
  22   2.0000      -0.593843       -16.1593
  23   2.0000      -0.581931       -15.8352
  24   2.0000      -0.570574       -15.5261
  25   2.0000      -0.558780       -15.2052
  26   2.0000      -0.536527       -14.5996
  27   2.0000      -0.512277       -13.9398
  28   2.0000      -0.492287       -13.3958
  29   2.0000      -0.473550       -12.8859
  30   2.0000      -0.463085       -12.6012
  31   2.0000      -0.451280       -12.2800
  32   2.0000      -0.441304       -12.0085
  33   2.0000      -0.432836       -11.7781
  34   2.0000      -0.426187       -11.5971
  35   2.0000      -0.390898       -10.6369
  36   2.0000      -0.362547        -9.8654
  37   2.0000      -0.325754        -8.8642
  38   2.0000      -0.223483        -6.0813
  39   0.0000       0.017145         0.4665
  40   0.0000       0.057121         1.5543
  41   0.0000       0.075219         2.0468
  42   0.0000       0.090998         2.4762
  43   0.0000       0.102148         2.7796

MULLIKEN ATOMIC CHARGES
-----------------------
   0 C :   -0.118339
   1 N :   -0.264890
   2 C :   -0.289126
   3 C :   -0.215813
   4 H :    0.133522
   5 H :    0.136484
   6 C :    0.364213
   7 C :    0.246094
   8 C :   -0.423426
   9 N :   -0.462896
  10 H :    0.249440
  11 H :    0.209170
  12 H :    0.213608
  13 H :    0.073565
  14 H :    0.060090
  15 H :    0.113873
  16 H :    0.128393
  17 H :    0.136349
  18 H :    0.122852
  19 O :   -0.291735
  20 F :   -0.121428
Sum of atomic charges:   -0.0000000

LOEWDIN ATOMIC CHARGES
----------------------
   0 C :   -0.281795
   1 N :    0.119539
   2 C :   -0.265541
   3 C :   -0.226511
   4 H :    0.146841
   5 H :    0.153746
   6 C :   -0.503426
   7 C :   -0.480813
   8 C :   -0.341627
   9 N :   -0.008110
  10 H :    0.177411
  11 H :    0.157962
  12 H :    0.193106
  13 H :    0.095818
  14 H :    0.095365
  15 H :    0.135348
  16 H :    0.128825
  17 H :    0.140994
  18 H :    0.143192
  19 O :    0.099213
  20 F :    0.320463

  Mayer bond orders larger than 0.100000
B(  0-C ,  1-N ) :   0.9219 B(  0-C ,  2-C ) :   0.9364 B(  0-C , 15-H ) :   0.9763
B(  0-C , 16-H ) :   0.9736 B(  1-N ,  7-C ) :   1.1712 B(  1-N , 12-H ) :   0.9274
B(  2-C ,  3-C ) :   0.9325 B(  2-C , 17-H ) :   0.9786 B(  2-C , 18-H ) :   0.9721
B(  3-C ,  4-H ) :   0.9607 B(  3-C ,  5-H ) :   0.9731 B(  3-C ,  6-C ) :   0.9732
B(  6-C , 19-O ) :   2.0849 B(  6-C , 20-F ) :   1.1230 B(  7-C ,  8-C ) :   1.6755
B(  7-C ,  9-N ) :   1.0725 B(  8-C , 13-H ) :   0.9857 B(  8-C , 14-H ) :   1.0244
B(  9-N , 10-H ) :   0.9250 B(  9-N , 11-H ) :   0.9399

FINAL SINGLE POINT ENERGY      -519.738564107143

DIPOLE MOMENT
-------------
                                X             Y             Z
Electronic contribution:      4.37322      -4.67688      -2.60100
Nuclear contribution   :     -6.05797       3.87976       3.55209
                        -----------------------------------------
Total Dipole Moment    :     -1.68475      -0.79712       0.95109
                        -----------------------------------------
Magnitude (a.u.)       :      2.09245
Magnitude (Debye)      :      5.31858

Rotational constants in cm-1:     0.061282     0.043164     0.033679
Rotational constants in MHz :  1837.191639  1294.028651  1009.659886

                             ****ORCA TERMINATED NORMALLY****
TOTAL RUN TIME: 0 days 0 hours 0 minutes 32 seconds 584 msec
