                         Program Version 5.0.0 -  RELEASE  -
|  1> !BLYP D3BJ RIJCOSX def2-SVP def2/J TightSCF
|  2> *xyz -1 1
|  3> C         -5.57236       -5.80780       -0.81644
|  4> S         -6.90318       -4.61903       -0.52846
|  5> O         -8.11485       -5.25093       -0.95701
|  6> O         -6.53271       -3.42684       -1.31485
|  7> O         -6.86563       -4.29496        0.91412
|  8> C         -4.45780       -5.94187        0.22919
|  9> H         -5.17735       -5.54257       -1.79771
| 10> H         -6.07420       -6.76889       -0.92127
| 11> H         -3.75515       -6.68239       -0.09144
| 12> H         -4.88182       -6.23486        1.16689
| 13> H         -3.95908       -5.00189        0.34143
| 14> *
| 15> %MaxCore 64000
| 16>
| 17> %pal nprocs 4
| 18> end
| 19>
| 20> %scf
| 21>   MaxIter 150
| 22> end
| 23>
| 24>                          ****END OF INPUT****

CARTESIAN COORDINATES (ANGSTROEM)
---------------------------------
  C     -5.572360   -5.807800   -0.816440
  S     -6.903180   -4.619030   -0.528460
  O     -8.114850   -5.250930   -0.957010
  O     -6.532710   -3.426840   -1.314850
  O     -6.865630   -4.294960    0.914120
  C     -4.457800   -5.941870    0.229190
  H     -5.177350   -5.542570   -1.797710
  H     -6.074200   -6.768890   -0.921270
  H     -3.755150   -6.682390   -0.091440
  H     -4.881820   -6.234860    1.166890
  H     -3.959080   -5.001890    0.341430

 Total Charge           Charge          ....   -1
 Multiplicity           Mult            ....    1
 Number of Electrons    NEL             ....   58
 Basis Dimension        Dim             ....  113

ORBITAL ENERGIES
----------------

  NO   OCC          E(Eh)            E(eV)
   0   2.0000     -88.079080     -2396.7536
   1   2.0000     -18.528779      -504.1937
   2   2.0000     -18.515170      -503.8234
   3   2.0000     -18.512124      -503.7405
   4   2.0000      -9.772923      -265.9348
   5   2.0000      -9.761114      -265.6134
   6   2.0000      -7.622701      -207.4242
   7   2.0000      -5.657243      -153.9414
   8   2.0000      -5.657167      -153.9393
   9   2.0000      -5.656941      -153.9332
  10   2.0000      -0.792708       -21.5707
  11   2.0000      -0.656453       -17.8630
  12   2.0000      -0.632523       -17.2118
  13   2.0000      -0.531832       -14.4719
  14   2.0000      -0.418741       -11.3945
  15   2.0000      -0.291297        -7.9266
  16   2.0000      -0.249939        -6.8012
  17   2.0000      -0.230174        -6.2634
  18   2.0000      -0.200050        -5.4436
  19   2.0000      -0.178274        -4.8511
  20   2.0000      -0.172504        -4.6941
  21   2.0000      -0.152301        -4.1443
  22   2.0000      -0.148803        -4.0491
  23   2.0000      -0.056123        -1.5272
  24   2.0000      -0.054322        -1.4782
  25   2.0000      -0.031482        -0.8567
  26   2.0000      -0.019436        -0.5289
  27   2.0000      -0.009286        -0.2527
  28   2.0000       0.026810         0.7295
  29   0.0000       0.180101         4.9008
  30   0.0000       0.233621         6.3571
  31   0.0000       0.238034         6.4772
  32   0.0000       0.242835         6.6079
  33   0.0000       0.263914         7.1815

MULLIKEN ATOMIC CHARGES
-----------------------
   0 C :   -0.026077
   1 S :    0.763069
   2 O :   -0.518028
   3 O :   -0.569151
   4 O :   -0.560680
   5 C :    0.124832
   6 H :   -0.039285
   7 H :   -0.047039
   8 H :   -0.070005
   9 H :   -0.029915
  10 H :   -0.027721
Sum of atomic charges:   -1.0000000

LOEWDIN ATOMIC CHARGES
----------------------
   0 C :   -0.184059
   1 S :    1.060283
   2 O :   -0.576339
   3 O :   -0.625102
   4 O :   -0.620968
   5 C :   -0.057433
   6 H :   -0.001546
   7 H :   -0.004783
   8 H :   -0.006308
   9 H :    0.007339
  10 H :    0.008916

  Mayer bond orders larger than 0.100000
B(  0-C ,  1-S ) :   0.8556 B(  0-C ,  5-C ) :   1.1001 B(  0-C ,  6-H ) :   0.9284
B(  0-C ,  7-H ) :   0.9270 B(  1-S ,  2-O ) :   1.6595 B(  1-S ,  3-O ) :   1.6082
B(  1-S ,  4-O ) :   1.6173 B(  5-C ,  8-H ) :   0.9407 B(  5-C ,  9-H ) :   0.9553
B(  5-C , 10-H ) :   0.9590

Dispersion correction           -0.020196004
FINAL SINGLE POINT ENERGY      -702.636252769510

DIPOLE MOMENT
-------------
                                X             Y             Z
Electronic contribution:     -6.92700       4.52384      -0.89873
Nuclear contribution   :      8.13140      -5.68016       0.80206
                        -----------------------------------------
Total Dipole Moment    :      1.20441      -1.15632      -0.09667
                        -----------------------------------------
Magnitude (a.u.)       :      1.67243
Magnitude (Debye)      :      4.25097

Rotational constants in cm-1:     0.162101     0.080498     0.079099
Rotational constants in MHz :  4859.669771  2413.267251  2371.338602

                             ****ORCA TERMINATED NORMALLY****
TOTAL RUN TIME: 0 days 0 hours 0 minutes 7 seconds 450 msec
