                         Program Version 5.0.0 -  RELEASE  -
|  1> !BLYP D3BJ RIJCOSX def2-SVP def2/J TightSCF
|  2> *xyz 1 1
|  3> C         -4.38262       -1.67089        1.21620
|  4> N         -5.76354       -1.91517        0.70501
|  5> C         -3.28173       -2.19127        0.29436
|  6> H         -5.84081       -2.11520       -0.30065
|  7> H         -6.40882       -1.14866        0.93612
|  8> H         -6.17478       -2.79061        1.05143
|  9> H         -4.32862       -2.13922        2.19810
| 10> H         -4.26158       -0.59740        1.35725
| 11> H         -3.36057       -1.71407       -0.66008
| 12> H         -3.38775       -3.24919        0.17403
| 13> H         -2.32559       -1.97514        0.72329
| 14> *
| 15> %MaxCore 64000
| 16>
| 17> %pal nprocs 4
| 18> end
| 19>
| 20> %scf
| 21>   MaxIter 150
| 22> end
| 23>
| 24>                          ****END OF INPUT****

CARTESIAN COORDINATES (ANGSTROEM)
---------------------------------
  C     -4.382620   -1.670890    1.216200
  N     -5.763540   -1.915170    0.705010
  C     -3.281730   -2.191270    0.294360
  H     -5.840810   -2.115200   -0.300650
  H     -6.408820   -1.148660    0.936120
  H     -6.174780   -2.790610    1.051430
  H     -4.328620   -2.139220    2.198100
  H     -4.261580   -0.597400    1.357250
  H     -3.360570   -1.714070   -0.660080
  H     -3.387750   -3.249190    0.174030
  H     -2.325590   -1.975140    0.723290

 Total Charge           Charge          ....    1
 Multiplicity           Mult            ....    1
 Number of Electrons    NEL             ....   26
 Basis Dimension        Dim             ....   82

ORBITAL ENERGIES
----------------

  NO   OCC          E(Eh)            E(eV)
   0   2.0000     -14.360262      -390.7626
   1   2.0000     -10.175921      -276.9009
   2   2.0000     -10.099174      -274.8125
   3   2.0000      -1.122138       -30.5349
   4   2.0000      -0.884840       -24.0777
   5   2.0000      -0.780555       -21.2400
   6   2.0000      -0.741258       -20.1706
   7   2.0000      -0.721203       -19.6249
   8   2.0000      -0.649421       -17.6716
   9   2.0000      -0.587786       -15.9945
  10   2.0000      -0.534676       -14.5493
  11   2.0000      -0.518756       -14.1161
  12   2.0000      -0.501065       -13.6347
  13   0.0000      -0.212205        -5.7744
  14   0.0000      -0.160998        -4.3810
  15   0.0000      -0.155584        -4.2336
  16   0.0000      -0.117351        -3.1933
  17   0.0000      -0.077072        -2.0972

MULLIKEN ATOMIC CHARGES
-----------------------
   0 C :    0.007289
   1 N :    0.083209
   2 C :    0.048037
   3 H :    0.180385
   4 H :    0.201490
   5 H :    0.189235
   6 H :    0.073084
   7 H :    0.073676
   8 H :    0.039078
   9 H :    0.034811
  10 H :    0.069706
Sum of atomic charges:    1.0000000

LOEWDIN ATOMIC CHARGES
----------------------
   0 C :    0.056392
   1 N :    0.302108
   2 C :   -0.024871
   3 H :    0.139188
   4 H :    0.146414
   5 H :    0.143711
   6 H :    0.051596
   7 H :    0.051895
   8 H :    0.036817
   9 H :    0.035434
  10 H :    0.061316

  Mayer bond orders larger than 0.100000
B(  0-C ,  1-N ) :   0.9435 B(  0-C ,  2-C ) :   1.1340 B(  0-C ,  6-H ) :   0.9474
B(  0-C ,  7-H ) :   0.9495 B(  1-N ,  3-H ) :   0.9374 B(  1-N ,  4-H ) :   0.9377
B(  1-N ,  5-H ) :   0.9404 B(  2-C ,  8-H ) :   0.9617 B(  2-C ,  9-H ) :   0.9666
B(  2-C , 10-H ) :   0.9496

Dispersion correction           -0.012313259
FINAL SINGLE POINT ENERGY      -135.354554908672

DIPOLE MOMENT
-------------
                                X             Y             Z
Electronic contribution:     -1.84895       0.23795       0.29889
Nuclear contribution   :      0.19437      -0.25358      -0.32106
                        -----------------------------------------
Total Dipole Moment    :     -1.65458      -0.01564      -0.02217
                        -----------------------------------------
Magnitude (a.u.)       :      1.65480
Magnitude (Debye)      :      4.20617

Rotational constants in cm-1:     1.030014     0.272489     0.242697
Rotational constants in MHz : 30879.030706  8169.007780  7275.865152

                             ****ORCA TERMINATED NORMALLY****
TOTAL RUN TIME: 0 days 0 hours 0 minutes 6 seconds 33 msec
