                         Program Version 5.0.0 -  RELEASE  -
|  1> !BLYP D3BJ RIJCOSX def2-SVP def2/J TightSCF
|  2> *xyz 0 1
|  3> C         -5.57236       -5.80780       -0.81644
|  4> S         -6.90318       -4.61903       -0.52846
|  5> F         -8.11485       -5.25093       -0.95701
|  6> O         -6.53271       -3.42684       -1.31485
|  7> O         -6.86563       -4.29496        0.91412
|  8> C         -4.45780       -5.94187        0.22919
|  9> H         -5.17735       -5.54257       -1.79771
| 10> H         -6.07420       -6.76889       -0.92127
| 11> H         -3.75515       -6.68239       -0.09144
| 12> H         -4.88182       -6.23486        1.16689
| 13> H         -3.95908       -5.00189        0.34143
| 14> *
| 15> %MaxCore 64000
| 16>
| 17> %pal nprocs 4
| 18> end
| 19>
| 20> %scf
| 21>   MaxIter 150
| 22> end
| 23>
| 24>                          ****END OF INPUT****

CARTESIAN COORDINATES (ANGSTROEM)
---------------------------------
  C     -5.572360   -5.807800   -0.816440
  S     -6.903180   -4.619030   -0.528460
  F     -8.114850   -5.250930   -0.957010
  O     -6.532710   -3.426840   -1.314850
  O     -6.865630   -4.294960    0.914120
  C     -4.457800   -5.941870    0.229190
  H     -5.177350   -5.542570   -1.797710
  H     -6.074200   -6.768890   -0.921270
  H     -3.755150   -6.682390   -0.091440
  H     -4.881820   -6.234860    1.166890
  H     -3.959080   -5.001890    0.341430

 Total Charge           Charge          ....    0
 Multiplicity           Mult            ....    1
 Number of Electrons    NEL             ....   58
 Basis Dimension        Dim             ....  113

ORBITAL ENERGIES
----------------

  NO   OCC          E(Eh)            E(eV)
   0   2.0000     -88.351525     -2404.1672
   1   2.0000     -24.399974      -663.9570
   2   2.0000     -18.766859      -510.6722
   3   2.0000     -18.765723      -510.6413
   4   2.0000      -9.974038      -271.4074
   5   2.0000      -9.941327      -270.5173
   6   2.0000      -7.897639      -214.9057
   7   2.0000      -5.936510      -161.5406
   8   2.0000      -5.929709      -161.3556
   9   2.0000      -5.928523      -161.3233
  10   2.0000      -1.256990       -34.2044
  11   2.0000      -0.981068       -26.6962
  12   2.0000      -0.881793       -23.9948
  13   2.0000      -0.730197       -19.8697
  14   2.0000      -0.652083       -17.7441
  15   2.0000      -0.599540       -16.3143
  16   2.0000      -0.513658       -13.9774
  17   2.0000      -0.507591       -13.8122
  18   2.0000      -0.477326       -12.9887
  19   2.0000      -0.432313       -11.7638
  20   2.0000      -0.408730       -11.1221
  21   2.0000      -0.379308       -10.3215
  22   2.0000      -0.362952        -9.8764
  23   2.0000      -0.350866        -9.5475
  24   2.0000      -0.337378        -9.1805
  25   2.0000      -0.308294        -8.3891
  26   2.0000      -0.259121        -7.0511
  27   2.0000      -0.251999        -6.8572
  28   2.0000      -0.228950        -6.2300
  29   0.0000       0.004146         0.1128
  30   0.0000       0.018552         0.5048
  31   0.0000       0.050221         1.3666
  32   0.0000       0.058698         1.5973
  33   0.0000       0.073225         1.9926

MULLIKEN ATOMIC CHARGES
-----------------------
   0 C :   -0.076327
   1 S :    0.841945
   2 F :   -0.127374
   3 O :   -0.427136
   4 O :   -0.424244
   5 C :    0.110842
   6 H :    0.042603
   7 H :    0.016724
   8 H :    0.006819
   9 H :    0.014118
  10 H :    0.022031
Sum of atomic charges:   -0.0000000

LOEWDIN ATOMIC CHARGES
----------------------
   0 C :   -0.147848
   1 S :    1.112021
   2 F :   -0.095348
   3 O :   -0.490127
   4 O :   -0.490631
   5 C :   -0.031569
   6 H :    0.033760
   7 H :    0.020762
   8 H :    0.030989
   9 H :    0.027422
  10 H :    0.030568

  Mayer bond orders larger than 0.100000
B(  0-C ,  1-S ) :   0.8909 B(  0-C ,  5-C ) :   1.1119 B(  0-C ,  6-H ) :   0.9265
B(  0-C ,  7-H ) :   0.9241 B(  1-S ,  2-F ) :   1.0542 B(  1-S ,  3-O ) :   1.7572
B(  1-S ,  4-O ) :   1.7651 B(  5-C ,  8-H ) :   0.9493 B(  5-C ,  9-H ) :   0.9612
B(  5-C , 10-H ) :   0.9671

Dispersion correction           -0.019292721
FINAL SINGLE POINT ENERGY      -727.148175141425

DIPOLE MOMENT
-------------
                                X             Y             Z
Electronic contribution:     -9.50839       3.70456      -1.83434
Nuclear contribution   :      9.80704      -5.24335       1.35017
                        -----------------------------------------
Total Dipole Moment    :      0.29865      -1.53879      -0.48417
                        -----------------------------------------
Magnitude (a.u.)       :      1.64057
Magnitude (Debye)      :      4.17000

Rotational constants in cm-1:     0.156316     0.078308     0.076228
Rotational constants in MHz :  4686.224999  2347.601204  2285.245115

                             ****ORCA TERMINATED NORMALLY****
TOTAL RUN TIME: 0 days 0 hours 0 minutes 7 seconds 980 msec
