                         Program Version 5.0.0 -  RELEASE  -
|  1> !BLYP D3BJ RIJCOSX def2-SVP def2/J TightSCF
|  2> *xyz 0 1
|  3> C         -4.38262       -1.67089        1.21620
|  4> C         -5.76354       -1.91517        0.70501
|  5> C         -3.28173       -2.19127        0.29436
|  6> H         -5.84081       -2.11520       -0.30065
|  7> H         -6.40882       -1.14866        0.93612
|  8> H         -6.17478       -2.79061        1.05143
|  9> H         -4.32862       -2.13922        2.19810
| 10> H         -4.26158       -0.59740        1.35725
| 11> H         -3.36057       -1.71407       -0.66008
| 12> H         -3.38775       -3.24919        0.17403
| 13> H         -2.32559       -1.97514        0.72329
| 14> *
| 15> %MaxCore 64000
| 16>
| 17> %pal nprocs 4
| 18> end
| 19>
| 20> %scf
| 21>   MaxIter 150
| 22> end
| 23>
| 24>                          ****END OF INPUT****

CARTESIAN COORDINATES (ANGSTROEM)
---------------------------------
  C     -4.382620   -1.670890    1.216200
  C     -5.763540   -1.915170    0.705010
  C     -3.281730   -2.191270    0.294360
  H     -5.840810   -2.115200   -0.300650
  H     -6.408820   -1.148660    0.936120
  H     -6.174780   -2.790610    1.051430
  H     -4.328620   -2.139220    2.198100
  H     -4.261580   -0.597400    1.357250
  H     -3.360570   -1.714070   -0.660080
  H     -3.387750   -3.249190    0.174030
  H     -2.325590   -1.975140    0.723290

 Total Charge           Charge          ....    0
 Multiplicity           Mult            ....    1
 Number of Electrons    NEL             ....   26
 Basis Dimension        Dim             ....   82

ORBITAL ENERGIES
----------------

  NO   OCC          E(Eh)            E(eV)
   0   2.0000      -9.908515      -269.6244
   1   2.0000      -9.902018      -269.4476
   2   2.0000      -9.885222      -268.9906
   3   2.0000      -0.698033       -18.9944
   4   2.0000      -0.609478       -16.5847
   5   2.0000      -0.516478       -14.0541
   6   2.0000      -0.404755       -11.0140
   7   2.0000      -0.385204       -10.4819
   8   2.0000      -0.356539        -9.7019
   9   2.0000      -0.333063        -9.0631
  10   2.0000      -0.292508        -7.9595
  11   2.0000      -0.285891        -7.7795
  12   2.0000      -0.273751        -7.4491
  13   0.0000       0.042790         1.1644
  14   0.0000       0.087635         2.3847
  15   0.0000       0.088995         2.4217
  16   0.0000       0.091783         2.4975
  17   0.0000       0.124049         3.3755

MULLIKEN ATOMIC CHARGES
-----------------------
   0 C :    0.008071
   1 C :    0.145315
   2 C :    0.083173
   3 H :   -0.052269
   4 H :   -0.035782
   5 H :   -0.046213
   6 H :   -0.024096
   7 H :   -0.026152
   8 H :   -0.014829
   9 H :   -0.017466
  10 H :   -0.019752
Sum of atomic charges:    0.0000000

LOEWDIN ATOMIC CHARGES
----------------------
   0 C :   -0.028368
   1 C :   -0.041745
   2 C :   -0.038396
   3 H :    0.009919
   4 H :    0.012598
   5 H :    0.012509
   6 H :    0.015621
   7 H :    0.014094
   8 H :    0.014715
   9 H :    0.013682
  10 H :    0.015369

  Mayer bond orders larger than 0.100000
B(  0-C ,  1-C ) :   1.1364 B(  0-C ,  2-C ) :   1.1351 B(  0-C ,  6-H ) :   0.9444
B(  0-C ,  7-H ) :   0.9473 B(  1-C ,  3-H ) :   0.9510 B(  1-C ,  4-H ) :   0.9543
B(  1-C ,  5-H ) :   0.9482 B(  2-C ,  8-H ) :   0.9650 B(  2-C ,  9-H ) :   0.9692
B(  2-C , 10-H ) :   0.9594

Dispersion correction           -0.012399011
FINAL SINGLE POINT ENERGY      -118.946978008632

DIPOLE MOMENT
-------------
                                X             Y             Z
Electronic contribution:      0.18606       0.23623       0.33387
Nuclear contribution   :     -0.21528      -0.24783      -0.32864
                        -----------------------------------------
Total Dipole Moment    :     -0.02922      -0.01160       0.00522
                        -----------------------------------------
Magnitude (a.u.)       :      0.03187
Magnitude (Debye)      :      0.08100

Rotational constants in cm-1:     1.037566     0.286459     0.254172
Rotational constants in MHz : 31105.431429  8587.814531  7619.871198

                             ****ORCA TERMINATED NORMALLY****
TOTAL RUN TIME: 0 days 0 hours 0 minutes 6 seconds 80 msec
