                         Program Version 5.0.0 -  RELEASE  -
|  1> !BLYP D3BJ RIJCOSX def2-SVP def2/J TightSCF
|  2> *xyz 0 1
|  3> C         -5.57236       -5.80780       -0.81644
|  4> S         -6.90318       -4.61903       -0.52846
|  5> O         -8.11485       -5.25093       -0.95701
|  6> F         -6.53271       -3.42684       -1.31485
|  7> O         -6.86563       -4.29496        0.91412
|  8> C         -4.45780       -5.94187        0.22919
|  9> H         -5.17735       -5.54257       -1.79771
| 10> H         -6.07420       -6.76889       -0.92127
| 11> H         -3.75515       -6.68239       -0.09144
| 12> H         -4.88182       -6.23486        1.16689
| 13> H         -3.95908       -5.00189        0.34143
| 14> *
| 15> %MaxCore 64000
| 16>
| 17> %pal nprocs 4
| 18> end
| 19>
| 20> %scf
| 21>   MaxIter 150
| 22> end
| 23>
| 24>                          ****END OF INPUT****

CARTESIAN COORDINATES (ANGSTROEM)
---------------------------------
  C     -5.572360   -5.807800   -0.816440
  S     -6.903180   -4.619030   -0.528460
  O     -8.114850   -5.250930   -0.957010
  F     -6.532710   -3.426840   -1.314850
  O     -6.865630   -4.294960    0.914120
  C     -4.457800   -5.941870    0.229190
  H     -5.177350   -5.542570   -1.797710
  H     -6.074200   -6.768890   -0.921270
  H     -3.755150   -6.682390   -0.091440
  H     -4.881820   -6.234860    1.166890
  H     -3.959080   -5.001890    0.341430

 Total Charge           Charge          ....    0
 Multiplicity           Mult            ....    1
 Number of Electrons    NEL             ....   58
 Basis Dimension        Dim             ....  113

ORBITAL ENERGIES
----------------

  NO   OCC          E(Eh)            E(eV)
   0   2.0000     -88.350144     -2404.1296
   1   2.0000     -24.377970      -663.3583
   2   2.0000     -18.781587      -511.0730
   3   2.0000     -18.767488      -510.6893
   4   2.0000      -9.973444      -271.3912
   5   2.0000      -9.940976      -270.5077
   6   2.0000      -7.896203      -214.8666
   7   2.0000      -5.934830      -161.4949
   8   2.0000      -5.928544      -161.3239
   9   2.0000      -5.927307      -161.2902
  10   2.0000      -1.220081       -33.2001
  11   2.0000      -0.998150       -27.1610
  12   2.0000      -0.898389       -24.4464
  13   2.0000      -0.730121       -19.8676
  14   2.0000      -0.639816       -17.4103
  15   2.0000      -0.591117       -16.0851
  16   2.0000      -0.502302       -13.6683
  17   2.0000      -0.481288       -13.0965
  18   2.0000      -0.470624       -12.8063
  19   2.0000      -0.429847       -11.6967
  20   2.0000      -0.410718       -11.1762
  21   2.0000      -0.385559       -10.4916
  22   2.0000      -0.367390        -9.9972
  23   2.0000      -0.348824        -9.4920
  24   2.0000      -0.342775        -9.3274
  25   2.0000      -0.316597        -8.6151
  26   2.0000      -0.272509        -7.4153
  27   2.0000      -0.258545        -7.0354
  28   2.0000      -0.242614        -6.6019
  29   0.0000       0.005577         0.1518
  30   0.0000       0.019571         0.5326
  31   0.0000       0.051714         1.4072
  32   0.0000       0.059137         1.6092
  33   0.0000       0.075741         2.0610

MULLIKEN ATOMIC CHARGES
-----------------------
   0 C :   -0.083856
   1 S :    0.851204
   2 O :   -0.382940
   3 F :   -0.172891
   4 O :   -0.428573
   5 C :    0.108211
   6 H :    0.025451
   7 H :    0.049835
   8 H :    0.004941
   9 H :    0.022772
  10 H :    0.005845
Sum of atomic charges:    0.0000000

LOEWDIN ATOMIC CHARGES
----------------------
   0 C :   -0.149551
   1 S :    1.119723
   2 O :   -0.447382
   3 F :   -0.140035
   4 O :   -0.493462
   5 C :   -0.037707
   6 H :    0.024226
   7 H :    0.040182
   8 H :    0.029901
   9 H :    0.029915
  10 H :    0.024190

  Mayer bond orders larger than 0.100000
B(  0-C ,  1-S ) :   0.8896 B(  0-C ,  5-C ) :   1.0996 B(  0-C ,  6-H ) :   0.9258
B(  0-C ,  7-H ) :   0.9324 B(  1-S ,  2-O ) :   1.8089 B(  1-S ,  3-F ) :   1.0042
B(  1-S ,  4-O ) :   1.7712 B(  5-C ,  8-H ) :   0.9482 B(  5-C ,  9-H ) :   0.9637
B(  5-C , 10-H ) :   0.9662

Dispersion correction           -0.019264349
FINAL SINGLE POINT ENERGY      -727.167796279797

DIPOLE MOMENT
-------------
                                X             Y             Z
Electronic contribution:     -6.86470       6.76324      -2.44998
Nuclear contribution   :      8.15840      -7.14411       1.72305
                        -----------------------------------------
Total Dipole Moment    :      1.29370      -0.38086      -0.72692
                        -----------------------------------------
Magnitude (a.u.)       :      1.53203
Magnitude (Debye)      :      3.89411

Rotational constants in cm-1:     0.153926     0.078297     0.077402
Rotational constants in MHz :  4614.585804  2347.272644  2320.438903

                             ****ORCA TERMINATED NORMALLY****
TOTAL RUN TIME: 0 days 0 hours 0 minutes 7 seconds 191 msec
