                         Program Version 5.0.0 -  RELEASE  -
|  1> !BLYP D3BJ RIJCOSX def2-SVP def2/J TightSCF
|  2> *xyz 0 1
|  3> C         -5.57236       -5.80780       -0.81644
|  4> S         -6.90318       -4.61903       -0.52846
|  5> O         -8.11485       -5.25093       -0.95701
|  6> O         -6.53271       -3.42684       -1.31485
|  7> F         -6.86563       -4.29496        0.91412
|  8> C         -4.45780       -5.94187        0.22919
|  9> H         -5.17735       -5.54257       -1.79771
| 10> H         -6.07420       -6.76889       -0.92127
| 11> H         -3.75515       -6.68239       -0.09144
| 12> H         -4.88182       -6.23486        1.16689
| 13> H         -3.95908       -5.00189        0.34143
| 14> *
| 15> %MaxCore 64000
| 16>
| 17> %pal nprocs 4
| 18> end
| 19>
| 20> %scf
| 21>   MaxIter 150
| 22> end
| 23>
| 24>                          ****END OF INPUT****

CARTESIAN COORDINATES (ANGSTROEM)
---------------------------------
  C     -5.572360   -5.807800   -0.816440
  S     -6.903180   -4.619030   -0.528460
  O     -8.114850   -5.250930   -0.957010
  O     -6.532710   -3.426840   -1.314850
  F     -6.865630   -4.294960    0.914120
  C     -4.457800   -5.941870    0.229190
  H     -5.177350   -5.542570   -1.797710
  H     -6.074200   -6.768890   -0.921270
  H     -3.755150   -6.682390   -0.091440
  H     -4.881820   -6.234860    1.166890
  H     -3.959080   -5.001890    0.341430

 Total Charge           Charge          ....    0
 Multiplicity           Mult            ....    1
 Number of Electrons    NEL             ....   58
 Basis Dimension        Dim             ....  113

ORBITAL ENERGIES
----------------

  NO   OCC          E(Eh)            E(eV)
   0   2.0000     -88.349154     -2404.1027
   1   2.0000     -24.377812      -663.3540
   2   2.0000     -18.781024      -511.0577
   3   2.0000     -18.765110      -510.6246
   4   2.0000      -9.972578      -271.3677
   5   2.0000      -9.948121      -270.7021
   6   2.0000      -7.895284      -214.8416
   7   2.0000      -5.933987      -161.4720
   8   2.0000      -5.927632      -161.2991
   9   2.0000      -5.926309      -161.2631
  10   2.0000      -1.217940       -33.1418
  11   2.0000      -0.998216       -27.1628
  12   2.0000      -0.898109       -24.4388
  13   2.0000      -0.733001       -19.9460
  14   2.0000      -0.637349       -17.3432
  15   2.0000      -0.595722       -16.2104
  16   2.0000      -0.507597       -13.8124
  17   2.0000      -0.481155       -13.0929
  18   2.0000      -0.462019       -12.5722
  19   2.0000      -0.435071       -11.8389
  20   2.0000      -0.405804       -11.0425
  21   2.0000      -0.389356       -10.5949
  22   2.0000      -0.371802       -10.1172
  23   2.0000      -0.357442        -9.7265
  24   2.0000      -0.343335        -9.3426
  25   2.0000      -0.317407        -8.6371
  26   2.0000      -0.272796        -7.4232
  27   2.0000      -0.255560        -6.9541
  28   2.0000      -0.241301        -6.5661
  29   0.0000      -0.004381        -0.1192
  30   0.0000       0.034341         0.9345
  31   0.0000       0.055862         1.5201
  32   0.0000       0.057656         1.5689
  33   0.0000       0.074599         2.0299

MULLIKEN ATOMIC CHARGES
-----------------------
   0 C :   -0.071912
   1 S :    0.851391
   2 O :   -0.382365
   3 O :   -0.432676
   4 F :   -0.173340
   5 C :    0.077917
   6 H :    0.056476
   7 H :    0.037443
   8 H :    0.014250
   9 H :    0.007108
  10 H :    0.015708
Sum of atomic charges:    0.0000000

LOEWDIN ATOMIC CHARGES
----------------------
   0 C :   -0.145069
   1 S :    1.120506
   2 O :   -0.447378
   3 O :   -0.495633
   4 F :   -0.141187
   5 C :   -0.045534
   6 H :    0.042659
   7 H :    0.031365
   8 H :    0.033269
   9 H :    0.021988
  10 H :    0.025013

  Mayer bond orders larger than 0.100000
B(  0-C ,  1-S ) :   0.9017 B(  0-C ,  5-C ) :   1.0929 B(  0-C ,  6-H ) :   0.9303
B(  0-C ,  7-H ) :   0.9305 B(  1-S ,  2-O ) :   1.8073 B(  1-S ,  3-O ) :   1.7635
B(  1-S ,  4-F ) :   1.0055 B(  5-C ,  8-H ) :   0.9526 B(  5-C ,  9-H ) :   0.9679
B(  5-C , 10-H ) :   0.9674

Dispersion correction           -0.019173023
FINAL SINGLE POINT ENERGY      -727.167253667879

DIPOLE MOMENT
-------------
                                X             Y             Z
Electronic contribution:     -7.39290       5.28440       1.28260
Nuclear contribution   :      8.50531      -6.23950      -0.59960
                        -----------------------------------------
Total Dipole Moment    :      1.11241      -0.95510       0.68300
                        -----------------------------------------
Magnitude (a.u.)       :      1.61746
Magnitude (Debye)      :      4.11125

Rotational constants in cm-1:     0.152799     0.080212     0.076962
Rotational constants in MHz :  4580.804531  2404.707790  2307.252710

                             ****ORCA TERMINATED NORMALLY****
TOTAL RUN TIME: 0 days 0 hours 0 minutes 7 seconds 649 msec
