                         Program Version 5.0.0 -  RELEASE  -
|  1> !BLYP D3BJ RIJCOSX def2-TZVP def2/J TightSCF xyzfile
|  2>
|  3> *xyzfile 0 1 D3.xyz
|  4>
|  5> %MaxCore 64000
|  6>
|  7> %pal nprocs 18
|  8> end
|  9>
| 10> %scf
| 11>   MaxIter 150
| 12> end
| 13>
| 14>
| 15>                          ****END OF INPUT****

CARTESIAN COORDINATES (ANGSTROEM)
---------------------------------
  C     -4.382623   -1.670889    1.216201
  C     -5.763539   -1.915170    0.705012
  C     -3.281728   -2.191272    0.294361
  C     -5.572364   -5.807798   -0.816445
  S     -6.903179   -4.619033   -0.528458
  H     -5.840812   -2.115205   -0.300646
  H     -6.408823   -1.148656    0.936124
  H     -6.174781   -2.790606    1.051433
  O     -8.114853   -5.250932   -0.957007
  O     -6.532715   -3.426838   -1.314848
  H     -4.328618   -2.139223    2.198103
  H     -4.261583   -0.597399    1.357248
  F     -6.865632   -4.294957    0.914118
  C     -3.474641   -3.605898   -0.259608
  H     -2.354548   -2.127602    0.871433
  H     -3.166611   -1.499693   -0.545037
  C     -3.827078   -4.661097    0.786174
  H     -2.560559   -3.889391   -0.788050
  H     -4.255932   -3.570040   -1.019300
  C     -4.457800   -5.941875    0.229195
  H     -5.177347   -5.542575   -1.797714
  H     -6.074202   -6.768894   -0.921272
  H     -4.530506   -4.253640    1.511979
  H     -2.933400   -4.932302    1.356825
  H     -3.681064   -6.562236   -0.229885
  H     -4.843942   -6.512728    1.075805

 Total Charge           Charge          ....    0
 Multiplicity           Mult            ....    1
 Number of Electrons    NEL             ....   98
 Basis Dimension        Dim             ....  437

ORBITAL ENERGIES
----------------

  NO   OCC          E(Eh)            E(eV)
   0   2.0000     -88.337081     -2403.7742
   1   2.0000     -24.386528      -663.5912
   2   2.0000     -18.788581      -511.2633
   3   2.0000     -18.774368      -510.8765
   4   2.0000      -9.962352      -271.0894
   5   2.0000      -9.934400      -270.3288
   6   2.0000      -9.912079      -269.7214
   7   2.0000      -9.897642      -269.3285
   8   2.0000      -9.891244      -269.1544
   9   2.0000      -9.881755      -268.8962
  10   2.0000      -9.834651      -267.6144
  11   2.0000      -7.868822      -214.1215
  12   2.0000      -5.901141      -160.5782
  13   2.0000      -5.894315      -160.3925
  14   2.0000      -5.894029      -160.3847
  15   2.0000      -1.250413       -34.0255
  16   2.0000      -1.017117       -27.6772
  17   2.0000      -0.925507       -25.1843
  18   2.0000      -0.757552       -20.6141
  19   2.0000      -0.721467       -19.6321
  20   2.0000      -0.678313       -18.4578
  21   2.0000      -0.654786       -17.8176
  22   2.0000      -0.622175       -16.9302
  23   2.0000      -0.585730       -15.9385
  24   2.0000      -0.552819       -15.0430
  25   2.0000      -0.515961       -14.0400
  26   2.0000      -0.511095       -13.9076
  27   2.0000      -0.488646       -13.2967
  28   2.0000      -0.481850       -13.1118
  29   2.0000      -0.440687       -11.9917
  30   2.0000      -0.434005       -11.8099
  31   2.0000      -0.416485       -11.3331
  32   2.0000      -0.402772       -10.9600
  33   2.0000      -0.397921       -10.8280
  34   2.0000      -0.393194       -10.6993
  35   2.0000      -0.375613       -10.2210
  36   2.0000      -0.352389        -9.5890
  37   2.0000      -0.346858        -9.4385
  38   2.0000      -0.341324        -9.2879
  39   2.0000      -0.338445        -9.2095
  40   2.0000      -0.312870        -8.5136
  41   2.0000      -0.306578        -8.3424
  42   2.0000      -0.300398        -8.1743
  43   2.0000      -0.287993        -7.8367
  44   2.0000      -0.284236        -7.7344
  45   2.0000      -0.277267        -7.5448
  46   2.0000      -0.262820        -7.1517
  47   2.0000      -0.260547        -7.0898
  48   2.0000      -0.241726        -6.5777
  49   0.0000      -0.023375        -0.6361
  50   0.0000       0.006973         0.1897
  51   0.0000       0.020875         0.5680
  52   0.0000       0.024307         0.6614
  53   0.0000       0.029382         0.7995

MULLIKEN ATOMIC CHARGES
-----------------------
   0 C :   -0.121730
   1 C :   -0.402652
   2 C :   -0.144989
   3 C :   -0.260829
   4 S :    0.835982
   5 H :    0.164182
   6 H :    0.092069
   7 H :    0.091066
   8 O :   -0.374852
   9 O :   -0.416879
  10 H :    0.069706
  11 H :    0.071996
  12 F :   -0.108873
  13 C :   -0.145836
  14 H :    0.065735
  15 H :    0.078152
  16 C :   -0.216415
  17 H :    0.069272
  18 H :    0.119255
  19 C :   -0.148342
  20 H :    0.150077
  21 H :    0.144531
  22 H :    0.106923
  23 H :    0.083444
  24 H :    0.094743
  25 H :    0.104265
Sum of atomic charges:    0.0000000

LOEWDIN ATOMIC CHARGES
----------------------
   0 C :   -0.297609
   1 C :   -0.332278
   2 C :   -0.260810
   3 C :   -0.361301
   4 S :    0.532747
   5 H :    0.108531
   6 H :    0.103177
   7 H :    0.087634
   8 O :   -0.231320
   9 O :   -0.258460
  10 H :    0.126003
  11 H :    0.131916
  12 F :    0.084444
  13 C :   -0.265311
  14 H :    0.130106
  15 H :    0.134815
  16 C :   -0.264683
  17 H :    0.131374
  18 H :    0.136994
  19 C :   -0.278178
  20 H :    0.146822
  21 H :    0.141707
  22 H :    0.135094
  23 H :    0.136628
  24 H :    0.143766
  25 H :    0.138193

  Mayer bond orders larger than 0.100000
B(  0-C ,  1-C ) :   0.9114 B(  0-C ,  2-C ) :   0.9805 B(  0-C , 10-H ) :   0.9712
B(  0-C , 11-H ) :   0.9630 B(  1-C ,  5-H ) :   0.9765 B(  1-C ,  6-H ) :   0.9702
B(  1-C ,  7-H ) :   0.9852 B(  2-C , 13-C ) :   0.9739 B(  2-C , 14-H ) :   0.9682
B(  2-C , 15-H ) :   0.9590 B(  3-C ,  4-S ) :   0.9016 B(  3-C , 19-C ) :   0.9483
B(  3-C , 20-H ) :   0.9404 B(  3-C , 21-H ) :   0.9430 B(  4-S ,  8-O ) :   1.9950
B(  4-S ,  9-O ) :   1.8285 B(  4-S , 12-F ) :   1.0835 B( 13-C , 16-C ) :   0.9296
B( 13-C , 17-H ) :   0.9598 B( 13-C , 18-H ) :   0.9614 B( 16-C , 19-C ) :   0.9491
B( 16-C , 22-H ) :   0.9827 B( 16-C , 23-H ) :   0.9577 B( 19-C , 24-H ) :   0.9429
B( 19-C , 25-H ) :   0.9736

Dispersion correction           -0.061620372
FINAL SINGLE POINT ENERGY      -924.257156625246

DIPOLE MOMENT
-------------
                                X             Y             Z
Electronic contribution:    -16.62389      -6.81202      -3.48125
Nuclear contribution   :     17.63907       5.79106       3.97609
                        -----------------------------------------
Total Dipole Moment    :      1.01518      -1.02096       0.49485
                        -----------------------------------------
Magnitude (a.u.)       :      1.52244
Magnitude (Debye)      :      3.86973

Rotational constants in cm-1:     0.048663     0.025472     0.020259
Rotational constants in MHz :  1458.892793   763.621130   607.350055

                             ****ORCA TERMINATED NORMALLY****
TOTAL RUN TIME: 0 days 0 hours 0 minutes 18 seconds 223 msec
