                         Program Version 5.0.0 -  RELEASE  -
|  1> !M062X D3Zero RIJCOSX def2-TZVP def2/J TightSCF
|  2> *xyz -1 1
|  3> C          3.80351        1.37472       -3.26081
|  4> C          3.93993        0.32036       -4.36773
|  5> H          4.10504       -0.65508       -3.90773
|  6> H          3.02280        0.28052       -4.95712
|  7> C          5.10585        0.66802       -5.30546
|  8> O          4.80913        1.15019       -6.41436
|  9> O          6.26737        0.56500       -4.81948
| 10> H          3.64113        2.33595       -3.70189
| 11> H          4.69995        1.39701       -2.67703
| 12> H          2.97435        1.12625       -2.63180
| 13> *
| 14>
| 15> %MaxCore 64000
| 16>
| 17> %pal nprocs 4
| 18> end
| 19>
| 20> %scf
| 21>   MaxIter 150
| 22> end
| 23>
| 24>
| 25>                          ****END OF INPUT****

CARTESIAN COORDINATES (ANGSTROEM)
---------------------------------
  C      3.803510    1.374720   -3.260810
  C      3.939930    0.320360   -4.367730
  H      4.105040   -0.655080   -3.907730
  H      3.022800    0.280520   -4.957120
  C      5.105850    0.668020   -5.305460
  O      4.809130    1.150190   -6.414360
  O      6.267370    0.565000   -4.819480
  H      3.641130    2.335950   -3.701890
  H      4.699950    1.397010   -2.677030
  H      2.974350    1.126250   -2.631800

 Total Charge           Charge          ....   -1
 Multiplicity           Mult            ....    1
 Number of Electrons    NEL             ....   40
 Basis Dimension        Dim             ....  185

ORBITAL ENERGIES
----------------

  NO   OCC          E(Eh)            E(eV)
   0   2.0000     -19.352829      -526.6173
   1   2.0000     -19.348687      -526.5046
   2   2.0000     -10.414172      -283.3840
   3   2.0000     -10.367957      -282.1264
   4   2.0000     -10.353983      -281.7462
   5   2.0000      -0.936383       -25.4803
   6   2.0000      -0.838519       -22.8173
   7   2.0000      -0.698288       -19.0014
   8   2.0000      -0.556163       -15.1340
   9   2.0000      -0.395083       -10.7508
  10   2.0000      -0.358153        -9.7459
  11   2.0000      -0.332711        -9.0535
  12   2.0000      -0.295732        -8.0473
  13   2.0000      -0.280547        -7.6341
  14   2.0000      -0.275487        -7.4964
  15   2.0000      -0.239873        -6.5273
  16   2.0000      -0.227488        -6.1903
  17   2.0000      -0.107062        -2.9133
  18   2.0000      -0.102502        -2.7892
  19   2.0000      -0.099250        -2.7007
  20   0.0000       0.218543         5.9469
  21   0.0000       0.258743         7.0408
  22   0.0000       0.278368         7.5748
  23   0.0000       0.283056         7.7023
  24   0.0000       0.302484         8.2310

MULLIKEN ATOMIC CHARGES
-----------------------
   0 C :   -0.409117
   1 C :   -0.232104
   2 H :    0.072835
   3 H :    0.076378
   4 C :    0.286544
   5 O :   -0.544624
   6 O :   -0.578373
   7 H :    0.120003
   8 H :    0.125018
   9 H :    0.083440
Sum of atomic charges:   -1.0000000

LOEWDIN ATOMIC CHARGES
----------------------
   0 C :   -0.324511
   1 C :   -0.291665
   2 H :    0.118559
   3 H :    0.118862
   4 C :   -0.695192
   5 O :   -0.106298
   6 O :   -0.138789
   7 H :    0.111320
   8 H :    0.113031
   9 H :    0.094683

  Mayer bond orders larger than 0.100000
B(  0-C ,  1-C ) :   0.9375 B(  0-C ,  7-H ) :   0.9813 B(  0-C ,  8-H ) :   0.9722
B(  0-C ,  9-H ) :   0.9782 B(  1-C ,  2-H ) :   0.9657 B(  1-C ,  3-H ) :   0.9682
B(  1-C ,  4-C ) :   0.9309 B(  4-C ,  5-O ) :   1.8527 B(  4-C ,  6-O ) :   1.7997

Dispersion correction           -0.000084286
FINAL SINGLE POINT ENERGY      -267.826628086484

DIPOLE MOMENT
-------------
                                X             Y             Z
Electronic contribution:      3.73434      -0.48619      -4.51056
Nuclear contribution   :     -5.15232       0.33441       5.87398
                        -----------------------------------------
Total Dipole Moment    :     -1.41798      -0.15178       1.36342
                        -----------------------------------------
Magnitude (a.u.)       :      1.97297
Magnitude (Debye)      :      5.01490

Rotational constants in cm-1:     0.295355     0.137164     0.110193
Rotational constants in MHz :  8854.523706  4112.077980  3303.490503

                             ****ORCA TERMINATED NORMALLY****
TOTAL RUN TIME: 0 days 0 hours 0 minutes 17 seconds 289 msec
