                         Program Version 5.0.0 -  RELEASE  -
|  1> !M062X D3Zero RIJCOSX def2-TZVP def2/J TightSCF
|  2> *xyz 1 1
|  3> C          3.90595        2.81985       -3.75292
|  4> N          5.29562        3.13151       -4.10533
|  5> C          3.80351        1.37472       -3.26081
|  6> C          5.70862        3.46889       -5.32419
|  7> N          6.90470        3.03895       -5.71708
|  8> N          4.98188        4.29357       -6.09746
|  9> H          5.00055        4.10131       -7.08776
| 10> H          4.08469        4.59690       -5.73965
| 11> H          5.96336        2.52611       -3.64239
| 12> H          7.04716        2.06686       -5.47360
| 13> H          7.19815        3.30799       -6.64523
| 14> H          3.28202        2.94919       -4.64026
| 15> H          3.56525        3.51457       -2.98252
| 16> H          4.14157        0.71142       -4.02935
| 17> H          2.78528        1.15146       -3.01944
| 18> H          4.41205        1.25066       -2.38949
| 19> *
| 20>
| 21> %MaxCore 64000
| 22>
| 23> %pal nprocs 4
| 24> end
| 25>
| 26> %scf
| 27>   MaxIter 150
| 28> end
| 29>
| 30>
| 31>                          ****END OF INPUT****

CARTESIAN COORDINATES (ANGSTROEM)
---------------------------------
  C      3.905950    2.819850   -3.752920
  N      5.295620    3.131510   -4.105330
  C      3.803510    1.374720   -3.260810
  C      5.708620    3.468890   -5.324190
  N      6.904700    3.038950   -5.717080
  N      4.981880    4.293570   -6.097460
  H      5.000550    4.101310   -7.087760
  H      4.084690    4.596900   -5.739650
  H      5.963360    2.526110   -3.642390
  H      7.047160    2.066860   -5.473600
  H      7.198150    3.307990   -6.645230
  H      3.282020    2.949190   -4.640260
  H      3.565250    3.514570   -2.982520
  H      4.141570    0.711420   -4.029350
  H      2.785280    1.151460   -3.019440
  H      4.412050    1.250660   -2.389490

 Total Charge           Charge          ....    1
 Multiplicity           Mult            ....    1
 Number of Electrons    NEL             ....   48
 Basis Dimension        Dim             ....  246

ORBITAL ENERGIES
----------------

  NO   OCC          E(Eh)            E(eV)
   0   2.0000     -14.975751      -407.5109
   1   2.0000     -14.975656      -407.5083
   2   2.0000     -14.974187      -407.4683
   3   2.0000     -10.879615      -296.0494
   4   2.0000     -10.747793      -292.4623
   5   2.0000     -10.678583      -290.5790
   6   2.0000      -1.336372       -36.3645
   7   2.0000      -1.215602       -33.0782
   8   2.0000      -1.206666       -32.8350
   9   2.0000      -1.031113       -28.0580
  10   2.0000      -0.922140       -25.0927
  11   2.0000      -0.893680       -24.3183
  12   2.0000      -0.854891       -23.2628
  13   2.0000      -0.822740       -22.3879
  14   2.0000      -0.775859       -21.1122
  15   2.0000      -0.757636       -20.6163
  16   2.0000      -0.723597       -19.6901
  17   2.0000      -0.697084       -18.9686
  18   2.0000      -0.668343       -18.1865
  19   2.0000      -0.625966       -17.0334
  20   2.0000      -0.601299       -16.3622
  21   2.0000      -0.586212       -15.9516
  22   2.0000      -0.556779       -15.1507
  23   2.0000      -0.521629       -14.1943
  24   0.0000      -0.153118        -4.1665
  25   0.0000      -0.124063        -3.3759
  26   0.0000      -0.090140        -2.4528
  27   0.0000      -0.075867        -2.0644
  28   0.0000      -0.054873        -1.4932

MULLIKEN ATOMIC CHARGES
-----------------------
   0 C :   -0.160051
   1 N :   -0.287709
   2 C :   -0.443814
   3 C :    0.524288
   4 N :   -0.441432
   5 N :   -0.461891
   6 H :    0.294159
   7 H :    0.297496
   8 H :    0.261473
   9 H :    0.289034
  10 H :    0.287254
  11 H :    0.144655
  12 H :    0.192529
  13 H :    0.149230
  14 H :    0.180847
  15 H :    0.173932
Sum of atomic charges:    1.0000000

LOEWDIN ATOMIC CHARGES
----------------------
   0 C :   -0.279300
   1 N :    0.165265
   2 C :   -0.282505
   3 C :   -0.409326
   4 N :    0.057298
   5 N :    0.059456
   6 H :    0.199050
   7 H :    0.198627
   8 H :    0.213174
   9 H :    0.203290
  10 H :    0.199494
  11 H :    0.137489
  12 H :    0.147054
  13 H :    0.122747
  14 H :    0.139428
  15 H :    0.128757

  Mayer bond orders larger than 0.100000
B(  0-C ,  1-N ) :   0.8331 B(  0-C ,  2-C ) :   0.9445 B(  0-C , 11-H ) :   0.9799
B(  0-C , 12-H ) :   0.9509 B(  1-N ,  3-C ) :   1.3758 B(  1-N ,  8-H ) :   0.9073
B(  2-C , 13-H ) :   0.9636 B(  2-C , 14-H ) :   0.9634 B(  2-C , 15-H ) :   0.9650
B(  3-C ,  4-N ) :   1.2620 B(  3-C ,  5-N ) :   1.2787 B(  4-N ,  9-H ) :   0.8907
B(  4-N , 10-H ) :   0.8986 B(  5-N ,  6-H ) :   0.8873 B(  5-N ,  7-H ) :   0.8974

Dispersion correction           -0.000313006
FINAL SINGLE POINT ENERGY      -284.360011786594

DIPOLE MOMENT
-------------
                                X             Y             Z
Electronic contribution:      3.50172       3.38652      -2.67041
Nuclear contribution   :     -3.31456      -3.64300       1.57303
                        -----------------------------------------
Total Dipole Moment    :      0.18716      -0.25648      -1.09738
                        -----------------------------------------
Magnitude (a.u.)       :      1.14239
Magnitude (Debye)      :      2.90372

Rotational constants in cm-1:     0.229487     0.071000     0.059428
Rotational constants in MHz :  6879.840828  2128.520047  1781.605314

                             ****ORCA TERMINATED NORMALLY****
TOTAL RUN TIME: 0 days 0 hours 0 minutes 34 seconds 52 msec
