                         Program Version 5.0.0 -  RELEASE  -
|  1> !M062X D3Zero RIJCOSX def2-TZVP def2/J TightSCF
|  2> *xyz 0 1
|  3> C          3.80351        1.37472       -3.26081
|  4> C          3.93993        0.32036       -4.36773
|  5> H          4.10504       -0.65508       -3.90773
|  6> H          3.02280        0.28052       -4.95712
|  7> C          5.10585        0.66802       -5.30546
|  8> F          4.80913        1.15019       -6.41436
|  9> O          6.26737        0.56500       -4.81948
| 10> H          3.64113        2.33595       -3.70189
| 11> H          4.69995        1.39701       -2.67703
| 12> H          2.97435        1.12625       -2.63180
| 13> *
| 14>
| 15> %MaxCore 64000
| 16>
| 17> %pal nprocs 4
| 18> end
| 19>
| 20> %scf
| 21>   MaxIter 150
| 22> end
| 23>
| 24>
| 25>                          ****END OF INPUT****

CARTESIAN COORDINATES (ANGSTROEM)
---------------------------------
  C      3.803510    1.374720   -3.260810
  C      3.939930    0.320360   -4.367730
  H      4.105040   -0.655080   -3.907730
  H      3.022800    0.280520   -4.957120
  C      5.105850    0.668020   -5.305460
  F      4.809130    1.150190   -6.414360
  O      6.267370    0.565000   -4.819480
  H      3.641130    2.335950   -3.701890
  H      4.699950    1.397010   -2.677030
  H      2.974350    1.126250   -2.631800

 Total Charge           Charge          ....    0
 Multiplicity           Mult            ....    1
 Number of Electrons    NEL             ....   40
 Basis Dimension        Dim             ....  185

ORBITAL ENERGIES
----------------

  NO   OCC          E(Eh)            E(eV)
   0   2.0000     -25.319540      -688.9797
   1   2.0000     -19.632515      -534.2279
   2   2.0000     -10.720902      -291.7306
   3   2.0000     -10.566787      -287.5369
   4   2.0000     -10.541321      -286.8439
   5   2.0000      -1.473108       -40.0853
   6   2.0000      -1.150867       -31.3167
   7   2.0000      -0.900370       -24.5003
   8   2.0000      -0.788752       -21.4630
   9   2.0000      -0.734884       -19.9972
  10   2.0000      -0.649187       -17.6653
  11   2.0000      -0.636833       -17.3291
  12   2.0000      -0.592255       -16.1161
  13   2.0000      -0.537562       -14.6278
  14   2.0000      -0.510571       -13.8934
  15   2.0000      -0.466989       -12.7074
  16   2.0000      -0.448864       -12.2142
  17   2.0000      -0.438743       -11.9388
  18   2.0000      -0.412493       -11.2245
  19   2.0000      -0.367348        -9.9961
  20   0.0000       0.014695         0.3999
  21   0.0000       0.065161         1.7731
  22   0.0000       0.105426         2.8688
  23   0.0000       0.120215         3.2712
  24   0.0000       0.132869         3.6156

MULLIKEN ATOMIC CHARGES
-----------------------
   0 C :   -0.412856
   1 C :   -0.278831
   2 H :    0.156490
   3 H :    0.136510
   4 C :    0.418302
   5 F :   -0.105406
   6 O :   -0.359160
   7 H :    0.140676
   8 H :    0.161503
   9 H :    0.142773
Sum of atomic charges:    0.0000000

LOEWDIN ATOMIC CHARGES
----------------------
   0 C :   -0.287070
   1 C :   -0.258720
   2 H :    0.152307
   3 H :    0.139093
   4 C :   -0.491806
   5 F :    0.333083
   6 O :    0.045924
   7 H :    0.120563
   8 H :    0.126167
   9 H :    0.120459

  Mayer bond orders larger than 0.100000
B(  0-C ,  1-C ) :   0.9394 B(  0-C ,  7-H ) :   0.9695 B(  0-C ,  8-H ) :   0.9671
B(  0-C ,  9-H ) :   0.9734 B(  1-C ,  2-H ) :   0.9571 B(  1-C ,  3-H ) :   0.9645
B(  1-C ,  4-C ) :   0.9784 B(  4-C ,  5-F ) :   1.1503 B(  4-C ,  6-O ) :   2.0291

Dispersion correction           -0.000088712
FINAL SINGLE POINT ENERGY      -292.388463008453

DIPOLE MOMENT
-------------
                                X             Y             Z
Electronic contribution:      3.98158      -0.01575      -7.42725
Nuclear contribution   :     -5.17129      -0.01923       7.59895
                        -----------------------------------------
Total Dipole Moment    :     -1.18972      -0.03499       0.17169
                        -----------------------------------------
Magnitude (a.u.)       :      1.20255
Magnitude (Debye)      :      3.05664

Rotational constants in cm-1:     0.282073     0.131822     0.105134
Rotational constants in MHz :  8456.328792  3951.925810  3151.840112

                             ****ORCA TERMINATED NORMALLY****
TOTAL RUN TIME: 0 days 0 hours 0 minutes 20 seconds 979 msec
