                         Program Version 5.0.0 -  RELEASE  -
|  1> !M062X D3Zero RIJCOSX def2-TZVP def2/J TightSCF
|  2> *xyz 0 1
|  3> C          3.90595        2.81985       -3.75292
|  4> C          5.29562        3.13151       -4.10533
|  5> C          3.80351        1.37472       -3.26081
|  6> C          5.70862        3.46889       -5.32419
|  7> N          6.90470        3.03895       -5.71708
|  8> N          4.98188        4.29357       -6.09746
|  9> H          5.00055        4.10131       -7.08776
| 10> H          4.08469        4.59690       -5.73965
| 11> H          5.96336        2.52611       -3.64239
| 12> H          7.04716        2.06686       -5.47360
| 13> H          7.19815        3.30799       -6.64523
| 14> H          3.28202        2.94919       -4.64026
| 15> H          3.56525        3.51457       -2.98252
| 16> H          4.14157        0.71142       -4.02935
| 17> H          2.78528        1.15146       -3.01944
| 18> H          4.41205        1.25066       -2.38949
| 19> *
| 20>
| 21> %MaxCore 64000
| 22>
| 23> %pal nprocs 4
| 24> end
| 25>
| 26> %scf
| 27>   MaxIter 150
| 28> end
| 29>
| 30>
| 31>                          ****END OF INPUT****

CARTESIAN COORDINATES (ANGSTROEM)
---------------------------------
  C      3.905950    2.819850   -3.752920
  C      5.295620    3.131510   -4.105330
  C      3.803510    1.374720   -3.260810
  C      5.708620    3.468890   -5.324190
  N      6.904700    3.038950   -5.717080
  N      4.981880    4.293570   -6.097460
  H      5.000550    4.101310   -7.087760
  H      4.084690    4.596900   -5.739650
  H      5.963360    2.526110   -3.642390
  H      7.047160    2.066860   -5.473600
  H      7.198150    3.307990   -6.645230
  H      3.282020    2.949190   -4.640260
  H      3.565250    3.514570   -2.982520
  H      4.141570    0.711420   -4.029350
  H      2.785280    1.151460   -3.019440
  H      4.412050    1.250660   -2.389490

 Total Charge           Charge          ....    0
 Multiplicity           Mult            ....    1
 Number of Electrons    NEL             ....   48
 Basis Dimension        Dim             ....  246

ORBITAL ENERGIES
----------------

  NO   OCC          E(Eh)            E(eV)
   0   2.0000     -14.750094      -401.3705
   1   2.0000     -14.746615      -401.2758
   2   2.0000     -10.580382      -287.9068
   3   2.0000     -10.511780      -286.0401
   4   2.0000     -10.503796      -285.8228
   5   2.0000     -10.461400      -284.6692
   6   2.0000      -1.076843       -29.3024
   7   2.0000      -0.981328       -26.7033
   8   2.0000      -0.876075       -23.8392
   9   2.0000      -0.788389       -21.4532
  10   2.0000      -0.698758       -19.0142
  11   2.0000      -0.655197       -17.8288
  12   2.0000      -0.609246       -16.5784
  13   2.0000      -0.584913       -15.9163
  14   2.0000      -0.546945       -14.8831
  15   2.0000      -0.515904       -14.0385
  16   2.0000      -0.488327       -13.2881
  17   2.0000      -0.457797       -12.4573
  18   2.0000      -0.437102       -11.8942
  19   2.0000      -0.412961       -11.2373
  20   2.0000      -0.388286       -10.5658
  21   2.0000      -0.384803       -10.4710
  22   2.0000      -0.341038        -9.2801
  23   2.0000      -0.222402        -6.0519
  24   0.0000       0.047154         1.2831
  25   0.0000       0.080921         2.2020
  26   0.0000       0.086867         2.3638
  27   0.0000       0.099944         2.7196
  28   0.0000       0.111400         3.0314

MULLIKEN ATOMIC CHARGES
-----------------------
   0 C :   -0.238604
   1 C :   -0.311033
   2 C :   -0.424283
   3 C :    0.400061
   4 N :   -0.540101
   5 N :   -0.544841
   6 H :    0.222717
   7 H :    0.254887
   8 H :    0.093650
   9 H :    0.257834
  10 H :    0.223913
  11 H :    0.081504
  12 H :    0.133770
  13 H :    0.122684
  14 H :    0.128832
  15 H :    0.139009
Sum of atomic charges:    0.0000000

LOEWDIN ATOMIC CHARGES
----------------------
   0 C :   -0.310990
   1 C :   -0.272586
   2 C :   -0.302846
   3 C :   -0.471227
   4 N :   -0.022374
   5 N :   -0.026280
   6 H :    0.158218
   7 H :    0.176595
   8 H :    0.126537
   9 H :    0.182212
  10 H :    0.162203
  11 H :    0.127170
  12 H :    0.131360
  13 H :    0.113012
  14 H :    0.112175
  15 H :    0.116821

  Mayer bond orders larger than 0.100000
B(  0-C ,  1-C ) :   0.9235 B(  0-C ,  2-C ) :   0.9269 B(  0-C , 11-H ) :   0.9786
B(  0-C , 12-H ) :   0.9745 B(  1-C ,  3-C ) :   1.6589 B(  1-C ,  8-H ) :   1.0525
B(  2-C , 13-H ) :   0.9764 B(  2-C , 14-H ) :   0.9815 B(  2-C , 15-H ) :   0.9820
B(  3-C ,  4-N ) :   1.0434 B(  3-C ,  5-N ) :   1.0834 B(  4-N ,  9-H ) :   0.9190
B(  4-N , 10-H ) :   0.9338 B(  5-N ,  6-H ) :   0.9162 B(  5-N ,  7-H ) :   0.9253

Dispersion correction           -0.000311309
FINAL SINGLE POINT ENERGY      -267.881967350127

DIPOLE MOMENT
-------------
                                X             Y             Z
Electronic contribution:      3.16721       3.24224      -2.86110
Nuclear contribution   :     -3.27358      -3.61654       1.70633
                        -----------------------------------------
Total Dipole Moment    :     -0.10636      -0.37430      -1.15477
                        -----------------------------------------
Magnitude (a.u.)       :      1.21857
Magnitude (Debye)      :      3.09736

Rotational constants in cm-1:     0.231961     0.071249     0.059473
Rotational constants in MHz :  6954.024434  2135.976855  1782.962814

                             ****ORCA TERMINATED NORMALLY****
TOTAL RUN TIME: 0 days 0 hours 0 minutes 35 seconds 608 msec
