                         Program Version 5.0.0 -  RELEASE  -
|  1> !M062X D3Zero RIJCOSX def2-TZVP def2/J TightSCF
|  2> *xyz 0 1
|  3> C          3.80351        1.37472       -3.26081
|  4> C          3.93993        0.32036       -4.36773
|  5> H          4.10504       -0.65508       -3.90773
|  6> H          3.02280        0.28052       -4.95712
|  7> C          5.10585        0.66802       -5.30546
|  8> O          4.80913        1.15019       -6.41436
|  9> F          6.26737        0.56500       -4.81948
| 10> H          3.64113        2.33595       -3.70189
| 11> H          4.69995        1.39701       -2.67703
| 12> H          2.97435        1.12625       -2.63180
| 13> *
| 14>
| 15> %MaxCore 64000
| 16>
| 17> %pal nprocs 4
| 18> end
| 19>
| 20> %scf
| 21>   MaxIter 150
| 22> end
| 23>
| 24>
| 25>                          ****END OF INPUT****

CARTESIAN COORDINATES (ANGSTROEM)
---------------------------------
  C      3.803510    1.374720   -3.260810
  C      3.939930    0.320360   -4.367730
  H      4.105040   -0.655080   -3.907730
  H      3.022800    0.280520   -4.957120
  C      5.105850    0.668020   -5.305460
  O      4.809130    1.150190   -6.414360
  F      6.267370    0.565000   -4.819480
  H      3.641130    2.335950   -3.701890
  H      4.699950    1.397010   -2.677030
  H      2.974350    1.126250   -2.631800

 Total Charge           Charge          ....    0
 Multiplicity           Mult            ....    1
 Number of Electrons    NEL             ....   40
 Basis Dimension        Dim             ....  185

ORBITAL ENERGIES
----------------

  NO   OCC          E(Eh)            E(eV)
   0   2.0000     -25.312745      -688.7948
   1   2.0000     -19.635328      -534.3044
   2   2.0000     -10.718680      -291.6701
   3   2.0000     -10.566322      -287.5242
   4   2.0000     -10.543927      -286.9148
   5   2.0000      -1.459262       -39.7085
   6   2.0000      -1.162535       -31.6342
   7   2.0000      -0.902119       -24.5479
   8   2.0000      -0.781884       -21.2762
   9   2.0000      -0.733256       -19.9529
  10   2.0000      -0.642384       -17.4802
  11   2.0000      -0.632021       -17.1982
  12   2.0000      -0.589689       -16.0462
  13   2.0000      -0.538021       -14.6403
  14   2.0000      -0.511977       -13.9316
  15   2.0000      -0.472317       -12.8524
  16   2.0000      -0.454715       -12.3734
  17   2.0000      -0.439259       -11.9528
  18   2.0000      -0.421401       -11.4669
  19   2.0000      -0.367315        -9.9951
  20   0.0000       0.019848         0.5401
  21   0.0000       0.063099         1.7170
  22   0.0000       0.104684         2.8486
  23   0.0000       0.121662         3.3106
  24   0.0000       0.138861         3.7786

MULLIKEN ATOMIC CHARGES
-----------------------
   0 C :   -0.415483
   1 C :   -0.280456
   2 H :    0.143943
   3 H :    0.156061
   4 C :    0.407286
   5 O :   -0.333969
   6 F :   -0.121689
   7 H :    0.152300
   8 H :    0.146463
   9 H :    0.145542
Sum of atomic charges:   -0.0000000

LOEWDIN ATOMIC CHARGES
----------------------
   0 C :   -0.291011
   1 C :   -0.256154
   2 H :    0.143175
   3 H :    0.151435
   4 C :   -0.490424
   5 O :    0.072047
   6 F :    0.304406
   7 H :    0.123896
   8 H :    0.120802
   9 H :    0.121827

  Mayer bond orders larger than 0.100000
B(  0-C ,  1-C ) :   0.9319 B(  0-C ,  7-H ) :   0.9674 B(  0-C ,  8-H ) :   0.9694
B(  0-C ,  9-H ) :   0.9727 B(  1-C ,  2-H ) :   0.9527 B(  1-C ,  3-H ) :   0.9692
B(  1-C ,  4-C ) :   0.9939 B(  4-C ,  5-O ) :   2.0622 B(  4-C ,  6-F ) :   1.1255

Dispersion correction           -0.000090414
FINAL SINGLE POINT ENERGY      -292.394020526575

DIPOLE MOMENT
-------------
                                X             Y             Z
Electronic contribution:      6.39614      -0.99273      -4.76372
Nuclear contribution   :     -6.76123       0.61881       5.86003
                        -----------------------------------------
Total Dipole Moment    :     -0.36509      -0.37392       1.09631
                        -----------------------------------------
Magnitude (a.u.)       :      1.21450
Magnitude (Debye)      :      3.08701

Rotational constants in cm-1:     0.275298     0.134631     0.105723
Rotational constants in MHz :  8253.224169  4036.137572  3169.487264

                             ****ORCA TERMINATED NORMALLY****
TOTAL RUN TIME: 0 days 0 hours 0 minutes 22 seconds 390 msec
