                         Program Version 5.0.0 -  RELEASE  -
|  1> !M062X D3Zero RIJCOSX def2-TZVP def2/J TightSCF
|  2> *xyz 0 1
|  3> C          3.90595        2.81985       -3.75292
|  4> N          5.29562        3.13151       -4.10533
|  5> C          3.80351        1.37472       -3.26081
|  6> C          5.70862        3.46889       -5.32419
|  7> C          6.90470        3.03895       -5.71708
|  8> N          4.98188        4.29357       -6.09746
|  9> H          5.00055        4.10131       -7.08776
| 10> H          4.08469        4.59690       -5.73965
| 11> H          5.96336        2.52611       -3.64239
| 12> H          7.04716        2.06686       -5.47360
| 13> H          7.19815        3.30799       -6.64523
| 14> H          3.28202        2.94919       -4.64026
| 15> H          3.56525        3.51457       -2.98252
| 16> H          4.14157        0.71142       -4.02935
| 17> H          2.78528        1.15146       -3.01944
| 18> H          4.41205        1.25066       -2.38949
| 19> *
| 20>
| 21> %MaxCore 64000
| 22>
| 23> %pal nprocs 4
| 24> end
| 25>
| 26> %scf
| 27>   MaxIter 150
| 28> end
| 29>
| 30>
| 31>                          ****END OF INPUT****

CARTESIAN COORDINATES (ANGSTROEM)
---------------------------------
  C      3.905950    2.819850   -3.752920
  N      5.295620    3.131510   -4.105330
  C      3.803510    1.374720   -3.260810
  C      5.708620    3.468890   -5.324190
  C      6.904700    3.038950   -5.717080
  N      4.981880    4.293570   -6.097460
  H      5.000550    4.101310   -7.087760
  H      4.084690    4.596900   -5.739650
  H      5.963360    2.526110   -3.642390
  H      7.047160    2.066860   -5.473600
  H      7.198150    3.307990   -6.645230
  H      3.282020    2.949190   -4.640260
  H      3.565250    3.514570   -2.982520
  H      4.141570    0.711420   -4.029350
  H      2.785280    1.151460   -3.019440
  H      4.412050    1.250660   -2.389490

 Total Charge           Charge          ....    0
 Multiplicity           Mult            ....    1
 Number of Electrons    NEL             ....   48
 Basis Dimension        Dim             ....  246

ORBITAL ENERGIES
----------------

  NO   OCC          E(Eh)            E(eV)
   0   2.0000     -14.750125      -401.3713
   1   2.0000     -14.748958      -401.3395
   2   2.0000     -10.585480      -288.0455
   3   2.0000     -10.576547      -287.8025
   4   2.0000     -10.533358      -286.6272
   5   2.0000     -10.447058      -284.2789
   6   2.0000      -1.082284       -29.4505
   7   2.0000      -0.993809       -27.0429
   8   2.0000      -0.871686       -23.7198
   9   2.0000      -0.800906       -21.7938
  10   2.0000      -0.717450       -19.5228
  11   2.0000      -0.677101       -18.4249
  12   2.0000      -0.608436       -16.5564
  13   2.0000      -0.567218       -15.4348
  14   2.0000      -0.556976       -15.1561
  15   2.0000      -0.521438       -14.1890
  16   2.0000      -0.492441       -13.4000
  17   2.0000      -0.469845       -12.7851
  18   2.0000      -0.445317       -12.1177
  19   2.0000      -0.437110       -11.8944
  20   2.0000      -0.434747       -11.8301
  21   2.0000      -0.405078       -11.0227
  22   2.0000      -0.325585        -8.8596
  23   2.0000      -0.227074        -6.1790
  24   0.0000       0.052690         1.4338
  25   0.0000       0.073469         1.9992
  26   0.0000       0.088929         2.4199
  27   0.0000       0.096929         2.6376
  28   0.0000       0.113237         3.0813

MULLIKEN ATOMIC CHARGES
-----------------------
   0 C :   -0.132013
   1 N :   -0.343511
   2 C :   -0.445756
   3 C :    0.403275
   4 C :   -0.515449
   5 N :   -0.541440
   6 H :    0.258845
   7 H :    0.231930
   8 H :    0.233637
   9 H :    0.091805
  10 H :    0.073978
  11 H :    0.114434
  12 H :    0.140442
  13 H :    0.147059
  14 H :    0.137066
  15 H :    0.145699
Sum of atomic charges:   -0.0000000

LOEWDIN ATOMIC CHARGES
----------------------
   0 C :   -0.308312
   1 N :    0.106322
   2 C :   -0.307355
   3 C :   -0.470205
   4 C :   -0.348371
   5 N :   -0.017655
   6 H :    0.176907
   7 H :    0.162205
   8 H :    0.197767
   9 H :    0.103093
  10 H :    0.096431
  11 H :    0.126360
  12 H :    0.125457
  13 H :    0.119824
  14 H :    0.119698
  15 H :    0.117835

  Mayer bond orders larger than 0.100000
B(  0-C ,  1-N ) :   0.8995 B(  0-C ,  2-C ) :   0.9446 B(  0-C , 11-H ) :   0.9805
B(  0-C , 12-H ) :   0.9665 B(  1-N ,  3-C ) :   1.1873 B(  1-N ,  8-H ) :   0.9271
B(  2-C , 13-H ) :   0.9708 B(  2-C , 14-H ) :   0.9759 B(  2-C , 15-H ) :   0.9751
B(  3-C ,  4-C ) :   1.6569 B(  3-C ,  5-N ) :   1.0488 B(  4-C ,  9-H ) :   0.9885
B(  4-C , 10-H ) :   1.0267 B(  5-N ,  6-H ) :   0.9193 B(  5-N ,  7-H ) :   0.9332

Dispersion correction           -0.000307957
FINAL SINGLE POINT ENERGY      -267.871380925136

DIPOLE MOMENT
-------------
                                X             Y             Z
Electronic contribution:      1.50665       3.23406      -1.28303
Nuclear contribution   :     -2.93222      -3.63618       1.36440
                        -----------------------------------------
Total Dipole Moment    :     -1.42557      -0.40212       0.08138
                        -----------------------------------------
Magnitude (a.u.)       :      1.48343
Magnitude (Debye)      :      3.77058

Rotational constants in cm-1:     0.237993     0.072843     0.061284
Rotational constants in MHz :  7134.860770  2183.763760  1837.240960

                             ****ORCA TERMINATED NORMALLY****
TOTAL RUN TIME: 0 days 0 hours 0 minutes 40 seconds 562 msec
