                         Program Version 5.0.0 -  RELEASE  -
|  1> !M062X D3Zero RIJCOSX def2-TZVP def2/J TightSCF
|  2> *xyz 0 1
|  3> C          3.90595        2.81985       -3.75292
|  4> N          5.29562        3.13151       -4.10533
|  5> C          3.80351        1.37472       -3.26081
|  6> C          5.70862        3.46889       -5.32419
|  7> N          6.90470        3.03895       -5.71708
|  8> C          4.98188        4.29357       -6.09746
|  9> H          5.00055        4.10131       -7.08776
| 10> H          4.08469        4.59690       -5.73965
| 11> H          5.96336        2.52611       -3.64239
| 12> H          7.04716        2.06686       -5.47360
| 13> H          7.19815        3.30799       -6.64523
| 14> H          3.28202        2.94919       -4.64026
| 15> H          3.56525        3.51457       -2.98252
| 16> H          4.14157        0.71142       -4.02935
| 17> H          2.78528        1.15146       -3.01944
| 18> H          4.41205        1.25066       -2.38949
| 19> *
| 20>
| 21> %MaxCore 64000
| 22>
| 23> %pal nprocs 4
| 24> end
| 25>
| 26> %scf
| 27>   MaxIter 150
| 28> end
| 29>
| 30>
| 31>                          ****END OF INPUT****

CARTESIAN COORDINATES (ANGSTROEM)
---------------------------------
  C      3.905950    2.819850   -3.752920
  N      5.295620    3.131510   -4.105330
  C      3.803510    1.374720   -3.260810
  C      5.708620    3.468890   -5.324190
  N      6.904700    3.038950   -5.717080
  C      4.981880    4.293570   -6.097460
  H      5.000550    4.101310   -7.087760
  H      4.084690    4.596900   -5.739650
  H      5.963360    2.526110   -3.642390
  H      7.047160    2.066860   -5.473600
  H      7.198150    3.307990   -6.645230
  H      3.282020    2.949190   -4.640260
  H      3.565250    3.514570   -2.982520
  H      4.141570    0.711420   -4.029350
  H      2.785280    1.151460   -3.019440
  H      4.412050    1.250660   -2.389490

 Total Charge           Charge          ....    0
 Multiplicity           Mult            ....    1
 Number of Electrons    NEL             ....   48
 Basis Dimension        Dim             ....  246

ORBITAL ENERGIES
----------------

  NO   OCC          E(Eh)            E(eV)
   0   2.0000     -14.750963      -401.3941
   1   2.0000     -14.749040      -401.3418
   2   2.0000     -10.584293      -288.0132
   3   2.0000     -10.570839      -287.6471
   4   2.0000     -10.531167      -286.5676
   5   2.0000     -10.452592      -284.4295
   6   2.0000      -1.087262       -29.5859
   7   2.0000      -0.995573       -27.0909
   8   2.0000      -0.859999       -23.4018
   9   2.0000      -0.802554       -21.8386
  10   2.0000      -0.730912       -19.8891
  11   2.0000      -0.647253       -17.6126
  12   2.0000      -0.610993       -16.6260
  13   2.0000      -0.591552       -16.0970
  14   2.0000      -0.544437       -14.8149
  15   2.0000      -0.526138       -14.3169
  16   2.0000      -0.475362       -12.9352
  17   2.0000      -0.467130       -12.7113
  18   2.0000      -0.458281       -12.4705
  19   2.0000      -0.438249       -11.9254
  20   2.0000      -0.426365       -11.6020
  21   2.0000      -0.406057       -11.0494
  22   2.0000      -0.322988        -8.7889
  23   2.0000      -0.230273        -6.2660
  24   0.0000       0.049286         1.3411
  25   0.0000       0.080082         2.1792
  26   0.0000       0.093373         2.5408
  27   0.0000       0.096879         2.6362
  28   0.0000       0.113860         3.0983

MULLIKEN ATOMIC CHARGES
-----------------------
   0 C :   -0.114646
   1 N :   -0.366036
   2 C :   -0.446413
   3 C :    0.426849
   4 N :   -0.529730
   5 C :   -0.527952
   6 H :    0.103937
   7 H :    0.080341
   8 H :    0.200583
   9 H :    0.219221
  10 H :    0.251819
  11 H :    0.142609
  12 H :    0.139248
  13 H :    0.138355
  14 H :    0.138845
  15 H :    0.142970
Sum of atomic charges:    0.0000000

LOEWDIN ATOMIC CHARGES
----------------------
   0 C :   -0.293498
   1 N :    0.108348
   2 C :   -0.310662
   3 C :   -0.479628
   4 N :   -0.022605
   5 C :   -0.335125
   6 H :    0.098391
   7 H :    0.097130
   8 H :    0.180280
   9 H :    0.161946
  10 H :    0.178336
  11 H :    0.136873
  12 H :    0.127565
  13 H :    0.116350
  14 H :    0.120546
  15 H :    0.115754

  Mayer bond orders larger than 0.100000
B(  0-C ,  1-N ) :   0.8975 B(  0-C ,  2-C ) :   0.9411 B(  0-C , 11-H ) :   0.9758
B(  0-C , 12-H ) :   0.9693 B(  1-N ,  3-C ) :   1.1318 B(  1-N ,  8-H ) :   0.9384
B(  2-C , 13-H ) :   0.9723 B(  2-C , 14-H ) :   0.9764 B(  2-C , 15-H ) :   0.9760
B(  3-C ,  4-N ) :   1.0741 B(  3-C ,  5-C ) :   1.5992 B(  4-N ,  9-H ) :   0.9176
B(  4-N , 10-H ) :   0.9245 B(  5-C ,  6-H ) :   0.9805 B(  5-C ,  7-H ) :   1.0261

Dispersion correction           -0.000310601
FINAL SINGLE POINT ENERGY      -267.876210761000

DIPOLE MOMENT
-------------
                                X             Y             Z
Electronic contribution:      3.38200       2.05568      -0.99355
Nuclear contribution   :     -3.34013      -3.37002       1.28371
                        -----------------------------------------
Total Dipole Moment    :      0.04187      -1.31434       0.29016
                        -----------------------------------------
Magnitude (a.u.)       :      1.34664
Magnitude (Debye)      :      3.42288

Rotational constants in cm-1:     0.239537     0.072280     0.060961
Rotational constants in MHz :  7181.153552  2166.902802  1827.551447

                             ****ORCA TERMINATED NORMALLY****
TOTAL RUN TIME: 0 days 0 hours 0 minutes 39 seconds 16 msec
