                         Program Version 5.0.0 -  RELEASE  -
|  1> !M062X D3Zero RIJCOSX def2-TZVP def2/J TightSCF xyzfile
|  2>
|  3> *xyzfile 0 1 D1.xyz
|  4>
|  5> %MaxCore 64000
|  6>
|  7> %pal nprocs 18
|  8> end
|  9>
| 10> %scf
| 11>   MaxIter 150
| 12> end
| 13>
| 14>
| 15>                          ****END OF INPUT****

CARTESIAN COORDINATES (ANGSTROEM)
---------------------------------
  C      3.905947    2.819855   -3.752920
  C      5.295615    3.131515   -4.105334
  C      3.803511    1.374716   -3.260807
  C      3.939934    0.320362   -4.367729
  H      4.105043   -0.655085   -3.907733
  H      3.022801    0.280517   -4.957117
  C      5.105846    0.668022   -5.305463
  C      5.708619    3.468885   -5.324190
  N      6.904696    3.038954   -5.717084
  N      4.981884    4.293570   -6.097457
  H      5.000546    4.101311   -7.087761
  H      4.084693    4.596899   -5.739652
  H      5.963358    2.526112   -3.642391
  H      7.047164    2.066861   -5.473604
  H      7.198145    3.307994   -6.645225
  H      3.282025    2.949187   -4.640259
  H      3.565254    3.514574   -2.982523
  H      4.574833    1.215157   -2.500443
  H      2.843514    1.260845   -2.751465
  F      4.809132    1.150187   -6.414361
  O      6.267366    0.564999   -4.819481

 Total Charge           Charge          ....    0
 Multiplicity           Mult            ....    1
 Number of Electrons    NEL             ....   78
 Basis Dimension        Dim             ....  376

ORBITAL ENERGIES
----------------

  NO   OCC          E(Eh)            E(eV)
   0   2.0000     -25.325862      -689.1517
   1   2.0000     -19.636688      -534.3415
   2   2.0000     -14.748913      -401.3383
   3   2.0000     -14.727957      -400.7681
   4   2.0000     -10.729053      -291.9524
   5   2.0000     -10.578335      -287.8511
   6   2.0000     -10.564377      -287.4713
   7   2.0000     -10.542797      -286.8841
   8   2.0000     -10.524365      -286.3825
   9   2.0000     -10.461338      -284.6675
  10   2.0000      -1.479947       -40.2714
  11   2.0000      -1.162903       -31.6442
  12   2.0000      -1.070968       -29.1425
  13   2.0000      -0.974199       -26.5093
  14   2.0000      -0.919124       -25.0106
  15   2.0000      -0.849704       -23.1216
  16   2.0000      -0.792684       -21.5700
  17   2.0000      -0.755757       -20.5652
  18   2.0000      -0.696436       -18.9510
  19   2.0000      -0.662461       -18.0265
  20   2.0000      -0.652282       -17.7495
  21   2.0000      -0.638004       -17.3610
  22   2.0000      -0.614306       -16.7161
  23   2.0000      -0.597226       -16.2514
  24   2.0000      -0.578059       -15.7298
  25   2.0000      -0.539663       -14.6850
  26   2.0000      -0.530713       -14.4414
  27   2.0000      -0.514471       -13.9995
  28   2.0000      -0.500143       -13.6096
  29   2.0000      -0.472086       -12.8461
  30   2.0000      -0.456157       -12.4127
  31   2.0000      -0.434600       -11.8261
  32   2.0000      -0.431646       -11.7457
  33   2.0000      -0.410646       -11.1742
  34   2.0000      -0.398091       -10.8326
  35   2.0000      -0.384760       -10.4698
  36   2.0000      -0.373971       -10.1763
  37   2.0000      -0.331116        -9.0101
  38   2.0000      -0.222874        -6.0647
  39   0.0000       0.006985         0.1901
  40   0.0000       0.054540         1.4841
  41   0.0000       0.075073         2.0428
  42   0.0000       0.087966         2.3937
  43   0.0000       0.097021         2.6401

MULLIKEN ATOMIC CHARGES
-----------------------
   0 C :   -0.318327
   1 C :   -0.318335
   2 C :   -0.283412
   3 C :   -0.330157
   4 H :    0.165476
   5 H :    0.156796
   6 C :    0.485131
   7 C :    0.287502
   8 N :   -0.511284
   9 N :   -0.536700
  10 H :    0.224470
  11 H :    0.251483
  12 H :    0.145453
  13 H :    0.286846
  14 H :    0.219932
  15 H :    0.118204
  16 H :    0.152195
  17 H :    0.171070
  18 H :    0.142257
  19 F :   -0.105397
  20 O :   -0.403203
Sum of atomic charges:   -0.0000000

LOEWDIN ATOMIC CHARGES
----------------------
   0 C :   -0.289608
   1 C :   -0.263609
   2 C :   -0.250433
   3 C :   -0.226638
   4 H :    0.155862
   5 H :    0.143322
   6 C :   -0.486674
   7 C :   -0.487952
   8 N :   -0.012445
   9 N :   -0.023524
  10 H :    0.157877
  11 H :    0.174125
  12 H :    0.131641
  13 H :    0.171192
  14 H :    0.160173
  15 H :    0.133128
  16 H :    0.137613
  17 H :    0.148448
  18 H :    0.138979
  19 F :    0.346736
  20 O :    0.041786

  Mayer bond orders larger than 0.100000
B(  0-C ,  1-C ) :   0.8912 B(  0-C ,  2-C ) :   0.9028 B(  0-C , 15-H ) :   0.9841
B(  0-C , 16-H ) :   0.9774 B(  1-C ,  7-C ) :   1.5874 B(  1-C , 12-H ) :   1.0617
B(  2-C ,  3-C ) :   0.9128 B(  2-C , 17-H ) :   0.9766 B(  2-C , 18-H ) :   0.9824
B(  3-C ,  4-H ) :   0.9637 B(  3-C ,  5-H ) :   0.9680 B(  3-C ,  6-C ) :   0.9762
B(  6-C , 19-F ) :   1.1385 B(  6-C , 20-O ) :   1.9119 B(  7-C ,  8-N ) :   1.0985
B(  7-C ,  9-N ) :   1.0927 B(  8-N , 13-H ) :   0.8641 B(  8-N , 14-H ) :   0.9330
B(  9-N , 10-H ) :   0.9173 B(  9-N , 11-H ) :   0.9276

Dispersion correction           -0.000700714
FINAL SINGLE POINT ENERGY      -519.775264758134

DIPOLE MOMENT
-------------
                                X             Y             Z
Electronic contribution:      3.37926      -3.66490      -6.47511
Nuclear contribution   :     -4.60158       3.22721       5.56005
                        -----------------------------------------
Total Dipole Moment    :     -1.22232      -0.43768      -0.91505
                        -----------------------------------------
Magnitude (a.u.)       :      1.58838
Magnitude (Debye)      :      4.03735

Rotational constants in cm-1:     0.061224     0.042534     0.033552
Rotational constants in MHz :  1835.464095  1275.135177  1005.856966

                             ****ORCA TERMINATED NORMALLY****
TOTAL RUN TIME: 0 days 0 hours 0 minutes 39 seconds 659 msec
