                         Program Version 5.0.0 -  RELEASE  -
|  1> !M062X D3Zero RIJCOSX def2-TZVP def2/J TightSCF xyzfile
|  2>
|  3> *xyzfile 0 1 D2.xyz
|  4>
|  5> %MaxCore 64000
|  6>
|  7> %pal nprocs 18
|  8> end
|  9>
| 10> %scf
| 11>   MaxIter 150
| 12> end
| 13>
| 14>
| 15>                          ****END OF INPUT****

CARTESIAN COORDINATES (ANGSTROEM)
---------------------------------
  C      3.905947    2.819855   -3.752920
  N      5.295615    3.131515   -4.105334
  C      3.803511    1.374716   -3.260807
  C      3.939934    0.320362   -4.367729
  H      4.105043   -0.655085   -3.907733
  H      3.022801    0.280517   -4.957117
  C      5.105846    0.668022   -5.305463
  C      5.708619    3.468885   -5.324190
  C      6.904696    3.038954   -5.717084
  N      4.981884    4.293570   -6.097457
  H      5.000546    4.101311   -7.087761
  H      4.084693    4.596899   -5.739652
  H      5.963358    2.526112   -3.642391
  H      7.047164    2.066861   -5.473604
  H      7.198145    3.307994   -6.645225
  H      3.282025    2.949187   -4.640259
  H      3.565254    3.514574   -2.982523
  H      4.574833    1.215157   -2.500443
  H      2.843514    1.260845   -2.751465
  F      4.809132    1.150187   -6.414361
  O      6.267366    0.564999   -4.819481

 Total Charge           Charge          ....    0
 Multiplicity           Mult            ....    1
 Number of Electrons    NEL             ....   78
 Basis Dimension        Dim             ....  376

ORBITAL ENERGIES
----------------

  NO   OCC          E(Eh)            E(eV)
   0   2.0000     -25.324726      -689.1208
   1   2.0000     -19.635719      -534.3151
   2   2.0000     -14.748344      -401.3228
   3   2.0000     -14.745490      -401.2452
   4   2.0000     -10.729392      -291.9616
   5   2.0000     -10.585302      -288.0407
   6   2.0000     -10.576142      -287.7915
   7   2.0000     -10.575628      -287.7775
   8   2.0000     -10.566783      -287.5368
   9   2.0000     -10.430099      -283.8174
  10   2.0000      -1.478590       -40.2345
  11   2.0000      -1.162075       -31.6217
  12   2.0000      -1.081323       -29.4243
  13   2.0000      -0.994376       -27.0584
  14   2.0000      -0.920341       -25.0438
  15   2.0000      -0.840969       -22.8839
  16   2.0000      -0.796621       -21.6772
  17   2.0000      -0.761986       -20.7347
  18   2.0000      -0.709148       -19.2969
  19   2.0000      -0.675772       -18.3887
  20   2.0000      -0.657729       -17.8977
  21   2.0000      -0.642522       -17.4839
  22   2.0000      -0.616681       -16.7807
  23   2.0000      -0.591585       -16.0979
  24   2.0000      -0.570898       -15.5349
  25   2.0000      -0.557264       -15.1639
  26   2.0000      -0.539638       -14.6843
  27   2.0000      -0.516269       -14.0484
  28   2.0000      -0.487900       -13.2764
  29   2.0000      -0.476602       -12.9690
  30   2.0000      -0.467468       -12.7205
  31   2.0000      -0.458684       -12.4814
  32   2.0000      -0.432777       -11.7765
  33   2.0000      -0.430380       -11.7112
  34   2.0000      -0.412377       -11.2213
  35   2.0000      -0.404996       -11.0205
  36   2.0000      -0.357684        -9.7331
  37   2.0000      -0.322828        -8.7846
  38   2.0000      -0.218605        -5.9486
  39   0.0000       0.003158         0.0859
  40   0.0000       0.049156         1.3376
  41   0.0000       0.068796         1.8720
  42   0.0000       0.083682         2.2771
  43   0.0000       0.090744         2.4693

MULLIKEN ATOMIC CHARGES
-----------------------
   0 C :   -0.225538
   1 N :   -0.322826
   2 C :   -0.328738
   3 C :   -0.301893
   4 H :    0.169698
   5 H :    0.162149
   6 C :    0.438505
   7 C :    0.306386
   8 C :   -0.487093
   9 N :   -0.545045
  10 H :    0.258567
  11 H :    0.227799
  12 H :    0.254538
  13 H :    0.144910
  14 H :    0.076069
  15 H :    0.156409
  16 H :    0.155894
  17 H :    0.179110
  18 H :    0.150374
  19 F :   -0.092734
  20 O :   -0.376543
Sum of atomic charges:    0.0000000

LOEWDIN ATOMIC CHARGES
----------------------
   0 C :   -0.287754
   1 N :    0.116678
   2 C :   -0.262914
   3 C :   -0.229141
   4 H :    0.157368
   5 H :    0.144283
   6 C :   -0.491189
   7 C :   -0.496988
   8 C :   -0.333400
   9 N :   -0.021183
  10 H :    0.175737
  11 H :    0.159144
  12 H :    0.202122
  13 H :    0.105812
  14 H :    0.094883
  15 H :    0.132127
  16 H :    0.130794
  17 H :    0.147797
  18 H :    0.144350
  19 F :    0.353607
  20 O :    0.057865

  Mayer bond orders larger than 0.100000
B(  0-C ,  1-N ) :   0.9045 B(  0-C ,  2-C ) :   0.9102 B(  0-C , 15-H ) :   0.9824
B(  0-C , 16-H ) :   0.9762 B(  1-N ,  7-C ) :   1.1289 B(  1-N , 12-H ) :   0.9155
B(  2-C ,  3-C ) :   0.9034 B(  2-C , 17-H ) :   0.9743 B(  2-C , 18-H ) :   0.9775
B(  3-C ,  4-H ) :   0.9641 B(  3-C ,  5-H ) :   0.9682 B(  3-C ,  6-C ) :   0.9649
B(  6-C , 19-F ) :   1.1501 B(  6-C , 20-O ) :   1.9637 B(  7-C ,  8-C ) :   1.6891
B(  7-C ,  9-N ) :   1.0038 B(  8-C , 13-H ) :   0.9756 B(  8-C , 14-H ) :   1.0279
B(  9-N , 10-H ) :   0.9199 B(  9-N , 11-H ) :   0.9381

Dispersion correction           -0.000700124
FINAL SINGLE POINT ENERGY      -519.747304040011

DIPOLE MOMENT
-------------
                                X             Y             Z
Electronic contribution:      2.04258      -3.78479      -5.17819
Nuclear contribution   :     -4.40347       3.21582       5.36161
                        -----------------------------------------
Total Dipole Moment    :     -2.36089      -0.56897       0.18342
                        -----------------------------------------
Magnitude (a.u.)       :      2.43540
Magnitude (Debye)      :      6.19029

Rotational constants in cm-1:     0.061226     0.043199     0.033926
Rotational constants in MHz :  1835.503528  1295.087558  1017.061512

                             ****ORCA TERMINATED NORMALLY****
TOTAL RUN TIME: 0 days 0 hours 0 minutes 41 seconds 707 msec
