                         Program Version 5.0.0 -  RELEASE  -
|  1> !M062X D3Zero RIJCOSX def2-TZVP def2/J TightSCF xyzfile
|  2>
|  3> *xyzfile 0 1 D3.xyz
|  4>
|  5> %MaxCore 64000
|  6>
|  7> %pal nprocs 18
|  8> end
|  9>
| 10> %scf
| 11>   MaxIter 150
| 12> end
| 13>
| 14>
| 15>                          ****END OF INPUT****

CARTESIAN COORDINATES (ANGSTROEM)
---------------------------------
  C      3.905947    2.819855   -3.752920
  N      5.295615    3.131515   -4.105334
  C      3.803511    1.374716   -3.260807
  C      3.939934    0.320362   -4.367729
  H      4.105043   -0.655085   -3.907733
  H      3.022801    0.280517   -4.957117
  C      5.105846    0.668022   -5.305463
  C      5.708619    3.468885   -5.324190
  N      6.904696    3.038954   -5.717084
  C      4.981884    4.293570   -6.097457
  H      5.000546    4.101311   -7.087761
  H      4.084693    4.596899   -5.739652
  H      5.963358    2.526112   -3.642391
  H      7.047164    2.066861   -5.473604
  H      7.198145    3.307994   -6.645225
  H      3.282025    2.949187   -4.640259
  H      3.565254    3.514574   -2.982523
  H      4.574833    1.215157   -2.500443
  H      2.843514    1.260845   -2.751465
  F      4.809132    1.150187   -6.414361
  O      6.267366    0.564999   -4.819481

 Total Charge           Charge          ....    0
 Multiplicity           Mult            ....    1
 Number of Electrons    NEL             ....   78
 Basis Dimension        Dim             ....  376

ORBITAL ENERGIES
----------------

  NO   OCC          E(Eh)            E(eV)
   0   2.0000     -25.335634      -689.4177
   1   2.0000     -19.653804      -534.8072
   2   2.0000     -14.750414      -401.3792
   3   2.0000     -14.727175      -400.7468
   4   2.0000     -10.745298      -292.3944
   5   2.0000     -10.581975      -287.9502
   6   2.0000     -10.581808      -287.9456
   7   2.0000     -10.578357      -287.8517
   8   2.0000     -10.568069      -287.5718
   9   2.0000     -10.447220      -284.2833
  10   2.0000      -1.489200       -40.5232
  11   2.0000      -1.180708       -32.1287
  12   2.0000      -1.082754       -29.4632
  13   2.0000      -0.992398       -27.0045
  14   2.0000      -0.919699       -25.0263
  15   2.0000      -0.836268       -22.7560
  16   2.0000      -0.799116       -21.7450
  17   2.0000      -0.776196       -21.1214
  18   2.0000      -0.722390       -19.6572
  19   2.0000      -0.668556       -18.1923
  20   2.0000      -0.652980       -17.7685
  21   2.0000      -0.648252       -17.6398
  22   2.0000      -0.626936       -17.0598
  23   2.0000      -0.590481       -16.0678
  24   2.0000      -0.581895       -15.8342
  25   2.0000      -0.556597       -15.1458
  26   2.0000      -0.546949       -14.8832
  27   2.0000      -0.509106       -13.8535
  28   2.0000      -0.500042       -13.6068
  29   2.0000      -0.478390       -13.0176
  30   2.0000      -0.462190       -12.5768
  31   2.0000      -0.458795       -12.4845
  32   2.0000      -0.442730       -12.0473
  33   2.0000      -0.436591       -11.8802
  34   2.0000      -0.422485       -11.4964
  35   2.0000      -0.400541       -10.8993
  36   2.0000      -0.388823       -10.5804
  37   2.0000      -0.316733        -8.6187
  38   2.0000      -0.224669        -6.1136
  39   0.0000      -0.009961        -0.2711
  40   0.0000       0.054182         1.4744
  41   0.0000       0.080605         2.1934
  42   0.0000       0.091661         2.4942
  43   0.0000       0.093447         2.5428

MULLIKEN ATOMIC CHARGES
-----------------------
   0 C :   -0.205461
   1 N :   -0.326877
   2 C :   -0.333511
   3 C :   -0.290790
   4 H :    0.170546
   5 H :    0.167588
   6 C :    0.427187
   7 C :    0.285275
   8 N :   -0.513509
   9 C :   -0.476346
  10 H :    0.099365
  11 H :    0.073929
  12 H :    0.227626
  13 H :    0.269028
  14 H :    0.244734
  15 H :    0.179294
  16 H :    0.156092
  17 H :    0.177492
  18 H :    0.154911
  19 F :   -0.075728
  20 O :   -0.410846
Sum of atomic charges:    0.0000000

LOEWDIN ATOMIC CHARGES
----------------------
   0 C :   -0.272483
   1 N :    0.122188
   2 C :   -0.262251
   3 C :   -0.225602
   4 H :    0.157846
   5 H :    0.147357
   6 C :   -0.486152
   7 C :   -0.502143
   8 N :   -0.016260
   9 C :   -0.341145
  10 H :    0.096813
  11 H :    0.094475
  12 H :    0.185001
  13 H :    0.159406
  14 H :    0.175085
  15 H :    0.142476
  16 H :    0.133491
  17 H :    0.146550
  18 H :    0.146130
  19 F :    0.363986
  20 O :    0.035232

  Mayer bond orders larger than 0.100000
B(  0-C ,  1-N ) :   0.9041 B(  0-C ,  2-C ) :   0.9129 B(  0-C , 15-H ) :   0.9784
B(  0-C , 16-H ) :   0.9801 B(  1-N ,  7-C ) :   1.0888 B(  1-N , 12-H ) :   0.9249
B(  2-C ,  3-C ) :   0.9002 B(  2-C , 17-H ) :   0.9758 B(  2-C , 18-H ) :   0.9782
B(  3-C ,  4-H ) :   0.9623 B(  3-C ,  5-H ) :   0.9654 B(  3-C ,  6-C ) :   0.9680
B(  6-C , 19-F ) :   1.1798 B(  6-C , 20-O ) :   1.9083 B(  7-C ,  8-N ) :   1.1295
B(  7-C ,  9-C ) :   1.6806 B(  8-N , 13-H ) :   0.8838 B(  8-N , 14-H ) :   0.9267
B(  9-C , 10-H ) :   0.9771 B(  9-C , 11-H ) :   1.0262

Dispersion correction           -0.000698077
FINAL SINGLE POINT ENERGY      -519.766576043946

DIPOLE MOMENT
-------------
                                X             Y             Z
Electronic contribution:      3.53893      -4.86434      -4.88172
Nuclear contribution   :     -4.64021       3.37029       5.31478
                        -----------------------------------------
Total Dipole Moment    :     -1.10128      -1.49405       0.43306
                        -----------------------------------------
Magnitude (a.u.)       :      1.90593
Magnitude (Debye)      :      4.84448

Rotational constants in cm-1:     0.061077     0.043622     0.034103
Rotational constants in MHz :  1831.041375  1307.759852  1022.388536

                             ****ORCA TERMINATED NORMALLY****
TOTAL RUN TIME: 0 days 0 hours 0 minutes 41 seconds 888 msec
