                         Program Version 5.0.0 -  RELEASE  -
|  1> !DLPNO-CCSD(T) aug-cc-pVTZ aug-cc-pVTZ/C TightSCF TightPNO RIJCOSX def2/J
|  2> *xyz -1 1
|  3> C         -0.71189        0.84252       -4.21834
|  4> C         -0.39762       -0.20587       -5.28802
|  5> O          0.61717       -0.00535       -5.99827
|  6> O         -1.13317       -1.22138       -5.34147
|  7> H         -0.00939        1.64646       -4.28960
|  8> H         -0.64409        0.39449       -3.24902
|  9> H         -1.70192        1.21961       -4.36851
| 10> *
| 11>
| 12> %MaxCore 64000
| 13>
| 14> %pal nprocs 2
| 15> end
| 16>
| 17> %scf
| 18>   MaxIter 150
| 19> end
| 20>
| 21>
| 22>                          ****END OF INPUT****

CARTESIAN COORDINATES (ANGSTROEM)
---------------------------------
  C     -0.711890    0.842520   -4.218340
  C     -0.397620   -0.205870   -5.288020
  O      0.617170   -0.005350   -5.998270
  O     -1.133170   -1.221380   -5.341470
  H     -0.009390    1.646460   -4.289600
  H     -0.644090    0.394490   -3.249020
  H     -1.701920    1.219610   -4.368510

 Total Charge           Charge          ....   -1
 Multiplicity           Mult            ....    1
 Number of Electrons    NEL             ....   32
 Basis Dimension        Dim             ....  253

ORBITAL ENERGIES
----------------

  NO   OCC          E(Eh)            E(eV)
   0   2.0000     -20.280618      -551.8637
   1   2.0000     -20.279168      -551.8242
   2   2.0000     -11.123867      -302.6958
   3   2.0000     -11.037713      -300.3514
   4   2.0000      -1.159883       -31.5620
   5   2.0000      -1.052767       -28.6472
   6   2.0000      -0.803637       -21.8681
   7   2.0000      -0.510063       -13.8795
   8   2.0000      -0.421387       -11.4665
   9   2.0000      -0.419301       -11.4098
  10   2.0000      -0.412703       -11.2302
  11   2.0000      -0.356993        -9.7143
  12   2.0000      -0.316885        -8.6229
  13   2.0000      -0.195166        -5.3107
  14   2.0000      -0.193857        -5.2751
  15   2.0000      -0.182070        -4.9544
  16   0.0000       0.132664         3.6100
  17   0.0000       0.143262         3.8984
  18   0.0000       0.145488         3.9589
  19   0.0000       0.184457         5.0193
  20   0.0000       0.221109         6.0167

MULLIKEN ATOMIC CHARGES
-----------------------
   0 C :   -0.628438
   1 C :    0.421021
   2 O :   -0.779151
   3 O :   -0.803214
   4 H :    0.292869
   5 H :    0.247241
   6 H :    0.249672
Sum of atomic charges:   -1.0000000

LOEWDIN ATOMIC CHARGES
----------------------
   0 C :    0.482540
   1 C :   -1.233962
   2 O :    0.226511
   3 O :    0.220697
   4 H :   -0.242889
   5 H :   -0.225066
   6 H :   -0.227830

  Mayer bond orders larger than 0.100000
B(  0-C ,  1-C ) :   0.7216 B(  0-C ,  4-H ) :   0.9163 B(  0-C ,  5-H ) :   0.9519
B(  0-C ,  6-H ) :   0.9498 B(  1-C ,  2-O ) :   1.4619 B(  1-C ,  3-O ) :   1.4740

E(0)                                       ...   -227.327933769
E(0)                                       ...   -227.327933769
E(CORR)(strong-pairs)                      ...     -0.836401193
E(CORR)(weak-pairs)                        ...     -0.000622907
E(CORR)(corrected)                         ...     -0.837024100
E(TOT)                                     ...   -228.164957869
E(CCSD(T))                                 ...   -228.200970174
FINAL SINGLE POINT ENERGY      -228.200970174454

DIPOLE MOMENT
-------------
                                X             Y             Z
Electronic contribution:      0.72120      -2.35862      -2.40659
Nuclear contribution   :     -1.06347       3.45957       3.47855
                        -----------------------------------------
Total Dipole Moment    :     -0.34226       1.10095       1.07196
                        -----------------------------------------
Magnitude (a.u.)       :      1.57427
Magnitude (Debye)      :      4.00148

Rotational constants in cm-1:     0.393276     0.333956     0.186777
Rotational constants in MHz : 11790.103634 10011.747201  5599.422324

                             ****ORCA TERMINATED NORMALLY****
TOTAL RUN TIME: 0 days 0 hours 31 minutes 42 seconds 980 msec
