                         Program Version 5.0.0 -  RELEASE  -
|  1> !DLPNO-CCSD(T) aug-cc-pVTZ aug-cc-pVTZ/C TightSCF TightPNO RIJCOSX def2/J
|  2> *xyz 1 1
|  3> C          2.23447       -2.98975       -2.39762
|  4> N          2.75680       -2.94555       -3.76503
|  5> C          1.98721       -2.59045       -4.81898
|  6> N          0.74322       -3.01749       -4.91352
|  7> N          2.49964       -1.84860       -5.80324
|  8> H          3.30978       -1.29282       -5.55895
|  9> H          1.80103       -1.30430       -6.28913
| 10> H          3.71612       -2.62880       -3.82953
| 11> H          0.39583       -3.62775       -4.18502
| 12> H          0.03920       -2.45438       -5.37137
| 13> H          1.22098       -3.33251       -2.41386
| 14> H          2.27280       -2.00995       -1.96933
| 15> H          2.82798       -3.65908       -1.81056
| 16> *
| 17>
| 18> %MaxCore 64000
| 19>
| 20> %pal nprocs 2
| 21> end
| 22>
| 23> %scf
| 24>   MaxIter 150
| 25> end
| 26>
| 27>
| 28>                          ****END OF INPUT****

CARTESIAN COORDINATES (ANGSTROEM)
---------------------------------
  C      2.234470   -2.989750   -2.397620
  N      2.756800   -2.945550   -3.765030
  C      1.987210   -2.590450   -4.818980
  N      0.743220   -3.017490   -4.913520
  N      2.499640   -1.848600   -5.803240
  H      3.309780   -1.292820   -5.558950
  H      1.801030   -1.304300   -6.289130
  H      3.716120   -2.628800   -3.829530
  H      0.395830   -3.627750   -4.185020
  H      0.039200   -2.454380   -5.371370
  H      1.220980   -3.332510   -2.413860
  H      2.272800   -2.009950   -1.969330
  H      2.827980   -3.659080   -1.810560

 Total Charge           Charge          ....    1
 Multiplicity           Mult            ....    1
 Number of Electrons    NEL             ....   40
 Basis Dimension        Dim             ....  414

ORBITAL ENERGIES
----------------

  NO   OCC          E(Eh)            E(eV)
   0   2.0000     -15.797529      -429.8726
   1   2.0000     -15.793638      -429.7667
   2   2.0000     -15.789130      -429.6441
   3   2.0000     -11.598831      -315.6202
   4   2.0000     -11.433479      -311.1208
   5   2.0000      -1.551281       -42.2125
   6   2.0000      -1.410055       -38.3696
   7   2.0000      -1.405128       -38.2355
   8   2.0000      -1.148446       -31.2508
   9   2.0000      -1.047103       -28.4931
  10   2.0000      -0.978853       -26.6359
  11   2.0000      -0.940865       -25.6022
  12   2.0000      -0.877419       -23.8758
  13   2.0000      -0.859868       -23.3982
  14   2.0000      -0.816806       -22.2264
  15   2.0000      -0.800127       -21.7726
  16   2.0000      -0.756003       -20.5719
  17   2.0000      -0.739485       -20.1224
  18   2.0000      -0.640568       -17.4307
  19   2.0000      -0.599445       -16.3117
  20   0.0000      -0.100347        -2.7306
  21   0.0000      -0.078537        -2.1371
  22   0.0000      -0.073894        -2.0108
  23   0.0000      -0.062021        -1.6877
  24   0.0000      -0.049807        -1.3553

MULLIKEN ATOMIC CHARGES
-----------------------
   0 C :   -0.856656
   1 N :   -0.105563
   2 C :    0.629218
   3 N :   -0.270938
   4 N :   -0.333601
   5 H :    0.162856
   6 H :    0.168959
   7 H :    0.129892
   8 H :    0.194194
   9 H :    0.151269
  10 H :    0.404432
  11 H :    0.360981
  12 H :    0.364958
Sum of atomic charges:    1.0000000

LOEWDIN ATOMIC CHARGES
----------------------
   0 C :    0.585001
   1 N :    0.624287
   2 C :   -0.360803
   3 N :    0.944008
   4 N :    0.945518
   5 H :   -0.248323
   6 H :   -0.256465
   7 H :   -0.253291
   8 H :   -0.265752
   9 H :   -0.226723
  10 H :   -0.185983
  11 H :   -0.152213
  12 H :   -0.149260

  Mayer bond orders larger than 0.100000
B(  0-C ,  1-N ) :   0.8782 B(  0-C , 10-H ) :   0.8298 B(  0-C , 11-H ) :   0.8782
B(  0-C , 12-H ) :   0.9004 B(  1-N ,  2-C ) :   1.0235 B(  1-N ,  7-H ) :   1.0082
B(  2-C ,  3-N ) :   0.9913 B(  2-C ,  4-N ) :   0.9768 B(  3-N ,  8-H ) :   1.0017
B(  3-N ,  9-H ) :   1.0726 B(  4-N ,  5-H ) :   1.0133 B(  4-N ,  6-H ) :   1.0148

E(0)                                       ...   -243.642528273
E(0)                                       ...   -243.642528273
E(CORR)(strong-pairs)                      ...     -0.996586438
E(CORR)(weak-pairs)                        ...     -0.000986842
E(CORR)(corrected)                         ...     -0.997573280
E(TOT)                                     ...   -244.640101553
E(CCSD(T))                                 ...   -244.680211355
FINAL SINGLE POINT ENERGY      -244.680211354504

DIPOLE MOMENT
-------------
                                X             Y             Z
Electronic contribution:      0.23919      -0.01621      -3.00196
Nuclear contribution   :     -0.61773       0.88991       3.03801
                        -----------------------------------------
Total Dipole Moment    :     -0.37853       0.87370       0.03606
                        -----------------------------------------
Magnitude (a.u.)       :      0.95286
Magnitude (Debye)      :      2.42198

Rotational constants in cm-1:     0.302561     0.133407     0.098295
Rotational constants in MHz :  9070.558660  3999.431512  2946.819102

                             ****ORCA TERMINATED NORMALLY****
TOTAL RUN TIME: 0 days 1 hours 59 minutes 27 seconds 7 msec
