                         Program Version 5.0.0 -  RELEASE  -
|  1> !DLPNO-CCSD(T) aug-cc-pVTZ aug-cc-pVTZ/C TightSCF TightPNO RIJCOSX def2/J
|  2>
|  3> *xyzfile 0 1 B.xyz
|  4>
|  5> %MaxCore 64000
|  6>
|  7> %pal nprocs 18
|  8> end
|  9>
| 10> %scf
| 11>   MaxIter 150
| 12> end
| 13>
| 14>
| 15>                          ****END OF INPUT****

CARTESIAN COORDINATES (ANGSTROEM)
---------------------------------
  C      2.234473   -2.989754   -2.397622
  N      2.756799   -2.945553   -3.765029
  C     -1.104325    0.251374   -2.860056
  C     -0.711893    0.842517   -4.218344
  H      0.154626    1.499800   -4.130909
  H     -1.538134    1.459222   -4.582671
  C     -0.397624   -0.205875   -5.288018
  C      1.987208   -2.590451   -4.818975
  N      0.743221   -3.017493   -4.913524
  N      2.499636   -1.848598   -5.803241
  H      3.309780   -1.292818   -5.558947
  H      1.801025   -1.304298   -6.289129
  H      3.716116   -2.628797   -3.829533
  H      0.395828   -3.627747   -4.185024
  H      0.039201   -2.454383   -5.371367
  O      0.617165   -0.005348   -5.998273
  O     -1.133173   -1.221380   -5.341465
  C      2.191199   -1.619503   -1.715492
  H      2.872783   -3.666368   -1.828014
  H      1.246188   -3.447444   -2.407842
  C      1.298729   -0.554314   -2.359773
  H      1.872917   -1.787955   -0.681310
  H      3.216809   -1.238432   -1.654428
  C     -0.196255   -0.863365   -2.325763
  H      1.612531   -0.371346   -3.393065
  H      1.480944    0.388638   -1.834444
  H     -0.404105   -1.761825   -2.909448
  H     -0.490439   -1.087880   -1.294131
  H     -1.143842    1.066711   -2.129680
  H     -2.114401   -0.156834   -2.930323

 Total Charge           Charge          ....    0
 Multiplicity           Mult            ....    1
 Number of Electrons    NEL             ....  102
 Basis Dimension        Dim             ....  989

ORBITAL ENERGIES
----------------

  NO   OCC          E(Eh)            E(eV)
   0   2.0000     -20.463175      -556.8313
   1   2.0000     -20.460707      -556.7641
   2   2.0000     -15.630465      -425.3266
   3   2.0000     -15.600183      -424.5026
   4   2.0000     -15.599514      -424.4844
   5   2.0000     -11.419867      -310.7504
   6   2.0000     -11.304798      -307.6192
   7   2.0000     -11.300028      -307.4894
   8   2.0000     -11.249891      -306.1251
   9   2.0000     -11.229848      -305.5797
  10   2.0000     -11.215365      -305.1856
  11   2.0000     -11.206519      -304.9449
  12   2.0000     -11.193989      -304.6039
  13   2.0000      -1.376773       -37.4639
  14   2.0000      -1.349889       -36.7324
  15   2.0000      -1.246997       -33.9325
  16   2.0000      -1.245933       -33.9036
  17   2.0000      -1.215259       -33.0689
  18   2.0000      -1.098115       -29.8812
  19   2.0000      -1.046185       -28.4682
  20   2.0000      -0.979766       -26.6608
  21   2.0000      -0.922459       -25.1014
  22   2.0000      -0.871886       -23.7252
  23   2.0000      -0.840996       -22.8847
  24   2.0000      -0.804375       -21.8882
  25   2.0000      -0.786628       -21.4052
  26   2.0000      -0.752349       -20.4725
  27   2.0000      -0.714500       -19.4425
  28   2.0000      -0.689907       -18.7733
  29   2.0000      -0.673850       -18.3364
  30   2.0000      -0.659432       -17.9441
  31   2.0000      -0.645824       -17.5738
  32   2.0000      -0.636814       -17.3286
  33   2.0000      -0.618228       -16.8228
  34   2.0000      -0.602888       -16.4054
  35   2.0000      -0.591410       -16.0931
  36   2.0000      -0.579484       -15.7686
  37   2.0000      -0.575150       -15.6506
  38   2.0000      -0.557354       -15.1664
  39   2.0000      -0.534659       -14.5488
  40   2.0000      -0.520713       -14.1693
  41   2.0000      -0.506364       -13.7789
  42   2.0000      -0.491242       -13.3674
  43   2.0000      -0.474252       -12.9051
  44   2.0000      -0.454568       -12.3694
  45   2.0000      -0.449296       -12.2260
  46   2.0000      -0.445587       -12.1251
  47   2.0000      -0.432476       -11.7683
  48   2.0000      -0.381678       -10.3860
  49   2.0000      -0.370646       -10.0858
  50   2.0000      -0.369127       -10.0445
  51   0.0000       0.011656         0.3172
  52   0.0000       0.023244         0.6325
  53   0.0000       0.029226         0.7953
  54   0.0000       0.034697         0.9442
  55   0.0000       0.044914         1.2222

MULLIKEN ATOMIC CHARGES
-----------------------
   0 C :   -0.389048
   1 N :   -0.245113
   2 C :   -0.539789
   3 C :   -0.399896
   4 H :    0.172264
   5 H :    0.352591
   6 C :    1.104144
   7 C :    1.172161
   8 N :   -0.364776
   9 N :   -0.632513
  10 H :    0.057522
  11 H :    0.264895
  12 H :   -0.016233
  13 H :    0.110606
  14 H :    0.151354
  15 O :   -0.998284
  16 O :   -1.040889
  17 C :   -0.582419
  18 H :    0.429761
  19 H :    0.067445
  20 C :   -0.400098
  21 H :    0.241819
  22 H :    0.182790
  23 C :   -0.344397
  24 H :    0.228295
  25 H :    0.313384
  26 H :    0.360610
  27 H :    0.353360
  28 H :    0.237562
  29 H :    0.152892
Sum of atomic charges:   -0.0000000

LOEWDIN ATOMIC CHARGES
----------------------
   0 C :    0.235036
   1 N :    0.625664
   2 C :    0.283033
   3 C :    0.248817
   4 H :   -0.179491
   5 H :   -0.152274
   6 C :   -1.017054
   7 C :   -0.384349
   8 N :    0.941460
   9 N :    0.929223
  10 H :   -0.252612
  11 H :   -0.509406
  12 H :   -0.261113
  13 H :   -0.263614
  14 H :   -0.539794
  15 O :    0.446226
  16 O :    0.453989
  17 C :    0.318974
  18 H :   -0.131514
  19 H :   -0.162581
  20 C :    0.290609
  21 H :   -0.139092
  22 H :   -0.141758
  23 C :    0.282355
  24 H :   -0.171911
  25 H :   -0.128265
  26 H :   -0.191684
  27 H :   -0.135196
  28 H :   -0.145603
  29 H :   -0.148075

  Mayer bond orders larger than 0.100000
B(  0-C ,  1-N ) :   0.9031 B(  0-C , 17-C ) :   0.8748 B(  0-C , 18-H ) :   0.8409
B(  0-C , 19-H ) :   1.1021 B(  1-N ,  7-C ) :   0.8211 B(  1-N ,  9-N ) :  -0.1246
B(  1-N , 12-H ) :   1.0852 B(  1-N , 19-H ) :   0.1623 B(  2-C ,  3-C ) :   0.9047
B(  2-C ,  6-C ) :   0.1227 B(  2-C , 23-C ) :   0.8895 B(  2-C , 28-H ) :   0.9664
B(  2-C , 29-H ) :   1.0779 B(  3-C ,  4-H ) :   1.0335 B(  3-C ,  5-H ) :   0.9375
B(  3-C ,  6-C ) :   0.7610 B(  4-H ,  6-C ) :   0.1082 B(  5-H ,  6-C ) :  -0.1278
B(  6-C , 15-O ) :   0.9412 B(  6-C , 16-O ) :   0.9822 B(  7-C ,  8-N ) :   0.8762
B(  7-C ,  9-N ) :   0.7427 B(  8-N ,  9-N ) :  -0.1124 B(  8-N , 13-H ) :   1.0457
B(  8-N , 14-H ) :   0.9448 B(  9-N , 10-H ) :   1.1275 B(  9-N , 11-H ) :   0.8286
B( 11-H , 15-O ) :   0.1019 B( 14-H , 16-O ) :   0.1641 B( 17-C , 20-C ) :   0.9107
B( 17-C , 21-H ) :   0.9525 B( 17-C , 22-H ) :   1.0677 B( 20-C , 23-C ) :   0.8102
B( 20-C , 24-H ) :   0.9655 B( 20-C , 25-H ) :   0.9367 B( 23-C , 26-H ) :   1.0018
B( 23-C , 27-H ) :   0.8680

E(0)                                       ...   -626.165792343
E(0)                                       ...   -626.165792343
E(CORR)(strong-pairs)                      ...     -2.566832557
E(CORR)(weak-pairs)                        ...     -0.004269415
E(CORR)(corrected)                         ...     -2.571101972
E(TOT)                                     ...   -628.736894316
E(CCSD(T))                                 ...   -628.848082312
FINAL SINGLE POINT ENERGY      -628.848082311654

DIPOLE MOMENT
-------------
                                X             Y             Z
Electronic contribution:      0.65377      -2.84722     -10.08541
Nuclear contribution   :      1.76912       1.50070      12.36652
                        -----------------------------------------
Total Dipole Moment    :      2.42289      -1.34653       2.28111
                        -----------------------------------------
Magnitude (a.u.)       :      3.58985
Magnitude (Debye)      :      9.12466

Rotational constants in cm-1:     0.033272     0.023886     0.017112
Rotational constants in MHz :   997.469575   716.074432   513.001395

                             ****ORCA TERMINATED NORMALLY****
TOTAL RUN TIME: 0 days 4 hours 9 minutes 40 seconds 456 msec
