                         Program Version 5.0.0 -  RELEASE  -
|  1> !DLPNO-CCSD(T) aug-cc-pVTZ aug-cc-pVTZ/C TightSCF TightPNO RIJCOSX def2/J
|  2> *xyz 0 1
|  3> C         -0.71189        0.84252       -4.21834
|  4> C         -0.39762       -0.20587       -5.28802
|  5> F          0.61717       -0.00535       -5.99827
|  6> O         -1.13317       -1.22138       -5.34147
|  7> H         -0.00939        1.64646       -4.28960
|  8> H         -0.64409        0.39449       -3.24902
|  9> H         -1.70192        1.21961       -4.36851
| 10> *
| 11>
| 12> %MaxCore 64000
| 13>
| 14> %pal nprocs 2
| 15> end
| 16>
| 17> %scf
| 18>   MaxIter 150
| 19> end
| 20>
| 21>
| 22>                          ****END OF INPUT****

CARTESIAN COORDINATES (ANGSTROEM)
---------------------------------
  C     -0.711890    0.842520   -4.218340
  C     -0.397620   -0.205870   -5.288020
  F      0.617170   -0.005350   -5.998270
  O     -1.133170   -1.221380   -5.341470
  H     -0.009390    1.646460   -4.289600
  H     -0.644090    0.394490   -3.249020
  H     -1.701920    1.219610   -4.368510

 Total Charge           Charge          ....    0
 Multiplicity           Mult            ....    1
 Number of Electrons    NEL             ....   32
 Basis Dimension        Dim             ....  253

ORBITAL ENERGIES
----------------

  NO   OCC          E(Eh)            E(eV)
   0   2.0000     -26.379203      -717.8146
   1   2.0000     -20.564803      -559.5967
   2   2.0000     -11.436011      -311.1897
   3   2.0000     -11.256509      -306.3052
   4   2.0000      -1.733511       -47.1712
   5   2.0000      -1.376416       -37.4542
   6   2.0000      -1.042249       -28.3610
   7   2.0000      -0.902708       -24.5639
   8   2.0000      -0.780578       -21.2406
   9   2.0000      -0.772417       -21.0185
  10   2.0000      -0.711011       -19.3476
  11   2.0000      -0.614672       -16.7261
  12   2.0000      -0.600939       -16.3524
  13   2.0000      -0.586993       -15.9729
  14   2.0000      -0.496794       -13.5185
  15   2.0000      -0.470391       -12.8000
  16   0.0000       0.025546         0.6951
  17   0.0000       0.044565         1.2127
  18   0.0000       0.044704         1.2165
  19   0.0000       0.062763         1.7079
  20   0.0000       0.097523         2.6537

MULLIKEN ATOMIC CHARGES
-----------------------
   0 C :   -0.679466
   1 C :    0.557936
   2 F :   -0.234638
   3 O :   -0.592634
   4 H :    0.322467
   5 H :    0.311290
   6 H :    0.315046
Sum of atomic charges:    0.0000000

LOEWDIN ATOMIC CHARGES
----------------------
   0 C :    0.585863
   1 C :   -0.931271
   2 F :    0.573840
   3 O :    0.367104
   4 H :   -0.211068
   5 H :   -0.191419
   6 H :   -0.193049

  Mayer bond orders larger than 0.100000
B(  0-C ,  1-C ) :   0.7992 B(  0-C ,  4-H ) :   0.9015 B(  0-C ,  5-H ) :   0.9025
B(  0-C ,  6-H ) :   0.9016 B(  1-C ,  2-F ) :   0.9358 B(  1-C ,  3-O ) :   1.7265

E(0)                                       ...   -251.880168669
E(0)                                       ...   -251.880168669
E(CORR)(strong-pairs)                      ...     -0.837930636
E(CORR)(weak-pairs)                        ...     -0.000615424
E(CORR)(corrected)                         ...     -0.838546060
E(TOT)                                     ...   -252.718714728
E(CCSD(T))                                 ...   -252.751354123
FINAL SINGLE POINT ENERGY      -252.751354122672

DIPOLE MOMENT
-------------
                                X             Y             Z
Electronic contribution:      2.44688      -2.13752      -3.75463
Nuclear contribution   :     -2.12043       3.31297       4.29327
                        -----------------------------------------
Total Dipole Moment    :      0.32645       1.17545       0.53864
                        -----------------------------------------
Magnitude (a.u.)       :      1.33356
Magnitude (Debye)      :      3.38964

Rotational constants in cm-1:     0.368089     0.321934     0.177312
Rotational constants in MHz : 11035.034199  9651.332398  5315.666874

                             ****ORCA TERMINATED NORMALLY****
TOTAL RUN TIME: 0 days 0 hours 28 minutes 6 seconds 167 msec
