                         Program Version 5.0.0 -  RELEASE  -
|  1> !DLPNO-CCSD(T) aug-cc-pVTZ aug-cc-pVTZ/C TightSCF TightPNO RIJCOSX def2/J
|  2> *xyz 0 1
|  3> C          2.23447       -2.98975       -2.39762
|  4> C          2.75680       -2.94555       -3.76503
|  5> C          1.98721       -2.59045       -4.81898
|  6> N          0.74322       -3.01749       -4.91352
|  7> N          2.49964       -1.84860       -5.80324
|  8> H          3.30978       -1.29282       -5.55895
|  9> H          1.80103       -1.30430       -6.28913
| 10> H          3.71612       -2.62880       -3.82953
| 11> H          0.39583       -3.62775       -4.18502
| 12> H          0.03920       -2.45438       -5.37137
| 13> H          1.22098       -3.33251       -2.41386
| 14> H          2.27280       -2.00995       -1.96933
| 15> H          2.82798       -3.65908       -1.81056
| 16> *
| 17>
| 18> %MaxCore 64000
| 19>
| 20> %pal nprocs 2
| 21> end
| 22>
| 23> %scf
| 24>   MaxIter 150
| 25> end
| 26>
| 27>
| 28>                          ****END OF INPUT****

CARTESIAN COORDINATES (ANGSTROEM)
---------------------------------
  C      2.234470   -2.989750   -2.397620
  C      2.756800   -2.945550   -3.765030
  C      1.987210   -2.590450   -4.818980
  N      0.743220   -3.017490   -4.913520
  N      2.499640   -1.848600   -5.803240
  H      3.309780   -1.292820   -5.558950
  H      1.801030   -1.304300   -6.289130
  H      3.716120   -2.628800   -3.829530
  H      0.395830   -3.627750   -4.185020
  H      0.039200   -2.454380   -5.371370
  H      1.220980   -3.332510   -2.413860
  H      2.272800   -2.009950   -1.969330
  H      2.827980   -3.659080   -1.810560

 Total Charge           Charge          ....    0
 Multiplicity           Mult            ....    1
 Number of Electrons    NEL             ....   40
 Basis Dimension        Dim             ....  414

ORBITAL ENERGIES
----------------

  NO   OCC          E(Eh)            E(eV)
   0   2.0000     -15.567899      -423.6241
   1   2.0000     -15.564863      -423.5414
   2   2.0000     -11.289155      -307.1935
   3   2.0000     -11.187733      -304.4337
   4   2.0000     -11.142834      -303.2119
   5   2.0000      -1.289988       -35.1024
   6   2.0000      -1.175312       -31.9819
   7   2.0000      -1.022802       -27.8319
   8   2.0000      -0.892404       -24.2836
   9   2.0000      -0.789597       -21.4860
  10   2.0000      -0.724885       -19.7251
  11   2.0000      -0.688806       -18.7434
  12   2.0000      -0.637762       -17.3544
  13   2.0000      -0.606032       -16.4910
  14   2.0000      -0.561773       -15.2866
  15   2.0000      -0.533013       -14.5040
  16   2.0000      -0.511061       -13.9067
  17   2.0000      -0.485677       -13.2160
  18   2.0000      -0.427505       -11.6330
  19   2.0000      -0.257878        -7.0172
  20   0.0000       0.022818         0.6209
  21   0.0000       0.035379         0.9627
  22   0.0000       0.040584         1.1043
  23   0.0000       0.048282         1.3138
  24   0.0000       0.057074         1.5531

MULLIKEN ATOMIC CHARGES
-----------------------
   0 C :   -0.821357
   1 C :   -0.406597
   2 C :    0.603381
   3 N :   -0.402205
   4 N :   -0.475864
   5 H :    0.090654
   6 H :    0.121211
   7 H :    0.269180
   8 H :    0.102892
   9 H :    0.106804
  10 H :    0.333649
  11 H :    0.247842
  12 H :    0.230410
Sum of atomic charges:   -0.0000000

LOEWDIN ATOMIC CHARGES
----------------------
   0 C :    0.530224
   1 C :    0.210609
   2 C :   -0.437253
   3 N :    0.857853
   4 N :    0.858687
   5 H :   -0.279832
   6 H :   -0.295216
   7 H :   -0.292001
   8 H :   -0.294524
   9 H :   -0.270106
  10 H :   -0.215756
  11 H :   -0.182226
  12 H :   -0.190458

  Mayer bond orders larger than 0.100000
B(  0-C ,  1-C ) :   0.8406 B(  0-C , 10-H ) :   0.8831 B(  0-C , 11-H ) :   0.9422
B(  0-C , 12-H ) :   1.0700 B(  1-C ,  2-C ) :   1.1871 B(  1-C ,  3-N ) :  -0.1724
B(  1-C ,  7-H ) :   0.9757 B(  2-C ,  3-N ) :   0.8374 B(  2-C ,  4-N ) :   0.6832
B(  3-N ,  4-N ) :  -0.1167 B(  3-N ,  8-H ) :   1.1134 B(  3-N ,  9-H ) :   1.0687
B(  4-N ,  5-H ) :   1.0937 B(  4-N ,  6-H ) :   1.0334

E(0)                                       ...   -227.194188077
E(0)                                       ...   -227.194188077
E(CORR)(strong-pairs)                      ...     -0.980606744
E(CORR)(weak-pairs)                        ...     -0.000975631
E(CORR)(corrected)                         ...     -0.981582375
E(TOT)                                     ...   -228.175770451
E(CCSD(T))                                 ...   -228.216363093
FINAL SINGLE POINT ENERGY      -228.216363092592

DIPOLE MOMENT
-------------
                                X             Y             Z
Electronic contribution:     -0.34077       0.12317      -3.44669
Nuclear contribution   :     -0.47056       0.83150       3.15332
                        -----------------------------------------
Total Dipole Moment    :     -0.81133       0.95467      -0.29337
                        -----------------------------------------
Magnitude (a.u.)       :      1.28675
Magnitude (Debye)      :      3.27065

Rotational constants in cm-1:     0.307275     0.134774     0.099280
Rotational constants in MHz :  9211.860934  4040.421317  2976.324646

                             ****ORCA TERMINATED NORMALLY****
TOTAL RUN TIME: 0 days 2 hours 11 minutes 6 seconds 546 msec
