                         Program Version 5.0.0 -  RELEASE  -
|  1> !DLPNO-CCSD(T) aug-cc-pVTZ aug-cc-pVTZ/C TightSCF TightPNO RIJCOSX def2/J
|  2> *xyz 0 1
|  3> C         -0.71189        0.84252       -4.21834
|  4> C         -0.39762       -0.20587       -5.28802
|  5> O          0.61717       -0.00535       -5.99827
|  6> F         -1.13317       -1.22138       -5.34147
|  7> H         -0.00939        1.64646       -4.28960
|  8> H         -0.64409        0.39449       -3.24902
|  9> H         -1.70192        1.21961       -4.36851
| 10> *
| 11>
| 12> %MaxCore 64000
| 13>
| 14> %pal nprocs 2
| 15> end
| 16>
| 17> %scf
| 18>   MaxIter 150
| 19> end
| 20>
| 21>
| 22>                          ****END OF INPUT****

CARTESIAN COORDINATES (ANGSTROEM)
---------------------------------
  C     -0.711890    0.842520   -4.218340
  C     -0.397620   -0.205870   -5.288020
  O      0.617170   -0.005350   -5.998270
  F     -1.133170   -1.221380   -5.341470
  H     -0.009390    1.646460   -4.289600
  H     -0.644090    0.394490   -3.249020
  H     -1.701920    1.219610   -4.368510

 Total Charge           Charge          ....    0
 Multiplicity           Mult            ....    1
 Number of Electrons    NEL             ....   32
 Basis Dimension        Dim             ....  253

ORBITAL ENERGIES
----------------

  NO   OCC          E(Eh)            E(eV)
   0   2.0000     -26.379471      -717.8219
   1   2.0000     -20.565496      -559.6156
   2   2.0000     -11.435231      -311.1685
   3   2.0000     -11.256237      -306.2978
   4   2.0000      -1.733236       -47.1638
   5   2.0000      -1.377199       -37.4755
   6   2.0000      -1.041510       -28.3409
   7   2.0000      -0.902625       -24.5617
   8   2.0000      -0.779793       -21.2192
   9   2.0000      -0.773320       -21.0431
  10   2.0000      -0.711341       -19.3566
  11   2.0000      -0.613447       -16.6927
  12   2.0000      -0.601855       -16.3773
  13   2.0000      -0.586531       -15.9603
  14   2.0000      -0.499088       -13.5809
  15   2.0000      -0.469139       -12.7659
  16   0.0000       0.025299         0.6884
  17   0.0000       0.041565         1.1310
  18   0.0000       0.048224         1.3122
  19   0.0000       0.063433         1.7261
  20   0.0000       0.097741         2.6597

MULLIKEN ATOMIC CHARGES
-----------------------
   0 C :   -0.716992
   1 C :    0.580373
   2 O :   -0.572056
   3 F :   -0.243758
   4 H :    0.333689
   5 H :    0.307956
   6 H :    0.310788
Sum of atomic charges:    0.0000000

LOEWDIN ATOMIC CHARGES
----------------------
   0 C :    0.583954
   1 C :   -0.928972
   2 O :    0.371602
   3 F :    0.571034
   4 H :   -0.200820
   5 H :   -0.197046
   6 H :   -0.199754

  Mayer bond orders larger than 0.100000
B(  0-C ,  1-C ) :   0.8469 B(  0-C ,  4-H ) :   0.8976 B(  0-C ,  5-H ) :   0.9087
B(  0-C ,  6-H ) :   0.9078 B(  1-C ,  2-O ) :   1.7197 B(  1-C ,  3-F ) :   0.9263

E(0)                                       ...   -251.880541928
E(0)                                       ...   -251.880541928
E(CORR)(strong-pairs)                      ...     -0.837804422
E(CORR)(weak-pairs)                        ...     -0.000619248
E(CORR)(corrected)                         ...     -0.838423670
E(TOT)                                     ...   -252.718965598
E(CCSD(T))                                 ...   -252.751551684
FINAL SINGLE POINT ENERGY      -252.751551683703

DIPOLE MOMENT
-------------
                                X             Y             Z
Electronic contribution:     -0.51876      -4.20192      -2.64362
Nuclear contribution   :     -0.31181       4.56949       3.61460
                        -----------------------------------------
Total Dipole Moment    :     -0.83057       0.36757       0.97098
                        -----------------------------------------
Magnitude (a.u.)       :      1.32957
Magnitude (Debye)      :      3.37950

Rotational constants in cm-1:     0.370228     0.320104     0.177247
Rotational constants in MHz : 11099.151631  9596.483000  5313.726171

                             ****ORCA TERMINATED NORMALLY****
TOTAL RUN TIME: 0 days 0 hours 27 minutes 39 seconds 878 msec
