                         Program Version 5.0.0 -  RELEASE  -
|  1> !DLPNO-CCSD(T) aug-cc-pVTZ aug-cc-pVTZ/C TightSCF TightPNO RIJCOSX def2/J
|  2> *xyz 0 1
|  3> C          2.23447       -2.98975       -2.39762
|  4> N          2.75680       -2.94555       -3.76503
|  5> C          1.98721       -2.59045       -4.81898
|  6> C          0.74322       -3.01749       -4.91352
|  7> N          2.49964       -1.84860       -5.80324
|  8> H          3.30978       -1.29282       -5.55895
|  9> H          1.80103       -1.30430       -6.28913
| 10> H          3.71612       -2.62880       -3.82953
| 11> H          0.39583       -3.62775       -4.18502
| 12> H          0.03920       -2.45438       -5.37137
| 13> H          1.22098       -3.33251       -2.41386
| 14> H          2.27280       -2.00995       -1.96933
| 15> H          2.82798       -3.65908       -1.81056
| 16> *
| 17>
| 18> %MaxCore 64000
| 19>
| 20> %pal nprocs 2
| 21> end
| 22>
| 23> %scf
| 24>   MaxIter 150
| 25> end
| 26>
| 27>
| 28>                          ****END OF INPUT****

CARTESIAN COORDINATES (ANGSTROEM)
---------------------------------
  C      2.234470   -2.989750   -2.397620
  N      2.756800   -2.945550   -3.765030
  C      1.987210   -2.590450   -4.818980
  C      0.743220   -3.017490   -4.913520
  N      2.499640   -1.848600   -5.803240
  H      3.309780   -1.292820   -5.558950
  H      1.801030   -1.304300   -6.289130
  H      3.716120   -2.628800   -3.829530
  H      0.395830   -3.627750   -4.185020
  H      0.039200   -2.454380   -5.371370
  H      1.220980   -3.332510   -2.413860
  H      2.272800   -2.009950   -1.969330
  H      2.827980   -3.659080   -1.810560

 Total Charge           Charge          ....    0
 Multiplicity           Mult            ....    1
 Number of Electrons    NEL             ....   40
 Basis Dimension        Dim             ....  414

ORBITAL ENERGIES
----------------

  NO   OCC          E(Eh)            E(eV)
   0   2.0000     -15.563744      -423.5110
   1   2.0000     -15.562493      -423.4770
   2   2.0000     -11.286909      -307.1324
   3   2.0000     -11.250311      -306.1365
   4   2.0000     -11.135404      -303.0097
   5   2.0000      -1.285859       -34.9900
   6   2.0000      -1.183985       -32.2179
   7   2.0000      -0.987940       -26.8832
   8   2.0000      -0.938991       -25.5513
   9   2.0000      -0.768914       -20.9232
  10   2.0000      -0.725309       -19.7367
  11   2.0000      -0.693044       -18.8587
  12   2.0000      -0.621492       -16.9117
  13   2.0000      -0.595883       -16.2148
  14   2.0000      -0.585668       -15.9368
  15   2.0000      -0.549822       -14.9614
  16   2.0000      -0.532384       -14.4869
  17   2.0000      -0.514860       -14.0101
  18   2.0000      -0.400019       -10.8851
  19   2.0000      -0.279810        -7.6140
  20   0.0000       0.023692         0.6447
  21   0.0000       0.035925         0.9776
  22   0.0000       0.040194         1.0937
  23   0.0000       0.046144         1.2557
  24   0.0000       0.056891         1.5481

MULLIKEN ATOMIC CHARGES
-----------------------
   0 C :   -0.928976
   1 N :   -0.201568
   2 C :    0.615308
   3 C :   -1.149681
   4 N :   -0.500880
   5 H :    0.145141
   6 H :    0.080722
   7 H :    0.083736
   8 H :    0.449780
   9 H :    0.283340
  10 H :    0.463713
  11 H :    0.332770
  12 H :    0.326595
Sum of atomic charges:   -0.0000000

LOEWDIN ATOMIC CHARGES
----------------------
   0 C :    0.535155
   1 N :    0.562650
   2 C :   -0.456047
   3 C :    0.542686
   4 N :    0.856235
   5 H :   -0.290788
   6 H :   -0.288464
   7 H :   -0.286117
   8 H :   -0.324450
   9 H :   -0.296811
  10 H :   -0.205426
  11 H :   -0.173473
  12 H :   -0.175149

  Mayer bond orders larger than 0.100000
B(  0-C ,  1-N ) :   0.9346 B(  0-C , 10-H ) :   0.8095 B(  0-C , 11-H ) :   0.9085
B(  0-C , 12-H ) :   0.9355 B(  1-N ,  2-C ) :   0.7695 B(  1-N ,  4-N ) :  -0.1222
B(  1-N ,  7-H ) :   1.0179 B(  2-C ,  3-C ) :   1.2260 B(  2-C ,  4-N ) :   0.8374
B(  3-C ,  4-N ) :  -0.1445 B(  3-C ,  8-H ) :   0.7981 B(  3-C ,  9-H ) :   1.0967
B(  4-N ,  5-H ) :   0.9773 B(  4-N ,  6-H ) :   1.1203

E(0)                                       ...   -227.191405092
E(0)                                       ...   -227.191405092
E(CORR)(strong-pairs)                      ...     -0.977284913
E(CORR)(weak-pairs)                        ...     -0.000975926
E(CORR)(corrected)                         ...     -0.978260839
E(TOT)                                     ...   -228.169665931
E(CCSD(T))                                 ...   -228.209810340
FINAL SINGLE POINT ENERGY      -228.209810339524

DIPOLE MOMENT
-------------
                                X             Y             Z
Electronic contribution:      1.56655       0.16977      -2.31459
Nuclear contribution   :     -0.87840       0.81693       2.92070
                        -----------------------------------------
Total Dipole Moment    :      0.68815       0.98670       0.60611
                        -----------------------------------------
Magnitude (a.u.)       :      1.34703
Magnitude (Debye)      :      3.42388

Rotational constants in cm-1:     0.323282     0.134248     0.100848
Rotational constants in MHz :  9691.753357  4024.663509  3023.338831

                             ****ORCA TERMINATED NORMALLY****
TOTAL RUN TIME: 0 days 2 hours 8 minutes 2 seconds 916 msec
