                         Program Version 5.0.0 -  RELEASE  -
|  1> !DLPNO-CCSD(T) aug-cc-pVTZ aug-cc-pVTZ/C TightSCF TightPNO RIJCOSX def2/J
|  2> *xyz 0 1
|  3> C          2.23447       -2.98975       -2.39762
|  4> N          2.75680       -2.94555       -3.76503
|  5> C          1.98721       -2.59045       -4.81898
|  6> N          0.74322       -3.01749       -4.91352
|  7> C          2.49964       -1.84860       -5.80324
|  8> H          3.30978       -1.29282       -5.55895
|  9> H          1.80103       -1.30430       -6.28913
| 10> H          3.71612       -2.62880       -3.82953
| 11> H          0.39583       -3.62775       -4.18502
| 12> H          0.03920       -2.45438       -5.37137
| 13> H          1.22098       -3.33251       -2.41386
| 14> H          2.27280       -2.00995       -1.96933
| 15> H          2.82798       -3.65908       -1.81056
| 16> *
| 17>
| 18> %MaxCore 64000
| 19>
| 20> %pal nprocs 2
| 21> end
| 22>
| 23> %scf
| 24>   MaxIter 150
| 25> end
| 26>
| 27>
| 28>                          ****END OF INPUT****

CARTESIAN COORDINATES (ANGSTROEM)
---------------------------------
  C      2.234470   -2.989750   -2.397620
  N      2.756800   -2.945550   -3.765030
  C      1.987210   -2.590450   -4.818980
  N      0.743220   -3.017490   -4.913520
  C      2.499640   -1.848600   -5.803240
  H      3.309780   -1.292820   -5.558950
  H      1.801030   -1.304300   -6.289130
  H      3.716120   -2.628800   -3.829530
  H      0.395830   -3.627750   -4.185020
  H      0.039200   -2.454380   -5.371370
  H      1.220980   -3.332510   -2.413860
  H      2.272800   -2.009950   -1.969330
  H      2.827980   -3.659080   -1.810560

 Total Charge           Charge          ....    0
 Multiplicity           Mult            ....    1
 Number of Electrons    NEL             ....   40
 Basis Dimension        Dim             ....  414

ORBITAL ENERGIES
----------------

  NO   OCC          E(Eh)            E(eV)
   0   2.0000     -15.566925      -423.5976
   1   2.0000     -15.563220      -423.4967
   2   2.0000     -11.293446      -307.3103
   3   2.0000     -11.260475      -306.4131
   4   2.0000     -11.129575      -302.8511
   5   2.0000      -1.289852       -35.0987
   6   2.0000      -1.185681       -32.2640
   7   2.0000      -1.004974       -27.3467
   8   2.0000      -0.919387       -25.0178
   9   2.0000      -0.805084       -21.9074
  10   2.0000      -0.724146       -19.7050
  11   2.0000      -0.666949       -18.1486
  12   2.0000      -0.650787       -17.7088
  13   2.0000      -0.620366       -16.8810
  14   2.0000      -0.563803       -15.3419
  15   2.0000      -0.549715       -14.9585
  16   2.0000      -0.527964       -14.3666
  17   2.0000      -0.516712       -14.0605
  18   2.0000      -0.402832       -10.9616
  19   2.0000      -0.275741        -7.5033
  20   0.0000       0.024166         0.6576
  21   0.0000       0.034601         0.9416
  22   0.0000       0.040750         1.1089
  23   0.0000       0.045543         1.2393
  24   0.0000       0.056027         1.5246

MULLIKEN ATOMIC CHARGES
-----------------------
   0 C :   -0.887669
   1 N :   -0.151993
   2 C :    0.678988
   3 N :   -0.430574
   4 C :   -1.243362
   5 H :    0.312729
   6 H :    0.378834
   7 H :    0.063911
   8 H :    0.146345
   9 H :    0.073282
  10 H :    0.400563
  11 H :    0.331907
  12 H :    0.327038
Sum of atomic charges:   -0.0000000

LOEWDIN ATOMIC CHARGES
----------------------
   0 C :    0.533844
   1 N :    0.565571
   2 C :   -0.461239
   3 N :    0.858477
   4 C :    0.546886
   5 H :   -0.322168
   6 H :   -0.329451
   7 H :   -0.277789
   8 H :   -0.304604
   9 H :   -0.258118
  10 H :   -0.203438
  11 H :   -0.172810
  12 H :   -0.175161

  Mayer bond orders larger than 0.100000
B(  0-C ,  1-N ) :   0.9419 B(  0-C ,  2-C ) :  -0.1155 B(  0-C , 10-H ) :   0.8390
B(  0-C , 11-H ) :   0.9044 B(  0-C , 12-H ) :   0.9327 B(  1-N ,  2-C ) :   0.7881
B(  1-N ,  3-N ) :  -0.1473 B(  1-N ,  4-C ) :  -0.1297 B(  1-N ,  7-H ) :   1.0604
B(  2-C ,  3-N ) :   0.7782 B(  2-C ,  4-C ) :   1.1429 B(  3-N ,  8-H ) :   1.0297
B(  3-N ,  9-H ) :   1.1553 B(  4-C ,  5-H ) :   0.9614 B(  4-C ,  6-H ) :   0.8978

E(0)                                       ...   -227.184673608
E(0)                                       ...   -227.184673608
E(CORR)(strong-pairs)                      ...     -0.977387945
E(CORR)(weak-pairs)                        ...     -0.000973619
E(CORR)(corrected)                         ...     -0.978361565
E(TOT)                                     ...   -228.163035172
E(CCSD(T))                                 ...   -228.203371645
FINAL SINGLE POINT ENERGY      -228.203371645165

DIPOLE MOMENT
-------------
                                X             Y             Z
Electronic contribution:     -0.13963      -1.04175      -1.37774
Nuclear contribution   :     -0.52265       1.05368       2.74049
                        -----------------------------------------
Total Dipole Moment    :     -0.66228       0.01194       1.36276
                        -----------------------------------------
Magnitude (a.u.)       :      1.51521
Magnitude (Debye)      :      3.85135

Rotational constants in cm-1:     0.310125     0.138772     0.101978
Rotational constants in MHz :  9297.312912  4160.277024  3057.230514

                             ****ORCA TERMINATED NORMALLY****
TOTAL RUN TIME: 0 days 2 hours 12 minutes 23 seconds 645 msec
