                         Program Version 5.0.0 -  RELEASE  -
|  1> !DLPNO-CCSD(T) aug-cc-pVTZ aug-cc-pVTZ/C TightSCF TightPNO RIJCOSX def2/J
|  2>
|  3> *xyzfile 0 1 D6.xyz
|  4>
|  5> %MaxCore 64000
|  6>
|  7> %pal nprocs 18
|  8> end
|  9>
| 10> %scf
| 11>   MaxIter 150
| 12> end
| 13>
| 14>
| 15>                          ****END OF INPUT****

CARTESIAN COORDINATES (ANGSTROEM)
---------------------------------
  C      2.234473   -2.989754   -2.397622
  N      2.756799   -2.945553   -3.765029
  C     -1.104325    0.251374   -2.860056
  C     -0.711893    0.842517   -4.218344
  H      0.154626    1.499800   -4.130909
  H     -1.538134    1.459222   -4.582671
  C     -0.397624   -0.205875   -5.288018
  C      1.987208   -2.590451   -4.818975
  N      0.743221   -3.017493   -4.913524
  C      2.499636   -1.848598   -5.803241
  H      3.309780   -1.292818   -5.558947
  H      1.801025   -1.304298   -6.289129
  H      3.716116   -2.628797   -3.829533
  H      0.395828   -3.627747   -4.185024
  H      0.039201   -2.454383   -5.371367
  O      0.617165   -0.005348   -5.998273
  F     -1.133173   -1.221380   -5.341465
  C      2.191199   -1.619503   -1.715492
  H      2.872783   -3.666368   -1.828014
  H      1.246188   -3.447444   -2.407842
  C      1.298729   -0.554314   -2.359773
  H      1.872917   -1.787955   -0.681310
  H      3.216809   -1.238432   -1.654428
  C     -0.196255   -0.863365   -2.325763
  H      1.612531   -0.371346   -3.393065
  H      1.480944    0.388638   -1.834444
  H     -0.404105   -1.761825   -2.909448
  H     -0.490439   -1.087880   -1.294131
  H     -1.143842    1.066711   -2.129680
  H     -2.114401   -0.156834   -2.930323

 Total Charge           Charge          ....    0
 Multiplicity           Mult            ....    1
 Number of Electrons    NEL             ....  102
 Basis Dimension        Dim             ....  989

ORBITAL ENERGIES
----------------

  NO   OCC          E(Eh)            E(eV)
   0   2.0000     -26.398395      -718.3369
   1   2.0000     -20.573009      -559.8200
   2   2.0000     -15.548454      -423.0950
   3   2.0000     -15.546710      -423.0475
   4   2.0000     -11.440307      -311.3066
   5   2.0000     -11.271147      -306.7035
   6   2.0000     -11.266804      -306.5853
   7   2.0000     -11.262541      -306.4693
   8   2.0000     -11.249303      -306.1091
   9   2.0000     -11.235275      -305.7274
  10   2.0000     -11.228561      -305.5447
  11   2.0000     -11.227141      -305.5060
  12   2.0000     -11.101169      -302.0782
  13   2.0000      -1.758345       -47.8470
  14   2.0000      -1.390423       -37.8353
  15   2.0000      -1.276694       -34.7406
  16   2.0000      -1.176978       -32.0272
  17   2.0000      -1.115923       -30.3658
  18   2.0000      -1.063865       -28.9492
  19   2.0000      -1.004942       -27.3459
  20   2.0000      -0.965293       -26.2670
  21   2.0000      -0.931314       -25.3423
  22   2.0000      -0.901779       -24.5386
  23   2.0000      -0.843057       -22.9408
  24   2.0000      -0.825107       -22.4523
  25   2.0000      -0.802537       -21.8381
  26   2.0000      -0.785209       -21.3666
  27   2.0000      -0.775623       -21.1058
  28   2.0000      -0.716195       -19.4887
  29   2.0000      -0.706837       -19.2340
  30   2.0000      -0.667379       -18.1603
  31   2.0000      -0.653338       -17.7782
  32   2.0000      -0.642495       -17.4832
  33   2.0000      -0.631742       -17.1906
  34   2.0000      -0.618038       -16.8177
  35   2.0000      -0.601229       -16.3603
  36   2.0000      -0.587248       -15.9798
  37   2.0000      -0.568189       -15.4612
  38   2.0000      -0.544375       -14.8132
  39   2.0000      -0.539043       -14.6681
  40   2.0000      -0.532895       -14.5008
  41   2.0000      -0.524712       -14.2781
  42   2.0000      -0.517398       -14.0791
  43   2.0000      -0.513062       -13.9611
  44   2.0000      -0.489687       -13.3251
  45   2.0000      -0.476971       -12.9791
  46   2.0000      -0.470379       -12.7997
  47   2.0000      -0.463449       -12.6111
  48   2.0000      -0.444091       -12.0843
  49   2.0000      -0.386827       -10.5261
  50   2.0000      -0.253037        -6.8855
  51   0.0000       0.019869         0.5407
  52   0.0000       0.026557         0.7227
  53   0.0000       0.029070         0.7910
  54   0.0000       0.036197         0.9850
  55   0.0000       0.043568         1.1856

MULLIKEN ATOMIC CHARGES
-----------------------
   0 C :   -0.381499
   1 N :   -0.520598
   2 C :   -0.547092
   3 C :   -0.323194
   4 H :    0.216361
   5 H :    0.387245
   6 C :    0.973886
   7 C :    1.674450
   8 N :   -0.731845
   9 C :   -1.491875
  10 H :    0.095032
  11 H :    0.670554
  12 H :   -0.070961
  13 H :    0.048605
  14 H :    0.098513
  15 O :   -0.798195
  16 F :   -0.499855
  17 C :   -0.601101
  18 H :    0.452762
  19 H :    0.030152
  20 C :   -0.398994
  21 H :    0.223682
  22 H :    0.167916
  23 C :   -0.397183
  24 H :    0.270778
  25 H :    0.360434
  26 H :    0.376815
  27 H :    0.330174
  28 H :    0.228020
  29 H :    0.157010
Sum of atomic charges:   -0.0000000

LOEWDIN ATOMIC CHARGES
----------------------
   0 C :    0.218022
   1 N :    0.588063
   2 C :    0.291914
   3 C :    0.288459
   4 H :   -0.156781
   5 H :   -0.147510
   6 C :   -0.810986
   7 C :   -0.459219
   8 N :    0.871689
   9 C :    0.541620
  10 H :   -0.301543
  11 H :   -0.531163
  12 H :   -0.271513
  13 H :   -0.290307
  14 H :   -0.485692
  15 O :    0.546378
  16 F :    0.709073
  17 C :    0.317312
  18 H :   -0.138417
  19 H :   -0.170963
  20 C :    0.293475
  21 H :   -0.146278
  22 H :   -0.139288
  23 C :    0.286581
  24 H :   -0.172504
  25 H :   -0.131847
  26 H :   -0.185626
  27 H :   -0.129628
  28 H :   -0.135333
  29 H :   -0.147990

  Mayer bond orders larger than 0.100000
B(  0-C ,  1-N ) :   1.0080 B(  0-C , 17-C ) :   0.8702 B(  0-C , 18-H ) :   0.8256
B(  0-C , 19-H ) :   1.1187 B(  1-N ,  7-C ) :   0.3959 B(  1-N ,  9-C ) :  -0.1532
B(  1-N , 12-H ) :   1.1696 B(  1-N , 18-H ) :  -0.1004 B(  1-N , 19-H ) :   0.1563
B(  2-C ,  3-C ) :   0.8968 B(  2-C ,  6-C ) :   0.1283 B(  2-C , 23-C ) :   0.8674
B(  2-C , 28-H ) :   0.9759 B(  2-C , 29-H ) :   1.0707 B(  3-C ,  4-H ) :   0.9973
B(  3-C ,  5-H ) :   0.9128 B(  3-C ,  6-C ) :   0.8026 B(  3-C , 16-F ) :   0.1429
B(  5-H ,  6-C ) :  -0.1359 B(  6-C , 15-O ) :   1.3897 B(  6-C , 16-F ) :   0.5119
B(  7-C ,  8-N ) :   0.2573 B(  7-C ,  9-C ) :   0.9156 B(  7-C , 10-H ) :  -0.2016
B(  8-N , 13-H ) :   1.1376 B(  8-N , 14-H ) :   1.1538 B(  9-C , 10-H ) :   1.4631
B(  9-C , 11-H ) :   0.4453 B( 17-C , 20-C ) :   0.9329 B( 17-C , 21-H ) :   0.9706
B( 17-C , 22-H ) :   1.0660 B( 20-C , 23-C ) :   0.8428 B( 20-C , 24-H ) :   0.8781
B( 20-C , 25-H ) :   0.9279 B( 23-C , 26-H ) :   0.9881 B( 23-C , 27-H ) :   0.9088

E(0)                                       ...   -634.048214953
E(0)                                       ...   -634.048214953
E(CORR)(strong-pairs)                      ...     -2.551306293
E(CORR)(weak-pairs)                        ...     -0.004244391
E(CORR)(corrected)                         ...     -2.555550685
E(TOT)                                     ...   -636.603765638
E(CCSD(T))                                 ...   -636.711838320
FINAL SINGLE POINT ENERGY      -636.711838320449

DIPOLE MOMENT
-------------
                                X             Y             Z
Electronic contribution:     -5.86905      -0.61356     -11.50419
Nuclear contribution   :      4.34606       1.32859      13.65749
                        -----------------------------------------
Total Dipole Moment    :     -1.52299       0.71503       2.15329
                        -----------------------------------------
Magnitude (a.u.)       :      2.73266
Magnitude (Debye)      :      6.94587

Rotational constants in cm-1:     0.033551     0.023540     0.017085
Rotational constants in MHz :  1005.818710   705.725032   512.192443

                             ****ORCA TERMINATED NORMALLY****
TOTAL RUN TIME: 0 days 3 hours 54 minutes 46 seconds 454 msec
