                         Program Version 5.0.0 -  RELEASE  -
|  1> !DLPNO-CCSD(T) aug-cc-pVTZ aug-cc-pVTZ/C TightSCF TightPNO RIJCOSX def2/J
|  2> *xyz -1 1
|  3> C          0.13297        2.38587       -4.02462
|  4> C         -1.36646        2.47911       -4.31393
|  5> C         -2.35773        2.30686       -3.13675
|  6> H         -1.63680        1.72709       -5.06399
|  7> H         -1.58235        3.44561       -4.76869
|  8> O         -3.44376        2.84652       -3.25274
|  9> O         -1.97092        1.58304       -2.15123
| 10> H          0.68084        2.52514       -4.93310
| 11> H          0.35823        1.42282       -3.61633
| 12> H          0.40851        3.14443       -3.32208
| 13> *
| 14> %MaxCore 64000
| 15>
| 16> %pal nprocs 18
| 17> end
| 18>
| 19> %scf
| 20>   MaxIter 150
| 21> end
| 22>
| 23>
| 24>                          ****END OF INPUT****

CARTESIAN COORDINATES (ANGSTROEM)
---------------------------------
  C      0.132970    2.385870   -4.024620
  C     -1.366460    2.479110   -4.313930
  C     -2.357730    2.306860   -3.136750
  H     -1.636800    1.727090   -5.063990
  H     -1.582350    3.445610   -4.768690
  O     -3.443760    2.846520   -3.252740
  O     -1.970920    1.583040   -2.151230
  H      0.680840    2.525140   -4.933100
  H      0.358230    1.422820   -3.616330
  H      0.408510    3.144430   -3.322080

 Total Charge           Charge          ....   -1
 Multiplicity           Mult            ....    1
 Number of Electrons    NEL             ....   40
 Basis Dimension        Dim             ....  345

ORBITAL ENERGIES
----------------

  NO   OCC          E(Eh)            E(eV)
   0   2.0000     -20.290061      -552.1206
   1   2.0000     -20.277488      -551.7785
   2   2.0000     -11.125984      -302.7534
   3   2.0000     -11.059939      -300.9562
   4   2.0000     -11.053150      -300.7715
   5   2.0000      -1.171995       -31.8916
   6   2.0000      -1.055110       -28.7110
   7   2.0000      -0.873333       -23.7646
   8   2.0000      -0.709501       -19.3065
   9   2.0000      -0.513208       -13.9651
  10   2.0000      -0.461552       -12.5595
  11   2.0000      -0.446036       -12.1373
  12   2.0000      -0.403051       -10.9676
  13   2.0000      -0.382469       -10.4075
  14   2.0000      -0.371276       -10.1029
  15   2.0000      -0.333589        -9.0774
  16   2.0000      -0.311156        -8.4670
  17   2.0000      -0.200096        -5.4449
  18   2.0000      -0.192496        -5.2381
  19   2.0000      -0.186085        -5.0636
  20   0.0000       0.117402         3.1947
  21   0.0000       0.134537         3.6609
  22   0.0000       0.137555         3.7430
  23   0.0000       0.146494         3.9863
  24   0.0000       0.158878         4.3233

MULLIKEN ATOMIC CHARGES
-----------------------
   0 C :   -0.892252
   1 C :   -0.243260
   2 C :    0.457809
   3 H :    0.231004
   4 H :    0.252845
   5 O :   -0.816519
   6 O :   -0.848011
   7 H :    0.261417
   8 H :    0.303084
   9 H :    0.293882
Sum of atomic charges:   -1.0000000

LOEWDIN ATOMIC CHARGES
----------------------
   0 C :    0.544172
   1 C :    0.176298
   2 C :   -1.207830
   3 H :   -0.179757
   4 H :   -0.205280
   5 O :    0.272705
   6 O :    0.213950
   7 H :   -0.211664
   8 H :   -0.205343
   9 H :   -0.197250

  Mayer bond orders larger than 0.100000
B(  0-C ,  1-C ) :   0.8572 B(  0-C ,  7-H ) :   0.9793 B(  0-C ,  8-H ) :   0.9298
B(  0-C ,  9-H ) :   0.9243 B(  1-C ,  2-C ) :   0.7491 B(  1-C ,  3-H ) :   0.9392
B(  1-C ,  4-H ) :   0.9569 B(  2-C ,  5-O ) :   1.4300 B(  2-C ,  6-O ) :   1.4113

E(0)                                       ...   -266.374610861
E(0)                                       ...   -266.374610861
E(CORR)(strong-pairs)                      ...     -1.022846962
E(CORR)(weak-pairs)                        ...     -0.000886922
E(CORR)(corrected)                         ...     -1.023733884
E(TOT)                                     ...   -267.398344745
E(CCSD(T))                                 ...   -267.441944638
FINAL SINGLE POINT ENERGY      -267.441944637842

DIPOLE MOMENT
-------------
                                X             Y             Z
Electronic contribution:     -5.13297      -0.34116       3.06934
Nuclear contribution   :      6.75610       0.63068      -4.53972
                        -----------------------------------------
Total Dipole Moment    :      1.62313       0.28951      -1.47039
                        -----------------------------------------
Magnitude (a.u.)       :      2.20916
Magnitude (Debye)      :      5.61524

Rotational constants in cm-1:     0.335096     0.130241     0.099025
Rotational constants in MHz : 10045.924902  3904.536250  2968.708333

                             ****ORCA TERMINATED NORMALLY****
TOTAL RUN TIME: 0 days 0 hours 3 minutes 47 seconds 989 msec
