                         Program Version 5.0.0 -  RELEASE  -
|  1> !DLPNO-CCSD(T) aug-cc-pVTZ aug-cc-pVTZ/C TightSCF TightPNO RIJCOSX def2/J
|  2> *xyz 1 1
|  3> C          0.64866        1.00359       -3.64560
|  4> N          0.28128        0.67645       -2.24018
|  5> C          0.13297        2.38587       -4.02462
|  6> H          0.39079       -0.31925       -2.02649
|  7> H         -0.69269        0.99010       -2.13812
|  8> H          0.85421        1.21221       -1.57528
|  9> H          0.19099        0.23965       -4.27575
| 10> H          1.73157        0.93173       -3.75075
| 11> H          0.40589        2.60338       -5.03610
| 12> H          0.56342        3.11797       -3.37374
| 13> H         -0.93265        2.40724       -3.93025
| 14> *
| 15> %MaxCore 64000
| 16>
| 17> %pal nprocs 18
| 18> end
| 19>
| 20> %scf
| 21>   MaxIter 150
| 22> end
| 23>
| 24>
| 25>                          ****END OF INPUT****

CARTESIAN COORDINATES (ANGSTROEM)
---------------------------------
  C      0.648660    1.003590   -3.645600
  N      0.281280    0.676450   -2.240180
  C      0.132970    2.385870   -4.024620
  H      0.390790   -0.319250   -2.026490
  H     -0.692690    0.990100   -2.138120
  H      0.854210    1.212210   -1.575280
  H      0.190990    0.239650   -4.275750
  H      1.731570    0.931730   -3.750750
  H      0.405890    2.603380   -5.036100
  H      0.563420    3.117970   -3.373740
  H     -0.932650    2.407240   -3.930250

 Total Charge           Charge          ....    1
 Multiplicity           Mult            ....    1
 Number of Electrons    NEL             ....   26
 Basis Dimension        Dim             ....  322

ORBITAL ENERGIES
----------------

  NO   OCC          E(Eh)            E(eV)
   0   2.0000     -15.901236      -432.6946
   1   2.0000     -11.481232      -312.4202
   2   2.0000     -11.399511      -310.1965
   3   2.0000      -1.521945       -41.4142
   4   2.0000      -1.226347       -33.3706
   5   2.0000      -1.067454       -29.0469
   6   2.0000      -0.981609       -26.7109
   7   2.0000      -0.974402       -26.5148
   8   2.0000      -0.857037       -23.3212
   9   2.0000      -0.805752       -21.9256
  10   2.0000      -0.736050       -20.0289
  11   2.0000      -0.717392       -19.5212
  12   2.0000      -0.702235       -19.1088
  13   0.0000      -0.118480        -3.2240
  14   0.0000      -0.083119        -2.2618
  15   0.0000      -0.082241        -2.2379
  16   0.0000      -0.074739        -2.0337
  17   0.0000      -0.047718        -1.2985

MULLIKEN ATOMIC CHARGES
-----------------------
   0 C :   -0.366523
   1 N :    0.079126
   2 C :   -0.940505
   3 H :    0.133972
   4 H :    0.179505
   5 H :    0.166976
   6 H :    0.365447
   7 H :    0.377058
   8 H :    0.361427
   9 H :    0.309229
  10 H :    0.334289
Sum of atomic charges:    1.0000000

LOEWDIN ATOMIC CHARGES
----------------------
   0 C :    0.325026
   1 N :    1.101645
   2 C :    0.665648
   3 H :   -0.120823
   4 H :   -0.144413
   5 H :   -0.122878
   6 H :   -0.111490
   7 H :   -0.108977
   8 H :   -0.150947
   9 H :   -0.165633
  10 H :   -0.167158

  Mayer bond orders larger than 0.100000
B(  0-C ,  1-N ) :   0.8081 B(  0-C ,  2-C ) :   0.8748 B(  0-C ,  6-H ) :   0.8577
B(  0-C ,  7-H ) :   0.8588 B(  1-N ,  3-H ) :   1.0371 B(  1-N ,  4-H ) :   0.9575
B(  1-N ,  5-H ) :   0.9910 B(  2-C ,  8-H ) :   0.8950 B(  2-C ,  9-H ) :   0.9316
B(  2-C , 10-H ) :   0.8973

E(0)                                       ...   -134.671416288
E(0)                                       ...   -134.671416288
E(CORR)(strong-pairs)                      ...     -0.615652810
E(CORR)(weak-pairs)                        ...     -0.000460539
E(CORR)(corrected)                         ...     -0.616113349
E(TOT)                                     ...   -135.287529637
E(CCSD(T))                                 ...   -135.308452898
FINAL SINGLE POINT ENERGY      -135.308452897571

DIPOLE MOMENT
-------------
                                X             Y             Z
Electronic contribution:      0.17258      -1.31334       1.32823
Nuclear contribution   :     -0.22655       0.48066      -0.09136
                        -----------------------------------------
Total Dipole Moment    :     -0.05397      -0.83268       1.23688
                        -----------------------------------------
Magnitude (a.u.)       :      1.49202
Magnitude (Debye)      :      3.79242

Rotational constants in cm-1:     0.998155     0.284845     0.251232
Rotational constants in MHz : 29923.943568  8539.431565  7531.732866

                             ****ORCA TERMINATED NORMALLY****
TOTAL RUN TIME: 0 days 0 hours 1 minutes 45 seconds 865 msec
