                         Program Version 5.0.0 -  RELEASE  -
|  1> !DLPNO-CCSD(T) aug-cc-pVTZ aug-cc-pVTZ/C TightSCF TightPNO RIJCOSX def2/J
|  2> *xyz 0 1
|  3> C          0.13297        2.38587       -4.02462
|  4> C         -1.36646        2.47911       -4.31393
|  5> C         -2.35773        2.30686       -3.13675
|  6> H         -1.63680        1.72709       -5.06399
|  7> H         -1.58235        3.44561       -4.76869
|  8> F         -3.44376        2.84652       -3.25274
|  9> O         -1.97092        1.58304       -2.15123
| 10> H          0.68084        2.52514       -4.93310
| 11> H          0.35823        1.42282       -3.61633
| 12> H          0.40851        3.14443       -3.32208
| 13> *
| 14> %MaxCore 64000
| 15>
| 16> %pal nprocs 18
| 17> end
| 18>
| 19> %scf
| 20>   MaxIter 150
| 21> end
| 22>
| 23>
| 24>                          ****END OF INPUT****

CARTESIAN COORDINATES (ANGSTROEM)
---------------------------------
  C      0.132970    2.385870   -4.024620
  C     -1.366460    2.479110   -4.313930
  C     -2.357730    2.306860   -3.136750
  H     -1.636800    1.727090   -5.063990
  H     -1.582350    3.445610   -4.768690
  F     -3.443760    2.846520   -3.252740
  O     -1.970920    1.583040   -2.151230
  H      0.680840    2.525140   -4.933100
  H      0.358230    1.422820   -3.616330
  H      0.408510    3.144430   -3.322080

 Total Charge           Charge          ....    0
 Multiplicity           Mult            ....    1
 Number of Electrons    NEL             ....   40
 Basis Dimension        Dim             ....  345

ORBITAL ENERGIES
----------------

  NO   OCC          E(Eh)            E(eV)
   0   2.0000     -26.392075      -718.1649
   1   2.0000     -20.557866      -559.4080
   2   2.0000     -11.435317      -311.1708
   3   2.0000     -11.264095      -306.5116
   4   2.0000     -11.226945      -305.5007
   5   2.0000      -1.762341       -47.9557
   6   2.0000      -1.354315       -36.8528
   7   2.0000      -1.072311       -29.1791
   8   2.0000      -0.953334       -25.9415
   9   2.0000      -0.882434       -24.0123
  10   2.0000      -0.791294       -21.5322
  11   2.0000      -0.783046       -21.3078
  12   2.0000      -0.708270       -19.2730
  13   2.0000      -0.638264       -17.3681
  14   2.0000      -0.606529       -16.5045
  15   2.0000      -0.548096       -14.9145
  16   2.0000      -0.533503       -14.5174
  17   2.0000      -0.524744       -14.2790
  18   2.0000      -0.481990       -13.1156
  19   2.0000      -0.458459       -12.4753
  20   0.0000       0.025853         0.7035
  21   0.0000       0.039313         1.0698
  22   0.0000       0.040456         1.1009
  23   0.0000       0.048393         1.3168
  24   0.0000       0.065422         1.7802

MULLIKEN ATOMIC CHARGES
-----------------------
   0 C :   -0.864584
   1 C :   -0.361971
   2 C :    0.597554
   3 H :    0.284089
   4 H :    0.287133
   5 F :   -0.226404
   6 O :   -0.643508
   7 H :    0.298514
   8 H :    0.319943
   9 H :    0.309234
Sum of atomic charges:    0.0000000

LOEWDIN ATOMIC CHARGES
----------------------
   0 C :    0.594898
   1 C :    0.247706
   2 C :   -0.923198
   3 H :   -0.159652
   4 H :   -0.182634
   5 F :    0.619884
   6 O :    0.354796
   7 H :   -0.182266
   8 H :   -0.187331
   9 H :   -0.182203

  Mayer bond orders larger than 0.100000
B(  0-C ,  1-C ) :   0.8787 B(  0-C ,  7-H ) :   0.9491 B(  0-C ,  8-H ) :   0.9189
B(  0-C ,  9-H ) :   0.9076 B(  1-C ,  2-C ) :   0.8525 B(  1-C ,  3-H ) :   0.8944
B(  1-C ,  4-H ) :   0.9264 B(  2-C ,  5-F ) :   0.9156 B(  2-C ,  6-O ) :   1.6538

E(0)                                       ...   -290.915391960
E(0)                                       ...   -290.915391960
E(CORR)(strong-pairs)                      ...     -1.024737555
E(CORR)(weak-pairs)                        ...     -0.000872266
E(CORR)(corrected)                         ...     -1.025609820
E(TOT)                                     ...   -291.941001780
E(CCSD(T))                                 ...   -291.981402098
FINAL SINGLE POINT ENERGY      -291.981402097634

DIPOLE MOMENT
-------------
                                X             Y             Z
Electronic contribution:     -8.34123       0.54213       3.44492
Nuclear contribution   :      8.54799       0.05434      -4.66633
                        -----------------------------------------
Total Dipole Moment    :      0.20676       0.59647      -1.22140
                        -----------------------------------------
Magnitude (a.u.)       :      1.37490
Magnitude (Debye)      :      3.49472

Rotational constants in cm-1:     0.325803     0.123345     0.094275
Rotational constants in MHz :  9767.324172  3697.779805  2826.305733

                             ****ORCA TERMINATED NORMALLY****
TOTAL RUN TIME: 0 days 0 hours 3 minutes 21 seconds 591 msec
