                         Program Version 5.0.0 -  RELEASE  -
|  1> !DLPNO-CCSD(T) aug-cc-pVTZ aug-cc-pVTZ/C TightSCF TightPNO RIJCOSX def2/J
|  2> *xyz 0 1
|  3> C          0.64866        1.00359       -3.64560
|  4> C          0.28128        0.67645       -2.24018
|  5> C          0.13297        2.38587       -4.02462
|  6> H          0.39079       -0.31925       -2.02649
|  7> H         -0.69269        0.99010       -2.13812
|  8> H          0.85421        1.21221       -1.57528
|  9> H          0.19099        0.23965       -4.27575
| 10> H          1.73157        0.93173       -3.75075
| 11> H          0.40589        2.60338       -5.03610
| 12> H          0.56342        3.11797       -3.37374
| 13> H         -0.93265        2.40724       -3.93025
| 14> *
| 15> %MaxCore 64000
| 16>
| 17> %pal nprocs 18
| 18> end
| 19>
| 20> %scf
| 21>   MaxIter 150
| 22> end
| 23>
| 24>
| 25>                          ****END OF INPUT****

CARTESIAN COORDINATES (ANGSTROEM)
---------------------------------
  C      0.648660    1.003590   -3.645600
  C      0.281280    0.676450   -2.240180
  C      0.132970    2.385870   -4.024620
  H      0.390790   -0.319250   -2.026490
  H     -0.692690    0.990100   -2.138120
  H      0.854210    1.212210   -1.575280
  H      0.190990    0.239650   -4.275750
  H      1.731570    0.931730   -3.750750
  H      0.405890    2.603380   -5.036100
  H      0.563420    3.117970   -3.373740
  H     -0.932650    2.407240   -3.930250

 Total Charge           Charge          ....    0
 Multiplicity           Mult            ....    1
 Number of Electrons    NEL             ....   26
 Basis Dimension        Dim             ....  322

ORBITAL ENERGIES
----------------

  NO   OCC          E(Eh)            E(eV)
   0   2.0000     -11.207324      -304.9668
   1   2.0000     -11.199938      -304.7658
   2   2.0000     -11.178187      -304.1739
   3   2.0000      -1.068619       -29.0786
   4   2.0000      -0.937922       -25.5222
   5   2.0000      -0.803504       -21.8645
   6   2.0000      -0.638132       -17.3644
   7   2.0000      -0.615747       -16.7553
   8   2.0000      -0.558147       -15.1879
   9   2.0000      -0.541247       -14.7281
  10   2.0000      -0.478001       -13.0071
  11   2.0000      -0.474174       -12.9029
  12   2.0000      -0.470016       -12.7898
  13   0.0000       0.033262         0.9051
  14   0.0000       0.040681         1.1070
  15   0.0000       0.042022         1.1435
  16   0.0000       0.042891         1.1671
  17   0.0000       0.063684         1.7329

MULLIKEN ATOMIC CHARGES
-----------------------
   0 C :   -0.386742
   1 C :   -1.062045
   2 C :   -0.944409
   3 H :    0.270902
   4 H :    0.364071
   5 H :    0.326296
   6 H :    0.259520
   7 H :    0.284112
   8 H :    0.305013
   9 H :    0.281451
  10 H :    0.301832
Sum of atomic charges:   -0.0000000

LOEWDIN ATOMIC CHARGES
----------------------
   0 C :    0.250549
   1 C :    0.608194
   2 C :    0.600394
   3 H :   -0.202624
   4 H :   -0.218322
   5 H :   -0.202594
   6 H :   -0.145463
   7 H :   -0.143493
   8 H :   -0.184660
   9 H :   -0.178977
  10 H :   -0.183004

  Mayer bond orders larger than 0.100000
B(  0-C ,  1-C ) :   0.7616 B(  0-C ,  2-C ) :   0.8261 B(  0-C ,  6-H ) :   0.9575
B(  0-C ,  7-H ) :   0.9243 B(  1-C ,  3-H ) :   1.0013 B(  1-C ,  4-H ) :   0.8854
B(  1-C ,  5-H ) :   0.9282 B(  2-C ,  8-H ) :   0.9469 B(  2-C ,  9-H ) :   0.9423
B(  2-C , 10-H ) :   0.9255

E(0)                                       ...   -118.296393405
E(0)                                       ...   -118.296393405
E(CORR)(strong-pairs)                      ...     -0.590444000
E(CORR)(weak-pairs)                        ...     -0.000451219
E(CORR)(corrected)                         ...     -0.590895219
E(TOT)                                     ...   -118.887288624
E(CCSD(T))                                 ...   -118.907811471
FINAL SINGLE POINT ENERGY      -118.907811470841

DIPOLE MOMENT
-------------
                                X             Y             Z
Electronic contribution:      0.25693      -0.27983      -0.23893
Nuclear contribution   :     -0.24754       0.26111       0.24628
                        -----------------------------------------
Total Dipole Moment    :      0.00940      -0.01872       0.00735
                        -----------------------------------------
Magnitude (a.u.)       :      0.02220
Magnitude (Debye)      :      0.05642

Rotational constants in cm-1:     1.006509     0.299509     0.263145
Rotational constants in MHz : 30174.379724  8979.049324  7888.875355

                             ****ORCA TERMINATED NORMALLY****
TOTAL RUN TIME: 0 days 0 hours 2 minutes 3 seconds 200 msec
