                         Program Version 5.0.0 -  RELEASE  -
|  1> !DLPNO-CCSD(T) aug-cc-pVTZ aug-cc-pVTZ/C TightSCF TightPNO RIJCOSX def2/J
|  2> *xyz 0 1
|  3> C          0.13297        2.38587       -4.02462
|  4> C         -1.36646        2.47911       -4.31393
|  5> C         -2.35773        2.30686       -3.13675
|  6> H         -1.63680        1.72709       -5.06399
|  7> H         -1.58235        3.44561       -4.76869
|  8> O         -3.44376        2.84652       -3.25274
|  9> F         -1.97092        1.58304       -2.15123
| 10> H          0.68084        2.52514       -4.93310
| 11> H          0.35823        1.42282       -3.61633
| 12> H          0.40851        3.14443       -3.32208
| 13> *
| 14> %MaxCore 64000
| 15>
| 16> %pal nprocs 18
| 17> end
| 18>
| 19> %scf
| 20>   MaxIter 150
| 21> end
| 22>
| 23>
| 24>                          ****END OF INPUT****

CARTESIAN COORDINATES (ANGSTROEM)
---------------------------------
  C      0.132970    2.385870   -4.024620
  C     -1.366460    2.479110   -4.313930
  C     -2.357730    2.306860   -3.136750
  H     -1.636800    1.727090   -5.063990
  H     -1.582350    3.445610   -4.768690
  O     -3.443760    2.846520   -3.252740
  F     -1.970920    1.583040   -2.151230
  H      0.680840    2.525140   -4.933100
  H      0.358230    1.422820   -3.616330
  H      0.408510    3.144430   -3.322080

 Total Charge           Charge          ....    0
 Multiplicity           Mult            ....    1
 Number of Electrons    NEL             ....   40
 Basis Dimension        Dim             ....  345

ORBITAL ENERGIES
----------------

  NO   OCC          E(Eh)            E(eV)
   0   2.0000     -26.366200      -717.4608
   1   2.0000     -20.568471      -559.6965
   2   2.0000     -11.427777      -310.9656
   3   2.0000     -11.261893      -306.4517
   4   2.0000     -11.232337      -305.6474
   5   2.0000      -1.709283       -46.5120
   6   2.0000      -1.402208       -38.1560
   7   2.0000      -1.074332       -29.2341
   8   2.0000      -0.928431       -25.2639
   9   2.0000      -0.869495       -23.6602
  10   2.0000      -0.766622       -20.8609
  11   2.0000      -0.756956       -20.5978
  12   2.0000      -0.704117       -19.1600
  13   2.0000      -0.640782       -17.4366
  14   2.0000      -0.613625       -16.6976
  15   2.0000      -0.576620       -15.6906
  16   2.0000      -0.547941       -14.9102
  17   2.0000      -0.527640       -14.3578
  18   2.0000      -0.498829       -13.5738
  19   2.0000      -0.464947       -12.6519
  20   0.0000       0.025926         0.7055
  21   0.0000       0.038564         1.0494
  22   0.0000       0.040774         1.1095
  23   0.0000       0.046963         1.2779
  24   0.0000       0.063165         1.7188

MULLIKEN ATOMIC CHARGES
-----------------------
   0 C :   -0.897182
   1 C :   -0.302120
   2 C :    0.611269
   3 H :    0.292718
   4 H :    0.309020
   5 O :   -0.627195
   6 F :   -0.293899
   7 H :    0.292543
   8 H :    0.308838
   9 H :    0.306009
Sum of atomic charges:   -0.0000000

LOEWDIN ATOMIC CHARGES
----------------------
   0 C :    0.591604
   1 C :    0.249622
   2 C :   -0.909282
   3 H :   -0.158189
   4 H :   -0.173997
   5 O :    0.407521
   6 F :    0.548696
   7 H :   -0.181125
   8 H :   -0.189984
   9 H :   -0.184866

  Mayer bond orders larger than 0.100000
B(  0-C ,  1-C ) :   0.8736 B(  0-C ,  7-H ) :   0.9628 B(  0-C ,  8-H ) :   0.9232
B(  0-C ,  9-H ) :   0.9136 B(  1-C ,  2-C ) :   0.8169 B(  1-C ,  3-H ) :   0.8987
B(  1-C ,  4-H ) :   0.9195 B(  2-C ,  5-O ) :   1.6731 B(  2-C ,  6-F ) :   0.8267

E(0)                                       ...   -290.934510246
E(0)                                       ...   -290.934510246
E(CORR)(strong-pairs)                      ...     -1.022785663
E(CORR)(weak-pairs)                        ...     -0.000861115
E(CORR)(corrected)                         ...     -1.023646779
E(TOT)                                     ...   -291.958157025
E(CCSD(T))                                 ...   -291.997882157
FINAL SINGLE POINT ENERGY      -291.997882157163

DIPOLE MOMENT
-------------
                                X             Y             Z
Electronic contribution:     -5.76818      -1.64863       5.34436
Nuclear contribution   :      6.94213       1.43193      -5.86732
                        -----------------------------------------
Total Dipole Moment    :      1.17395      -0.21670      -0.52296
                        -----------------------------------------
Magnitude (a.u.)       :      1.30330
Magnitude (Debye)      :      3.31274

Rotational constants in cm-1:     0.306336     0.129048     0.095707
Rotational constants in MHz :  9183.725605  3868.769583  2869.236577

                             ****ORCA TERMINATED NORMALLY****
TOTAL RUN TIME: 0 days 0 hours 3 minutes 1 seconds 204 msec
