                         Program Version 5.0.0 -  RELEASE  -
|  1> !TPSS D3BJ RIJCOSX def2-TZVPD def2/J TightSCF
|  2> *xyz -1 1
|  3> C          0.84888        2.66797       -4.30235
|  4> C          2.09343        1.86104       -4.65684
|  5> H          2.44481        2.04157       -5.67499
|  6> H          2.90175        2.13786       -3.98034
|  7> S          1.87964        0.07859       -4.46297
|  8> O          3.20757       -0.46611       -4.42026
|  9> O          1.07506       -0.05616       -3.26876
| 10> O          1.13166       -0.31996       -5.67903
| 11> H          0.05064        2.40112       -4.96303
| 12> H          1.06043        3.71210       -4.40203
| 13> H          0.56237        2.45684       -3.29327
| 14> *
| 15>
| 16> %MaxCore 64000
| 17>
| 18> %pal nprocs 4
| 19> end
| 20>
| 21> %scf
| 22>   MaxIter 150
| 23> end
| 24>
| 25>
| 26>                          ****END OF INPUT****

CARTESIAN COORDINATES (ANGSTROEM)
---------------------------------
  C      0.848880    2.667970   -4.302350
  C      2.093430    1.861040   -4.656840
  H      2.444810    2.041570   -5.674990
  H      2.901750    2.137860   -3.980340
  S      1.879640    0.078590   -4.462970
  O      3.207570   -0.466110   -4.420260
  O      1.075060   -0.056160   -3.268760
  O      1.131660   -0.319960   -5.679030
  H      0.050640    2.401120   -4.963030
  H      1.060430    3.712100   -4.402030
  H      0.562370    2.456840   -3.293270

 Total Charge           Charge          ....   -1
 Multiplicity           Mult            ....    1
 Number of Electrons    NEL             ....   58
 Basis Dimension        Dim             ....  285

ORBITAL ENERGIES
----------------

  NO   OCC          E(Eh)            E(eV)
   0   2.0000     -88.324704     -2403.4374
   1   2.0000     -18.665139      -507.9043
   2   2.0000     -18.662058      -507.8204
   3   2.0000     -18.650220      -507.4983
   4   2.0000      -9.839465      -267.7454
   5   2.0000      -9.835438      -267.6359
   6   2.0000      -7.673757      -208.8135
   7   2.0000      -5.653256      -153.8329
   8   2.0000      -5.652443      -153.8108
   9   2.0000      -5.652213      -153.8045
  10   2.0000      -0.849226       -23.1086
  11   2.0000      -0.728521       -19.8241
  12   2.0000      -0.703975       -19.1561
  13   2.0000      -0.570499       -15.5241
  14   2.0000      -0.449168       -12.2225
  15   2.0000      -0.328926        -8.9505
  16   2.0000      -0.271545        -7.3891
  17   2.0000      -0.266334        -7.2473
  18   2.0000      -0.226335        -6.1589
  19   2.0000      -0.212600        -5.7851
  20   2.0000      -0.207730        -5.6526
  21   2.0000      -0.185336        -5.0432
  22   2.0000      -0.173103        -4.7104
  23   2.0000      -0.106603        -2.9008
  24   2.0000      -0.105649        -2.8748
  25   2.0000      -0.074781        -2.0349
  26   2.0000      -0.068131        -1.8539
  27   2.0000      -0.056824        -1.5463
  28   2.0000      -0.022465        -0.6113
  29   0.0000       0.116410         3.1677
  30   0.0000       0.138494         3.7686
  31   0.0000       0.144000         3.9184
  32   0.0000       0.151527         4.1233
  33   0.0000       0.169907         4.6234

MULLIKEN ATOMIC CHARGES
-----------------------
   0 C :   -0.959122
   1 C :   -0.326538
   2 H :    0.215804
   3 H :    0.214510
   4 S :    1.333532
   5 O :   -0.728124
   6 O :   -0.753979
   7 O :   -0.785432
   8 H :    0.272671
   9 H :    0.228608
  10 H :    0.288069
Sum of atomic charges:   -1.0000000

LOEWDIN ATOMIC CHARGES
----------------------
   0 C :   -0.148743
   1 C :   -0.324297
   2 H :    0.078219
   3 H :    0.072534
   4 S :    0.320843
   5 O :   -0.372734
   6 O :   -0.373643
   7 O :   -0.406629
   8 H :    0.058699
   9 H :    0.043633
  10 H :    0.052120

  Mayer bond orders larger than 0.100000
B(  0-C ,  1-C ) :   0.9449 B(  0-C ,  8-H ) :   0.9459 B(  0-C ,  9-H ) :   0.9466
B(  0-C , 10-H ) :   0.9375 B(  1-C ,  2-H ) :   0.9315 B(  1-C ,  3-H ) :   0.9435
B(  1-C ,  4-S ) :   0.8545 B(  1-C ,  5-O ) :   0.1643 B(  1-C ,  6-O ) :   0.1306
B(  1-C ,  7-O ) :   0.1422 B(  4-S ,  5-O ) :   1.4193 B(  4-S ,  6-O ) :   1.4081
B(  4-S ,  7-O ) :   1.3757

Dispersion correction           -0.012158092
FINAL SINGLE POINT ENERGY      -703.378940446482

DIPOLE MOMENT
-------------
                                X             Y             Z
Electronic contribution:      1.60523      -7.78593       0.05976
Nuclear contribution   :     -1.55288       9.51857       0.00420
                        -----------------------------------------
Total Dipole Moment    :      0.05235       1.73264       0.06396
                        -----------------------------------------
Magnitude (a.u.)       :      1.73461
Magnitude (Debye)      :      4.40904

Rotational constants in cm-1:     0.163401     0.083833     0.082462
Rotational constants in MHz :  4898.624208  2513.264548  2472.149188

                             ****ORCA TERMINATED NORMALLY****
TOTAL RUN TIME: 0 days 0 hours 0 minutes 25 seconds 855 msec
