                         Program Version 5.0.0 -  RELEASE  -
|  1> !TPSS D3BJ RIJCOSX def2-TZVPD def2/J TightSCF
|  2> *xyz 1 1
|  3> C         -0.46129        2.23469       -4.98962
|  4> C          0.84888        2.66797       -4.30235
|  5> C         -0.42384        2.39877       -6.47432
|  6> N         -0.95947        3.49265       -7.00740
|  7> N          0.14558        1.48689       -7.20399
|  8> H          0.56537        0.69681       -6.72386
|  9> H          0.22068        1.58177       -8.20752
| 10> H         -1.40624        4.18151       -6.40326
| 11> H         -0.93421        3.68160       -7.99947
| 12> H         -1.28888        2.82674       -4.59500
| 13> H         -0.65170        1.18634       -4.75655
| 14> H          1.66208        2.08894       -4.68750
| 15> H          0.76716        2.51042       -3.24717
| 16> H          1.02677        3.70527       -4.49537
| 17> *
| 18>
| 19> %MaxCore 64000
| 20>
| 21> %pal nprocs 4
| 22> end
| 23>
| 24> %scf
| 25>   MaxIter 150
| 26> end
| 27>
| 28>
| 29>                          ****END OF INPUT****

CARTESIAN COORDINATES (ANGSTROEM)
---------------------------------
  C     -0.461290    2.234690   -4.989620
  C      0.848880    2.667970   -4.302350
  C     -0.423840    2.398770   -6.474320
  N     -0.959470    3.492650   -7.007400
  N      0.145580    1.486890   -7.203990
  H      0.565370    0.696810   -6.723860
  H      0.220680    1.581770   -8.207520
  H     -1.406240    4.181510   -6.403260
  H     -0.934210    3.681600   -7.999470
  H     -1.288880    2.826740   -4.595000
  H     -0.651700    1.186340   -4.756550
  H      1.662080    2.088940   -4.687500
  H      0.767160    2.510420   -3.247170
  H      1.026770    3.705270   -4.495370

 Total Charge           Charge          ....    1
 Multiplicity           Mult            ....    1
 Number of Electrons    NEL             ....   40
 Basis Dimension        Dim             ....  266

ORBITAL ENERGIES
----------------

  NO   OCC          E(Eh)            E(eV)
   0   2.0000     -14.348306      -390.4373
   1   2.0000     -14.344842      -390.3430
   2   2.0000     -10.296472      -280.1812
   3   2.0000     -10.184009      -277.1210
   4   2.0000     -10.141349      -275.9601
   5   2.0000      -1.138417       -30.9779
   6   2.0000      -1.049793       -28.5663
   7   2.0000      -0.912326       -24.8256
   8   2.0000      -0.810654       -22.0590
   9   2.0000      -0.766687       -20.8626
  10   2.0000      -0.729910       -19.8619
  11   2.0000      -0.706224       -19.2173
  12   2.0000      -0.658025       -17.9058
  13   2.0000      -0.605527       -16.4772
  14   2.0000      -0.583458       -15.8767
  15   2.0000      -0.572613       -15.5816
  16   2.0000      -0.507337       -13.8054
  17   2.0000      -0.498796       -13.5729
  18   2.0000      -0.493847       -13.4383
  19   2.0000      -0.455505       -12.3949
  20   0.0000      -0.236643        -6.4394
  21   0.0000      -0.180913        -4.9229
  22   0.0000      -0.138849        -3.7783
  23   0.0000      -0.134512        -3.6603
  24   0.0000      -0.108701        -2.9579

MULLIKEN ATOMIC CHARGES
-----------------------
   0 C :   -0.333789
   1 C :   -0.851427
   2 C :    0.882713
   3 N :   -0.359320
   4 N :   -0.329175
   5 H :    0.219808
   6 H :    0.184156
   7 H :    0.214118
   8 H :    0.169733
   9 H :    0.187575
  10 H :    0.210525
  11 H :    0.287886
  12 H :    0.234230
  13 H :    0.282967
Sum of atomic charges:    1.0000000

LOEWDIN ATOMIC CHARGES
----------------------
   0 C :   -0.141684
   1 C :   -0.043528
   2 C :   -0.368178
   3 N :    0.229839
   4 N :    0.239159
   5 H :    0.154720
   6 H :    0.150463
   7 H :    0.149968
   8 H :    0.141672
   9 H :    0.123540
  10 H :    0.128153
  11 H :    0.073774
  12 H :    0.083525
  13 H :    0.078578

  Mayer bond orders larger than 0.100000
B(  0-C ,  1-C ) :   0.8647 B(  0-C ,  2-C ) :   0.8999 B(  0-C ,  9-H ) :   0.9542
B(  0-C , 10-H ) :   0.9275 B(  1-C ,  2-C ) :   0.1414 B(  1-C , 11-H ) :   0.9055
B(  1-C , 12-H ) :   0.9848 B(  1-C , 13-H ) :   0.9495 B(  2-C ,  3-N ) :   1.0599
B(  2-C ,  4-N ) :   1.1522 B(  3-N ,  4-N ) :   0.1243 B(  3-N ,  7-H ) :   0.9686
B(  3-N ,  8-H ) :   1.0589 B(  4-N ,  5-H ) :   0.9612 B(  4-N ,  6-H ) :   1.0313

Dispersion correction           -0.012421485
FINAL SINGLE POINT ENERGY      -229.165021109326

DIPOLE MOMENT
-------------
                                X             Y             Z
Electronic contribution:     -1.54707      -0.26322      -3.86891
Nuclear contribution   :      1.33202       0.27544       2.83701
                        -----------------------------------------
Total Dipole Moment    :     -0.21505       0.01222      -1.03190
                        -----------------------------------------
Magnitude (a.u.)       :      1.05414
Magnitude (Debye)      :      2.67941

Rotational constants in cm-1:     0.258570     0.126296     0.098869
Rotational constants in MHz :  7751.748523  3786.267300  2964.011691

                             ****ORCA TERMINATED NORMALLY****
TOTAL RUN TIME: 0 days 0 hours 0 minutes 22 seconds 909 msec
