                         Program Version 5.0.0 -  RELEASE  -
|  1> !TPSS D3BJ RIJCOSX def2-TZVPD def2/J TightSCF xyzfile
|  2>
|  3> *xyzfile 0 1 B.xyz
|  4>
|  5> %MaxCore 64000
|  6>
|  7> %pal nprocs 4
|  8> end
|  9>
| 10> %scf
| 11>   MaxIter 150
| 12> end
| 13>
| 14>
| 15>                          ****END OF INPUT****

CARTESIAN COORDINATES (ANGSTROEM)
---------------------------------
  C     -0.461293    2.234686   -4.989619
  C      0.848883    2.667967   -4.302351
  C      2.093434    1.861037   -4.656845
  H      2.444814    2.041567   -5.674990
  H      2.901748    2.137864   -3.980338
  S      1.879644    0.078594   -4.462965
  C     -0.423841    2.398772   -6.474317
  N     -0.959467    3.492647   -7.007401
  N      0.145585    1.486891   -7.203987
  H      0.565371    0.696807   -6.723858
  H      0.220682    1.581768   -8.207520
  H     -1.406243    4.181507   -6.403261
  H     -0.934215    3.681601   -7.999468
  O      3.207574   -0.466111   -4.420259
  O      1.075064   -0.056160   -3.268758
  O      1.131661   -0.319960   -5.679031
  H      0.668432    2.559427   -3.232850
  H      1.034074    3.729426   -4.497081
  H     -1.288884    2.826737   -4.594997
  H     -0.651696    1.186343   -4.756552

 Total Charge           Charge          ....    0
 Multiplicity           Mult            ....    1
 Number of Electrons    NEL             ....   88
 Basis Dimension        Dim             ....  478

ORBITAL ENERGIES
----------------

  NO   OCC          E(Eh)            E(eV)
   0   2.0000     -88.478162     -2407.6132
   1   2.0000     -18.822201      -512.1781
   2   2.0000     -18.808489      -511.8050
   3   2.0000     -18.806795      -511.7589
   4   2.0000     -14.208830      -386.6419
   5   2.0000     -14.176518      -385.7627
   6   2.0000     -10.147339      -276.1231
   7   2.0000     -10.035628      -273.0833
   8   2.0000     -10.014665      -272.5129
   9   2.0000      -9.989782      -271.8358
  10   2.0000      -7.827304      -212.9918
  11   2.0000      -5.807198      -158.0219
  12   2.0000      -5.806269      -157.9966
  13   2.0000      -5.805052      -157.9635
  14   2.0000      -1.003187       -27.2981
  15   2.0000      -0.989750       -26.9325
  16   2.0000      -0.902718       -24.5642
  17   2.0000      -0.872848       -23.7514
  18   2.0000      -0.871387       -23.7116
  19   2.0000      -0.775447       -21.1010
  20   2.0000      -0.700195       -19.0533
  21   2.0000      -0.641661       -17.4605
  22   2.0000      -0.598794       -16.2940
  23   2.0000      -0.583563       -15.8795
  24   2.0000      -0.557105       -15.1596
  25   2.0000      -0.515364       -14.0238
  26   2.0000      -0.473428       -12.8826
  27   2.0000      -0.468126       -12.7384
  28   2.0000      -0.440197       -11.9784
  29   2.0000      -0.428534       -11.6610
  30   2.0000      -0.403788       -10.9876
  31   2.0000      -0.391089       -10.6421
  32   2.0000      -0.367321        -9.9953
  33   2.0000      -0.359548        -9.7838
  34   2.0000      -0.351954        -9.5772
  35   2.0000      -0.334923        -9.1137
  36   2.0000      -0.322482        -8.7752
  37   2.0000      -0.308788        -8.4026
  38   2.0000      -0.260739        -7.0951
  39   2.0000      -0.255045        -6.9401
  40   2.0000      -0.229522        -6.2456
  41   2.0000      -0.218282        -5.9398
  42   2.0000      -0.214089        -5.8257
  43   2.0000      -0.178501        -4.8573
  44   0.0000      -0.091065        -2.4780
  45   0.0000      -0.061982        -1.6866
  46   0.0000      -0.024503        -0.6668
  47   0.0000      -0.005867        -0.1597
  48   0.0000       0.005385         0.1465

MULLIKEN ATOMIC CHARGES
-----------------------
   0 C :   -0.499629
   1 C :   -0.204770
   2 C :   -0.622373
   3 H :    0.312334
   4 H :    0.122282
   5 S :    1.448079
   6 C :    0.802895
   7 N :   -0.425297
   8 N :   -0.276856
   9 H :    0.327368
  10 H :    0.147901
  11 H :    0.199952
  12 H :    0.140980
  13 O :   -0.715254
  14 O :   -0.731268
  15 O :   -0.884716
  16 H :    0.235270
  17 H :    0.080532
  18 H :    0.132524
  19 H :    0.410046
Sum of atomic charges:   -0.0000000

LOEWDIN ATOMIC CHARGES
----------------------
   0 C :   -0.107936
   1 C :   -0.198792
   2 C :   -0.246020
   3 H :    0.090237
   4 H :    0.097037
   5 S :    0.401164
   6 C :   -0.363707
   7 N :    0.193045
   8 N :    0.234969
   9 H :    0.036193
  10 H :    0.141236
  11 H :    0.133550
  12 H :    0.125682
  13 O :   -0.310496
  14 O :   -0.318222
  15 O :   -0.367615
  16 H :    0.113338
  17 H :    0.108260
  18 H :    0.118701
  19 H :    0.119375

  Mayer bond orders larger than 0.100000
B(  0-C ,  1-C ) :   0.9300 B(  0-C ,  6-C ) :   0.8725 B(  0-C , 18-H ) :   0.9175
B(  0-C , 19-H ) :   0.8619 B(  1-C ,  2-C ) :   1.0915 B(  1-C ,  6-C ) :   0.2126
B(  1-C , 16-H ) :   0.8365 B(  1-C , 17-H ) :   0.9566 B(  2-C ,  3-H ) :   0.8329
B(  2-C ,  4-H ) :   1.0097 B(  2-C ,  5-S ) :   0.8432 B(  2-C ,  8-N ) :   0.1069
B(  2-C , 13-O ) :   0.1870 B(  2-C , 15-O ) :   0.1888 B(  5-S , 13-O ) :   1.3474
B(  5-S , 14-O ) :   1.4196 B(  5-S , 15-O ) :   1.2019 B(  6-C ,  7-N ) :   0.9480
B(  6-C ,  8-N ) :   1.2254 B(  7-N ,  8-N ) :   0.1147 B(  7-N , 11-H ) :   0.9980
B(  7-N , 12-H ) :   1.0811 B(  8-N ,  9-H ) :   0.7947 B(  8-N , 10-H ) :   1.0422

Dispersion correction           -0.028721026
FINAL SINGLE POINT ENERGY      -892.154076680471

DIPOLE MOMENT
-------------
                                X             Y             Z
Electronic contribution:      3.15289      -7.79241       1.15174
Nuclear contribution   :     -5.91573      12.15027      -4.18945
                        -----------------------------------------
Total Dipole Moment    :     -2.76284       4.35786      -3.03771
                        -----------------------------------------
Magnitude (a.u.)       :      5.98765
Magnitude (Debye)      :     15.21939

Rotational constants in cm-1:     0.082044     0.024757     0.022371
Rotational constants in MHz :  2459.631375   742.181961   670.660570

                             ****ORCA TERMINATED NORMALLY****
TOTAL RUN TIME: 0 days 0 hours 1 minutes 9 seconds 719 msec
