                         Program Version 5.0.0 -  RELEASE  -
|  1> !TPSS D3BJ RIJCOSX def2-TZVPD def2/J TightSCF
|  2> *xyz 0 1
|  3> C          0.84888        2.66797       -4.30235
|  4> C          2.09343        1.86104       -4.65684
|  5> H          2.44481        2.04157       -5.67499
|  6> H          2.90175        2.13786       -3.98034
|  7> S          1.87964        0.07859       -4.46297
|  8> F          3.20757       -0.46611       -4.42026
|  9> O          1.07506       -0.05616       -3.26876
| 10> O          1.13166       -0.31996       -5.67903
| 11> H          0.05064        2.40112       -4.96303
| 12> H          1.06043        3.71210       -4.40203
| 13> H          0.56237        2.45684       -3.29327
| 14> *
| 15>
| 16> %MaxCore 64000
| 17>
| 18> %pal nprocs 4
| 19> end
| 20>
| 21> %scf
| 22>   MaxIter 150
| 23> end
| 24>
| 25>
| 26>                          ****END OF INPUT****

CARTESIAN COORDINATES (ANGSTROEM)
---------------------------------
  C      0.848880    2.667970   -4.302350
  C      2.093430    1.861040   -4.656840
  H      2.444810    2.041570   -5.674990
  H      2.901750    2.137860   -3.980340
  S      1.879640    0.078590   -4.462970
  F      3.207570   -0.466110   -4.420260
  O      1.075060   -0.056160   -3.268760
  O      1.131660   -0.319960   -5.679030
  H      0.050640    2.401120   -4.963030
  H      1.060430    3.712100   -4.402030
  H      0.562370    2.456840   -3.293270

 Total Charge           Charge          ....    0
 Multiplicity           Mult            ....    1
 Number of Electrons    NEL             ....   58
 Basis Dimension        Dim             ....  285

ORBITAL ENERGIES
----------------

  NO   OCC          E(Eh)            E(eV)
   0   2.0000     -88.584097     -2410.4958
   1   2.0000     -24.530098      -667.4979
   2   2.0000     -18.895473      -514.1720
   3   2.0000     -18.883818      -513.8548
   4   2.0000     -10.041263      -273.2367
   5   2.0000     -10.000483      -272.1270
   6   2.0000      -7.933821      -215.8903
   7   2.0000      -5.917020      -161.0103
   8   2.0000      -5.910272      -160.8267
   9   2.0000      -5.910011      -160.8196
  10   2.0000      -1.306231       -35.5444
  11   2.0000      -1.030238       -28.0342
  12   2.0000      -0.936052       -25.4713
  13   2.0000      -0.759971       -20.6799
  14   2.0000      -0.678972       -18.4758
  15   2.0000      -0.620157       -16.8753
  16   2.0000      -0.533725       -14.5234
  17   2.0000      -0.530028       -14.4228
  18   2.0000      -0.504229       -13.7208
  19   2.0000      -0.448994       -12.2177
  20   2.0000      -0.435253       -11.8438
  21   2.0000      -0.396643       -10.7932
  22   2.0000      -0.385959       -10.5025
  23   2.0000      -0.367402        -9.9975
  24   2.0000      -0.350184        -9.5290
  25   2.0000      -0.339393        -9.2353
  26   2.0000      -0.292563        -7.9610
  27   2.0000      -0.279259        -7.5990
  28   2.0000      -0.262905        -7.1540
  29   0.0000      -0.024347        -0.6625
  30   0.0000      -0.003501        -0.0953
  31   0.0000       0.011792         0.3209
  32   0.0000       0.018232         0.4961
  33   0.0000       0.027059         0.7363

MULLIKEN ATOMIC CHARGES
-----------------------
   0 C :   -0.945946
   1 C :   -0.251352
   2 H :    0.245289
   3 H :    0.248871
   4 S :    1.178657
   5 F :   -0.106534
   6 O :   -0.590052
   7 O :   -0.607213
   8 H :    0.297161
   9 H :    0.215628
  10 H :    0.315489
Sum of atomic charges:    0.0000000

LOEWDIN ATOMIC CHARGES
----------------------
   0 C :   -0.101231
   1 C :   -0.280542
   2 H :    0.097722
   3 H :    0.090198
   4 S :    0.564442
   5 F :   -0.039360
   6 O :   -0.260639
   7 O :   -0.286230
   8 H :    0.075360
   9 H :    0.072027
  10 H :    0.068252

  Mayer bond orders larger than 0.100000
B(  0-C ,  1-C ) :   1.0210 B(  0-C ,  8-H ) :   0.9214 B(  0-C ,  9-H ) :   0.9573
B(  0-C , 10-H ) :   0.9075 B(  1-C ,  2-H ) :   0.9041 B(  1-C ,  3-H ) :   0.8823
B(  1-C ,  4-S ) :   0.8502 B(  1-C ,  6-O ) :   0.1095 B(  1-C ,  7-O ) :   0.1056
B(  4-S ,  5-F ) :   1.0206 B(  4-S ,  6-O ) :   1.6404 B(  4-S ,  7-O ) :   1.6073
B(  6-O ,  7-O ) :   0.1223

Dispersion correction           -0.011631218
FINAL SINGLE POINT ENERGY      -727.898701415384

DIPOLE MOMENT
-------------
                                X             Y             Z
Electronic contribution:      4.10604      -9.37503       0.10318
Nuclear contribution   :     -3.08754      10.54185      -0.04092
                        -----------------------------------------
Total Dipole Moment    :      1.01850       1.16683       0.06227
                        -----------------------------------------
Magnitude (a.u.)       :      1.55007
Magnitude (Debye)      :      3.93995

Rotational constants in cm-1:     0.158925     0.081210     0.079022
Rotational constants in MHz :  4764.450166  2434.603461  2369.014434

                             ****ORCA TERMINATED NORMALLY****
TOTAL RUN TIME: 0 days 0 hours 0 minutes 22 seconds 734 msec
