                         Program Version 5.0.0 -  RELEASE  -
|  1> !TPSS D3BJ RIJCOSX def2-TZVPD def2/J TightSCF
|  2> *xyz 0 1
|  3> C         -0.46129        2.23469       -4.98962
|  4> C          0.84888        2.66797       -4.30235
|  5> C         -0.42384        2.39877       -6.47432
|  6> C         -0.95947        3.49265       -7.00740
|  7> N          0.14558        1.48689       -7.20399
|  8> H          0.56537        0.69681       -6.72386
|  9> H          0.22068        1.58177       -8.20752
| 10> H         -1.40624        4.18151       -6.40326
| 11> H         -0.93421        3.68160       -7.99947
| 12> H         -1.28888        2.82674       -4.59500
| 13> H         -0.65170        1.18634       -4.75655
| 14> H          1.66208        2.08894       -4.68750
| 15> H          0.76716        2.51042       -3.24717
| 16> H          1.02677        3.70527       -4.49537
| 17> *
| 18>
| 19> %MaxCore 64000
| 20>
| 21> %pal nprocs 4
| 22> end
| 23>
| 24> %scf
| 25>   MaxIter 150
| 26> end
| 27>
| 28>
| 29>                          ****END OF INPUT****

CARTESIAN COORDINATES (ANGSTROEM)
---------------------------------
  C     -0.461290    2.234690   -4.989620
  C      0.848880    2.667970   -4.302350
  C     -0.423840    2.398770   -6.474320
  C     -0.959470    3.492650   -7.007400
  N      0.145580    1.486890   -7.203990
  H      0.565370    0.696810   -6.723860
  H      0.220680    1.581770   -8.207520
  H     -1.406240    4.181510   -6.403260
  H     -0.934210    3.681600   -7.999470
  H     -1.288880    2.826740   -4.595000
  H     -0.651700    1.186340   -4.756550
  H      1.662080    2.088940   -4.687500
  H      0.767160    2.510420   -3.247170
  H      1.026770    3.705270   -4.495370

 Total Charge           Charge          ....    0
 Multiplicity           Mult            ....    1
 Number of Electrons    NEL             ....   40
 Basis Dimension        Dim             ....  266

ORBITAL ENERGIES
----------------

  NO   OCC          E(Eh)            E(eV)
   0   2.0000     -14.105668      -383.8348
   1   2.0000      -9.997677      -272.0506
   2   2.0000      -9.984420      -271.6899
   3   2.0000      -9.970615      -271.3142
   4   2.0000      -9.915441      -269.8129
   5   2.0000      -0.873348       -23.7650
   6   2.0000      -0.721727       -19.6392
   7   2.0000      -0.658702       -17.9242
   8   2.0000      -0.586224       -15.9520
   9   2.0000      -0.522800       -14.2261
  10   2.0000      -0.486917       -13.2497
  11   2.0000      -0.436552       -11.8792
  12   2.0000      -0.397594       -10.8191
  13   2.0000      -0.378583       -10.3018
  14   2.0000      -0.351417        -9.5625
  15   2.0000      -0.343038        -9.3346
  16   2.0000      -0.317167        -8.6305
  17   2.0000      -0.298192        -8.1142
  18   2.0000      -0.292422        -7.9572
  19   2.0000      -0.157080        -4.2744
  20   0.0000      -0.009242        -0.2515
  21   0.0000       0.014320         0.3897
  22   0.0000       0.025223         0.6863
  23   0.0000       0.031022         0.8442
  24   0.0000       0.038206         1.0396

MULLIKEN ATOMIC CHARGES
-----------------------
   0 C :   -0.341203
   1 C :   -0.840145
   2 C :    0.908157
   3 C :   -1.197021
   4 N :   -0.474371
   5 H :    0.165740
   6 H :    0.141802
   7 H :    0.256876
   8 H :    0.243714
   9 H :    0.163077
  10 H :    0.214575
  11 H :    0.260882
  12 H :    0.221309
  13 H :    0.276609
Sum of atomic charges:   -0.0000000

LOEWDIN ATOMIC CHARGES
----------------------
   0 C :   -0.194992
   1 C :   -0.083251
   2 C :   -0.507881
   3 C :    0.022720
   4 N :    0.110609
   5 H :    0.111136
   6 H :    0.116044
   7 H :    0.019933
   8 H :    0.012616
   9 H :    0.106271
  10 H :    0.103239
  11 H :    0.058415
  12 H :    0.058321
  13 H :    0.066821

  Mayer bond orders larger than 0.100000
B(  0-C ,  1-C ) :   0.8322 B(  0-C ,  2-C ) :   0.8518 B(  0-C ,  4-N ) :   0.1127
B(  0-C ,  9-H ) :   0.9366 B(  0-C , 10-H ) :   0.9572 B(  1-C ,  2-C ) :   0.1125
B(  1-C , 11-H ) :   0.9291 B(  1-C , 12-H ) :   0.9700 B(  1-C , 13-H ) :   0.9690
B(  2-C ,  3-C ) :   1.2074 B(  2-C ,  4-N ) :   0.8514 B(  3-C ,  4-N ) :   0.1299
B(  3-C ,  7-H ) :   0.9790 B(  3-C ,  8-H ) :   1.0234 B(  4-N ,  5-H ) :   1.0391
B(  4-N ,  6-H ) :   1.0539

Dispersion correction           -0.012925976
FINAL SINGLE POINT ENERGY      -212.688183430410

DIPOLE MOMENT
-------------
                                X             Y             Z
Electronic contribution:     -0.72302      -1.16705      -2.60004
Nuclear contribution   :      1.14741       0.51394       2.60761
                        -----------------------------------------
Total Dipole Moment    :      0.42439      -0.65311       0.00757
                        -----------------------------------------
Magnitude (a.u.)       :      0.77892
Magnitude (Debye)      :      1.97985

Rotational constants in cm-1:     0.269157     0.129188     0.102123
Rotational constants in MHz :  8069.118715  3872.945231  3061.580645

                             ****ORCA TERMINATED NORMALLY****
TOTAL RUN TIME: 0 days 0 hours 0 minutes 23 seconds 149 msec
