                         Program Version 5.0.0 -  RELEASE  -
|  1> !TPSS D3BJ RIJCOSX def2-TZVPD def2/J TightSCF
|  2> *xyz 0 1
|  3> C          0.84888        2.66797       -4.30235
|  4> C          2.09343        1.86104       -4.65684
|  5> H          2.44481        2.04157       -5.67499
|  6> H          2.90175        2.13786       -3.98034
|  7> S          1.87964        0.07859       -4.46297
|  8> O          3.20757       -0.46611       -4.42026
|  9> F          1.07506       -0.05616       -3.26876
| 10> O          1.13166       -0.31996       -5.67903
| 11> H          0.05064        2.40112       -4.96303
| 12> H          1.06043        3.71210       -4.40203
| 13> H          0.56237        2.45684       -3.29327
| 14> *
| 15>
| 16> %MaxCore 64000
| 17>
| 18> %pal nprocs 4
| 19> end
| 20>
| 21> %scf
| 22>   MaxIter 150
| 23> end
| 24>
| 25>
| 26>                          ****END OF INPUT****

CARTESIAN COORDINATES (ANGSTROEM)
---------------------------------
  C      0.848880    2.667970   -4.302350
  C      2.093430    1.861040   -4.656840
  H      2.444810    2.041570   -5.674990
  H      2.901750    2.137860   -3.980340
  S      1.879640    0.078590   -4.462970
  O      3.207570   -0.466110   -4.420260
  F      1.075060   -0.056160   -3.268760
  O      1.131660   -0.319960   -5.679030
  H      0.050640    2.401120   -4.963030
  H      1.060430    3.712100   -4.402030
  H      0.562370    2.456840   -3.293270

 Total Charge           Charge          ....    0
 Multiplicity           Mult            ....    1
 Number of Electrons    NEL             ....   58
 Basis Dimension        Dim             ....  285

ORBITAL ENERGIES
----------------

  NO   OCC          E(Eh)            E(eV)
   0   2.0000     -88.583568     -2410.4814
   1   2.0000     -24.524860      -667.3554
   2   2.0000     -18.898899      -514.2652
   3   2.0000     -18.883941      -513.8582
   4   2.0000     -10.041237      -273.2359
   5   2.0000     -10.006265      -272.2843
   6   2.0000      -7.933305      -215.8762
   7   2.0000      -5.916656      -161.0004
   8   2.0000      -5.909689      -160.8108
   9   2.0000      -5.909456      -160.8045
  10   2.0000      -1.298001       -35.3204
  11   2.0000      -1.034297       -28.1447
  12   2.0000      -0.939019       -25.5520
  13   2.0000      -0.764857       -20.8128
  14   2.0000      -0.672821       -18.3084
  15   2.0000      -0.623631       -16.9698
  16   2.0000      -0.540521       -14.7083
  17   2.0000      -0.523791       -14.2531
  18   2.0000      -0.495825       -13.4921
  19   2.0000      -0.450995       -12.2722
  20   2.0000      -0.429011       -11.6740
  21   2.0000      -0.405304       -11.0289
  22   2.0000      -0.394202       -10.7268
  23   2.0000      -0.372418       -10.1340
  24   2.0000      -0.357370        -9.7245
  25   2.0000      -0.340917        -9.2768
  26   2.0000      -0.294228        -8.0063
  27   2.0000      -0.279782        -7.6133
  28   2.0000      -0.265856        -7.2343
  29   0.0000      -0.028570        -0.7774
  30   0.0000       0.002327         0.0633
  31   0.0000       0.012832         0.3492
  32   0.0000       0.016594         0.4515
  33   0.0000       0.024799         0.6748

MULLIKEN ATOMIC CHARGES
-----------------------
   0 C :   -0.977060
   1 C :   -0.183983
   2 H :    0.228796
   3 H :    0.243959
   4 S :    1.169678
   5 O :   -0.564941
   6 F :   -0.140137
   7 O :   -0.610535
   8 H :    0.303783
   9 H :    0.211381
  10 H :    0.319057
Sum of atomic charges:    0.0000000

LOEWDIN ATOMIC CHARGES
----------------------
   0 C :   -0.112466
   1 C :   -0.271070
   2 H :    0.107966
   3 H :    0.093673
   4 S :    0.561567
   5 O :   -0.253890
   6 F :   -0.046417
   7 O :   -0.285493
   8 H :    0.072054
   9 H :    0.070567
  10 H :    0.063509

  Mayer bond orders larger than 0.100000
B(  0-C ,  1-C ) :   0.9545 B(  0-C ,  8-H ) :   0.9365 B(  0-C ,  9-H ) :   0.9732
B(  0-C , 10-H ) :   0.8883 B(  1-C ,  2-H ) :   0.9138 B(  1-C ,  3-H ) :   0.9209
B(  1-C ,  4-S ) :   0.8296 B(  1-C ,  5-O ) :   0.1241 B(  4-S ,  5-O ) :   1.6590
B(  4-S ,  6-F ) :   1.0162 B(  4-S ,  7-O ) :   1.6115 B(  5-O ,  7-O ) :   0.1136

Dispersion correction           -0.011552024
FINAL SINGLE POINT ENERGY      -727.902844169154

DIPOLE MOMENT
-------------
                                X             Y             Z
Electronic contribution:      0.57441      -8.67386       1.99547
Nuclear contribution   :     -0.86540      10.11467      -1.24082
                        -----------------------------------------
Total Dipole Moment    :     -0.29099       1.44082       0.75465
                        -----------------------------------------
Magnitude (a.u.)       :      1.65231
Magnitude (Debye)      :      4.19984

Rotational constants in cm-1:     0.154065     0.083345     0.080357
Rotational constants in MHz :  4618.752213  2498.631937  2409.037217

                             ****ORCA TERMINATED NORMALLY****
TOTAL RUN TIME: 0 days 0 hours 0 minutes 25 seconds 110 msec
