                         Program Version 5.0.0 -  RELEASE  -
|  1> !TPSS D3BJ RIJCOSX def2-TZVPD def2/J TightSCF
|  2> *xyz 0 1
|  3> C         -0.46129        2.23469       -4.98962
|  4> C          0.84888        2.66797       -4.30235
|  5> C         -0.42384        2.39877       -6.47432
|  6> N         -0.95947        3.49265       -7.00740
|  7> C          0.14558        1.48689       -7.20399
|  8> H          0.56537        0.69681       -6.72386
|  9> H          0.22068        1.58177       -8.20752
| 10> H         -1.40624        4.18151       -6.40326
| 11> H         -0.93421        3.68160       -7.99947
| 12> H         -1.28888        2.82674       -4.59500
| 13> H         -0.65170        1.18634       -4.75655
| 14> H          1.66208        2.08894       -4.68750
| 15> H          0.76716        2.51042       -3.24717
| 16> H          1.02677        3.70527       -4.49537
| 17> *
| 18>
| 19> %MaxCore 64000
| 20>
| 21> %pal nprocs 4
| 22> end
| 23>
| 24> %scf
| 25>   MaxIter 150
| 26> end
| 27>
| 28>
| 29>                          ****END OF INPUT****

CARTESIAN COORDINATES (ANGSTROEM)
---------------------------------
  C     -0.461290    2.234690   -4.989620
  C      0.848880    2.667970   -4.302350
  C     -0.423840    2.398770   -6.474320
  N     -0.959470    3.492650   -7.007400
  C      0.145580    1.486890   -7.203990
  H      0.565370    0.696810   -6.723860
  H      0.220680    1.581770   -8.207520
  H     -1.406240    4.181510   -6.403260
  H     -0.934210    3.681600   -7.999470
  H     -1.288880    2.826740   -4.595000
  H     -0.651700    1.186340   -4.756550
  H      1.662080    2.088940   -4.687500
  H      0.767160    2.510420   -3.247170
  H      1.026770    3.705270   -4.495370

 Total Charge           Charge          ....    0
 Multiplicity           Mult            ....    1
 Number of Electrons    NEL             ....   40
 Basis Dimension        Dim             ....  266

ORBITAL ENERGIES
----------------

  NO   OCC          E(Eh)            E(eV)
   0   2.0000     -14.102677      -383.7533
   1   2.0000      -9.995795      -271.9994
   2   2.0000      -9.984236      -271.6849
   3   2.0000      -9.969288      -271.2781
   4   2.0000      -9.913809      -269.7684
   5   2.0000      -0.861461       -23.4416
   6   2.0000      -0.723288       -19.6817
   7   2.0000      -0.662416       -18.0253
   8   2.0000      -0.587089       -15.9755
   9   2.0000      -0.517558       -14.0835
  10   2.0000      -0.477285       -12.9876
  11   2.0000      -0.438994       -11.9456
  12   2.0000      -0.398844       -10.8531
  13   2.0000      -0.374065       -10.1788
  14   2.0000      -0.352742        -9.5986
  15   2.0000      -0.343422        -9.3450
  16   2.0000      -0.315044        -8.5728
  17   2.0000      -0.300926        -8.1886
  18   2.0000      -0.288322        -7.8456
  19   2.0000      -0.160434        -4.3656
  20   0.0000      -0.007884        -0.2145
  21   0.0000       0.014585         0.3969
  22   0.0000       0.025046         0.6815
  23   0.0000       0.031208         0.8492
  24   0.0000       0.039419         1.0727

MULLIKEN ATOMIC CHARGES
-----------------------
   0 C :   -0.330703
   1 C :   -0.864904
   2 C :    0.936168
   3 N :   -0.491843
   4 C :   -1.173799
   5 H :    0.270332
   6 H :    0.236563
   7 H :    0.163643
   8 H :    0.124227
   9 H :    0.182057
  10 H :    0.187835
  11 H :    0.289829
  12 H :    0.222410
  13 H :    0.248185
Sum of atomic charges:   -0.0000000

LOEWDIN ATOMIC CHARGES
----------------------
   0 C :   -0.193814
   1 C :   -0.082281
   2 C :   -0.498168
   3 N :    0.103307
   4 C :    0.015822
   5 H :    0.028576
   6 H :    0.022054
   7 H :    0.104354
   8 H :    0.106361
   9 H :    0.099884
  10 H :    0.108563
  11 H :    0.063806
  12 H :    0.057986
  13 H :    0.063550

  Mayer bond orders larger than 0.100000
B(  0-C ,  1-C ) :   0.8213 B(  0-C ,  2-C ) :   0.8182 B(  0-C ,  9-H ) :   1.0068
B(  0-C , 10-H ) :   0.9154 B(  1-C ,  2-C ) :   0.1276 B(  1-C , 11-H ) :   0.9371
B(  1-C , 12-H ) :   0.9651 B(  1-C , 13-H ) :   0.9571 B(  2-C ,  3-N ) :   0.7626
B(  2-C ,  4-C ) :   1.2807 B(  3-N ,  4-C ) :   0.1282 B(  3-N ,  7-H ) :   1.0442
B(  3-N ,  8-H ) :   1.0877 B(  4-C ,  5-H ) :   0.9547 B(  4-C ,  6-H ) :   1.0158

Dispersion correction           -0.012934394
FINAL SINGLE POINT ENERGY      -212.688270339955

DIPOLE MOMENT
-------------
                                X             Y             Z
Electronic contribution:     -1.69903       0.57873      -2.42497
Nuclear contribution   :      1.40335       0.04939       2.56207
                        -----------------------------------------
Total Dipole Moment    :     -0.29568       0.62812       0.13710
                        -----------------------------------------
Magnitude (a.u.)       :      0.70764
Magnitude (Debye)      :      1.79868

Rotational constants in cm-1:     0.271383     0.128194     0.101873
Rotational constants in MHz :  8135.853259  3843.152748  3054.074278

                             ****ORCA TERMINATED NORMALLY****
TOTAL RUN TIME: 0 days 0 hours 0 minutes 23 seconds 169 msec
