                         Program Version 5.0.0 -  RELEASE  -
|  1> !TPSS D3BJ RIJCOSX def2-TZVPD def2/J TightSCF
|  2> *xyz 0 1
|  3> C          0.84888        2.66797       -4.30235
|  4> C          2.09343        1.86104       -4.65684
|  5> H          2.44481        2.04157       -5.67499
|  6> H          2.90175        2.13786       -3.98034
|  7> S          1.87964        0.07859       -4.46297
|  8> O          3.20757       -0.46611       -4.42026
|  9> O          1.07506       -0.05616       -3.26876
| 10> F          1.13166       -0.31996       -5.67903
| 11> H          0.05064        2.40112       -4.96303
| 12> H          1.06043        3.71210       -4.40203
| 13> H          0.56237        2.45684       -3.29327
| 14> *
| 15>
| 16> %MaxCore 64000
| 17>
| 18> %pal nprocs 4
| 19> end
| 20>
| 21> %scf
| 22>   MaxIter 150
| 23> end
| 24>
| 25>
| 26>                          ****END OF INPUT****

CARTESIAN COORDINATES (ANGSTROEM)
---------------------------------
  C      0.848880    2.667970   -4.302350
  C      2.093430    1.861040   -4.656840
  H      2.444810    2.041570   -5.674990
  H      2.901750    2.137860   -3.980340
  S      1.879640    0.078590   -4.462970
  O      3.207570   -0.466110   -4.420260
  O      1.075060   -0.056160   -3.268760
  F      1.131660   -0.319960   -5.679030
  H      0.050640    2.401120   -4.963030
  H      1.060430    3.712100   -4.402030
  H      0.562370    2.456840   -3.293270

 Total Charge           Charge          ....    0
 Multiplicity           Mult            ....    1
 Number of Electrons    NEL             ....   58
 Basis Dimension        Dim             ....  285

ORBITAL ENERGIES
----------------

  NO   OCC          E(Eh)            E(eV)
   0   2.0000     -88.581547     -2410.4264
   1   2.0000     -24.506897      -666.8666
   2   2.0000     -18.898593      -514.2568
   3   2.0000     -18.895453      -514.1714
   4   2.0000     -10.040379      -273.2126
   5   2.0000     -10.000997      -272.1410
   6   2.0000      -7.931400      -215.8244
   7   2.0000      -5.914695      -160.9470
   8   2.0000      -5.907864      -160.7611
   9   2.0000      -5.907605      -160.7541
  10   2.0000      -1.268624       -34.5210
  11   2.0000      -1.042553       -28.3693
  12   2.0000      -0.957246       -26.0480
  13   2.0000      -0.761117       -20.7111
  14   2.0000      -0.663236       -18.0476
  15   2.0000      -0.614974       -16.7343
  16   2.0000      -0.523212       -14.2373
  17   2.0000      -0.503270       -13.6947
  18   2.0000      -0.496029       -13.4976
  19   2.0000      -0.449147       -12.2219
  20   2.0000      -0.431304       -11.7364
  21   2.0000      -0.408646       -11.1198
  22   2.0000      -0.388506       -10.5718
  23   2.0000      -0.364248        -9.9117
  24   2.0000      -0.361255        -9.8302
  25   2.0000      -0.341874        -9.3029
  26   2.0000      -0.298846        -8.1320
  27   2.0000      -0.291860        -7.9419
  28   2.0000      -0.279352        -7.6016
  29   0.0000      -0.024949        -0.6789
  30   0.0000       0.002334         0.0635
  31   0.0000       0.013449         0.3660
  32   0.0000       0.015428         0.4198
  33   0.0000       0.025971         0.7067

MULLIKEN ATOMIC CHARGES
-----------------------
   0 C :   -0.933716
   1 C :   -0.239384
   2 H :    0.263546
   3 H :    0.225608
   4 S :    1.185903
   5 O :   -0.571377
   6 O :   -0.591494
   7 F :   -0.164834
   8 H :    0.299203
   9 H :    0.213155
  10 H :    0.313389
Sum of atomic charges:   -0.0000000

LOEWDIN ATOMIC CHARGES
----------------------
   0 C :   -0.111708
   1 C :   -0.272052
   2 H :    0.096554
   3 H :    0.102205
   4 S :    0.565263
   5 O :   -0.254806
   6 O :   -0.258362
   7 F :   -0.073791
   8 H :    0.069459
   9 H :    0.069832
  10 H :    0.067405

  Mayer bond orders larger than 0.100000
B(  0-C ,  1-C ) :   0.9845 B(  0-C ,  8-H ) :   0.9032 B(  0-C ,  9-H ) :   0.9701
B(  0-C , 10-H ) :   0.9282 B(  1-C ,  2-H ) :   0.8855 B(  1-C ,  3-H ) :   0.9212
B(  1-C ,  4-S ) :   0.8477 B(  1-C ,  5-O ) :   0.1288 B(  4-S ,  5-O ) :   1.6516
B(  4-S ,  6-O ) :   1.6404 B(  4-S ,  7-F ) :   0.9638 B(  5-O ,  6-O ) :   0.1189

Dispersion correction           -0.011584549
FINAL SINGLE POINT ENERGY      -727.917914939856

DIPOLE MOMENT
-------------
                                X             Y             Z
Electronic contribution:      0.65317      -9.13918      -2.00912
Nuclear contribution   :     -0.92438      10.38956       1.27076
                        -----------------------------------------
Total Dipole Moment    :     -0.27121       1.25038      -0.73836
                        -----------------------------------------
Magnitude (a.u.)       :      1.47722
Magnitude (Debye)      :      3.75478

Rotational constants in cm-1:     0.154243     0.082247     0.080562
Rotational constants in MHz :  4624.087322  2465.703680  2415.175852

                             ****ORCA TERMINATED NORMALLY****
TOTAL RUN TIME: 0 days 0 hours 0 minutes 22 seconds 809 msec
