                         Program Version 5.0.0 -  RELEASE  -
|  1> !TPSS D3BJ RIJCOSX def2-TZVPD def2/J TightSCF xyzfile
|  2>
|  3> *xyzfile 0 1 D1.xyz
|  4>
|  5> %MaxCore 64000
|  6>
|  7> %pal nprocs 4
|  8> end
|  9>
| 10> %scf
| 11>   MaxIter 150
| 12> end
| 13>
| 14>
| 15>                          ****END OF INPUT****

CARTESIAN COORDINATES (ANGSTROEM)
---------------------------------
  C     -0.461293    2.234686   -4.989619
  C      0.848883    2.667967   -4.302351
  C      2.093434    1.861037   -4.656845
  H      2.444814    2.041567   -5.674990
  H      2.901748    2.137864   -3.980338
  S      1.879644    0.078594   -4.462965
  C     -0.423841    2.398772   -6.474317
  C     -0.959467    3.492647   -7.007401
  N      0.145585    1.486891   -7.203987
  H      0.565371    0.696807   -6.723858
  H      0.220682    1.581768   -8.207520
  H     -1.406243    4.181507   -6.403261
  H     -0.934215    3.681601   -7.999468
  F      3.207574   -0.466111   -4.420259
  O      1.075064   -0.056160   -3.268758
  O      1.131661   -0.319960   -5.679031
  H      0.668432    2.559427   -3.232850
  H      1.034074    3.729426   -4.497081
  H     -1.288884    2.826737   -4.594997
  H     -0.651696    1.186343   -4.756552

 Total Charge           Charge          ....    0
 Multiplicity           Mult            ....    1
 Number of Electrons    NEL             ....   88
 Basis Dimension        Dim             ....  478

ORBITAL ENERGIES
----------------

  NO   OCC          E(Eh)            E(eV)
   0   2.0000     -88.603250     -2411.0170
   1   2.0000     -24.545234      -667.9098
   2   2.0000     -18.912085      -514.6240
   3   2.0000     -18.909025      -514.5407
   4   2.0000     -14.077963      -383.0808
   5   2.0000     -10.047921      -273.4178
   6   2.0000     -10.012677      -272.4588
   7   2.0000      -9.990980      -271.8684
   8   2.0000      -9.986785      -271.7542
   9   2.0000      -9.908829      -269.6329
  10   2.0000      -7.953133      -216.4158
  11   2.0000      -5.936224      -161.5329
  12   2.0000      -5.929914      -161.3612
  13   2.0000      -5.929084      -161.3386
  14   2.0000      -1.321466       -35.9589
  15   2.0000      -1.051905       -28.6238
  16   2.0000      -0.963002       -26.2046
  17   2.0000      -0.857807       -23.3421
  18   2.0000      -0.774832       -21.0843
  19   2.0000      -0.711698       -19.3663
  20   2.0000      -0.679974       -18.5030
  21   2.0000      -0.639180       -17.3930
  22   2.0000      -0.592740       -16.1293
  23   2.0000      -0.549205       -14.9446
  24   2.0000      -0.543065       -14.7776
  25   2.0000      -0.528210       -14.3733
  26   2.0000      -0.509702       -13.8697
  27   2.0000      -0.480205       -13.0670
  28   2.0000      -0.457272       -12.4430
  29   2.0000      -0.445141       -12.1129
  30   2.0000      -0.427841       -11.6421
  31   2.0000      -0.412370       -11.2212
  32   2.0000      -0.403995       -10.9933
  33   2.0000      -0.370987       -10.0951
  34   2.0000      -0.358794        -9.7633
  35   2.0000      -0.352616        -9.5952
  36   2.0000      -0.340704        -9.2710
  37   2.0000      -0.329257        -8.9595
  38   2.0000      -0.309356        -8.4180
  39   2.0000      -0.304896        -8.2967
  40   2.0000      -0.291084        -7.9208
  41   2.0000      -0.287443        -7.8217
  42   2.0000      -0.281077        -7.6485
  43   2.0000      -0.147969        -4.0265
  44   0.0000      -0.035234        -0.9588
  45   0.0000      -0.010361        -0.2819
  46   0.0000       0.002080         0.0566
  47   0.0000       0.009150         0.2490
  48   0.0000       0.014679         0.3994

MULLIKEN ATOMIC CHARGES
-----------------------
   0 C :   -0.503924
   1 C :   -0.189317
   2 C :   -0.509627
   3 H :    0.340749
   4 H :    0.172592
   5 S :    1.241929
   6 C :    0.759512
   7 C :   -1.246438
   8 N :   -0.450316
   9 H :    0.310781
  10 H :    0.086389
  11 H :    0.275150
  12 H :    0.253715
  13 F :   -0.105969
  14 O :   -0.599169
  15 O :   -0.703586
  16 H :    0.200422
  17 H :    0.149384
  18 H :    0.114440
  19 H :    0.403284
Sum of atomic charges:    0.0000000

LOEWDIN ATOMIC CHARGES
----------------------
   0 C :   -0.139357
   1 C :   -0.188590
   2 C :   -0.217257
   3 H :    0.104951
   4 H :    0.097213
   5 S :    0.614681
   6 C :   -0.487241
   7 C :    0.019977
   8 N :    0.121829
   9 H :    0.022803
  10 H :    0.120647
  11 H :    0.015920
  12 H :    0.011675
  13 F :   -0.026599
  14 O :   -0.236988
  15 O :   -0.286299
  16 H :    0.106905
  17 H :    0.123630
  18 H :    0.118075
  19 H :    0.104024

  Mayer bond orders larger than 0.100000
B(  0-C ,  1-C ) :   0.9656 B(  0-C ,  6-C ) :   0.8643 B(  0-C , 16-H ) :   0.1003
B(  0-C , 18-H ) :   0.9486 B(  0-C , 19-H ) :   0.8028 B(  1-C ,  2-C ) :   1.1565
B(  1-C ,  6-C ) :   0.1636 B(  1-C , 16-H ) :   0.8347 B(  1-C , 17-H ) :   0.9179
B(  2-C ,  3-H ) :   0.8182 B(  2-C ,  4-H ) :   0.9085 B(  2-C ,  5-S ) :   0.8374
B(  2-C ,  8-N ) :   0.1547 B(  2-C , 15-O ) :   0.1385 B(  5-S , 13-F ) :   0.9703
B(  5-S , 14-O ) :   1.6452 B(  5-S , 15-O ) :   1.5202 B(  6-C ,  7-C ) :   1.2419
B(  6-C ,  8-N ) :   0.8598 B(  7-C ,  8-N ) :   0.1601 B(  7-C , 11-H ) :   0.9945
B(  7-C , 12-H ) :   0.9863 B(  8-N ,  9-H ) :   0.8419 B(  8-N , 10-H ) :   1.0946

Dispersion correction           -0.028711715
FINAL SINGLE POINT ENERGY      -900.047241167028

DIPOLE MOMENT
-------------
                                X             Y             Z
Electronic contribution:     10.10249     -13.97582       5.44649
Nuclear contribution   :     -8.53047      14.15581      -5.17613
                        -----------------------------------------
Total Dipole Moment    :      1.57202       0.17999       0.27036
                        -----------------------------------------
Magnitude (a.u.)       :      1.60522
Magnitude (Debye)      :      4.08016

Rotational constants in cm-1:     0.081196     0.024861     0.022477
Rotational constants in MHz :  2434.181666   745.320670   673.846846

                             ****ORCA TERMINATED NORMALLY****
TOTAL RUN TIME: 0 days 0 hours 1 minutes 6 seconds 817 msec
