                         Program Version 5.0.0 -  RELEASE  -
|  1> !TPSS D3BJ RIJCOSX def2-TZVPD def2/J TightSCF xyzfile
|  2>
|  3> *xyzfile 0 1 D2.xyz
|  4>
|  5> %MaxCore 64000
|  6>
|  7> %pal nprocs 4
|  8> end
|  9>
| 10> %scf
| 11>   MaxIter 150
| 12> end
| 13>
| 14>
| 15>                          ****END OF INPUT****

CARTESIAN COORDINATES (ANGSTROEM)
---------------------------------
  C     -0.461293    2.234686   -4.989619
  C      0.848883    2.667967   -4.302351
  C      2.093434    1.861037   -4.656845
  H      2.444814    2.041567   -5.674990
  H      2.901748    2.137864   -3.980338
  S      1.879644    0.078594   -4.462965
  C     -0.423841    2.398772   -6.474317
  N     -0.959467    3.492647   -7.007401
  C      0.145585    1.486891   -7.203987
  H      0.565371    0.696807   -6.723858
  H      0.220682    1.581768   -8.207520
  H     -1.406243    4.181507   -6.403261
  H     -0.934215    3.681601   -7.999468
  F      3.207574   -0.466111   -4.420259
  O      1.075064   -0.056160   -3.268758
  O      1.131661   -0.319960   -5.679031
  H      0.668432    2.559427   -3.232850
  H      1.034074    3.729426   -4.497081
  H     -1.288884    2.826737   -4.594997
  H     -0.651696    1.186343   -4.756552

 Total Charge           Charge          ....    0
 Multiplicity           Mult            ....    1
 Number of Electrons    NEL             ....   88
 Basis Dimension        Dim             ....  478

ORBITAL ENERGIES
----------------

  NO   OCC          E(Eh)            E(eV)
   0   2.0000     -88.585086     -2410.5227
   1   2.0000     -24.529553      -667.4831
   2   2.0000     -18.896285      -514.1941
   3   2.0000     -18.886399      -513.9250
   4   2.0000     -14.097848      -383.6219
   5   2.0000     -10.036911      -273.1182
   6   2.0000     -10.010198      -272.3913
   7   2.0000      -9.988869      -271.8109
   8   2.0000      -9.987176      -271.7649
   9   2.0000      -9.893457      -269.2147
  10   2.0000      -7.935037      -215.9233
  11   2.0000      -5.918247      -161.0437
  12   2.0000      -5.911719      -160.8660
  13   2.0000      -5.910971      -160.8457
  14   2.0000      -1.305937       -35.5364
  15   2.0000      -1.034002       -28.1366
  16   2.0000      -0.943020       -25.6609
  17   2.0000      -0.857284       -23.3279
  18   2.0000      -0.767854       -20.8944
  19   2.0000      -0.709300       -19.3010
  20   2.0000      -0.666872       -18.1465
  21   2.0000      -0.644826       -17.5466
  22   2.0000      -0.585347       -15.9281
  23   2.0000      -0.535943       -14.5838
  24   2.0000      -0.530209       -14.4277
  25   2.0000      -0.512338       -13.9414
  26   2.0000      -0.510309       -13.8862
  27   2.0000      -0.470688       -12.8081
  28   2.0000      -0.449677       -12.2363
  29   2.0000      -0.440808       -11.9950
  30   2.0000      -0.427156       -11.6235
  31   2.0000      -0.410483       -11.1698
  32   2.0000      -0.395936       -10.7740
  33   2.0000      -0.364391        -9.9156
  34   2.0000      -0.359085        -9.7712
  35   2.0000      -0.345312        -9.3964
  36   2.0000      -0.331281        -9.0146
  37   2.0000      -0.325270        -8.8511
  38   2.0000      -0.299213        -8.1420
  39   2.0000      -0.296195        -8.0599
  40   2.0000      -0.282263        -7.6808
  41   2.0000      -0.272147        -7.4055
  42   2.0000      -0.255826        -6.9614
  43   2.0000      -0.153814        -4.1855
  44   0.0000      -0.021660        -0.5894
  45   0.0000      -0.010571        -0.2876
  46   0.0000       0.003990         0.1086
  47   0.0000       0.008032         0.2186
  48   0.0000       0.024207         0.6587

MULLIKEN ATOMIC CHARGES
-----------------------
   0 C :   -0.600733
   1 C :   -0.192243
   2 C :   -0.552880
   3 H :    0.433532
   4 H :    0.157470
   5 S :    1.187411
   6 C :    0.988120
   7 N :   -0.521703
   8 C :   -1.760671
   9 H :    0.928311
  10 H :    0.174289
  11 H :    0.165791
  12 H :    0.112914
  13 F :   -0.113791
  14 O :   -0.615502
  15 O :   -0.602271
  16 H :    0.200611
  17 H :    0.078703
  18 H :    0.151570
  19 H :    0.381073
Sum of atomic charges:   -0.0000000

LOEWDIN ATOMIC CHARGES
----------------------
   0 C :   -0.136962
   1 C :   -0.191070
   2 C :   -0.218022
   3 H :    0.104138
   4 H :    0.095615
   5 S :    0.606012
   6 C :   -0.469108
   7 N :    0.100365
   8 C :    0.029210
   9 H :   -0.036527
  10 H :    0.034016
  11 H :    0.101156
  12 H :    0.105467
  13 F :   -0.032383
  14 O :   -0.248077
  15 O :   -0.289340
  16 H :    0.106057
  17 H :    0.119689
  18 H :    0.111687
  19 H :    0.108077

  Mayer bond orders larger than 0.100000
B(  0-C ,  1-C ) :   0.9949 B(  0-C ,  6-C ) :   0.8556 B(  0-C , 18-H ) :   0.9938
B(  0-C , 19-H ) :   0.8259 B(  1-C ,  2-C ) :   1.1630 B(  1-C ,  6-C ) :   0.1430
B(  1-C , 16-H ) :   0.8385 B(  1-C , 17-H ) :   0.9307 B(  2-C ,  3-H ) :   0.7759
B(  2-C ,  4-H ) :   0.9184 B(  2-C ,  5-S ) :   0.8165 B(  2-C ,  8-C ) :   0.1917
B(  2-C , 15-O ) :   0.1545 B(  5-S , 13-F ) :   0.9639 B(  5-S , 14-O ) :   1.6234
B(  5-S , 15-O ) :   1.6211 B(  6-C ,  7-N ) :   0.6738 B(  6-C ,  8-C ) :   0.9319
B(  6-C , 10-H ) :  -0.1367 B(  7-N ,  8-C ) :   0.1358 B(  7-N , 11-H ) :   1.0559
B(  7-N , 12-H ) :   1.1063 B(  8-C ,  9-H ) :   0.2971 B(  8-C , 10-H ) :   1.1334
B(  8-C , 15-O ) :   0.1868 B(  9-H , 10-H ) :   0.1057 B(  9-H , 15-O ) :  -0.3872

Dispersion correction           -0.028900209
FINAL SINGLE POINT ENERGY      -900.028654534039

DIPOLE MOMENT
-------------
                                X             Y             Z
Electronic contribution:      9.18561     -12.49312       5.36680
Nuclear contribution   :     -8.42493      13.96425      -5.19491
                        -----------------------------------------
Total Dipole Moment    :      0.76068       1.47113       0.17189
                        -----------------------------------------
Magnitude (a.u.)       :      1.66505
Magnitude (Debye)      :      4.23223

Rotational constants in cm-1:     0.082815     0.024151     0.022015
Rotational constants in MHz :  2482.732265   724.035221   660.002136

                             ****ORCA TERMINATED NORMALLY****
TOTAL RUN TIME: 0 days 0 hours 1 minutes 0 seconds 759 msec
