                         Program Version 5.0.0 -  RELEASE  -
|  1> !TPSS D3BJ RIJCOSX def2-TZVPD def2/J TightSCF xyzfile
|  2>
|  3> *xyzfile 0 1 D3.xyz
|  4>
|  5> %MaxCore 64000
|  6>
|  7> %pal nprocs 4
|  8> end
|  9>
| 10> %scf
| 11>   MaxIter 150
| 12> end
| 13>
| 14>
| 15>                          ****END OF INPUT****

CARTESIAN COORDINATES (ANGSTROEM)
---------------------------------
  C     -0.461293    2.234686   -4.989619
  C      0.848883    2.667967   -4.302351
  C      2.093434    1.861037   -4.656845
  H      2.444814    2.041567   -5.674990
  H      2.901748    2.137864   -3.980338
  S      1.879644    0.078594   -4.462965
  C     -0.423841    2.398772   -6.474317
  C     -0.959467    3.492647   -7.007401
  N      0.145585    1.486891   -7.203987
  H      0.565371    0.696807   -6.723858
  H      0.220682    1.581768   -8.207520
  H     -1.406243    4.181507   -6.403261
  H     -0.934215    3.681601   -7.999468
  O      3.207574   -0.466111   -4.420259
  F      1.075064   -0.056160   -3.268758
  O      1.131661   -0.319960   -5.679031
  H      0.668432    2.559427   -3.232850
  H      1.034074    3.729426   -4.497081
  H     -1.288884    2.826737   -4.594997
  H     -0.651696    1.186343   -4.756552

 Total Charge           Charge          ....    0
 Multiplicity           Mult            ....    1
 Number of Electrons    NEL             ....   88
 Basis Dimension        Dim             ....  478

ORBITAL ENERGIES
----------------

  NO   OCC          E(Eh)            E(eV)
   0   2.0000     -88.602607     -2410.9995
   1   2.0000     -24.539732      -667.7601
   2   2.0000     -18.914897      -514.7005
   3   2.0000     -18.908084      -514.5151
   4   2.0000     -14.080463      -383.1489
   5   2.0000     -10.047614      -273.4095
   6   2.0000     -10.017371      -272.5865
   7   2.0000      -9.996653      -272.0228
   8   2.0000      -9.996215      -272.0109
   9   2.0000      -9.913281      -269.7541
  10   2.0000      -7.952459      -216.3974
  11   2.0000      -5.935732      -161.5195
  12   2.0000      -5.929258      -161.3433
  13   2.0000      -5.928252      -161.3159
  14   2.0000      -1.313019       -35.7291
  15   2.0000      -1.054584       -28.6967
  16   2.0000      -0.966080       -26.2884
  17   2.0000      -0.861280       -23.4366
  18   2.0000      -0.780446       -21.2370
  19   2.0000      -0.711374       -19.3575
  20   2.0000      -0.678754       -18.4698
  21   2.0000      -0.643839       -17.5197
  22   2.0000      -0.594928       -16.1888
  23   2.0000      -0.551269       -15.0008
  24   2.0000      -0.544374       -14.8132
  25   2.0000      -0.522879       -14.2282
  26   2.0000      -0.515212       -14.0196
  27   2.0000      -0.475288       -12.9332
  28   2.0000      -0.456471       -12.4212
  29   2.0000      -0.448341       -12.2000
  30   2.0000      -0.428762       -11.6672
  31   2.0000      -0.415767       -11.3136
  32   2.0000      -0.409635       -11.1467
  33   2.0000      -0.379380       -10.3235
  34   2.0000      -0.362774        -9.8716
  35   2.0000      -0.358431        -9.7534
  36   2.0000      -0.343999        -9.3607
  37   2.0000      -0.342110        -9.3093
  38   2.0000      -0.308079        -8.3833
  39   2.0000      -0.306045        -8.3279
  40   2.0000      -0.300483        -8.1766
  41   2.0000      -0.288897        -7.8613
  42   2.0000      -0.282543        -7.6884
  43   2.0000      -0.151731        -4.1288
  44   0.0000      -0.036661        -0.9976
  45   0.0000      -0.006034        -0.1642
  46   0.0000       0.000834         0.0227
  47   0.0000       0.009504         0.2586
  48   0.0000       0.010894         0.2964

MULLIKEN ATOMIC CHARGES
-----------------------
   0 C :   -0.389905
   1 C :   -0.189313
   2 C :   -0.422903
   3 H :    0.316151
   4 H :    0.147896
   5 S :    1.256945
   6 C :    0.716959
   7 C :   -1.249208
   8 N :   -0.448148
   9 H :    0.323529
  10 H :    0.085354
  11 H :    0.274038
  12 H :    0.253688
  13 O :   -0.600795
  14 F :   -0.150513
  15 O :   -0.699217
  16 H :    0.181382
  17 H :    0.150786
  18 H :    0.098061
  19 H :    0.345213
Sum of atomic charges:    0.0000000

LOEWDIN ATOMIC CHARGES
----------------------
   0 C :   -0.145824
   1 C :   -0.199419
   2 C :   -0.206961
   3 H :    0.115038
   4 H :    0.100651
   5 S :    0.611326
   6 C :   -0.487166
   7 C :    0.021899
   8 N :    0.123303
   9 H :    0.023885
  10 H :    0.121861
  11 H :    0.016400
  12 H :    0.013155
  13 O :   -0.235934
  14 F :   -0.028872
  15 O :   -0.284450
  16 H :    0.102577
  17 H :    0.121916
  18 H :    0.117204
  19 H :    0.099410

  Mayer bond orders larger than 0.100000
B(  0-C ,  1-C ) :   0.9177 B(  0-C ,  6-C ) :   0.9376 B(  0-C , 18-H ) :   0.9768
B(  0-C , 19-H ) :   0.7874 B(  1-C ,  2-C ) :   1.1143 B(  1-C ,  6-C ) :   0.1540
B(  1-C , 16-H ) :   0.8745 B(  1-C , 17-H ) :   0.9077 B(  2-C ,  3-H ) :   0.8412
B(  2-C ,  4-H ) :   0.9865 B(  2-C ,  5-S ) :   0.8116 B(  2-C ,  8-N ) :   0.1510
B(  2-C , 13-O ) :   0.1276 B(  2-C , 15-O ) :   0.1279 B(  5-S , 13-O ) :   1.5418
B(  5-S , 14-F ) :   1.0105 B(  5-S , 15-O ) :   1.5240 B(  6-C ,  7-C ) :   1.2483
B(  6-C ,  8-N ) :   0.8773 B(  7-C ,  8-N ) :   0.1644 B(  7-C , 11-H ) :   0.9975
B(  7-C , 12-H ) :   0.9834 B(  8-N ,  9-H ) :   0.8306 B(  8-N , 10-H ) :   1.0905

Dispersion correction           -0.028542976
FINAL SINGLE POINT ENERGY      -900.051151178017

DIPOLE MOMENT
-------------
                                X             Y             Z
Electronic contribution:      6.47771     -13.22863       7.32605
Nuclear contribution   :     -6.19944      13.70770      -6.43483
                        -----------------------------------------
Total Dipole Moment    :      0.27827       0.47907       0.89122
                        -----------------------------------------
Magnitude (a.u.)       :      1.04939
Magnitude (Debye)      :      2.66734

Rotational constants in cm-1:     0.079903     0.025241     0.022805
Rotational constants in MHz :  2395.439281   756.708181   683.680583

                             ****ORCA TERMINATED NORMALLY****
TOTAL RUN TIME: 0 days 0 hours 1 minutes 0 seconds 127 msec
