                         Program Version 5.0.0 -  RELEASE  -
|  1> !TPSS D3BJ RIJCOSX def2-TZVPD def2/J TightSCF xyzfile
|  2>
|  3> *xyzfile 0 1 D4.xyz
|  4>
|  5> %MaxCore 64000
|  6>
|  7> %pal nprocs 4
|  8> end
|  9>
| 10> %scf
| 11>   MaxIter 150
| 12> end
| 13>
| 14>
| 15>                          ****END OF INPUT****

CARTESIAN COORDINATES (ANGSTROEM)
---------------------------------
  C     -0.461293    2.234686   -4.989619
  C      0.848883    2.667967   -4.302351
  C      2.093434    1.861037   -4.656845
  H      2.444814    2.041567   -5.674990
  H      2.901748    2.137864   -3.980338
  S      1.879644    0.078594   -4.462965
  C     -0.423841    2.398772   -6.474317
  N     -0.959467    3.492647   -7.007401
  C      0.145585    1.486891   -7.203987
  H      0.565371    0.696807   -6.723858
  H      0.220682    1.581768   -8.207520
  H     -1.406243    4.181507   -6.403261
  H     -0.934215    3.681601   -7.999468
  O      3.207574   -0.466111   -4.420259
  F      1.075064   -0.056160   -3.268758
  O      1.131661   -0.319960   -5.679031
  H      0.668432    2.559427   -3.232850
  H      1.034074    3.729426   -4.497081
  H     -1.288884    2.826737   -4.594997
  H     -0.651696    1.186343   -4.756552

 Total Charge           Charge          ....    0
 Multiplicity           Mult            ....    1
 Number of Electrons    NEL             ....   88
 Basis Dimension        Dim             ....  478

ORBITAL ENERGIES
----------------

  NO   OCC          E(Eh)            E(eV)
   0   2.0000     -88.584183     -2410.4982
   1   2.0000     -24.525084      -667.3615
   2   2.0000     -18.898294      -514.2487
   3   2.0000     -18.885437      -513.8989
   4   2.0000     -14.101519      -383.7218
   5   2.0000     -10.036676      -273.1118
   6   2.0000     -10.015021      -272.5226
   7   2.0000      -9.997029      -272.0330
   8   2.0000      -9.993588      -271.9394
   9   2.0000      -9.896937      -269.3093
  10   2.0000      -7.934133      -215.8987
  11   2.0000      -5.917564      -161.0251
  12   2.0000      -5.910714      -160.8387
  13   2.0000      -5.909976      -160.8186
  14   2.0000      -1.298583       -35.3362
  15   2.0000      -1.036376       -28.2012
  16   2.0000      -0.945498       -25.7283
  17   2.0000      -0.861462       -23.4416
  18   2.0000      -0.774097       -21.0642
  19   2.0000      -0.709856       -19.3162
  20   2.0000      -0.665583       -18.1114
  21   2.0000      -0.648715       -17.6524
  22   2.0000      -0.588138       -16.0041
  23   2.0000      -0.542267       -14.7558
  24   2.0000      -0.528163       -14.3720
  25   2.0000      -0.518219       -14.1014
  26   2.0000      -0.502662       -13.6781
  27   2.0000      -0.473205       -12.8766
  28   2.0000      -0.452259       -12.3066
  29   2.0000      -0.436209       -11.8698
  30   2.0000      -0.429525       -11.6880
  31   2.0000      -0.416261       -11.3270
  32   2.0000      -0.398680       -10.8486
  33   2.0000      -0.371964       -10.1216
  34   2.0000      -0.361179        -9.8282
  35   2.0000      -0.350643        -9.5415
  36   2.0000      -0.338794        -9.2191
  37   2.0000      -0.333707        -9.0806
  38   2.0000      -0.305675        -8.3178
  39   2.0000      -0.293662        -7.9909
  40   2.0000      -0.287429        -7.8213
  41   2.0000      -0.277960        -7.5637
  42   2.0000      -0.252524        -6.8715
  43   2.0000      -0.157557        -4.2873
  44   0.0000      -0.025955        -0.7063
  45   0.0000      -0.007909        -0.2152
  46   0.0000       0.003739         0.1017
  47   0.0000       0.005475         0.1490
  48   0.0000       0.020747         0.5646

MULLIKEN ATOMIC CHARGES
-----------------------
   0 C :   -0.495172
   1 C :   -0.182561
   2 C :   -0.465613
   3 H :    0.399838
   4 H :    0.139716
   5 S :    1.200641
   6 C :    0.939545
   7 N :   -0.520943
   8 C :   -1.743591
   9 H :    0.921753
  10 H :    0.181700
  11 H :    0.163811
  12 H :    0.114361
  13 O :   -0.620766
  14 F :   -0.153613
  15 O :   -0.599613
  16 H :    0.181278
  17 H :    0.078686
  18 H :    0.135395
  19 H :    0.325149
Sum of atomic charges:    0.0000000

LOEWDIN ATOMIC CHARGES
----------------------
   0 C :   -0.143314
   1 C :   -0.201557
   2 C :   -0.207804
   3 H :    0.114175
   4 H :    0.098971
   5 S :    0.601990
   6 C :   -0.469387
   7 N :    0.100634
   8 C :    0.032814
   9 H :   -0.035450
  10 H :    0.035766
  11 H :    0.101225
  12 H :    0.106463
  13 O :   -0.244871
  14 F :   -0.036269
  15 O :   -0.287658
  16 H :    0.101805
  17 H :    0.118088
  18 H :    0.110872
  19 H :    0.103507

  Mayer bond orders larger than 0.100000
B(  0-C ,  1-C ) :   0.9466 B(  0-C ,  6-C ) :   0.9162 B(  0-C , 18-H ) :   1.0277
B(  0-C , 19-H ) :   0.8051 B(  1-C ,  2-C ) :   1.1118 B(  1-C ,  6-C ) :   0.1328
B(  1-C , 16-H ) :   0.8711 B(  1-C , 17-H ) :   0.9244 B(  2-C ,  3-H ) :   0.8059
B(  2-C ,  4-H ) :   0.9917 B(  2-C ,  5-S ) :   0.7916 B(  2-C ,  8-C ) :   0.1915
B(  2-C , 13-O ) :   0.1336 B(  2-C , 15-O ) :   0.1415 B(  5-S , 13-O ) :   1.5291
B(  5-S , 14-F ) :   0.9993 B(  5-S , 15-O ) :   1.6233 B(  6-C ,  7-N ) :   0.6725
B(  6-C ,  8-C ) :   0.9551 B(  6-C , 10-H ) :  -0.1375 B(  7-N ,  8-C ) :   0.1378
B(  7-N , 11-H ) :   1.0572 B(  7-N , 12-H ) :   1.1040 B(  8-C ,  9-H ) :   0.3500
B(  8-C , 10-H ) :   1.1175 B(  8-C , 15-O ) :   0.1905 B(  9-H , 10-H ) :   0.1144
B(  9-H , 15-O ) :  -0.4080

Dispersion correction           -0.028730705
FINAL SINGLE POINT ENERGY      -900.031538188485

DIPOLE MOMENT
-------------
                                X             Y             Z
Electronic contribution:      5.54845     -11.75479       7.25529
Nuclear contribution   :     -6.09390      13.51614      -6.45360
                        -----------------------------------------
Total Dipole Moment    :     -0.54545       1.76135       0.80169
                        -----------------------------------------
Magnitude (a.u.)       :      2.01061
Magnitude (Debye)      :      5.11057

Rotational constants in cm-1:     0.081469     0.024519     0.022336
Rotational constants in MHz :  2442.393231   735.066768   669.628729

                             ****ORCA TERMINATED NORMALLY****
TOTAL RUN TIME: 0 days 0 hours 1 minutes 5 seconds 295 msec
