                         Program Version 5.0.0 -  RELEASE  -
|  1> !TPSS D3BJ RIJCOSX def2-TZVPD def2/J TightSCF xyzfile
|  2>
|  3> *xyzfile 0 1 D5.xyz
|  4>
|  5> %MaxCore 64000
|  6>
|  7> %pal nprocs 4
|  8> end
|  9>
| 10> %scf
| 11>   MaxIter 150
| 12> end
| 13>
| 14>
| 15>                          ****END OF INPUT****

CARTESIAN COORDINATES (ANGSTROEM)
---------------------------------
  C     -0.461293    2.234686   -4.989619
  C      0.848883    2.667967   -4.302351
  C      2.093434    1.861037   -4.656845
  H      2.444814    2.041567   -5.674990
  H      2.901748    2.137864   -3.980338
  S      1.879644    0.078594   -4.462965
  C     -0.423841    2.398772   -6.474317
  C     -0.959467    3.492647   -7.007401
  N      0.145585    1.486891   -7.203987
  H      0.565371    0.696807   -6.723858
  H      0.220682    1.581768   -8.207520
  H     -1.406243    4.181507   -6.403261
  H     -0.934215    3.681601   -7.999468
  O      3.207574   -0.466111   -4.420259
  O      1.075064   -0.056160   -3.268758
  F      1.131661   -0.319960   -5.679031
  H      0.668432    2.559427   -3.232850
  H      1.034074    3.729426   -4.497081
  H     -1.288884    2.826737   -4.594997
  H     -0.651696    1.186343   -4.756552

 Total Charge           Charge          ....    0
 Multiplicity           Mult            ....    1
 Number of Electrons    NEL             ....   88
 Basis Dimension        Dim             ....  478

ORBITAL ENERGIES
----------------

  NO   OCC          E(Eh)            E(eV)
   0   2.0000     -88.593280     -2410.7457
   1   2.0000     -24.531625      -667.5394
   2   2.0000     -18.909939      -514.5656
   3   2.0000     -18.906438      -514.4703
   4   2.0000     -14.107031      -383.8718
   5   2.0000     -10.044678      -273.3296
   6   2.0000     -10.012853      -272.4636
   7   2.0000     -10.007565      -272.3197
   8   2.0000      -9.999950      -272.1125
   9   2.0000      -9.924943      -270.0714
  10   2.0000      -7.943625      -216.1570
  11   2.0000      -5.927289      -161.2897
  12   2.0000      -5.919849      -161.0873
  13   2.0000      -5.919497      -161.0777
  14   2.0000      -1.297451       -35.3054
  15   2.0000      -1.055202       -28.7135
  16   2.0000      -0.968359       -26.3504
  17   2.0000      -0.882814       -24.0226
  18   2.0000      -0.776973       -21.1425
  19   2.0000      -0.714361       -19.4387
  20   2.0000      -0.687824       -18.7166
  21   2.0000      -0.645186       -17.5564
  22   2.0000      -0.603724       -16.4282
  23   2.0000      -0.552646       -15.0383
  24   2.0000      -0.530473       -14.4349
  25   2.0000      -0.524110       -14.2618
  26   2.0000      -0.508286       -13.8312
  27   2.0000      -0.488680       -13.2976
  28   2.0000      -0.457863       -12.4591
  29   2.0000      -0.445992       -12.1361
  30   2.0000      -0.429154       -11.6779
  31   2.0000      -0.421563       -11.4713
  32   2.0000      -0.405429       -11.0323
  33   2.0000      -0.381434       -10.3794
  34   2.0000      -0.364961        -9.9311
  35   2.0000      -0.357397        -9.7253
  36   2.0000      -0.348923        -9.4947
  37   2.0000      -0.341363        -9.2890
  38   2.0000      -0.311947        -8.4885
  39   2.0000      -0.310692        -8.4544
  40   2.0000      -0.303235        -8.2515
  41   2.0000      -0.295982        -8.0541
  42   2.0000      -0.289016        -7.8645
  43   2.0000      -0.166402        -4.5280
  44   0.0000      -0.030799        -0.8381
  45   0.0000      -0.004039        -0.1099
  46   0.0000      -0.002216        -0.0603
  47   0.0000       0.002486         0.0676
  48   0.0000       0.012205         0.3321

MULLIKEN ATOMIC CHARGES
-----------------------
   0 C :   -0.523116
   1 C :   -0.123668
   2 C :   -0.480147
   3 H :    0.343569
   4 H :    0.134867
   5 S :    1.200150
   6 C :    0.828899
   7 C :   -1.221109
   8 N :   -0.481768
   9 H :    0.344530
  10 H :    0.083321
  11 H :    0.269364
  12 H :    0.246460
  13 O :   -0.605079
  14 O :   -0.592442
  15 F :   -0.244254
  16 H :    0.205437
  17 H :    0.160677
  18 H :    0.102557
  19 H :    0.351753
Sum of atomic charges:    0.0000000

LOEWDIN ATOMIC CHARGES
----------------------
   0 C :   -0.141687
   1 C :   -0.195845
   2 C :   -0.213339
   3 H :    0.103127
   4 H :    0.108533
   5 S :    0.586996
   6 C :   -0.485893
   7 C :    0.030458
   8 N :    0.123328
   9 H :    0.051883
  10 H :    0.124543
  11 H :    0.021281
  12 H :    0.015291
  13 O :   -0.241198
  14 O :   -0.240109
  15 F :   -0.097005
  16 H :    0.107805
  17 H :    0.121328
  18 H :    0.119732
  19 H :    0.100771

  Mayer bond orders larger than 0.100000
B(  0-C ,  1-C ) :   0.9260 B(  0-C ,  2-C ) :   0.1159 B(  0-C ,  6-C ) :   0.8400
B(  0-C , 18-H ) :   0.9466 B(  0-C , 19-H ) :   0.8308 B(  1-C ,  2-C ) :   1.0732
B(  1-C ,  6-C ) :   0.1516 B(  1-C , 16-H ) :   0.8509 B(  1-C , 17-H ) :   0.9274
B(  2-C ,  3-H ) :   0.8223 B(  2-C ,  4-H ) :   0.9461 B(  2-C ,  5-S ) :   0.8229
B(  2-C ,  8-N ) :   0.1541 B(  2-C , 13-O ) :   0.1311 B(  5-S , 13-O ) :   1.5382
B(  5-S , 14-O ) :   1.6482 B(  5-S , 15-F ) :   0.9481 B(  6-C ,  7-C ) :   1.2266
B(  6-C ,  8-N ) :   0.8100 B(  7-C ,  8-N ) :   0.1509 B(  7-C , 11-H ) :   0.9941
B(  7-C , 12-H ) :   0.9936 B(  8-N ,  9-H ) :   0.8674 B(  8-N , 10-H ) :   1.1032
B( 13-O , 14-O ) :   0.1219

Dispersion correction           -0.028406577
FINAL SINGLE POINT ENERGY      -900.053802915048

DIPOLE MOMENT
-------------
                                X             Y             Z
Electronic contribution:      6.42948     -13.48397       3.18957
Nuclear contribution   :     -6.26130      13.99605      -3.80018
                        -----------------------------------------
Total Dipole Moment    :      0.16818       0.51209      -0.61061
                        -----------------------------------------
Magnitude (a.u.)       :      0.81447
Magnitude (Debye)      :      2.07021

Rotational constants in cm-1:     0.079895     0.025630     0.022948
Rotational constants in MHz :  2395.188639   768.373696   687.955250

                             ****ORCA TERMINATED NORMALLY****
TOTAL RUN TIME: 0 days 0 hours 1 minutes 7 seconds 384 msec
