                         Program Version 5.0.0 -  RELEASE  -
|  1> !TPSS D3BJ RIJCOSX def2-TZVPD def2/J TightSCF xyzfile
|  2>
|  3> *xyzfile 0 1 D6.xyz
|  4>
|  5> %MaxCore 64000
|  6>
|  7> %pal nprocs 4
|  8> end
|  9>
| 10> %scf
| 11>   MaxIter 150
| 12> end
| 13>
| 14>
| 15>                          ****END OF INPUT****

CARTESIAN COORDINATES (ANGSTROEM)
---------------------------------
  C     -0.461293    2.234686   -4.989619
  C      0.848883    2.667967   -4.302351
  C      2.093434    1.861037   -4.656845
  H      2.444814    2.041567   -5.674990
  H      2.901748    2.137864   -3.980338
  S      1.879644    0.078594   -4.462965
  C     -0.423841    2.398772   -6.474317
  N     -0.959467    3.492647   -7.007401
  C      0.145585    1.486891   -7.203987
  H      0.565371    0.696807   -6.723858
  H      0.220682    1.581768   -8.207520
  H     -1.406243    4.181507   -6.403261
  H     -0.934215    3.681601   -7.999468
  O      3.207574   -0.466111   -4.420259
  O      1.075064   -0.056160   -3.268758
  F      1.131661   -0.319960   -5.679031
  H      0.668432    2.559427   -3.232850
  H      1.034074    3.729426   -4.497081
  H     -1.288884    2.826737   -4.594997
  H     -0.651696    1.186343   -4.756552

 Total Charge           Charge          ....    0
 Multiplicity           Mult            ....    1
 Number of Electrons    NEL             ....   88
 Basis Dimension        Dim             ....  478

ORBITAL ENERGIES
----------------

  NO   OCC          E(Eh)            E(eV)
   0   2.0000     -88.580125     -2410.3877
   1   2.0000     -24.506403      -666.8531
   2   2.0000     -18.896796      -514.2080
   3   2.0000     -18.894233      -514.1382
   4   2.0000     -14.113054      -384.0357
   5   2.0000     -10.034453      -273.0514
   6   2.0000     -10.011285      -272.4209
   7   2.0000     -10.007628      -272.3214
   8   2.0000     -10.000455      -272.1262
   9   2.0000      -9.917971      -269.8817
  10   2.0000      -7.930169      -215.7909
  11   2.0000      -5.913544      -160.9157
  12   2.0000      -5.906615      -160.7272
  13   2.0000      -5.906248      -160.7172
  14   2.0000      -1.273564       -34.6554
  15   2.0000      -1.041923       -28.3522
  16   2.0000      -0.956117       -26.0173
  17   2.0000      -0.872813       -23.7504
  18   2.0000      -0.772337       -21.0164
  19   2.0000      -0.714370       -19.4390
  20   2.0000      -0.668485       -18.1904
  21   2.0000      -0.653405       -17.7801
  22   2.0000      -0.586537       -15.9605
  23   2.0000      -0.549096       -14.9417
  24   2.0000      -0.508857       -13.8467
  25   2.0000      -0.506298       -13.7771
  26   2.0000      -0.498876       -13.5751
  27   2.0000      -0.487251       -13.2588
  28   2.0000      -0.455250       -12.3880
  29   2.0000      -0.442798       -12.0491
  30   2.0000      -0.425847       -11.5879
  31   2.0000      -0.410373       -11.1668
  32   2.0000      -0.402817       -10.9612
  33   2.0000      -0.370607       -10.0847
  34   2.0000      -0.360950        -9.8219
  35   2.0000      -0.355029        -9.6608
  36   2.0000      -0.343075        -9.3355
  37   2.0000      -0.332441        -9.0462
  38   2.0000      -0.308350        -8.3906
  39   2.0000      -0.302553        -8.2329
  40   2.0000      -0.295588        -8.0434
  41   2.0000      -0.287126        -7.8131
  42   2.0000      -0.278152        -7.5689
  43   2.0000      -0.172441        -4.6924
  44   0.0000      -0.020626        -0.5612
  45   0.0000      -0.008487        -0.2310
  46   0.0000       0.000019         0.0005
  47   0.0000       0.006103         0.1661
  48   0.0000       0.019934         0.5424

MULLIKEN ATOMIC CHARGES
-----------------------
   0 C :   -0.594310
   1 C :   -0.122205
   2 C :   -0.521990
   3 H :    0.425390
   4 H :    0.121647
   5 S :    1.182275
   6 C :    1.047798
   7 N :   -0.506018
   8 C :   -1.839436
   9 H :    0.937967
  10 H :    0.179755
  11 H :    0.168979
  12 H :    0.115926
  13 O :   -0.620765
  14 O :   -0.602052
  15 F :   -0.143046
  16 H :    0.209316
  17 H :    0.086499
  18 H :    0.135338
  19 H :    0.338931
Sum of atomic charges:    0.0000000

LOEWDIN ATOMIC CHARGES
----------------------
   0 C :   -0.139025
   1 C :   -0.197680
   2 C :   -0.213232
   3 H :    0.103000
   4 H :    0.106999
   5 S :    0.585503
   6 C :   -0.467494
   7 N :    0.109610
   8 C :    0.029363
   9 H :   -0.013042
  10 H :    0.035770
  11 H :    0.105809
  12 H :    0.108625
  13 O :   -0.246381
  14 O :   -0.247335
  15 F :   -0.103702
  16 H :    0.107210
  17 H :    0.117496
  18 H :    0.113521
  19 H :    0.104986

  Mayer bond orders larger than 0.100000
B(  0-C ,  1-C ) :   0.9727 B(  0-C ,  6-C ) :   0.8177 B(  0-C ,  8-C ) :   0.1341
B(  0-C , 18-H ) :   1.0031 B(  0-C , 19-H ) :   0.8410 B(  1-C ,  2-C ) :   1.0824
B(  1-C ,  6-C ) :   0.1324 B(  1-C , 16-H ) :   0.8499 B(  1-C , 17-H ) :   0.9393
B(  2-C ,  3-H ) :   0.7824 B(  2-C ,  4-H ) :   0.9581 B(  2-C ,  5-S ) :   0.8222
B(  2-C ,  8-C ) :   0.2126 B(  2-C , 13-O ) :   0.1350 B(  5-S , 13-O ) :   1.5229
B(  5-S , 14-O ) :   1.6337 B(  5-S , 15-F ) :   1.0142 B(  6-C ,  7-N ) :   0.6926
B(  6-C ,  8-C ) :   0.9287 B(  6-C , 10-H ) :  -0.1073 B(  7-N ,  8-C ) :   0.1266
B(  7-N , 11-H ) :   1.0491 B(  7-N , 12-H ) :   1.1016 B(  8-C ,  9-H ) :   0.2087
B(  8-C , 10-H ) :   1.1079 B(  8-C , 15-F ) :   0.1689 B(  9-H , 10-H ) :   0.1024
B(  9-H , 15-F ) :  -0.3226 B( 13-O , 14-O ) :   0.1138

Dispersion correction           -0.028586634
FINAL SINGLE POINT ENERGY      -900.046655467080

DIPOLE MOMENT
-------------
                                X             Y             Z
Electronic contribution:      5.54536     -12.03015       3.19201
Nuclear contribution   :     -6.15577      13.80449      -3.81895
                        -----------------------------------------
Total Dipole Moment    :     -0.61041       1.77434      -0.62694
                        -----------------------------------------
Magnitude (a.u.)       :      1.97837
Magnitude (Debye)      :      5.02861

Rotational constants in cm-1:     0.081431     0.024887     0.022470
Rotational constants in MHz :  2441.231544   746.086417   673.646914

                             ****ORCA TERMINATED NORMALLY****
TOTAL RUN TIME: 0 days 0 hours 1 minutes 9 seconds 234 msec
