                         Program Version 5.0.0 -  RELEASE  -
|  1> !LC-PBE RIJCOSX def2-SVPD def2/J TightSCF
|  2> *xyz -1 1
|  3> C         -0.05517        1.61942       -3.78858
|  4> C          1.22302        2.46987       -3.75691
|  5> H          1.11470        3.25807       -4.53300
|  6> H          1.23773        3.01124       -2.79216
|  7> O          2.35381        1.71203       -3.93448
|  8> H         -0.10198        1.08015       -4.71156
|  9> H         -0.91014        2.25726       -3.70441
| 10> H         -0.04403        0.92826       -2.97183
| 11> *
| 12>
| 13> %MaxCore 64000
| 14>
| 15> %pal nprocs 4
| 16> end
| 17>
| 18> %scf
| 19>   MaxIter 150
| 20> end
| 21>
| 22>
| 23>                          ****END OF INPUT****

CARTESIAN COORDINATES (ANGSTROEM)
---------------------------------
  C     -0.055170    1.619420   -3.788580
  C      1.223020    2.469870   -3.756910
  H      1.114700    3.258070   -4.533000
  H      1.237730    3.011240   -2.792160
  O      2.353810    1.712030   -3.934480
  H     -0.101980    1.080150   -4.711560
  H     -0.910140    2.257260   -3.704410
  H     -0.044030    0.928260   -2.971830

 Total Charge           Charge          ....   -1
 Multiplicity           Mult            ....    1
 Number of Electrons    NEL             ....   26
 Basis Dimension        Dim             ....  103

ORBITAL ENERGIES
----------------

  NO   OCC          E(Eh)            E(eV)
   0   2.0000     -18.646688      -507.4022
   1   2.0000      -9.938729      -270.4466
   2   2.0000      -9.916628      -269.8452
   3   2.0000      -0.831495       -22.6261
   4   2.0000      -0.687352       -18.7038
   5   2.0000      -0.522667       -14.2225
   6   2.0000      -0.395683       -10.7671
   7   2.0000      -0.367066        -9.9884
   8   2.0000      -0.309856        -8.4316
   9   2.0000      -0.288477        -7.8498
  10   2.0000      -0.240262        -6.5379
  11   2.0000      -0.091091        -2.4787
  12   2.0000      -0.088906        -2.4192
  13   0.0000       0.244650         6.6573
  14   0.0000       0.276907         7.5350
  15   0.0000       0.317358         8.6358
  16   0.0000       0.330428         8.9914
  17   0.0000       0.345251         9.3947

MULLIKEN ATOMIC CHARGES
-----------------------
   0 C :    0.139653
   1 C :   -0.020321
   2 H :   -0.085556
   3 H :   -0.098123
   4 O :   -0.874955
   5 H :   -0.028733
   6 H :   -0.004712
   7 H :   -0.027253
Sum of atomic charges:   -1.0000000

LOEWDIN ATOMIC CHARGES
----------------------
   0 C :    0.028563
   1 C :   -0.290798
   2 H :   -0.016710
   3 H :   -0.018469
   4 O :   -0.600303
   5 H :   -0.028322
   6 H :   -0.044763
   7 H :   -0.029199

  Mayer bond orders larger than 0.100000
B(  0-C ,  1-C ) :   1.1865 B(  0-C ,  5-H ) :   0.9257 B(  0-C ,  6-H ) :   0.9033
B(  0-C ,  7-H ) :   0.9251 B(  1-C ,  2-H ) :   0.9924 B(  1-C ,  3-H ) :   1.0006
B(  1-C ,  4-O ) :   1.2887 B(  1-C ,  5-H ) :   0.1433 B(  1-C ,  7-H ) :   0.1353

FINAL SINGLE POINT ENERGY      -153.847239238246

DIPOLE MOMENT
-------------
                                X             Y             Z
Electronic contribution:      2.56134      -0.45291      -0.22855
Nuclear contribution   :     -4.28298       0.81046       0.39340
                        -----------------------------------------
Total Dipole Moment    :     -1.72164       0.35755       0.16486
                        -----------------------------------------
Magnitude (a.u.)       :      1.76609
Magnitude (Debye)      :      4.48904

Rotational constants in cm-1:     1.266793     0.328147     0.288309
Rotational constants in MHz : 37977.512300  9837.594308  8643.275638

                             ****ORCA TERMINATED NORMALLY****
TOTAL RUN TIME: 0 days 0 hours 0 minutes 10 seconds 970 msec
