                         Program Version 5.0.0 -  RELEASE  -
|  1> !LC-PBE RIJCOSX def2-SVPD def2/J TightSCF
|  2> *xyz 1 1
|  3> C          1.63556       -1.67040       -5.29211
|  4> C          0.33848       -1.50091       -4.50540
|  5> N          2.48451       -0.50741       -5.14039
|  6> H          1.39834       -1.82924       -6.35259
|  7> H          2.15586       -2.56540       -4.93209
|  8> C          3.45115       -0.14953       -5.95259
|  9> N          3.92267        1.08956       -5.85071
| 10> N          3.96616       -1.00618       -6.86788
| 11> H          3.52139       -1.90647       -6.99527
| 12> H          4.44482       -0.62347       -7.67035
| 13> H          2.25200        0.24080       -4.49879
| 14> H          3.46428        1.64078       -5.13639
| 15> H          4.83447        1.31375       -6.22465
| 16> H         -0.17658       -0.62881       -4.85045
| 17> H          0.56384       -1.39374       -3.46490
| 18> H         -0.28102       -2.36136       -4.64938
| 19> *
| 20>
| 21> %MaxCore 64000
| 22>
| 23> %pal nprocs 4
| 24> end
| 25>
| 26> %scf
| 27>   MaxIter 150
| 28> end
| 29>
| 30>
| 31>                          ****END OF INPUT****

CARTESIAN COORDINATES (ANGSTROEM)
---------------------------------
  C      1.635560   -1.670400   -5.292110
  C      0.338480   -1.500910   -4.505400
  N      2.484510   -0.507410   -5.140390
  H      1.398340   -1.829240   -6.352590
  H      2.155860   -2.565400   -4.932090
  C      3.451150   -0.149530   -5.952590
  N      3.922670    1.089560   -5.850710
  N      3.966160   -1.006180   -6.867880
  H      3.521390   -1.906470   -6.995270
  H      4.444820   -0.623470   -7.670350
  H      2.252000    0.240800   -4.498790
  H      3.464280    1.640780   -5.136390
  H      4.834470    1.313750   -6.224650
  H     -0.176580   -0.628810   -4.850450
  H      0.563840   -1.393740   -3.464900
  H     -0.281020   -2.361360   -4.649380

 Total Charge           Charge          ....    1
 Multiplicity           Mult            ....    1
 Number of Electrons    NEL             ....   48
 Basis Dimension        Dim             ....  200

ORBITAL ENERGIES
----------------

  NO   OCC          E(Eh)            E(eV)
   0   2.0000     -14.461295      -393.5118
   1   2.0000     -14.454846      -393.3364
   2   2.0000     -14.452657      -393.2768
   3   2.0000     -10.472373      -284.9677
   4   2.0000     -10.338521      -281.3255
   5   2.0000     -10.266213      -279.3578
   6   2.0000      -1.395041       -37.9610
   7   2.0000      -1.273036       -34.6411
   8   2.0000      -1.257016       -34.2052
   9   2.0000      -1.105951       -30.0944
  10   2.0000      -0.987327       -26.8665
  11   2.0000      -0.973614       -26.4934
  12   2.0000      -0.931331       -25.3428
  13   2.0000      -0.896508       -24.3952
  14   2.0000      -0.833408       -22.6782
  15   2.0000      -0.830596       -22.6017
  16   2.0000      -0.815438       -22.1892
  17   2.0000      -0.785497       -21.3744
  18   2.0000      -0.751129       -20.4392
  19   2.0000      -0.684199       -18.6180
  20   2.0000      -0.665141       -18.0994
  21   2.0000      -0.654976       -17.8228
  22   2.0000      -0.613696       -16.6995
  23   2.0000      -0.581920       -15.8349
  24   0.0000      -0.081567        -2.2196
  25   0.0000      -0.073822        -2.0088
  26   0.0000      -0.045412        -1.2357
  27   0.0000      -0.030976        -0.8429
  28   0.0000      -0.010849        -0.2952

MULLIKEN ATOMIC CHARGES
-----------------------
   0 C :   -0.099803
   1 C :    0.515985
   2 N :   -0.488745
   3 H :    0.012430
   4 H :    0.001608
   5 C :    1.197779
   6 N :   -0.085670
   7 N :   -0.135596
   8 H :    0.024718
   9 H :   -0.021697
  10 H :   -0.063176
  11 H :    0.070260
  12 H :   -0.039317
  13 H :    0.037767
  14 H :    0.046651
  15 H :    0.026805
Sum of atomic charges:    1.0000000

LOEWDIN ATOMIC CHARGES
----------------------
   0 C :   -0.001187
   1 C :    0.126843
   2 N :    0.029084
   3 H :    0.049241
   4 H :    0.054041
   5 C :   -0.032862
   6 N :    0.247508
   7 N :    0.265618
   8 H :    0.023950
   9 H :    0.044752
  10 H :    0.063607
  11 H :    0.041912
  12 H :    0.053591
  13 H :    0.008255
  14 H :    0.009279
  15 H :    0.016367

  Mayer bond orders larger than 0.100000
B(  0-C ,  1-C ) :   1.3028 B(  0-C ,  2-N ) :   0.9518 B(  0-C ,  3-H ) :   0.9003
B(  0-C ,  4-H ) :   0.9384 B(  0-C , 10-H ) :  -0.1080 B(  0-C , 13-H ) :   0.1630
B(  0-C , 14-H ) :   0.1849 B(  0-C , 15-H ) :   0.2269 B(  1-C , 13-H ) :   0.8384
B(  1-C , 14-H ) :   0.7860 B(  1-C , 15-H ) :   0.7992 B(  2-N ,  3-H ) :   0.1355
B(  2-N ,  4-H ) :   0.1325 B(  2-N ,  5-C ) :   1.0890 B(  2-N ,  6-N ) :   0.2758
B(  2-N ,  7-N ) :   0.1962 B(  2-N , 10-H ) :   1.1831 B(  5-C ,  6-N ) :   0.9437
B(  5-C ,  7-N ) :   0.9387 B(  5-C ,  8-H ) :  -0.1065 B(  5-C ,  9-H ) :  -0.1150
B(  5-C , 10-H ) :  -0.2244 B(  5-C , 12-H ) :  -0.1074 B(  6-N ,  7-N ) :   0.1458
B(  6-N , 11-H ) :   1.0502 B(  6-N , 12-H ) :   1.2021 B(  7-N ,  8-H ) :   1.0376
B(  7-N ,  9-H ) :   1.1981 B(  8-H ,  9-H ) :  -0.1430 B( 11-H , 12-H ) :  -0.1331

FINAL SINGLE POINT ENERGY      -283.312642799140

DIPOLE MOMENT
-------------
                                X             Y             Z
Electronic contribution:      4.71296       2.48869      -1.71070
Nuclear contribution   :     -3.96322      -1.85512       1.24891
                        -----------------------------------------
Total Dipole Moment    :      0.74974       0.63357      -0.46179
                        -----------------------------------------
Magnitude (a.u.)       :      1.08479
Magnitude (Debye)      :      2.75732

Rotational constants in cm-1:     0.261404     0.067000     0.054949
Rotational constants in MHz :  7836.702504  2008.609425  1647.329138

                             ****ORCA TERMINATED NORMALLY****
TOTAL RUN TIME: 0 days 0 hours 0 minutes 31 seconds 682 msec
