                         Program Version 5.0.0 -  RELEASE  -
|  1> !LC-PBE RIJCOSX def2-SVPD def2/J TightSCF
|  2> *xyz 0 1
|  3> C         -0.05517        1.61942       -3.78858
|  4> C          1.22302        2.46987       -3.75691
|  5> H          1.11470        3.25807       -4.53300
|  6> H          1.23773        3.01124       -2.79216
|  7> F          2.35381        1.71203       -3.93448
|  8> H         -0.10198        1.08015       -4.71156
|  9> H         -0.91014        2.25726       -3.70441
| 10> H         -0.04403        0.92826       -2.97183
| 11> *
| 12>
| 13> %MaxCore 64000
| 14>
| 15> %pal nprocs 4
| 16> end
| 17>
| 18> %scf
| 19>   MaxIter 150
| 20> end
| 21>
| 22>
| 23>                          ****END OF INPUT****

CARTESIAN COORDINATES (ANGSTROEM)
---------------------------------
  C     -0.055170    1.619420   -3.788580
  C      1.223020    2.469870   -3.756910
  H      1.114700    3.258070   -4.533000
  H      1.237730    3.011240   -2.792160
  F      2.353810    1.712030   -3.934480
  H     -0.101980    1.080150   -4.711560
  H     -0.910140    2.257260   -3.704410
  H     -0.044030    0.928260   -2.971830

 Total Charge           Charge          ....    0
 Multiplicity           Mult            ....    1
 Number of Electrons    NEL             ....   26
 Basis Dimension        Dim             ....  103

ORBITAL ENERGIES
----------------

  NO   OCC          E(Eh)            E(eV)
   0   2.0000     -24.494122      -666.5190
   1   2.0000     -10.209975      -277.8275
   2   2.0000     -10.123624      -275.4778
   3   2.0000      -1.339360       -36.4458
   4   2.0000      -0.935749       -25.4630
   5   2.0000      -0.789931       -21.4951
   6   2.0000      -0.659641       -17.9497
   7   2.0000      -0.650951       -17.7133
   8   2.0000      -0.608395       -16.5553
   9   2.0000      -0.547254       -14.8915
  10   2.0000      -0.538047       -14.6410
  11   2.0000      -0.473535       -12.8855
  12   2.0000      -0.464793       -12.6477
  13   0.0000       0.091282         2.4839
  14   0.0000       0.121308         3.3010
  15   0.0000       0.155955         4.2438
  16   0.0000       0.158411         4.3106
  17   0.0000       0.187214         5.0943

MULLIKEN ATOMIC CHARGES
-----------------------
   0 C :    0.089499
   1 C :    0.224341
   2 H :    0.025700
   3 H :    0.011077
   4 F :   -0.421703
   5 H :    0.014689
   6 H :    0.038967
   7 H :    0.017431
Sum of atomic charges:    0.0000000

LOEWDIN ATOMIC CHARGES
----------------------
   0 C :    0.100100
   1 C :    0.034642
   2 H :    0.043993
   3 H :    0.041431
   4 F :   -0.213569
   5 H :   -0.002040
   6 H :   -0.001656
   7 H :   -0.002901

  Mayer bond orders larger than 0.100000
B(  0-C ,  1-C ) :   1.3158 B(  0-C ,  5-H ) :   0.9218 B(  0-C ,  6-H ) :   0.8901
B(  0-C ,  7-H ) :   0.9229 B(  1-C ,  2-H ) :   0.9655 B(  1-C ,  3-H ) :   0.9727
B(  1-C ,  4-F ) :   0.8135 B(  1-C ,  5-H ) :   0.1080 B(  1-C ,  7-H ) :   0.1015

FINAL SINGLE POINT ENERGY      -178.439012892791

DIPOLE MOMENT
-------------
                                X             Y             Z
Electronic contribution:      4.97045      -0.70218      -0.42450
Nuclear contribution   :     -5.66833       1.07099       0.52006
                        -----------------------------------------
Total Dipole Moment    :     -0.69788       0.36881       0.09556
                        -----------------------------------------
Magnitude (a.u.)       :      0.79510
Magnitude (Debye)      :      2.02099

Rotational constants in cm-1:     1.245689     0.305293     0.269541
Rotational constants in MHz : 37344.801915  9152.442838  8080.640229

                             ****ORCA TERMINATED NORMALLY****
TOTAL RUN TIME: 0 days 0 hours 0 minutes 8 seconds 992 msec
