                         Program Version 5.0.0 -  RELEASE  -
|  1> !LC-PBE RIJCOSX def2-SVPD def2/J TightSCF
|  2> *xyz 0 1
|  3> C          1.63556       -1.67040       -5.29211
|  4> C          0.33848       -1.50091       -4.50540
|  5> C          2.48451       -0.50741       -5.14039
|  6> H          1.39834       -1.82924       -6.35259
|  7> H          2.15586       -2.56540       -4.93209
|  8> C          3.45115       -0.14953       -5.95259
|  9> N          3.92267        1.08956       -5.85071
| 10> N          3.96616       -1.00618       -6.86788
| 11> H          3.52139       -1.90647       -6.99527
| 12> H          4.44482       -0.62347       -7.67035
| 13> H          2.25200        0.24080       -4.49879
| 14> H          3.46428        1.64078       -5.13639
| 15> H          4.83447        1.31375       -6.22465
| 16> H         -0.17658       -0.62881       -4.85045
| 17> H          0.56384       -1.39374       -3.46490
| 18> H         -0.28102       -2.36136       -4.64938
| 19> *
| 20>
| 21> %MaxCore 64000
| 22>
| 23> %pal nprocs 4
| 24> end
| 25>
| 26> %scf
| 27>   MaxIter 150
| 28> end
| 29>
| 30>
| 31>                          ****END OF INPUT****

CARTESIAN COORDINATES (ANGSTROEM)
---------------------------------
  C      1.635560   -1.670400   -5.292110
  C      0.338480   -1.500910   -4.505400
  C      2.484510   -0.507410   -5.140390
  H      1.398340   -1.829240   -6.352590
  H      2.155860   -2.565400   -4.932090
  C      3.451150   -0.149530   -5.952590
  N      3.922670    1.089560   -5.850710
  N      3.966160   -1.006180   -6.867880
  H      3.521390   -1.906470   -6.995270
  H      4.444820   -0.623470   -7.670350
  H      2.252000    0.240800   -4.498790
  H      3.464280    1.640780   -5.136390
  H      4.834470    1.313750   -6.224650
  H     -0.176580   -0.628810   -4.850450
  H      0.563840   -1.393740   -3.464900
  H     -0.281020   -2.361360   -4.649380

 Total Charge           Charge          ....    0
 Multiplicity           Mult            ....    1
 Number of Electrons    NEL             ....   48
 Basis Dimension        Dim             ....  200

ORBITAL ENERGIES
----------------

  NO   OCC          E(Eh)            E(eV)
   0   2.0000     -14.229707      -387.2100
   1   2.0000     -14.224539      -387.0694
   2   2.0000     -10.171431      -276.7787
   3   2.0000     -10.105667      -274.9892
   4   2.0000     -10.095514      -274.7129
   5   2.0000     -10.050424      -273.4859
   6   2.0000      -1.127866       -30.6908
   7   2.0000      -1.030401       -28.0386
   8   2.0000      -0.949572       -25.8392
   9   2.0000      -0.861623       -23.4459
  10   2.0000      -0.767335       -20.8802
  11   2.0000      -0.733386       -19.9564
  12   2.0000      -0.682605       -18.5746
  13   2.0000      -0.660031       -17.9604
  14   2.0000      -0.605666       -16.4810
  15   2.0000      -0.589433       -16.0393
  16   2.0000      -0.570170       -15.5151
  17   2.0000      -0.540808       -14.7161
  18   2.0000      -0.519199       -14.1281
  19   2.0000      -0.474187       -12.9033
  20   2.0000      -0.462051       -12.5731
  21   2.0000      -0.460505       -12.5310
  22   2.0000      -0.399342       -10.8666
  23   2.0000      -0.279840        -7.6148
  24   0.0000       0.093270         2.5380
  25   0.0000       0.112051         3.0491
  26   0.0000       0.117335         3.1929
  27   0.0000       0.142094         3.8666
  28   0.0000       0.151410         4.1201

MULLIKEN ATOMIC CHARGES
-----------------------
   0 C :   -0.321815
   1 C :    0.676427
   2 C :   -0.189028
   3 H :   -0.070408
   4 H :   -0.020480
   5 C :    0.513854
   6 N :   -0.036609
   7 N :   -0.136393
   8 H :    0.020628
   9 H :   -0.114720
  10 H :   -0.321693
  11 H :    0.096777
  12 H :   -0.147646
  13 H :    0.041856
  14 H :    0.046755
  15 H :   -0.037505
Sum of atomic charges:   -0.0000000

LOEWDIN ATOMIC CHARGES
----------------------
   0 C :   -0.137728
   1 C :    0.078984
   2 C :   -0.060182
   3 H :    0.029198
   4 H :    0.031224
   5 C :   -0.232732
   6 N :    0.156791
   7 N :    0.186108
   8 H :   -0.006393
   9 H :   -0.002033
  10 H :   -0.038072
  11 H :    0.010000
  12 H :    0.003776
  13 H :   -0.003382
  14 H :   -0.003557
  15 H :   -0.012002

  Mayer bond orders larger than 0.100000
B(  0-C ,  1-C ) :   1.2377 B(  0-C ,  2-C ) :   0.9522 B(  0-C ,  3-H ) :   0.9133
B(  0-C ,  4-H ) :   0.8212 B(  0-C , 10-H ) :   0.1853 B(  0-C , 13-H ) :   0.1799
B(  0-C , 14-H ) :   0.1939 B(  0-C , 15-H ) :   0.2623 B(  1-C , 13-H ) :   0.8141
B(  1-C , 14-H ) :   0.7754 B(  1-C , 15-H ) :   0.7539 B(  2-C ,  4-H ) :   0.2064
B(  2-C ,  5-C ) :   1.7569 B(  2-C ,  6-N ) :   0.3183 B(  2-C ,  7-N ) :   0.1950
B(  2-C ,  8-H ) :  -0.1118 B(  2-C , 10-H ) :   0.9387 B(  5-C ,  6-N ) :   0.9482
B(  5-C ,  7-N ) :   0.9593 B(  6-N ,  7-N ) :   0.1024 B(  6-N , 11-H ) :   1.0316
B(  6-N , 12-H ) :   1.2066 B(  7-N ,  8-H ) :   1.0358 B(  7-N ,  9-H ) :   1.2040
B(  8-H ,  9-H ) :  -0.1237 B( 11-H , 12-H ) :  -0.1318

FINAL SINGLE POINT ENERGY      -266.864038585564

DIPOLE MOMENT
-------------
                                X             Y             Z
Electronic contribution:      4.49935       2.14510      -1.90351
Nuclear contribution   :     -3.99655      -1.83277       1.34879
                        -----------------------------------------
Total Dipole Moment    :      0.50280       0.31233      -0.55472
                        -----------------------------------------
Magnitude (a.u.)       :      0.81122
Magnitude (Debye)      :      2.06195

Rotational constants in cm-1:     0.262971     0.067064     0.055026
Rotational constants in MHz :  7883.664566  2010.513309  1649.636654

                             ****ORCA TERMINATED NORMALLY****
TOTAL RUN TIME: 0 days 0 hours 0 minutes 34 seconds 541 msec
