                         Program Version 5.0.0 -  RELEASE  -
|  1> !LC-PBE RIJCOSX def2-SVPD def2/J TightSCF
|  2> *xyz 0 1
|  3> C          1.63556       -1.67040       -5.29211
|  4> C          0.33848       -1.50091       -4.50540
|  5> N          2.48451       -0.50741       -5.14039
|  6> H          1.39834       -1.82924       -6.35259
|  7> H          2.15586       -2.56540       -4.93209
|  8> C          3.45115       -0.14953       -5.95259
|  9> C          3.92267        1.08956       -5.85071
| 10> N          3.96616       -1.00618       -6.86788
| 11> H          3.52139       -1.90647       -6.99527
| 12> H          4.44482       -0.62347       -7.67035
| 13> H          2.25200        0.24080       -4.49879
| 14> H          3.46428        1.64078       -5.13639
| 15> H          4.83447        1.31375       -6.22465
| 16> H         -0.17658       -0.62881       -4.85045
| 17> H          0.56384       -1.39374       -3.46490
| 18> H         -0.28102       -2.36136       -4.64938
| 19> *
| 20>
| 21> %MaxCore 64000
| 22>
| 23> %pal nprocs 4
| 24> end
| 25>
| 26> %scf
| 27>   MaxIter 150
| 28> end
| 29>
| 30>
| 31>                          ****END OF INPUT****

CARTESIAN COORDINATES (ANGSTROEM)
---------------------------------
  C      1.635560   -1.670400   -5.292110
  C      0.338480   -1.500910   -4.505400
  N      2.484510   -0.507410   -5.140390
  H      1.398340   -1.829240   -6.352590
  H      2.155860   -2.565400   -4.932090
  C      3.451150   -0.149530   -5.952590
  C      3.922670    1.089560   -5.850710
  N      3.966160   -1.006180   -6.867880
  H      3.521390   -1.906470   -6.995270
  H      4.444820   -0.623470   -7.670350
  H      2.252000    0.240800   -4.498790
  H      3.464280    1.640780   -5.136390
  H      4.834470    1.313750   -6.224650
  H     -0.176580   -0.628810   -4.850450
  H      0.563840   -1.393740   -3.464900
  H     -0.281020   -2.361360   -4.649380

 Total Charge           Charge          ....    0
 Multiplicity           Mult            ....    1
 Number of Electrons    NEL             ....   48
 Basis Dimension        Dim             ....  200

ORBITAL ENERGIES
----------------

  NO   OCC          E(Eh)            E(eV)
   0   2.0000     -14.231170      -387.2498
   1   2.0000     -14.228696      -387.1825
   2   2.0000     -10.177480      -276.9433
   3   2.0000     -10.171045      -276.7682
   4   2.0000     -10.127532      -275.5841
   5   2.0000     -10.035130      -273.0698
   6   2.0000      -1.142033       -31.0763
   7   2.0000      -1.046866       -28.4867
   8   2.0000      -0.949070       -25.8255
   9   2.0000      -0.867500       -23.6059
  10   2.0000      -0.785419       -21.3723
  11   2.0000      -0.750675       -20.4269
  12   2.0000      -0.685713       -18.6592
  13   2.0000      -0.643025       -17.4976
  14   2.0000      -0.631662       -17.1884
  15   2.0000      -0.603925       -16.4336
  16   2.0000      -0.560055       -15.2399
  17   2.0000      -0.539549       -14.6819
  18   2.0000      -0.516249       -14.0479
  19   2.0000      -0.510744       -13.8981
  20   2.0000      -0.508635       -13.8407
  21   2.0000      -0.485404       -13.2085
  22   2.0000      -0.390271       -10.6198
  23   2.0000      -0.279747        -7.6123
  24   0.0000       0.084838         2.3086
  25   0.0000       0.104266         2.8372
  26   0.0000       0.114729         3.1219
  27   0.0000       0.144601         3.9348
  28   0.0000       0.153301         4.1715

MULLIKEN ATOMIC CHARGES
-----------------------
   0 C :   -0.081540
   1 C :    0.545643
   2 N :   -0.399346
   3 H :   -0.043310
   4 H :   -0.068608
   5 C :    0.555212
   6 C :    0.286271
   7 N :   -0.068389
   8 H :   -0.094412
   9 H :   -0.019501
  10 H :   -0.088722
  11 H :   -0.183185
  12 H :   -0.362523
  13 H :    0.010232
  14 H :    0.021731
  15 H :   -0.009555
Sum of atomic charges:    0.0000000

LOEWDIN ATOMIC CHARGES
----------------------
   0 C :   -0.031230
   1 C :    0.097846
   2 N :   -0.034937
   3 H :    0.032054
   4 H :    0.032267
   5 C :   -0.236244
   6 C :    0.107022
   7 N :    0.184102
   8 H :   -0.018008
   9 H :    0.013257
  10 H :    0.038584
  11 H :   -0.092038
  12 H :   -0.085053
  13 H :   -0.001211
  14 H :   -0.002648
  15 H :   -0.003762

  Mayer bond orders larger than 0.100000
B(  0-C ,  1-C ) :   1.2725 B(  0-C ,  2-N ) :   0.9501 B(  0-C ,  3-H ) :   0.9204
B(  0-C ,  4-H ) :   0.9552 B(  0-C , 10-H ) :  -0.1199 B(  0-C , 13-H ) :   0.1834
B(  0-C , 14-H ) :   0.1959 B(  0-C , 15-H ) :   0.2338 B(  1-C , 13-H ) :   0.8321
B(  1-C , 14-H ) :   0.7851 B(  1-C , 15-H ) :   0.7955 B(  2-N ,  3-H ) :   0.1299
B(  2-N ,  4-H ) :   0.1581 B(  2-N ,  5-C ) :   1.1353 B(  2-N ,  6-C ) :   0.2661
B(  2-N ,  7-N ) :   0.1180 B(  2-N , 10-H ) :   1.1467 B(  5-C ,  6-C ) :   1.7067
B(  5-C ,  7-N ) :   0.9178 B(  5-C , 10-H ) :  -0.1690 B(  5-C , 11-H ) :   0.1711
B(  5-C , 12-H ) :   0.2320 B(  6-C ,  7-N ) :   0.2079 B(  6-C , 11-H ) :   0.8554
B(  6-C , 12-H ) :   0.7479 B(  7-N ,  8-H ) :   1.0548 B(  7-N ,  9-H ) :   1.1609
B(  8-H ,  9-H ) :  -0.1350

FINAL SINGLE POINT ENERGY      -266.850895369778

DIPOLE MOMENT
-------------
                                X             Y             Z
Electronic contribution:      2.94721       0.55137      -1.29454
Nuclear contribution   :     -3.69145      -1.49398       1.19810
                        -----------------------------------------
Total Dipole Moment    :     -0.74424      -0.94261      -0.09644
                        -----------------------------------------
Magnitude (a.u.)       :      1.20487
Magnitude (Debye)      :      3.06253

Rotational constants in cm-1:     0.270790     0.068966     0.056679
Rotational constants in MHz :  8118.084803  2067.559423  1699.196934

                             ****ORCA TERMINATED NORMALLY****
TOTAL RUN TIME: 0 days 0 hours 0 minutes 34 seconds 266 msec
