                         Program Version 5.0.0 -  RELEASE  -
|  1> !LC-PBE RIJCOSX def2-SVPD def2/J TightSCF
|  2> *xyz 0 1
|  3> C          1.63556       -1.67040       -5.29211
|  4> C          0.33848       -1.50091       -4.50540
|  5> N          2.48451       -0.50741       -5.14039
|  6> H          1.39834       -1.82924       -6.35259
|  7> H          2.15586       -2.56540       -4.93209
|  8> C          3.45115       -0.14953       -5.95259
|  9> N          3.92267        1.08956       -5.85071
| 10> C          3.96616       -1.00618       -6.86788
| 11> H          3.52139       -1.90647       -6.99527
| 12> H          4.44482       -0.62347       -7.67035
| 13> H          2.25200        0.24080       -4.49879
| 14> H          3.46428        1.64078       -5.13639
| 15> H          4.83447        1.31375       -6.22465
| 16> H         -0.17658       -0.62881       -4.85045
| 17> H          0.56384       -1.39374       -3.46490
| 18> H         -0.28102       -2.36136       -4.64938
| 19> *
| 20>
| 21> %MaxCore 64000
| 22>
| 23> %pal nprocs 4
| 24> end
| 25>
| 26> %scf
| 27>   MaxIter 150
| 28> end
| 29>
| 30>
| 31>                          ****END OF INPUT****

CARTESIAN COORDINATES (ANGSTROEM)
---------------------------------
  C      1.635560   -1.670400   -5.292110
  C      0.338480   -1.500910   -4.505400
  N      2.484510   -0.507410   -5.140390
  H      1.398340   -1.829240   -6.352590
  H      2.155860   -2.565400   -4.932090
  C      3.451150   -0.149530   -5.952590
  N      3.922670    1.089560   -5.850710
  C      3.966160   -1.006180   -6.867880
  H      3.521390   -1.906470   -6.995270
  H      4.444820   -0.623470   -7.670350
  H      2.252000    0.240800   -4.498790
  H      3.464280    1.640780   -5.136390
  H      4.834470    1.313750   -6.224650
  H     -0.176580   -0.628810   -4.850450
  H      0.563840   -1.393740   -3.464900
  H     -0.281020   -2.361360   -4.649380

 Total Charge           Charge          ....    0
 Multiplicity           Mult            ....    1
 Number of Electrons    NEL             ....   48
 Basis Dimension        Dim             ....  200

ORBITAL ENERGIES
----------------

  NO   OCC          E(Eh)            E(eV)
   0   2.0000     -14.237842      -387.4314
   1   2.0000     -14.231181      -387.2501
   2   2.0000     -10.179318      -276.9933
   3   2.0000     -10.163800      -276.5710
   4   2.0000     -10.123675      -275.4792
   5   2.0000     -10.036998      -273.1206
   6   2.0000      -1.150448       -31.3053
   7   2.0000      -1.052979       -28.6530
   8   2.0000      -0.933105       -25.3911
   9   2.0000      -0.868993       -23.6465
  10   2.0000      -0.804108       -21.8809
  11   2.0000      -0.720113       -19.5953
  12   2.0000      -0.686478       -18.6800
  13   2.0000      -0.671567       -18.2743
  14   2.0000      -0.626260       -17.0414
  15   2.0000      -0.609853       -16.5949
  16   2.0000      -0.546822       -14.8798
  17   2.0000      -0.531748       -14.4696
  18   2.0000      -0.531329       -14.4582
  19   2.0000      -0.505673       -13.7601
  20   2.0000      -0.495834       -13.4923
  21   2.0000      -0.484772       -13.1913
  22   2.0000      -0.382564       -10.4101
  23   2.0000      -0.283976        -7.7274
  24   0.0000       0.085805         2.3349
  25   0.0000       0.102481         2.7886
  26   0.0000       0.116622         3.1734
  27   0.0000       0.142997         3.8911
  28   0.0000       0.151215         4.1148

MULLIKEN ATOMIC CHARGES
-----------------------
   0 C :   -0.068229
   1 C :    0.555330
   2 N :   -0.430205
   3 H :    0.001539
   4 H :   -0.028465
   5 C :    0.423343
   6 N :    0.001254
   7 C :    0.285128
   8 H :   -0.067758
   9 H :   -0.363769
  10 H :   -0.192379
  11 H :   -0.075049
  12 H :   -0.055016
  13 H :    0.009447
  14 H :    0.014555
  15 H :   -0.009725
Sum of atomic charges:   -0.0000000

LOEWDIN ATOMIC CHARGES
----------------------
   0 C :   -0.019095
   1 C :    0.094977
   2 N :   -0.035131
   3 H :    0.039252
   4 H :    0.040105
   5 C :   -0.246102
   6 N :    0.169275
   7 C :    0.127568
   8 H :   -0.110606
   9 H :   -0.094499
  10 H :    0.028232
  11 H :   -0.002871
  12 H :    0.021940
  13 H :   -0.004208
  14 H :   -0.005689
  15 H :   -0.003147

  Mayer bond orders larger than 0.100000
B(  0-C ,  1-C ) :   1.2555 B(  0-C ,  2-N ) :   0.9905 B(  0-C ,  3-H ) :   0.9068
B(  0-C ,  4-H ) :   0.9413 B(  0-C , 10-H ) :  -0.1118 B(  0-C , 13-H ) :   0.1680
B(  0-C , 14-H ) :   0.1982 B(  0-C , 15-H ) :   0.2292 B(  1-C , 13-H ) :   0.8396
B(  1-C , 14-H ) :   0.7752 B(  1-C , 15-H ) :   0.7949 B(  2-N ,  3-H ) :   0.1521
B(  2-N ,  4-H ) :   0.1337 B(  2-N ,  5-C ) :   1.1103 B(  2-N ,  6-N ) :   0.1977
B(  2-N ,  7-C ) :   0.3053 B(  2-N , 10-H ) :   1.2124 B(  5-C ,  6-N ) :   0.9310
B(  5-C ,  7-C ) :   1.8608 B(  5-C ,  8-H ) :   0.2471 B(  5-C ,  9-H ) :   0.1904
B(  5-C , 10-H ) :  -0.2255 B(  6-N ,  7-C ) :   0.2289 B(  6-N , 11-H ) :   1.0825
B(  6-N , 12-H ) :   1.1889 B(  7-C ,  8-H ) :   0.7033 B(  7-C ,  9-H ) :   0.8216
B(  8-H ,  9-H ) :   0.1693 B( 11-H , 12-H ) :  -0.1251

FINAL SINGLE POINT ENERGY      -266.851341054066

DIPOLE MOMENT
-------------
                                X             Y             Z
Electronic contribution:      3.01658       2.61971      -0.20465
Nuclear contribution   :     -3.68222      -1.93858       0.98231
                        -----------------------------------------
Total Dipole Moment    :     -0.66564       0.68113       0.77767
                        -----------------------------------------
Magnitude (a.u.)       :      1.22955
Magnitude (Debye)      :      3.12526

Rotational constants in cm-1:     0.275407     0.068040     0.056255
Rotational constants in MHz :  8256.498401  2039.796466  1686.484500

                             ****ORCA TERMINATED NORMALLY****
TOTAL RUN TIME: 0 days 0 hours 0 minutes 34 seconds 468 msec
