                         Program Version 5.0.0 -  RELEASE  -
|  1> !LC-PBE RIJCOSX def2-SVPD def2/J TightSCF xyzfile
|  2>
|  3> *xyzfile 0 1 D3.xyz
|  4>
|  5> %MaxCore 64000
|  6>
|  7> %pal nprocs 4
|  8> end
|  9>
| 10> %scf
| 11>   MaxIter 150
| 12> end
| 13>
| 14>
| 15>                          ****END OF INPUT****

CARTESIAN COORDINATES (ANGSTROEM)
---------------------------------
  C      1.635557   -1.670396   -5.292109
  C      0.338484   -1.500907   -4.505398
  N      2.484511   -0.507410   -5.140392
  C     -0.684873   -0.528026   -5.099889
  C     -0.290406    0.951335   -5.153423
  H      0.607991    1.070692   -5.764412
  C     -0.055168    1.619420   -3.788577
  H     -1.080912    1.483775   -5.689436
  H      0.045006    0.862302   -3.003015
  H     -0.922936    2.230329   -3.517028
  C      1.223022    2.469865   -3.756911
  H      1.114701    3.258074   -4.532999
  H      1.237732    3.011242   -2.792157
  F      2.353815    1.712032   -3.934477
  H      1.398337   -1.829239   -6.352591
  H      2.155864   -2.565398   -4.932091
  C      3.451149   -0.149530   -5.952589
  N      3.922667    1.089559   -5.850711
  C      3.966162   -1.006183   -6.867880
  H      3.521391   -1.906467   -6.995270
  H      4.444824   -0.623472   -7.670348
  H      2.251995    0.240804   -4.498792
  H      3.464277    1.640782   -5.136392
  H      4.834470    1.313745   -6.224653
  H     -0.937999   -0.869056   -6.110838
  H     -1.604638   -0.622496   -4.513132
  H      0.594887   -1.211578   -3.482312
  H     -0.126530   -2.487656   -4.434176

 Total Charge           Charge          ....    0
 Multiplicity           Mult            ....    1
 Number of Electrons    NEL             ....   88
 Basis Dimension        Dim             ....  359

ORBITAL ENERGIES
----------------

  NO   OCC          E(Eh)            E(eV)
   0   2.0000     -24.553314      -668.1296
   1   2.0000     -14.206313      -386.5734
   2   2.0000     -14.201734      -386.4488
   3   2.0000     -10.238334      -278.5992
   4   2.0000     -10.159759      -276.4611
   5   2.0000     -10.154144      -276.3083
   6   2.0000     -10.148995      -276.1682
   7   2.0000     -10.136191      -275.8198
   8   2.0000     -10.132921      -275.7308
   9   2.0000     -10.130032      -275.6522
  10   2.0000     -10.018665      -272.6217
  11   2.0000      -1.404739       -38.2249
  12   2.0000      -1.128380       -30.7048
  13   2.0000      -1.035315       -28.1723
  14   2.0000      -0.998193       -27.1622
  15   2.0000      -0.951096       -25.8806
  16   2.0000      -0.896062       -24.3831
  17   2.0000      -0.858986       -23.3742
  18   2.0000      -0.821189       -22.3457
  19   2.0000      -0.794204       -21.6114
  20   2.0000      -0.734816       -19.9954
  21   2.0000      -0.726035       -19.7564
  22   2.0000      -0.711877       -19.3711
  23   2.0000      -0.686772       -18.6880
  24   2.0000      -0.680620       -18.5206
  25   2.0000      -0.646536       -17.5931
  26   2.0000      -0.636649       -17.3241
  27   2.0000      -0.622824       -16.9479
  28   2.0000      -0.608990       -16.5715
  29   2.0000      -0.577456       -15.7134
  30   2.0000      -0.571345       -15.5471
  31   2.0000      -0.561072       -15.2675
  32   2.0000      -0.541762       -14.7421
  33   2.0000      -0.515078       -14.0160
  34   2.0000      -0.512314       -13.9408
  35   2.0000      -0.498286       -13.5591
  36   2.0000      -0.495205       -13.4752
  37   2.0000      -0.487370       -13.2620
  38   2.0000      -0.474457       -12.9106
  39   2.0000      -0.461559       -12.5597
  40   2.0000      -0.450754       -12.2656
  41   2.0000      -0.450288       -12.2530
  42   2.0000      -0.358356        -9.7514
  43   2.0000      -0.265126        -7.2145
  44   0.0000       0.078380         2.1328
  45   0.0000       0.094583         2.5737
  46   0.0000       0.102495         2.7890
  47   0.0000       0.108661         2.9568
  48   0.0000       0.122763         3.3405

MULLIKEN ATOMIC CHARGES
-----------------------
   0 C :    0.462772
   1 C :    0.034945
   2 N :    0.163817
   3 C :    0.031684
   4 C :    0.046872
   5 H :    0.022798
   6 C :   -0.168205
   7 H :   -0.157676
   8 H :    0.019384
   9 H :   -0.050077
  10 C :    0.739261
  11 H :    0.018520
  12 H :    0.023621
  13 F :   -0.757350
  14 H :    0.086723
  15 H :   -0.137992
  16 C :    0.350579
  17 N :    0.304428
  18 C :    0.301725
  19 H :   -0.012625
  20 H :   -0.336864
  21 H :   -0.695414
  22 H :   -0.207851
  23 H :   -0.156936
  24 H :    0.173603
  25 H :   -0.036062
  26 H :    0.016965
  27 H :   -0.080644
Sum of atomic charges:   -0.0000000

LOEWDIN ATOMIC CHARGES
----------------------
   0 C :    0.033003
   1 C :   -0.048144
   2 N :   -0.005690
   3 C :   -0.048652
   4 C :   -0.043757
   5 H :    0.022039
   6 C :   -0.023644
   7 H :    0.031957
   8 H :    0.028360
   9 H :    0.043813
  10 C :    0.132683
  11 H :    0.062491
  12 H :    0.052378
  13 F :   -0.198248
  14 H :    0.038929
  15 H :    0.038209
  16 C :   -0.229036
  17 N :    0.191123
  18 C :    0.121957
  19 H :   -0.115114
  20 H :   -0.099117
  21 H :   -0.062482
  22 H :   -0.073309
  23 H :    0.020425
  24 H :    0.038263
  25 H :    0.033625
  26 H :    0.023355
  27 H :    0.034582

  Mayer bond orders larger than 0.100000
B(  0-C ,  1-C ) :   1.2024 B(  0-C ,  2-N ) :   1.0562 B(  0-C , 14-H ) :   0.7986
B(  0-C , 15-H ) :   0.9337 B(  0-C , 21-H ) :  -0.1983 B(  0-C , 26-H ) :   0.1189
B(  0-C , 27-H ) :   0.1506 B(  1-C ,  3-C ) :   1.2332 B(  1-C , 24-H ) :   0.1390
B(  1-C , 25-H ) :   0.1630 B(  1-C , 26-H ) :   0.8061 B(  1-C , 27-H ) :   0.8698
B(  2-N , 14-H ) :   0.2327 B(  2-N , 15-H ) :   0.1213 B(  2-N , 16-C ) :   1.3213
B(  2-N , 18-C ) :   0.1996 B(  2-N , 21-H ) :   0.8962 B(  3-C ,  4-C ) :   1.3034
B(  3-C ,  5-H ) :   0.1401 B(  3-C ,  7-H ) :   0.1183 B(  3-C , 24-H ) :   0.7087
B(  3-C , 25-H ) :   0.8993 B(  3-C , 26-H ) :   0.1324 B(  3-C , 27-H ) :   0.1128
B(  4-C ,  5-H ) :   0.8589 B(  4-C ,  6-C ) :   1.2002 B(  4-C ,  7-H ) :   0.8728
B(  4-C ,  8-H ) :   0.1065 B(  4-C ,  9-H ) :   0.1389 B(  4-C , 24-H ) :   0.1901
B(  6-C ,  8-H ) :   0.9075 B(  6-C ,  9-H ) :   0.9555 B(  6-C , 10-C ) :   1.1726
B(  6-C , 12-H ) :   0.1357 B( 10-C , 11-H ) :   0.8770 B( 10-C , 12-H ) :   0.8495
B( 10-C , 13-F ) :   0.7058 B( 11-H , 13-F ) :   0.1876 B( 13-F , 21-H ) :   0.1950
B( 13-F , 22-H ) :   0.1872 B( 16-C , 17-N ) :   0.8453 B( 16-C , 18-C ) :   1.9269
B( 16-C , 19-H ) :   0.2861 B( 16-C , 20-H ) :   0.2138 B( 16-C , 21-H ) :  -0.4448
B( 16-C , 23-H ) :  -0.1538 B( 17-N , 18-C ) :   0.1848 B( 17-N , 22-H ) :   1.0246
B( 17-N , 23-H ) :   1.2806 B( 18-C , 19-H ) :   0.6398 B( 18-C , 20-H ) :   0.7881
B( 19-H , 20-H ) :   0.1763 B( 22-H , 23-H ) :  -0.1600

FINAL SINGLE POINT ENERGY      -522.394820438217

DIPOLE MOMENT
-------------
                                X             Y             Z
Electronic contribution:      6.19968       4.47280       2.82288
Nuclear contribution   :     -7.84660      -3.08098      -1.66782
                        -----------------------------------------
Total Dipole Moment    :     -1.64692       1.39181       1.15506
                        -----------------------------------------
Magnitude (a.u.)       :      2.44615
Magnitude (Debye)      :      6.21762

Rotational constants in cm-1:     0.043547     0.029898     0.020008
Rotational constants in MHz :  1305.520367   896.323854   599.829375

                             ****ORCA TERMINATED NORMALLY****
TOTAL RUN TIME: 0 days 0 hours 2 minutes 12 seconds 432 msec
