                         Program Version 5.0.0 -  RELEASE  -
|  1> !PBE D3BJ RIJCOSX def2-SVP def2/J TightSCF
|  2> *xyz -1 1
|  3> C          2.49556        1.81615       -2.13636
|  4> C          1.87218        0.42790       -2.07750
|  5> H          2.61427       -0.36583       -2.19889
|  6> H          1.38995        0.27309       -1.11236
|  7> S          0.57902        0.14047       -3.29794
|  8> O          0.22886       -1.24687       -3.12787
|  9> O         -0.43927        1.11897       -3.01455
| 10> O          1.24788        0.40347       -4.59565
| 11> H          2.96535        1.95613       -3.08747
| 12> H          3.22581        1.91242       -1.36024
| 13> H          1.73350        2.55528       -2.00274
| 14> *
| 15>
| 16> %MaxCore 64000
| 17>
| 18> %pal nprocs 4
| 19> end
| 20>
| 21> %scf
| 22>   MaxIter 150
| 23> end
| 24>
| 25>
| 26>                          ****END OF INPUT****

CARTESIAN COORDINATES (ANGSTROEM)
---------------------------------
  C      2.495560    1.816150   -2.136360
  C      1.872180    0.427900   -2.077500
  H      2.614270   -0.365830   -2.198890
  H      1.389950    0.273090   -1.112360
  S      0.579020    0.140470   -3.297940
  O      0.228860   -1.246870   -3.127870
  O     -0.439270    1.118970   -3.014550
  O      1.247880    0.403470   -4.595650
  H      2.965350    1.956130   -3.087470
  H      3.225810    1.912420   -1.360240
  H      1.733500    2.555280   -2.002740

 Total Charge           Charge          ....   -1
 Multiplicity           Mult            ....    1
 Number of Electrons    NEL             ....   58
 Basis Dimension        Dim             ....  113

ORBITAL ENERGIES
----------------

  NO   OCC          E(Eh)            E(eV)
   0   2.0000     -88.008578     -2394.8352
   1   2.0000     -18.505842      -503.5696
   2   2.0000     -18.505650      -503.5643
   3   2.0000     -18.490031      -503.1393
   4   2.0000      -9.738123      -264.9878
   5   2.0000      -9.732281      -264.8288
   6   2.0000      -7.620217      -207.3567
   7   2.0000      -5.646711      -153.6548
   8   2.0000      -5.646497      -153.6490
   9   2.0000      -5.646301      -153.6437
  10   2.0000      -0.808930       -22.0121
  11   2.0000      -0.675392       -18.3784
  12   2.0000      -0.648059       -17.6346
  13   2.0000      -0.537728       -14.6323
  14   2.0000      -0.418858       -11.3977
  15   2.0000      -0.297307        -8.0901
  16   2.0000      -0.251056        -6.8316
  17   2.0000      -0.237464        -6.4617
  18   2.0000      -0.205535        -5.5929
  19   2.0000      -0.183845        -5.0027
  20   2.0000      -0.182287        -4.9603
  21   2.0000      -0.163103        -4.4383
  22   2.0000      -0.147625        -4.0171
  23   2.0000      -0.068708        -1.8696
  24   2.0000      -0.067957        -1.8492
  25   2.0000      -0.039032        -1.0621
  26   2.0000      -0.034383        -0.9356
  27   2.0000      -0.020427        -0.5559
  28   2.0000       0.015769         0.4291
  29   0.0000       0.187270         5.0959
  30   0.0000       0.236334         6.4310
  31   0.0000       0.240990         6.5577
  32   0.0000       0.248243         6.7550
  33   0.0000       0.276401         7.5213

MULLIKEN ATOMIC CHARGES
-----------------------
   0 C :    0.027790
   1 C :   -0.104641
   2 H :   -0.005751
   3 H :   -0.012813
   4 S :    0.734194
   5 O :   -0.519904
   6 O :   -0.520220
   7 O :   -0.566104
   8 H :    0.001989
   9 H :   -0.036053
  10 H :    0.001513
Sum of atomic charges:   -1.0000000

LOEWDIN ATOMIC CHARGES
----------------------
   0 C :   -0.083115
   1 C :   -0.200033
   2 H :    0.005093
   3 H :    0.000972
   4 S :    1.024396
   5 O :   -0.576627
   6 O :   -0.577006
   7 O :   -0.623037
   8 H :    0.014162
   9 H :    0.000384
  10 H :    0.014810

  Mayer bond orders larger than 0.100000
B(  0-C ,  1-C ) :   1.0688 B(  0-C ,  8-H ) :   0.9590 B(  0-C ,  9-H ) :   0.9526
B(  0-C , 10-H ) :   0.9597 B(  1-C ,  2-H ) :   0.9338 B(  1-C ,  3-H ) :   0.9296
B(  1-C ,  4-S ) :   0.8658 B(  4-S ,  5-O ) :   1.6537 B(  4-S ,  6-O ) :   1.6398
B(  4-S ,  7-O ) :   1.5961

Dispersion correction           -0.009694301
FINAL SINGLE POINT ENERGY      -702.223763178307

DIPOLE MOMENT
-------------
                                X             Y             Z
Electronic contribution:     -5.91206      -3.69944      -4.29149
Nuclear contribution   :      6.89220       4.11756       5.35566
                        -----------------------------------------
Total Dipole Moment    :      0.98014       0.41812       1.06417
                        -----------------------------------------
Magnitude (a.u.)       :      1.50598
Magnitude (Debye)      :      3.82789

Rotational constants in cm-1:     0.162183     0.084017     0.082390
Rotational constants in MHz :  4862.117324  2518.774315  2469.980309

                             ****ORCA TERMINATED NORMALLY****
TOTAL RUN TIME: 0 days 0 hours 0 minutes 3 seconds 763 msec
