                         Program Version 5.0.0 -  RELEASE  -
|  1> !PBE D3BJ RIJCOSX def2-SVP def2/J TightSCF
|  2> *xyz 1 1
|  3> C          3.38093        2.08304       -3.35013
|  4> N          4.53592        1.18245       -3.42852
|  5> C          2.49556        1.81615       -2.13636
|  6> C          4.67196        0.12227       -4.22060
|  7> N          5.86602       -0.50785       -4.22428
|  8> N          3.69888       -0.31284       -4.98699
|  9> H          2.73141       -0.05009       -4.84900
| 10> H          3.89005       -1.05517       -5.64373
| 11> H          5.25193        1.30346       -2.72101
| 12> H          6.69516       -0.06232       -3.85160
| 13> H          5.97538       -1.39688       -4.69141
| 14> H          2.80646        1.98651       -4.26848
| 15> H          3.77871        3.09828       -3.30738
| 16> H          2.11090        0.81901       -2.18783
| 17> H          1.68276        2.51198       -2.12786
| 18> H          3.07216        1.93031       -1.24227
| 19> *
| 20>
| 21> %MaxCore 64000
| 22>
| 23> %pal nprocs 4
| 24> end
| 25>
| 26> %scf
| 27>   MaxIter 150
| 28> end
| 29>
| 30>
| 31>                          ****END OF INPUT****

CARTESIAN COORDINATES (ANGSTROEM)
---------------------------------
  C      3.380930    2.083040   -3.350130
  N      4.535920    1.182450   -3.428520
  C      2.495560    1.816150   -2.136360
  C      4.671960    0.122270   -4.220600
  N      5.866020   -0.507850   -4.224280
  N      3.698880   -0.312840   -4.986990
  H      2.731410   -0.050090   -4.849000
  H      3.890050   -1.055170   -5.643730
  H      5.251930    1.303460   -2.721010
  H      6.695160   -0.062320   -3.851600
  H      5.975380   -1.396880   -4.691410
  H      2.806460    1.986510   -4.268480
  H      3.778710    3.098280   -3.307380
  H      2.110900    0.819010   -2.187830
  H      1.682760    2.511980   -2.127860
  H      3.072160    1.930310   -1.242270

 Total Charge           Charge          ....    1
 Multiplicity           Mult            ....    1
 Number of Electrons    NEL             ....   48
 Basis Dimension        Dim             ....  134

ORBITAL ENERGIES
----------------

  NO   OCC          E(Eh)            E(eV)
   0   2.0000     -14.220872      -386.9696
   1   2.0000     -14.216454      -386.8494
   2   2.0000     -14.213388      -386.7659
   3   2.0000     -10.214280      -277.9447
   4   2.0000     -10.098531      -274.7950
   5   2.0000     -10.030056      -272.9317
   6   2.0000      -1.117404       -30.4061
   7   2.0000      -1.015079       -27.6217
   8   2.0000      -1.000113       -27.2145
   9   2.0000      -0.853099       -23.2140
  10   2.0000      -0.774137       -21.0653
  11   2.0000      -0.737574       -20.0704
  12   2.0000      -0.728725       -19.8296
  13   2.0000      -0.683872       -18.6091
  14   2.0000      -0.643794       -17.5185
  15   2.0000      -0.640592       -17.4314
  16   2.0000      -0.592821       -16.1315
  17   2.0000      -0.578259       -15.7352
  18   2.0000      -0.552914       -15.0456
  19   2.0000      -0.511076       -13.9071
  20   2.0000      -0.482854       -13.1391
  21   2.0000      -0.467421       -12.7192
  22   2.0000      -0.431329       -11.7371
  23   2.0000      -0.404334       -11.0025
  24   0.0000      -0.188666        -5.1339
  25   0.0000      -0.157708        -4.2915
  26   0.0000      -0.126271        -3.4360
  27   0.0000      -0.116929        -3.1818
  28   0.0000      -0.103638        -2.8201

MULLIKEN ATOMIC CHARGES
-----------------------
   0 C :    0.000846
   1 N :   -0.098904
   2 C :   -0.002440
   3 C :    0.002700
   4 N :   -0.025980
   5 N :    0.014371
   6 H :    0.168709
   7 H :    0.164208
   8 H :    0.158878
   9 H :    0.167053
  10 H :    0.162484
  11 H :    0.050414
  12 H :    0.079296
  13 H :    0.033355
  14 H :    0.073235
  15 H :    0.051775
Sum of atomic charges:    1.0000000

LOEWDIN ATOMIC CHARGES
----------------------
   0 C :    0.034436
   1 N :    0.044776
   2 C :   -0.052822
   3 C :    0.106707
   4 N :    0.047393
   5 N :    0.075092
   6 H :    0.110178
   7 H :    0.111034
   8 H :    0.104485
   9 H :    0.108848
  10 H :    0.105712
  11 H :    0.033926
  12 H :    0.051067
  13 H :    0.029506
  14 H :    0.051860
  15 H :    0.037803

  Mayer bond orders larger than 0.100000
B(  0-C ,  1-N ) :   0.9531 B(  0-C ,  2-C ) :   1.1119 B(  0-C , 11-H ) :   0.9430
B(  0-C , 12-H ) :   0.9375 B(  1-N ,  3-C ) :   1.3717 B(  1-N ,  8-H ) :   0.9067
B(  2-C , 13-H ) :   0.9642 B(  2-C , 14-H ) :   0.9561 B(  2-C , 15-H ) :   0.9642
B(  3-C ,  4-N ) :   1.3670 B(  3-C ,  5-N ) :   1.4133 B(  4-N ,  9-H ) :   0.9259
B(  4-N , 10-H ) :   0.9293 B(  5-N ,  6-H ) :   0.9217 B(  5-N ,  7-H ) :   0.9233

Dispersion correction           -0.012138605
FINAL SINGLE POINT ENERGY      -283.843309879046

DIPOLE MOMENT
-------------
                                X             Y             Z
Electronic contribution:      3.61399      -2.70950      -2.84848
Nuclear contribution   :     -2.93277       1.85779       2.25966
                        -----------------------------------------
Total Dipole Moment    :      0.68123      -0.85170      -0.58882
                        -----------------------------------------
Magnitude (a.u.)       :      1.23943
Magnitude (Debye)      :      3.15038

Rotational constants in cm-1:     0.245511     0.068839     0.059711
Rotational constants in MHz :  7360.233487  2063.743353  1790.088408

                             ****ORCA TERMINATED NORMALLY****
TOTAL RUN TIME: 0 days 0 hours 0 minutes 4 seconds 902 msec
