                         Program Version 5.0.0 -  RELEASE  -
|  1> !PBE D3BJ RIJCOSX def2-TZVP def2/J TightSCF xyzfile
|  2>
|  3> *xyzfile 0 1 B.xyz
|  4>
|  5> %MaxCore 64000
|  6>
|  7> %pal nprocs 18
|  8> end
|  9>
| 10> %scf
| 11>   MaxIter 150
| 12> end
| 13>
| 14>
| 15>                          ****END OF INPUT****

CARTESIAN COORDINATES (ANGSTROEM)
---------------------------------
  C      3.380928    2.083045   -3.350127
  N      4.535924    1.182447   -3.428518
  C      2.495557    1.816150   -2.136364
  C      1.872181    0.427903   -2.077497
  H      2.614270   -0.365825   -2.198894
  H      1.389953    0.273087   -1.112360
  S      0.579024    0.140472   -3.297943
  C      4.671956    0.122273   -4.220598
  N      5.866023   -0.507849   -4.224284
  N      3.698881   -0.312844   -4.986988
  H      2.731405   -0.050091   -4.849000
  H      3.890046   -1.055172   -5.643730
  H      5.251933    1.303459   -2.721014
  H      6.695165   -0.062322   -3.851596
  H      5.975383   -1.396884   -4.691414
  O      0.228860   -1.246868   -3.127871
  O     -0.439269    1.118966   -3.014550
  O      1.247881    0.403474   -4.595647
  H      1.697003    2.561969   -2.141109
  H      3.080787    1.987436   -1.225838
  H      2.806463    1.986511   -4.268484
  H      3.778714    3.098282   -3.307383

 Total Charge           Charge          ....    0
 Multiplicity           Mult            ....    1
 Number of Electrons    NEL             ....   96
 Basis Dimension        Dim             ....  413

ORBITAL ENERGIES
----------------

  NO   OCC          E(Eh)            E(eV)
   0   2.0000     -88.151976     -2398.7372
   1   2.0000     -18.680539      -508.3233
   2   2.0000     -18.663640      -507.8635
   3   2.0000     -18.663139      -507.8498
   4   2.0000     -14.073855      -382.9691
   5   2.0000     -14.070411      -382.8754
   6   2.0000     -14.038341      -382.0027
   7   2.0000     -10.060965      -273.7728
   8   2.0000      -9.941867      -270.5320
   9   2.0000      -9.893566      -269.2176
  10   2.0000      -9.877131      -268.7704
  11   2.0000      -7.747230      -210.8129
  12   2.0000      -5.768482      -156.9684
  13   2.0000      -5.767403      -156.9390
  14   2.0000      -5.766160      -156.9052
  15   2.0000      -0.987679       -26.8761
  16   2.0000      -0.977466       -26.5982
  17   2.0000      -0.886522       -24.1235
  18   2.0000      -0.870770       -23.6949
  19   2.0000      -0.844934       -22.9918
  20   2.0000      -0.844378       -22.9767
  21   2.0000      -0.735130       -20.0039
  22   2.0000      -0.669228       -18.2106
  23   2.0000      -0.623432       -16.9644
  24   2.0000      -0.592451       -16.1214
  25   2.0000      -0.579372       -15.7655
  26   2.0000      -0.547035       -14.8856
  27   2.0000      -0.510790       -13.8993
  28   2.0000      -0.496662       -13.5149
  29   2.0000      -0.472406       -12.8548
  30   2.0000      -0.454225       -12.3601
  31   2.0000      -0.435999       -11.8641
  32   2.0000      -0.420871       -11.4525
  33   2.0000      -0.400473       -10.8974
  34   2.0000      -0.381459       -10.3800
  35   2.0000      -0.363934        -9.9032
  36   2.0000      -0.343976        -9.3601
  37   2.0000      -0.333822        -9.0838
  38   2.0000      -0.326375        -8.8811
  39   2.0000      -0.315325        -8.5804
  40   2.0000      -0.295794        -8.0490
  41   2.0000      -0.270991        -7.3740
  42   2.0000      -0.250785        -6.8242
  43   2.0000      -0.242699        -6.6042
  44   2.0000      -0.216300        -5.8858
  45   2.0000      -0.205558        -5.5935
  46   2.0000      -0.202805        -5.5186
  47   2.0000      -0.166647        -4.5347
  48   0.0000      -0.058276        -1.5858
  49   0.0000      -0.057066        -1.5528
  50   0.0000      -0.021500        -0.5850
  51   0.0000      -0.004512        -0.1228
  52   0.0000       0.030934         0.8418

MULLIKEN ATOMIC CHARGES
-----------------------
   0 C :   -0.213937
   1 N :   -0.231865
   2 C :   -0.137577
   3 C :   -0.300886
   4 H :    0.098713
   5 H :    0.122450
   6 S :    0.690198
   7 C :    0.375860
   8 N :   -0.429806
   9 N :   -0.331368
  10 H :    0.268000
  11 H :    0.227660
  12 H :    0.214675
  13 H :    0.249927
  14 H :    0.254467
  15 O :   -0.440945
  16 O :   -0.435382
  17 O :   -0.513676
  18 H :    0.129484
  19 H :    0.085083
  20 H :    0.194602
  21 H :    0.124319
Sum of atomic charges:   -0.0000000

LOEWDIN ATOMIC CHARGES
----------------------
   0 C :   -0.271876
   1 N :    0.169996
   2 C :   -0.295254
   3 C :   -0.407499
   4 H :    0.123104
   5 H :    0.138912
   6 S :    0.372639
   7 C :   -0.456352
   8 N :    0.024524
   9 N :    0.102963
  10 H :    0.134207
  11 H :    0.181849
  12 H :    0.194342
  13 H :    0.178478
  14 H :    0.180776
  15 O :   -0.305262
  16 O :   -0.298828
  17 O :   -0.346531
  18 H :    0.156855
  19 H :    0.134393
  20 H :    0.150712
  21 H :    0.137851

  Mayer bond orders larger than 0.100000
B(  0-C ,  1-N ) :   0.8737 B(  0-C ,  2-C ) :   1.0020 B(  0-C , 20-H ) :   0.9375
B(  0-C , 21-H ) :   0.9505 B(  1-N ,  7-C ) :   1.3573 B(  1-N , 12-H ) :   0.9119
B(  2-C ,  3-C ) :   0.9821 B(  2-C , 18-H ) :   0.9275 B(  2-C , 19-H ) :   0.9401
B(  3-C ,  4-H ) :   0.9423 B(  3-C ,  5-H ) :   0.9424 B(  3-C ,  6-S ) :   0.8823
B(  6-S , 15-O ) :   1.9106 B(  6-S , 16-O ) :   1.8865 B(  6-S , 17-O ) :   1.4990
B(  7-C ,  8-N ) :   1.2337 B(  7-C ,  9-N ) :   1.4649 B(  8-N , 13-H ) :   0.9070
B(  8-N , 14-H ) :   0.9071 B(  9-N , 10-H ) :   0.7358 B(  9-N , 11-H ) :   0.9129
B( 10-H , 17-O ) :   0.2455

Dispersion correction           -0.025202895
FINAL SINGLE POINT ENERGY      -946.651003080647

DIPOLE MOMENT
-------------
                                X             Y             Z
Electronic contribution:     -7.26315      -3.25783      -2.48858
Nuclear contribution   :     13.40759       3.44219       2.21042
                        -----------------------------------------
Total Dipole Moment    :      6.14444       0.18437      -0.27816
                        -----------------------------------------
Magnitude (a.u.)       :      6.15350
Magnitude (Debye)      :     15.64095

Rotational constants in cm-1:     0.059860     0.020817     0.017914
Rotational constants in MHz :  1794.564877   624.092098   537.039275

                             ****ORCA TERMINATED NORMALLY****
TOTAL RUN TIME: 0 days 0 hours 0 minutes 14 seconds 348 msec
