                         Program Version 5.0.0 -  RELEASE  -
|  1> !PBE D3BJ RIJCOSX def2-SVP def2/J TightSCF
|  2> *xyz 0 1
|  3> C          2.49556        1.81615       -2.13636
|  4> C          1.87218        0.42790       -2.07750
|  5> H          2.61427       -0.36583       -2.19889
|  6> H          1.38995        0.27309       -1.11236
|  7> S          0.57902        0.14047       -3.29794
|  8> F          0.22886       -1.24687       -3.12787
|  9> O         -0.43927        1.11897       -3.01455
| 10> O          1.24788        0.40347       -4.59565
| 11> H          2.96535        1.95613       -3.08747
| 12> H          3.22581        1.91242       -1.36024
| 13> H          1.73350        2.55528       -2.00274
| 14> *
| 15>
| 16> %MaxCore 64000
| 17>
| 18> %pal nprocs 4
| 19> end
| 20>
| 21> %scf
| 22>   MaxIter 150
| 23> end
| 24>
| 25>
| 26>                          ****END OF INPUT****

CARTESIAN COORDINATES (ANGSTROEM)
---------------------------------
  C      2.495560    1.816150   -2.136360
  C      1.872180    0.427900   -2.077500
  H      2.614270   -0.365830   -2.198890
  H      1.389950    0.273090   -1.112360
  S      0.579020    0.140470   -3.297940
  F      0.228860   -1.246870   -3.127870
  O     -0.439270    1.118970   -3.014550
  O      1.247880    0.403470   -4.595650
  H      2.965350    1.956130   -3.087470
  H      3.225810    1.912420   -1.360240
  H      1.733500    2.555280   -2.002740

 Total Charge           Charge          ....    0
 Multiplicity           Mult            ....    1
 Number of Electrons    NEL             ....   58
 Basis Dimension        Dim             ....  113

ORBITAL ENERGIES
----------------

  NO   OCC          E(Eh)            E(eV)
   0   2.0000     -88.280558     -2402.2361
   1   2.0000     -24.370010      -663.1417
   2   2.0000     -18.756727      -510.3965
   3   2.0000     -18.741443      -509.9806
   4   2.0000      -9.944978      -270.6166
   5   2.0000      -9.909124      -269.6410
   6   2.0000      -7.894712      -214.8260
   7   2.0000      -5.925400      -161.2383
   8   2.0000      -5.918840      -161.0598
   9   2.0000      -5.917386      -161.0203
  10   2.0000      -1.260690       -34.3051
  11   2.0000      -1.005165       -27.3519
  12   2.0000      -0.901500       -24.5311
  13   2.0000      -0.737521       -20.0690
  14   2.0000      -0.657493       -17.8913
  15   2.0000      -0.601540       -16.3687
  16   2.0000      -0.516518       -14.0552
  17   2.0000      -0.511498       -13.9186
  18   2.0000      -0.484013       -13.1707
  19   2.0000      -0.436968       -11.8905
  20   2.0000      -0.419338       -11.4108
  21   2.0000      -0.379796       -10.3348
  22   2.0000      -0.375863       -10.2277
  23   2.0000      -0.358587        -9.7576
  24   2.0000      -0.336701        -9.1621
  25   2.0000      -0.324516        -8.8305
  26   2.0000      -0.275461        -7.4957
  27   2.0000      -0.261237        -7.1086
  28   2.0000      -0.241884        -6.5820
  29   0.0000       0.004051         0.1102
  30   0.0000       0.026315         0.7161
  31   0.0000       0.047808         1.3009
  32   0.0000       0.061741         1.6801
  33   0.0000       0.075460         2.0534

MULLIKEN ATOMIC CHARGES
-----------------------
   0 C :    0.007701
   1 C :   -0.141409
   2 H :    0.062115
   3 H :    0.057965
   4 S :    0.818407
   5 F :   -0.130444
   6 O :   -0.385510
   7 O :   -0.430731
   8 H :    0.051860
   9 H :    0.040861
  10 H :    0.049185
Sum of atomic charges:   -0.0000000

LOEWDIN ATOMIC CHARGES
----------------------
   0 C :   -0.055659
   1 C :   -0.163841
   2 H :    0.033133
   3 H :    0.030600
   4 S :    1.080656
   5 F :   -0.095329
   6 O :   -0.446934
   7 O :   -0.492568
   8 H :    0.036065
   9 H :    0.038007
  10 H :    0.035870

  Mayer bond orders larger than 0.100000
B(  0-C ,  1-C ) :   1.0893 B(  0-C ,  8-H ) :   0.9657 B(  0-C ,  9-H ) :   0.9563
B(  0-C , 10-H ) :   0.9651 B(  1-C ,  2-H ) :   0.9231 B(  1-C ,  3-H ) :   0.9213
B(  1-C ,  4-S ) :   0.9059 B(  4-S ,  5-F ) :   1.0488 B(  4-S ,  6-O ) :   1.7900
B(  4-S ,  7-O ) :   1.7508

Dispersion correction           -0.009283985
FINAL SINGLE POINT ENERGY      -726.715304689081

DIPOLE MOMENT
-------------
                                X             Y             Z
Electronic contribution:     -6.92780      -6.42039      -4.21307
Nuclear contribution   :      7.60530       5.82028       5.38743
                        -----------------------------------------
Total Dipole Moment    :      0.67750      -0.60012       1.17436
                        -----------------------------------------
Magnitude (a.u.)       :      1.48266
Magnitude (Debye)      :      3.76861

Rotational constants in cm-1:     0.157861     0.081452     0.078859
Rotational constants in MHz :  4732.562506  2441.865430  2364.129821

                             ****ORCA TERMINATED NORMALLY****
TOTAL RUN TIME: 0 days 0 hours 0 minutes 3 seconds 814 msec
