                         Program Version 5.0.0 -  RELEASE  -
|  1> !PBE D3BJ RIJCOSX def2-SVP def2/J TightSCF
|  2> *xyz 0 1
|  3> C          3.38093        2.08304       -3.35013
|  4> C          4.53592        1.18245       -3.42852
|  5> C          2.49556        1.81615       -2.13636
|  6> C          4.67196        0.12227       -4.22060
|  7> N          5.86602       -0.50785       -4.22428
|  8> N          3.69888       -0.31284       -4.98699
|  9> H          2.73141       -0.05009       -4.84900
| 10> H          3.89005       -1.05517       -5.64373
| 11> H          5.25193        1.30346       -2.72101
| 12> H          6.69516       -0.06232       -3.85160
| 13> H          5.97538       -1.39688       -4.69141
| 14> H          2.80646        1.98651       -4.26848
| 15> H          3.77871        3.09828       -3.30738
| 16> H          2.11090        0.81901       -2.18783
| 17> H          1.68276        2.51198       -2.12786
| 18> H          3.07216        1.93031       -1.24227
| 19> *
| 20>
| 21> %MaxCore 64000
| 22>
| 23> %pal nprocs 4
| 24> end
| 25>
| 26> %scf
| 27>   MaxIter 150
| 28> end
| 29>
| 30>
| 31>                          ****END OF INPUT****

CARTESIAN COORDINATES (ANGSTROEM)
---------------------------------
  C      3.380930    2.083040   -3.350130
  C      4.535920    1.182450   -3.428520
  C      2.495560    1.816150   -2.136360
  C      4.671960    0.122270   -4.220600
  N      5.866020   -0.507850   -4.224280
  N      3.698880   -0.312840   -4.986990
  H      2.731410   -0.050090   -4.849000
  H      3.890050   -1.055170   -5.643730
  H      5.251930    1.303460   -2.721010
  H      6.695160   -0.062320   -3.851600
  H      5.975380   -1.396880   -4.691410
  H      2.806460    1.986510   -4.268480
  H      3.778710    3.098280   -3.307380
  H      2.110900    0.819010   -2.187830
  H      1.682760    2.511980   -2.127860
  H      3.072160    1.930310   -1.242270

 Total Charge           Charge          ....    0
 Multiplicity           Mult            ....    1
 Number of Electrons    NEL             ....   48
 Basis Dimension        Dim             ....  134

ORBITAL ENERGIES
----------------

  NO   OCC          E(Eh)            E(eV)
   0   2.0000     -13.993312      -380.7774
   1   2.0000     -13.985457      -380.5636
   2   2.0000      -9.922844      -270.0143
   3   2.0000      -9.861924      -268.3566
   4   2.0000      -9.855303      -268.1764
   5   2.0000      -9.806689      -266.8536
   6   2.0000      -0.860634       -23.4190
   7   2.0000      -0.774693       -21.0805
   8   2.0000      -0.682227       -18.5643
   9   2.0000      -0.611425       -16.6377
  10   2.0000      -0.543842       -14.7987
  11   2.0000      -0.510135       -13.8815
  12   2.0000      -0.483251       -13.1499
  13   2.0000      -0.443603       -12.0711
  14   2.0000      -0.423649       -11.5281
  15   2.0000      -0.384250       -10.4560
  16   2.0000      -0.359071        -9.7708
  17   2.0000      -0.335668        -9.1340
  18   2.0000      -0.321571        -8.7504
  19   2.0000      -0.299276        -8.1437
  20   2.0000      -0.275084        -7.4854
  21   2.0000      -0.268803        -7.3145
  22   2.0000      -0.208895        -5.6843
  23   2.0000      -0.113648        -3.0925
  24   0.0000       0.021866         0.5950
  25   0.0000       0.048925         1.3313
  26   0.0000       0.071728         1.9518
  27   0.0000       0.074263         2.0208
  28   0.0000       0.090343         2.4584

MULLIKEN ATOMIC CHARGES
-----------------------
   0 C :    0.039025
   1 C :   -0.179773
   2 C :    0.040948
   3 C :   -0.078043
   4 N :   -0.061477
   5 N :   -0.019766
   6 H :    0.116617
   7 H :    0.091694
   8 H :   -0.098805
   9 H :    0.112592
  10 H :    0.085822
  11 H :   -0.032055
  12 H :   -0.005978
  13 H :   -0.008009
  14 H :   -0.004791
  15 H :    0.001998
Sum of atomic charges:    0.0000000

LOEWDIN ATOMIC CHARGES
----------------------
   0 C :   -0.045560
   1 C :   -0.214325
   2 C :   -0.062229
   3 C :   -0.004351
   4 N :   -0.020652
   5 N :    0.004726
   6 H :    0.079318
   7 H :    0.062856
   8 H :   -0.010568
   9 H :    0.079021
  10 H :    0.056740
  11 H :    0.008259
  12 H :    0.022709
  13 H :    0.013142
  14 H :    0.011926
  15 H :    0.018988

  Mayer bond orders larger than 0.100000
B(  0-C ,  1-C ) :   1.0999 B(  0-C ,  2-C ) :   1.0990 B(  0-C , 11-H ) :   0.9234
B(  0-C , 12-H ) :   0.9072 B(  1-C ,  3-C ) :   1.6584 B(  1-C ,  8-H ) :   0.9373
B(  2-C , 13-H ) :   0.9656 B(  2-C , 14-H ) :   0.9548 B(  2-C , 15-H ) :   0.9648
B(  3-C ,  4-N ) :   1.2224 B(  3-C ,  5-N ) :   1.2696 B(  4-N ,  9-H ) :   0.9413
B(  4-N , 10-H ) :   0.9465 B(  5-N ,  6-H ) :   0.9354 B(  5-N ,  7-H ) :   0.9427

Dispersion correction           -0.012599318
FINAL SINGLE POINT ENERGY      -267.371396601159

DIPOLE MOMENT
-------------
                                X             Y             Z
Electronic contribution:      3.07215      -2.95272      -3.01159
Nuclear contribution   :     -2.84307       1.95814       2.32378
                        -----------------------------------------
Total Dipole Moment    :      0.22907      -0.99459      -0.68781
                        -----------------------------------------
Magnitude (a.u.)       :      1.23075
Magnitude (Debye)      :      3.12833

Rotational constants in cm-1:     0.248902     0.068887     0.059904
Rotational constants in MHz :  7461.898926  2065.183281  1795.882140

                             ****ORCA TERMINATED NORMALLY****
TOTAL RUN TIME: 0 days 0 hours 0 minutes 4 seconds 818 msec
