                         Program Version 5.0.0 -  RELEASE  -
|  1> !PBE D3BJ RIJCOSX def2-SVP def2/J TightSCF
|  2> *xyz 0 1
|  3> C          2.49556        1.81615       -2.13636
|  4> C          1.87218        0.42790       -2.07750
|  5> H          2.61427       -0.36583       -2.19889
|  6> H          1.38995        0.27309       -1.11236
|  7> S          0.57902        0.14047       -3.29794
|  8> O          0.22886       -1.24687       -3.12787
|  9> F         -0.43927        1.11897       -3.01455
| 10> O          1.24788        0.40347       -4.59565
| 11> H          2.96535        1.95613       -3.08747
| 12> H          3.22581        1.91242       -1.36024
| 13> H          1.73350        2.55528       -2.00274
| 14> *
| 15>
| 16> %MaxCore 64000
| 17>
| 18> %pal nprocs 4
| 19> end
| 20>
| 21> %scf
| 22>   MaxIter 150
| 23> end
| 24>
| 25>
| 26>                          ****END OF INPUT****

CARTESIAN COORDINATES (ANGSTROEM)
---------------------------------
  C      2.495560    1.816150   -2.136360
  C      1.872180    0.427900   -2.077500
  H      2.614270   -0.365830   -2.198890
  H      1.389950    0.273090   -1.112360
  S      0.579020    0.140470   -3.297940
  O      0.228860   -1.246870   -3.127870
  F     -0.439270    1.118970   -3.014550
  O      1.247880    0.403470   -4.595650
  H      2.965350    1.956130   -3.087470
  H      3.225810    1.912420   -1.360240
  H      1.733500    2.555280   -2.002740

 Total Charge           Charge          ....    0
 Multiplicity           Mult            ....    1
 Number of Electrons    NEL             ....   58
 Basis Dimension        Dim             ....  113

ORBITAL ENERGIES
----------------

  NO   OCC          E(Eh)            E(eV)
   0   2.0000     -88.280792     -2402.2425
   1   2.0000     -24.370147      -663.1454
   2   2.0000     -18.757106      -510.4068
   3   2.0000     -18.742783      -510.0170
   4   2.0000      -9.944753      -270.6105
   5   2.0000      -9.911861      -269.7154
   6   2.0000      -7.894937      -214.8322
   7   2.0000      -5.925721      -161.2471
   8   2.0000      -5.918998      -161.0641
   9   2.0000      -5.917600      -161.0261
  10   2.0000      -1.261025       -34.3142
  11   2.0000      -1.004946       -27.3460
  12   2.0000      -0.902939       -24.5702
  13   2.0000      -0.740399       -20.1473
  14   2.0000      -0.653750       -17.7895
  15   2.0000      -0.605537       -16.4775
  16   2.0000      -0.525939       -14.3115
  17   2.0000      -0.510314       -13.8864
  18   2.0000      -0.478088       -13.0094
  19   2.0000      -0.436557       -11.8793
  20   2.0000      -0.417966       -11.3734
  21   2.0000      -0.393466       -10.7068
  22   2.0000      -0.374155       -10.1813
  23   2.0000      -0.357307        -9.7228
  24   2.0000      -0.345145        -9.3919
  25   2.0000      -0.320440        -8.7196
  26   2.0000      -0.275320        -7.4918
  27   2.0000      -0.261787        -7.1236
  28   2.0000      -0.244599        -6.6559
  29   0.0000      -0.000609        -0.0166
  30   0.0000       0.032909         0.8955
  31   0.0000       0.040237         1.0949
  32   0.0000       0.068599         1.8667
  33   0.0000       0.071076         1.9341

MULLIKEN ATOMIC CHARGES
-----------------------
   0 C :   -0.004069
   1 C :   -0.146722
   2 H :    0.092705
   3 H :    0.058640
   4 S :    0.819115
   5 O :   -0.380952
   6 F :   -0.131729
   7 O :   -0.429727
   8 H :    0.053482
   9 H :    0.040813
  10 H :    0.028443
Sum of atomic charges:    0.0000000

LOEWDIN ATOMIC CHARGES
----------------------
   0 C :   -0.069906
   1 C :   -0.160774
   2 H :    0.052762
   3 H :    0.030273
   4 S :    1.081262
   5 O :   -0.444438
   6 F :   -0.095975
   7 O :   -0.491195
   8 H :    0.034578
   9 H :    0.037163
  10 H :    0.026249

  Mayer bond orders larger than 0.100000
B(  0-C ,  1-C ) :   1.0640 B(  0-C ,  8-H ) :   0.9649 B(  0-C ,  9-H ) :   0.9548
B(  0-C , 10-H ) :   0.9683 B(  1-C ,  2-H ) :   0.9311 B(  1-C ,  3-H ) :   0.9250
B(  1-C ,  4-S ) :   0.9044 B(  4-S ,  5-O ) :   1.8003 B(  4-S ,  6-F ) :   1.0429
B(  4-S ,  7-O ) :   1.7510

Dispersion correction           -0.009238299
FINAL SINGLE POINT ENERGY      -726.715514835117

DIPOLE MOMENT
-------------
                                X             Y             Z
Electronic contribution:     -8.03764      -2.49209      -4.02383
Nuclear contribution   :      8.30151       3.35500       5.26935
                        -----------------------------------------
Total Dipole Moment    :      0.26387       0.86291       1.24552
                        -----------------------------------------
Magnitude (a.u.)       :      1.53803
Magnitude (Debye)      :      3.90937

Rotational constants in cm-1:     0.152913     0.083043     0.080351
Rotational constants in MHz :  4584.227971  2489.580280  2408.872860

                             ****ORCA TERMINATED NORMALLY****
TOTAL RUN TIME: 0 days 0 hours 0 minutes 3 seconds 633 msec
