                         Program Version 5.0.0 -  RELEASE  -
|  1> !PBE D3BJ RIJCOSX def2-SVP def2/J TightSCF
|  2> *xyz 0 1
|  3> C          3.38093        2.08304       -3.35013
|  4> N          4.53592        1.18245       -3.42852
|  5> C          2.49556        1.81615       -2.13636
|  6> C          4.67196        0.12227       -4.22060
|  7> C          5.86602       -0.50785       -4.22428
|  8> N          3.69888       -0.31284       -4.98699
|  9> H          2.73141       -0.05009       -4.84900
| 10> H          3.89005       -1.05517       -5.64373
| 11> H          5.25193        1.30346       -2.72101
| 12> H          6.69516       -0.06232       -3.85160
| 13> H          5.97538       -1.39688       -4.69141
| 14> H          2.80646        1.98651       -4.26848
| 15> H          3.77871        3.09828       -3.30738
| 16> H          2.11090        0.81901       -2.18783
| 17> H          1.68276        2.51198       -2.12786
| 18> H          3.07216        1.93031       -1.24227
| 19> *
| 20>
| 21> %MaxCore 64000
| 22>
| 23> %pal nprocs 4
| 24> end
| 25>
| 26> %scf
| 27>   MaxIter 150
| 28> end
| 29>
| 30>
| 31>                          ****END OF INPUT****

CARTESIAN COORDINATES (ANGSTROEM)
---------------------------------
  C      3.380930    2.083040   -3.350130
  N      4.535920    1.182450   -3.428520
  C      2.495560    1.816150   -2.136360
  C      4.671960    0.122270   -4.220600
  C      5.866020   -0.507850   -4.224280
  N      3.698880   -0.312840   -4.986990
  H      2.731410   -0.050090   -4.849000
  H      3.890050   -1.055170   -5.643730
  H      5.251930    1.303460   -2.721010
  H      6.695160   -0.062320   -3.851600
  H      5.975380   -1.396880   -4.691410
  H      2.806460    1.986510   -4.268480
  H      3.778710    3.098280   -3.307380
  H      2.110900    0.819010   -2.187830
  H      1.682760    2.511980   -2.127860
  H      3.072160    1.930310   -1.242270

 Total Charge           Charge          ....    0
 Multiplicity           Mult            ....    1
 Number of Electrons    NEL             ....   48
 Basis Dimension        Dim             ....  134

ORBITAL ENERGIES
----------------

  NO   OCC          E(Eh)            E(eV)
   0   2.0000     -13.993349      -380.7784
   1   2.0000     -13.991200      -380.7199
   2   2.0000      -9.930493      -270.2224
   3   2.0000      -9.926288      -270.1080
   4   2.0000      -9.886915      -269.0366
   5   2.0000      -9.798131      -266.6207
   6   2.0000      -0.869188       -23.6518
   7   2.0000      -0.794321       -21.6146
   8   2.0000      -0.689615       -18.7654
   9   2.0000      -0.615564       -16.7503
  10   2.0000      -0.555095       -15.1049
  11   2.0000      -0.537160       -14.6169
  12   2.0000      -0.482961       -13.1420
  13   2.0000      -0.440632       -11.9902
  14   2.0000      -0.426658       -11.6100
  15   2.0000      -0.393046       -10.6953
  16   2.0000      -0.375205       -10.2099
  17   2.0000      -0.349290        -9.5047
  18   2.0000      -0.333791        -9.0829
  19   2.0000      -0.319568        -8.6959
  20   2.0000      -0.314142        -8.5482
  21   2.0000      -0.299399        -8.1471
  22   2.0000      -0.202294        -5.5047
  23   2.0000      -0.115215        -3.1352
  24   0.0000       0.019393         0.5277
  25   0.0000       0.050323         1.3694
  26   0.0000       0.061342         1.6692
  27   0.0000       0.074860         2.0370
  28   0.0000       0.087664         2.3855

MULLIKEN ATOMIC CHARGES
-----------------------
   0 C :    0.036595
   1 N :   -0.116925
   2 C :    0.013602
   3 C :   -0.087920
   4 C :   -0.086569
   5 N :   -0.028149
   6 H :    0.093742
   7 H :    0.115546
   8 H :    0.114229
   9 H :   -0.060397
  10 H :   -0.068321
  11 H :    0.010527
  12 H :    0.018032
  13 H :    0.014025
  14 H :    0.014303
  15 H :    0.017681
Sum of atomic charges:    0.0000000

LOEWDIN ATOMIC CHARGES
----------------------
   0 C :    0.021518
   1 N :   -0.010467
   2 C :   -0.071257
   3 C :    0.006732
   4 C :   -0.265618
   5 N :    0.007116
   6 H :    0.060427
   7 H :    0.083504
   8 H :    0.081883
   9 H :   -0.010622
  10 H :   -0.012854
  11 H :    0.018992
  12 H :    0.022027
  13 H :    0.021159
  14 H :    0.024288
  15 H :    0.023173

  Mayer bond orders larger than 0.100000
B(  0-C ,  1-N ) :   1.0293 B(  0-C ,  2-C ) :   1.1024 B(  0-C , 11-H ) :   0.9402
B(  0-C , 12-H ) :   0.9426 B(  1-N ,  3-C ) :   1.2076 B(  1-N ,  8-H ) :   0.9235
B(  2-C , 13-H ) :   0.9635 B(  2-C , 14-H ) :   0.9536 B(  2-C , 15-H ) :   0.9645
B(  3-C ,  4-C ) :   1.6928 B(  3-C ,  5-N ) :   1.2645 B(  4-C ,  9-H ) :   0.9302
B(  4-C , 10-H ) :   0.9294 B(  5-N ,  6-H ) :   0.9412 B(  5-N ,  7-H ) :   0.9372

Dispersion correction           -0.012481133
FINAL SINGLE POINT ENERGY      -267.362305728387

DIPOLE MOMENT
-------------
                                X             Y             Z
Electronic contribution:      1.50430      -1.15323      -2.08544
Nuclear contribution   :     -2.56090       1.59955       2.15496
                        -----------------------------------------
Total Dipole Moment    :     -1.05660       0.44632       0.06952
                        -----------------------------------------
Magnitude (a.u.)       :      1.14911
Magnitude (Debye)      :      2.92080

Rotational constants in cm-1:     0.249834     0.071381     0.061833
Rotational constants in MHz :  7489.842787  2139.945635  1853.706310

                             ****ORCA TERMINATED NORMALLY****
TOTAL RUN TIME: 0 days 0 hours 0 minutes 4 seconds 568 msec
