                         Program Version 5.0.0 -  RELEASE  -
|  1> !PBE D3BJ RIJCOSX def2-SVP def2/J TightSCF
|  2> *xyz 0 1
|  3> C          2.49556        1.81615       -2.13636
|  4> C          1.87218        0.42790       -2.07750
|  5> H          2.61427       -0.36583       -2.19889
|  6> H          1.38995        0.27309       -1.11236
|  7> S          0.57902        0.14047       -3.29794
|  8> O          0.22886       -1.24687       -3.12787
|  9> O         -0.43927        1.11897       -3.01455
| 10> F          1.24788        0.40347       -4.59565
| 11> H          2.96535        1.95613       -3.08747
| 12> H          3.22581        1.91242       -1.36024
| 13> H          1.73350        2.55528       -2.00274
| 14> *
| 15>
| 16> %MaxCore 64000
| 17>
| 18> %pal nprocs 4
| 19> end
| 20>
| 21> %scf
| 22>   MaxIter 150
| 23> end
| 24>
| 25>
| 26>                          ****END OF INPUT****

CARTESIAN COORDINATES (ANGSTROEM)
---------------------------------
  C      2.495560    1.816150   -2.136360
  C      1.872180    0.427900   -2.077500
  H      2.614270   -0.365830   -2.198890
  H      1.389950    0.273090   -1.112360
  S      0.579020    0.140470   -3.297940
  O      0.228860   -1.246870   -3.127870
  O     -0.439270    1.118970   -3.014550
  F      1.247880    0.403470   -4.595650
  H      2.965350    1.956130   -3.087470
  H      3.225810    1.912420   -1.360240
  H      1.733500    2.555280   -2.002740

 Total Charge           Charge          ....    0
 Multiplicity           Mult            ....    1
 Number of Electrons    NEL             ....   58
 Basis Dimension        Dim             ....  113

ORBITAL ENERGIES
----------------

  NO   OCC          E(Eh)            E(eV)
   0   2.0000     -88.278988     -2402.1934
   1   2.0000     -24.348245      -662.5494
   2   2.0000     -18.757982      -510.4307
   3   2.0000     -18.757170      -510.4085
   4   2.0000      -9.943755      -270.5833
   5   2.0000      -9.912529      -269.7336
   6   2.0000      -7.893130      -214.7830
   7   2.0000      -5.923598      -161.1893
   8   2.0000      -5.917512      -161.0237
   9   2.0000      -5.916006      -160.9827
  10   2.0000      -1.224854       -33.3300
  11   2.0000      -1.015328       -27.6285
  12   2.0000      -0.924658       -25.1612
  13   2.0000      -0.739986       -20.1360
  14   2.0000      -0.641208       -17.4482
  15   2.0000      -0.598345       -16.2818
  16   2.0000      -0.511948       -13.9308
  17   2.0000      -0.485918       -13.2225
  18   2.0000      -0.474036       -12.8992
  19   2.0000      -0.436818       -11.8864
  20   2.0000      -0.414564       -11.2808
  21   2.0000      -0.394894       -10.7456
  22   2.0000      -0.378606       -10.3024
  23   2.0000      -0.357762        -9.7352
  24   2.0000      -0.349446        -9.5089
  25   2.0000      -0.325125        -8.8471
  26   2.0000      -0.281883        -7.6704
  27   2.0000      -0.275330        -7.4921
  28   2.0000      -0.260793        -7.0965
  29   0.0000       0.000825         0.0224
  30   0.0000       0.037064         1.0086
  31   0.0000       0.045446         1.2366
  32   0.0000       0.067939         1.8487
  33   0.0000       0.076018         2.0686

MULLIKEN ATOMIC CHARGES
-----------------------
   0 C :   -0.006945
   1 C :   -0.151631
   2 H :    0.066961
   3 H :    0.087666
   4 S :    0.830792
   5 O :   -0.385979
   6 O :   -0.390139
   7 F :   -0.174798
   8 H :    0.032867
   9 H :    0.042117
  10 H :    0.049088
Sum of atomic charges:   -0.0000000

LOEWDIN ATOMIC CHARGES
----------------------
   0 C :   -0.070590
   1 C :   -0.163023
   2 H :    0.035329
   3 H :    0.049652
   4 S :    1.088614
   5 O :   -0.448471
   6 O :   -0.450288
   7 F :   -0.139385
   8 H :    0.027008
   9 H :    0.037714
  10 H :    0.033442

  Mayer bond orders larger than 0.100000
B(  0-C ,  1-C ) :   1.0640 B(  0-C ,  8-H ) :   0.9699 B(  0-C ,  9-H ) :   0.9558
B(  0-C , 10-H ) :   0.9644 B(  1-C ,  2-H ) :   0.9277 B(  1-C ,  3-H ) :   0.9294
B(  1-C ,  4-S ) :   0.9066 B(  4-S ,  5-O ) :   1.8047 B(  4-S ,  6-O ) :   1.7953
B(  4-S ,  7-F ) :   0.9964

Dispersion correction           -0.009235838
FINAL SINGLE POINT ENERGY      -726.734748565524

DIPOLE MOMENT
-------------
                                X             Y             Z
Electronic contribution:     -5.22497      -3.67240      -6.65509
Nuclear contribution   :      6.54345       4.10057       6.91691
                        -----------------------------------------
Total Dipole Moment    :      1.31847       0.42817       0.26182
                        -----------------------------------------
Magnitude (a.u.)       :      1.41076
Magnitude (Debye)      :      3.58587

Rotational constants in cm-1:     0.152835     0.082826     0.080611
Rotational constants in MHz :  4581.878371  2483.049050  2416.647141

                             ****ORCA TERMINATED NORMALLY****
TOTAL RUN TIME: 0 days 0 hours 0 minutes 3 seconds 811 msec
