                         Program Version 5.0.0 -  RELEASE  -
|  1> !PBE D3BJ RIJCOSX def2-SVP def2/J TightSCF
|  2> *xyz 0 1
|  3> C          3.38093        2.08304       -3.35013
|  4> N          4.53592        1.18245       -3.42852
|  5> C          2.49556        1.81615       -2.13636
|  6> C          4.67196        0.12227       -4.22060
|  7> N          5.86602       -0.50785       -4.22428
|  8> C          3.69888       -0.31284       -4.98699
|  9> H          2.73141       -0.05009       -4.84900
| 10> H          3.89005       -1.05517       -5.64373
| 11> H          5.25193        1.30346       -2.72101
| 12> H          6.69516       -0.06232       -3.85160
| 13> H          5.97538       -1.39688       -4.69141
| 14> H          2.80646        1.98651       -4.26848
| 15> H          3.77871        3.09828       -3.30738
| 16> H          2.11090        0.81901       -2.18783
| 17> H          1.68276        2.51198       -2.12786
| 18> H          3.07216        1.93031       -1.24227
| 19> *
| 20>
| 21> %MaxCore 64000
| 22>
| 23> %pal nprocs 4
| 24> end
| 25>
| 26> %scf
| 27>   MaxIter 150
| 28> end
| 29>
| 30>
| 31>                          ****END OF INPUT****

CARTESIAN COORDINATES (ANGSTROEM)
---------------------------------
  C      3.380930    2.083040   -3.350130
  N      4.535920    1.182450   -3.428520
  C      2.495560    1.816150   -2.136360
  C      4.671960    0.122270   -4.220600
  N      5.866020   -0.507850   -4.224280
  C      3.698880   -0.312840   -4.986990
  H      2.731410   -0.050090   -4.849000
  H      3.890050   -1.055170   -5.643730
  H      5.251930    1.303460   -2.721010
  H      6.695160   -0.062320   -3.851600
  H      5.975380   -1.396880   -4.691410
  H      2.806460    1.986510   -4.268480
  H      3.778710    3.098280   -3.307380
  H      2.110900    0.819010   -2.187830
  H      1.682760    2.511980   -2.127860
  H      3.072160    1.930310   -1.242270

 Total Charge           Charge          ....    0
 Multiplicity           Mult            ....    1
 Number of Electrons    NEL             ....   48
 Basis Dimension        Dim             ....  134

ORBITAL ENERGIES
----------------

  NO   OCC          E(Eh)            E(eV)
   0   2.0000     -13.991085      -380.7168
   1   2.0000     -13.986383      -380.5888
   2   2.0000      -9.924019      -270.0463
   3   2.0000      -9.921484      -269.9773
   4   2.0000      -9.878896      -268.8184
   5   2.0000      -9.800484      -266.6847
   6   2.0000      -0.862838       -23.4790
   7   2.0000      -0.785070       -21.3628
   8   2.0000      -0.674854       -18.3637
   9   2.0000      -0.626689       -17.0531
  10   2.0000      -0.567303       -15.4371
  11   2.0000      -0.498988       -13.5781
  12   2.0000      -0.483352       -13.1527
  13   2.0000      -0.454174       -12.3587
  14   2.0000      -0.405753       -11.0411
  15   2.0000      -0.393580       -10.7099
  16   2.0000      -0.365895        -9.9565
  17   2.0000      -0.346595        -9.4313
  18   2.0000      -0.326618        -8.8877
  19   2.0000      -0.324359        -8.8263
  20   2.0000      -0.304202        -8.2778
  21   2.0000      -0.296137        -8.0583
  22   2.0000      -0.194438        -5.2909
  23   2.0000      -0.125298        -3.4095
  24   0.0000       0.027124         0.7381
  25   0.0000       0.050743         1.3808
  26   0.0000       0.067679         1.8416
  27   0.0000       0.076151         2.0722
  28   0.0000       0.092898         2.5279

MULLIKEN ATOMIC CHARGES
-----------------------
   0 C :    0.068414
   1 N :   -0.138276
   2 C :    0.000558
   3 C :   -0.023867
   4 N :   -0.076406
   5 C :   -0.098720
   6 H :   -0.048180
   7 H :   -0.069578
   8 H :    0.089253
   9 H :    0.089965
  10 H :    0.112488
  11 H :    0.031319
  12 H :    0.010061
  13 H :    0.029828
  14 H :    0.015093
  15 H :    0.008048
Sum of atomic charges:    0.0000000

LOEWDIN ATOMIC CHARGES
----------------------
   0 C :    0.035111
   1 N :   -0.016169
   2 C :   -0.068818
   3 C :    0.013274
   4 N :   -0.020413
   5 C :   -0.247419
   6 H :   -0.006788
   7 H :   -0.007432
   8 H :    0.060431
   9 H :    0.058469
  10 H :    0.077806
  11 H :    0.030837
  12 H :    0.019077
  13 H :    0.028067
  14 H :    0.025267
  15 H :    0.018701

  Mayer bond orders larger than 0.100000
B(  0-C ,  1-N ) :   1.0128 B(  0-C ,  2-C ) :   1.1185 B(  0-C , 11-H ) :   0.9289
B(  0-C , 12-H ) :   0.9469 B(  1-N ,  3-C ) :   1.1792 B(  1-N ,  8-H ) :   0.9264
B(  2-C , 13-H ) :   0.9657 B(  2-C , 14-H ) :   0.9559 B(  2-C , 15-H ) :   0.9645
B(  3-C ,  4-N ) :   1.2235 B(  3-C ,  5-C ) :   1.7465 B(  4-N ,  9-H ) :   0.9462
B(  4-N , 10-H ) :   0.9436 B(  5-C ,  6-H ) :   0.9255 B(  5-C ,  7-H ) :   0.9188

Dispersion correction           -0.012543954
FINAL SINGLE POINT ENERGY      -267.365223572943

DIPOLE MOMENT
-------------
                                X             Y             Z
Electronic contribution:      3.80478      -1.35897      -1.33231
Nuclear contribution   :     -3.02065       1.64092       1.99316
                        -----------------------------------------
Total Dipole Moment    :      0.78413       0.28195       0.66085
                        -----------------------------------------
Magnitude (a.u.)       :      1.06352
Magnitude (Debye)      :      2.70326

Rotational constants in cm-1:     0.259304     0.069422     0.060943
Rotational constants in MHz :  7773.747720  2081.225169  1827.013389

                             ****ORCA TERMINATED NORMALLY****
TOTAL RUN TIME: 0 days 0 hours 0 minutes 4 seconds 498 msec
