                         Program Version 5.0.0 -  RELEASE  -
|  1> !PBE D3BJ RIJCOSX def2-TZVP def2/J TightSCF xyzfile
|  2>
|  3> *xyzfile 0 1 D1.xyz
|  4>
|  5> %MaxCore 64000
|  6>
|  7> %pal nprocs 18
|  8> end
|  9>
| 10> %scf
| 11>   MaxIter 150
| 12> end
| 13>
| 14>
| 15>                          ****END OF INPUT****

CARTESIAN COORDINATES (ANGSTROEM)
---------------------------------
  C      3.380928    2.083045   -3.350127
  C      4.535924    1.182447   -3.428518
  C      2.495557    1.816150   -2.136364
  C      1.872181    0.427903   -2.077497
  H      2.614270   -0.365825   -2.198894
  H      1.389953    0.273087   -1.112360
  S      0.579024    0.140472   -3.297943
  C      4.671956    0.122273   -4.220598
  N      5.866023   -0.507849   -4.224284
  N      3.698881   -0.312844   -4.986988
  H      2.731405   -0.050091   -4.849000
  H      3.890046   -1.055172   -5.643730
  H      5.251933    1.303459   -2.721014
  H      6.695165   -0.062322   -3.851596
  H      5.975383   -1.396884   -4.691414
  F      0.228860   -1.246868   -3.127871
  O     -0.439269    1.118966   -3.014550
  O      1.247881    0.403474   -4.595647
  H      1.697003    2.561969   -2.141109
  H      3.080787    1.987436   -1.225838
  H      2.806463    1.986511   -4.268484
  H      3.778714    3.098282   -3.307383

 Total Charge           Charge          ....    0
 Multiplicity           Mult            ....    1
 Number of Electrons    NEL             ....   96
 Basis Dimension        Dim             ....  413

ORBITAL ENERGIES
----------------

  NO   OCC          E(Eh)            E(eV)
   0   2.0000     -88.274925     -2402.0828
   1   2.0000     -24.379736      -663.4064
   2   2.0000     -18.767502      -510.6897
   3   2.0000     -18.764111      -510.5974
   4   2.0000     -13.974886      -380.2760
   5   2.0000     -13.959016      -379.8441
   6   2.0000      -9.927740      -270.1475
   7   2.0000      -9.912547      -269.7341
   8   2.0000      -9.887799      -269.0607
   9   2.0000      -9.855597      -268.1844
  10   2.0000      -9.800443      -266.6836
  11   2.0000      -7.870897      -214.1780
  12   2.0000      -5.895170      -160.4157
  13   2.0000      -5.888974      -160.2471
  14   2.0000      -5.888167      -160.2252
  15   2.0000      -1.284061       -34.9411
  16   2.0000      -1.025745       -27.9119
  17   2.0000      -0.935445       -25.4548
  18   2.0000      -0.867760       -23.6130
  19   2.0000      -0.782088       -21.2817
  20   2.0000      -0.747279       -20.3345
  21   2.0000      -0.691294       -18.8111
  22   2.0000      -0.656010       -17.8509
  23   2.0000      -0.613599       -16.6969
  24   2.0000      -0.563411       -15.3312
  25   2.0000      -0.534058       -14.5325
  26   2.0000      -0.525686       -14.3046
  27   2.0000      -0.515732       -14.0338
  28   2.0000      -0.495062       -13.4713
  29   2.0000      -0.480863       -13.0849
  30   2.0000      -0.460070       -12.5191
  31   2.0000      -0.438324       -11.9274
  32   2.0000      -0.430250       -11.7077
  33   2.0000      -0.415710       -11.3121
  34   2.0000      -0.400301       -10.8928
  35   2.0000      -0.387060       -10.5324
  36   2.0000      -0.360283        -9.8038
  37   2.0000      -0.352880        -9.6023
  38   2.0000      -0.343473        -9.3464
  39   2.0000      -0.332902        -9.0587
  40   2.0000      -0.311984        -8.4895
  41   2.0000      -0.304205        -8.2778
  42   2.0000      -0.291743        -7.9387
  43   2.0000      -0.290799        -7.9130
  44   2.0000      -0.271630        -7.3914
  45   2.0000      -0.267627        -7.2825
  46   2.0000      -0.210512        -5.7283
  47   2.0000      -0.125328        -3.4104
  48   0.0000      -0.019352        -0.5266
  49   0.0000       0.007080         0.1927
  50   0.0000       0.016597         0.4516
  51   0.0000       0.031429         0.8552
  52   0.0000       0.038265         1.0413

MULLIKEN ATOMIC CHARGES
-----------------------
   0 C :   -0.217598
   1 C :   -0.385831
   2 C :   -0.113691
   3 C :   -0.306225
   4 H :    0.165849
   5 H :    0.138220
   6 S :    0.726140
   7 C :    0.303729
   8 N :   -0.452597
   9 N :   -0.432460
  10 H :    0.238879
  11 H :    0.191322
  12 H :    0.071416
  13 H :    0.228674
  14 H :    0.198827
  15 F :   -0.050562
  16 O :   -0.335991
  17 O :   -0.396442
  18 H :    0.110953
  19 H :    0.094231
  20 H :    0.136039
  21 H :    0.087118
Sum of atomic charges:   -0.0000000

LOEWDIN ATOMIC CHARGES
----------------------
   0 C :   -0.286942
   1 C :   -0.288295
   2 C :   -0.277282
   3 C :   -0.380396
   4 H :    0.145672
   5 H :    0.139836
   6 S :    0.485350
   7 C :   -0.486248
   8 N :   -0.018147
   9 N :    0.014189
  10 H :    0.128978
  11 H :    0.156683
  12 H :    0.117889
  13 H :    0.170052
  14 H :    0.152496
  15 F :    0.121302
  16 O :   -0.219443
  17 O :   -0.254078
  18 H :    0.142753
  19 H :    0.147082
  20 H :    0.145549
  21 H :    0.143001

  Mayer bond orders larger than 0.100000
B(  0-C ,  1-C ) :   1.0507 B(  0-C ,  2-C ) :   0.9880 B(  0-C , 20-H ) :   0.9580
B(  0-C , 21-H ) :   0.9503 B(  1-C ,  7-C ) :   1.6150 B(  1-C , 12-H ) :   0.9812
B(  2-C ,  3-C ) :   0.9962 B(  2-C , 18-H ) :   0.9344 B(  2-C , 19-H ) :   0.9307
B(  3-C ,  4-H ) :   0.9150 B(  3-C ,  5-H ) :   0.9246 B(  3-C ,  6-S ) :   0.9305
B(  6-S , 15-F ) :   1.1819 B(  6-S , 16-O ) :   1.9924 B(  6-S , 17-O ) :   1.7553
B(  7-C ,  8-N ) :   1.1341 B(  7-C ,  9-N ) :   1.2093 B(  8-N , 13-H ) :   0.9175
B(  8-N , 14-H ) :   0.9216 B(  9-N , 10-H ) :   0.8309 B(  9-N , 11-H ) :   0.9237
B( 10-H , 17-O ) :   0.1536

Dispersion correction           -0.025309502
FINAL SINGLE POINT ENERGY      -954.536557098335

DIPOLE MOMENT
-------------
                                X             Y             Z
Electronic contribution:    -15.31285      -6.75581      -1.26900
Nuclear contribution   :     15.92508       5.34175       1.81950
                        -----------------------------------------
Total Dipole Moment    :      0.61223      -1.41406       0.55050
                        -----------------------------------------
Magnitude (a.u.)       :      1.63629
Magnitude (Debye)      :      4.15912

Rotational constants in cm-1:     0.058561     0.020662     0.017762
Rotational constants in MHz :  1755.621534   619.433801   532.501507

                             ****ORCA TERMINATED NORMALLY****
TOTAL RUN TIME: 0 days 0 hours 0 minutes 13 seconds 222 msec
