                         Program Version 5.0.0 -  RELEASE  -
|  1> !PBE D3BJ RIJCOSX def2-TZVP def2/J TightSCF xyzfile
|  2>
|  3> *xyzfile 0 1 D3.xyz
|  4>
|  5> %MaxCore 64000
|  6>
|  7> %pal nprocs 18
|  8> end
|  9>
| 10> %scf
| 11>   MaxIter 150
| 12> end
| 13>
| 14>
| 15>                          ****END OF INPUT****

CARTESIAN COORDINATES (ANGSTROEM)
---------------------------------
  C      3.380928    2.083045   -3.350127
  N      4.535924    1.182447   -3.428518
  C      2.495557    1.816150   -2.136364
  C      1.872181    0.427903   -2.077497
  H      2.614270   -0.365825   -2.198894
  H      1.389953    0.273087   -1.112360
  S      0.579024    0.140472   -3.297943
  C      4.671956    0.122273   -4.220598
  N      5.866023   -0.507849   -4.224284
  C      3.698881   -0.312844   -4.986988
  H      2.731405   -0.050091   -4.849000
  H      3.890046   -1.055172   -5.643730
  H      5.251933    1.303459   -2.721014
  H      6.695165   -0.062322   -3.851596
  H      5.975383   -1.396884   -4.691414
  F      0.228860   -1.246868   -3.127871
  O     -0.439269    1.118966   -3.014550
  O      1.247881    0.403474   -4.595647
  H      1.697003    2.561969   -2.141109
  H      3.080787    1.987436   -1.225838
  H      2.806463    1.986511   -4.268484
  H      3.778714    3.098282   -3.307383

 Total Charge           Charge          ....    0
 Multiplicity           Mult            ....    1
 Number of Electrons    NEL             ....   96
 Basis Dimension        Dim             ....  413

ORBITAL ENERGIES
----------------

  NO   OCC          E(Eh)            E(eV)
   0   2.0000     -88.266257     -2401.8470
   1   2.0000     -24.372088      -663.1982
   2   2.0000     -18.760067      -510.4874
   3   2.0000     -18.746916      -510.1295
   4   2.0000     -13.986468      -380.5911
   5   2.0000     -13.974033      -380.2528
   6   2.0000      -9.932421      -270.2749
   7   2.0000      -9.915476      -269.8138
   8   2.0000      -9.910014      -269.6652
   9   2.0000      -9.907497      -269.5967
  10   2.0000      -9.769878      -265.8519
  11   2.0000      -7.862103      -213.9387
  12   2.0000      -5.886383      -160.1766
  13   2.0000      -5.879925      -160.0009
  14   2.0000      -5.879657      -159.9936
  15   2.0000      -1.276082       -34.7240
  16   2.0000      -1.015968       -27.6459
  17   2.0000      -0.922394       -25.0996
  18   2.0000      -0.877443       -23.8764
  19   2.0000      -0.801369       -21.8064
  20   2.0000      -0.746766       -20.3205
  21   2.0000      -0.682301       -18.5664
  22   2.0000      -0.646776       -17.5997
  23   2.0000      -0.626082       -17.0366
  24   2.0000      -0.579260       -15.7625
  25   2.0000      -0.523940       -14.2571
  26   2.0000      -0.520226       -14.1561
  27   2.0000      -0.510363       -13.8877
  28   2.0000      -0.498083       -13.5535
  29   2.0000      -0.482311       -13.1243
  30   2.0000      -0.461814       -12.5666
  31   2.0000      -0.440317       -11.9816
  32   2.0000      -0.437296       -11.8994
  33   2.0000      -0.404820       -11.0157
  34   2.0000      -0.401320       -10.9205
  35   2.0000      -0.395615       -10.7652
  36   2.0000      -0.358494        -9.7551
  37   2.0000      -0.348221        -9.4756
  38   2.0000      -0.342026        -9.3070
  39   2.0000      -0.334853        -9.1118
  40   2.0000      -0.330813        -9.0019
  41   2.0000      -0.322617        -8.7789
  42   2.0000      -0.302077        -8.2199
  43   2.0000      -0.288445        -7.8490
  44   2.0000      -0.272492        -7.4149
  45   2.0000      -0.236108        -6.4248
  46   2.0000      -0.204617        -5.5679
  47   2.0000      -0.130216        -3.5434
  48   0.0000      -0.011380        -0.3097
  49   0.0000      -0.004019        -0.1094
  50   0.0000       0.016223         0.4414
  51   0.0000       0.031587         0.8595
  52   0.0000       0.038766         1.0549

MULLIKEN ATOMIC CHARGES
-----------------------
   0 C :   -0.162479
   1 N :   -0.297281
   2 C :   -0.179178
   3 C :   -0.274680
   4 H :    0.165675
   5 H :    0.138069
   6 S :    0.713886
   7 C :    0.385932
   8 N :   -0.476321
   9 C :   -0.595409
  10 H :    0.149569
  11 H :    0.072120
  12 H :    0.172206
  13 H :    0.199685
  14 H :    0.229628
  15 F :   -0.051190
  16 O :   -0.347298
  17 O :   -0.357746
  18 H :    0.119248
  19 H :    0.103587
  20 H :    0.181279
  21 H :    0.110697
Sum of atomic charges:   -0.0000000

LOEWDIN ATOMIC CHARGES
----------------------
   0 C :   -0.275820
   1 N :    0.123755
   2 C :   -0.286150
   3 C :   -0.380079
   4 H :    0.147567
   5 H :    0.139196
   6 S :    0.478187
   7 C :   -0.497025
   8 N :   -0.021454
   9 C :   -0.333329
  10 H :    0.078628
  11 H :    0.096838
  12 H :    0.171193
  13 H :    0.150733
  14 H :    0.170038
  15 F :    0.122510
  16 O :   -0.230809
  17 O :   -0.234389
  18 H :    0.150271
  19 H :    0.144586
  20 H :    0.151488
  21 H :    0.134068

  Mayer bond orders larger than 0.100000
B(  0-C ,  1-N ) :   0.9190 B(  0-C ,  2-C ) :   1.0132 B(  0-C , 20-H ) :   0.9471
B(  0-C , 21-H ) :   0.9577 B(  1-N ,  7-C ) :   1.1610 B(  1-N , 12-H ) :   0.9206
B(  2-C ,  3-C ) :   1.0054 B(  2-C , 18-H ) :   0.9342 B(  2-C , 19-H ) :   0.9360
B(  3-C ,  4-H ) :   0.9200 B(  3-C ,  5-H ) :   0.9231 B(  3-C ,  6-S ) :   0.9183
B(  6-S , 15-F ) :   1.1818 B(  6-S , 16-O ) :   1.9701 B(  6-S , 17-O ) :   1.8217
B(  7-C ,  8-N ) :   1.0946 B(  7-C ,  9-C ) :   1.6015 B(  8-N , 13-H ) :   0.9205
B(  8-N , 14-H ) :   0.9204 B(  9-C , 10-H ) :   0.9709 B(  9-C , 11-H ) :   0.9953

Dispersion correction           -0.025293264
FINAL SINGLE POINT ENERGY      -954.504860928116

DIPOLE MOMENT
-------------
                                X             Y             Z
Electronic contribution:    -14.68465      -5.48671      -0.01309
Nuclear contribution   :     15.84345       5.19593       1.66752
                        -----------------------------------------
Total Dipole Moment    :      1.15880      -0.29078       1.65443
                        -----------------------------------------
Magnitude (a.u.)       :      2.04071
Magnitude (Debye)      :      5.18708

Rotational constants in cm-1:     0.059060     0.020573     0.017713
Rotational constants in MHz :  1770.576058   616.749938   531.036486

                             ****ORCA TERMINATED NORMALLY****
TOTAL RUN TIME: 0 days 0 hours 0 minutes 13 seconds 712 msec
