                         Program Version 5.0.0 -  RELEASE  -
|  1> !PBE D3BJ RIJCOSX def2-TZVP def2/J TightSCF xyzfile
|  2>
|  3> *xyzfile 0 1 D5.xyz
|  4>
|  5> %MaxCore 64000
|  6>
|  7> %pal nprocs 18
|  8> end
|  9>
| 10> %scf
| 11>   MaxIter 150
| 12> end
| 13>
| 14>
| 15>                          ****END OF INPUT****

CARTESIAN COORDINATES (ANGSTROEM)
---------------------------------
  C      3.380928    2.083045   -3.350127
  N      4.535924    1.182447   -3.428518
  C      2.495557    1.816150   -2.136364
  C      1.872181    0.427903   -2.077497
  H      2.614270   -0.365825   -2.198894
  H      1.389953    0.273087   -1.112360
  S      0.579024    0.140472   -3.297943
  C      4.671956    0.122273   -4.220598
  C      5.866023   -0.507849   -4.224284
  N      3.698881   -0.312844   -4.986988
  H      2.731405   -0.050091   -4.849000
  H      3.890046   -1.055172   -5.643730
  H      5.251933    1.303459   -2.721014
  H      6.695165   -0.062322   -3.851596
  H      5.975383   -1.396884   -4.691414
  O      0.228860   -1.246868   -3.127871
  F     -0.439269    1.118966   -3.014550
  O      1.247881    0.403474   -4.595647
  H      1.697003    2.561969   -2.141109
  H      3.080787    1.987436   -1.225838
  H      2.806463    1.986511   -4.268484
  H      3.778714    3.098282   -3.307383

 Total Charge           Charge          ....    0
 Multiplicity           Mult            ....    1
 Number of Electrons    NEL             ....   96
 Basis Dimension        Dim             ....  413

ORBITAL ENERGIES
----------------

  NO   OCC          E(Eh)            E(eV)
   0   2.0000     -88.288723     -2402.4583
   1   2.0000     -24.392317      -663.7487
   2   2.0000     -18.780101      -511.0325
   3   2.0000     -18.776301      -510.9291
   4   2.0000     -13.986853      -380.6016
   5   2.0000     -13.955908      -379.7596
   6   2.0000      -9.946883      -270.6684
   7   2.0000      -9.923601      -270.0349
   8   2.0000      -9.917792      -269.8768
   9   2.0000      -9.911474      -269.7049
  10   2.0000      -9.781417      -266.1659
  11   2.0000      -7.884470      -214.5473
  12   2.0000      -5.908767      -160.7857
  13   2.0000      -5.902535      -160.6161
  14   2.0000      -5.901803      -160.5962
  15   2.0000      -1.296701       -35.2850
  16   2.0000      -1.037770       -28.2392
  17   2.0000      -0.947912       -25.7940
  18   2.0000      -0.878175       -23.8964
  19   2.0000      -0.802156       -21.8278
  20   2.0000      -0.762224       -20.7412
  21   2.0000      -0.698134       -18.9972
  22   2.0000      -0.660060       -17.9611
  23   2.0000      -0.620595       -16.8873
  24   2.0000      -0.572855       -15.5882
  25   2.0000      -0.545289       -14.8381
  26   2.0000      -0.543890       -14.8000
  27   2.0000      -0.537745       -14.6328
  28   2.0000      -0.513989       -13.9864
  29   2.0000      -0.484797       -13.1920
  30   2.0000      -0.455512       -12.3951
  31   2.0000      -0.443940       -12.0802
  32   2.0000      -0.437023       -11.8920
  33   2.0000      -0.429390       -11.6843
  34   2.0000      -0.409740       -11.1496
  35   2.0000      -0.402678       -10.9574
  36   2.0000      -0.371322       -10.1042
  37   2.0000      -0.366011        -9.9597
  38   2.0000      -0.357990        -9.7414
  39   2.0000      -0.345242        -9.3945
  40   2.0000      -0.334244        -9.0952
  41   2.0000      -0.320749        -8.7280
  42   2.0000      -0.307032        -8.3548
  43   2.0000      -0.297440        -8.0938
  44   2.0000      -0.294247        -8.0069
  45   2.0000      -0.285008        -7.7555
  46   2.0000      -0.205197        -5.5837
  47   2.0000      -0.119453        -3.2505
  48   0.0000      -0.034357        -0.9349
  49   0.0000      -0.004644        -0.1264
  50   0.0000       0.003497         0.0952
  51   0.0000       0.022743         0.6189
  52   0.0000       0.030552         0.8314

MULLIKEN ATOMIC CHARGES
-----------------------
   0 C :   -0.203549
   1 N :   -0.271259
   2 C :   -0.159336
   3 C :   -0.298326
   4 H :    0.189694
   5 H :    0.147380
   6 S :    0.726548
   7 C :    0.350754
   8 C :   -0.595957
   9 N :   -0.436644
  10 H :    0.235594
  11 H :    0.220277
  12 H :    0.204799
  13 H :    0.090042
  14 H :    0.083747
  15 O :   -0.327663
  16 F :   -0.047531
  17 O :   -0.398592
  18 H :    0.095397
  19 H :    0.111680
  20 H :    0.166384
  21 H :    0.116561
Sum of atomic charges:    0.0000000

LOEWDIN ATOMIC CHARGES
----------------------
   0 C :   -0.296896
   1 N :    0.131665
   2 C :   -0.298261
   3 C :   -0.373905
   4 H :    0.161259
   5 H :    0.142987
   6 S :    0.484866
   7 C :   -0.496579
   8 C :   -0.367245
   9 N :    0.019954
  10 H :    0.125271
  11 H :    0.175476
  12 H :    0.190654
  13 H :    0.091574
  14 H :    0.092408
  15 O :   -0.214893
  16 F :    0.127096
  17 O :   -0.257388
  18 H :    0.139579
  19 H :    0.146246
  20 H :    0.141651
  21 H :    0.134481

  Mayer bond orders larger than 0.100000
B(  0-C ,  1-N ) :   0.9487 B(  0-C ,  2-C ) :   0.9786 B(  0-C , 20-H ) :   0.9546
B(  0-C , 21-H ) :   0.9591 B(  1-N ,  7-C ) :   1.1805 B(  1-N , 12-H ) :   0.9204
B(  2-C ,  3-C ) :   0.9803 B(  2-C , 18-H ) :   0.9403 B(  2-C , 19-H ) :   0.9337
B(  3-C ,  4-H ) :   0.9203 B(  3-C ,  5-H ) :   0.9324 B(  3-C ,  6-S ) :   0.9219
B(  6-S , 15-O ) :   2.0062 B(  6-S , 16-F ) :   1.1835 B(  6-S , 17-O ) :   1.7597
B(  7-C ,  8-C ) :   1.5433 B(  7-C ,  9-N ) :   1.2292 B(  8-C , 13-H ) :   0.9918
B(  8-C , 14-H ) :   0.9935 B(  9-N , 10-H ) :   0.8448 B(  9-N , 11-H ) :   0.9231
B( 10-H , 17-O ) :   0.1190

Dispersion correction           -0.025071891
FINAL SINGLE POINT ENERGY      -954.520577063595

DIPOLE MOMENT
-------------
                                X             Y             Z
Electronic contribution:    -17.90326      -1.28383      -0.28181
Nuclear contribution   :     16.78714       2.58368       1.61768
                        -----------------------------------------
Total Dipole Moment    :     -1.11612       1.29985       1.33588
                        -----------------------------------------
Magnitude (a.u.)       :      2.17253
Magnitude (Debye)      :      5.52214

Rotational constants in cm-1:     0.059928     0.020911     0.017993
Rotational constants in MHz :  1796.610847   626.896941   539.414615

                             ****ORCA TERMINATED NORMALLY****
TOTAL RUN TIME: 0 days 0 hours 0 minutes 12 seconds 671 msec
