                         Program Version 5.0.0 -  RELEASE  -
|  1> !PBE D3BJ RIJCOSX def2-TZVP def2/J TightSCF xyzfile
|  2>
|  3> *xyzfile 0 1 D7.xyz
|  4>
|  5> %MaxCore 64000
|  6>
|  7> %pal nprocs 18
|  8> end
|  9>
| 10> %scf
| 11>   MaxIter 150
| 12> end
| 13>
| 14>
| 15>                          ****END OF INPUT****

CARTESIAN COORDINATES (ANGSTROEM)
---------------------------------
  C      3.380928    2.083045   -3.350127
  C      4.535924    1.182447   -3.428518
  C      2.495557    1.816150   -2.136364
  C      1.872181    0.427903   -2.077497
  H      2.614270   -0.365825   -2.198894
  H      1.389953    0.273087   -1.112360
  S      0.579024    0.140472   -3.297943
  C      4.671956    0.122273   -4.220598
  N      5.866023   -0.507849   -4.224284
  N      3.698881   -0.312844   -4.986988
  H      2.731405   -0.050091   -4.849000
  H      3.890046   -1.055172   -5.643730
  H      5.251933    1.303459   -2.721014
  H      6.695165   -0.062322   -3.851596
  H      5.975383   -1.396884   -4.691414
  O      0.228860   -1.246868   -3.127871
  O     -0.439269    1.118966   -3.014550
  F      1.247881    0.403474   -4.595647
  H      1.697003    2.561969   -2.141109
  H      3.080787    1.987436   -1.225838
  H      2.806463    1.986511   -4.268484
  H      3.778714    3.098282   -3.307383

 Total Charge           Charge          ....    0
 Multiplicity           Mult            ....    1
 Number of Electrons    NEL             ....   96
 Basis Dimension        Dim             ....  413

ORBITAL ENERGIES
----------------

  NO   OCC          E(Eh)            E(eV)
   0   2.0000     -88.264565     -2401.8009
   1   2.0000     -24.368115      -663.0901
   2   2.0000     -18.762596      -510.5562
   3   2.0000     -18.762080      -510.5421
   4   2.0000     -13.987509      -380.6195
   5   2.0000     -13.987026      -380.6063
   6   2.0000      -9.928321      -270.1633
   7   2.0000      -9.923888      -270.0427
   8   2.0000      -9.889063      -269.0951
   9   2.0000      -9.871429      -268.6152
  10   2.0000      -9.814972      -267.0790
  11   2.0000      -7.861026      -213.9094
  12   2.0000      -5.885888      -160.1632
  13   2.0000      -5.878417      -159.9599
  14   2.0000      -5.878313      -159.9570
  15   2.0000      -1.263020       -34.3685
  16   2.0000      -1.026957       -27.9449
  17   2.0000      -0.939413       -25.5627
  18   2.0000      -0.886583       -24.1251
  19   2.0000      -0.801188       -21.8014
  20   2.0000      -0.750437       -20.4204
  21   2.0000      -0.692804       -18.8521
  22   2.0000      -0.661355       -17.9964
  23   2.0000      -0.620210       -16.8768
  24   2.0000      -0.579845       -15.7784
  25   2.0000      -0.534739       -14.5510
  26   2.0000      -0.523794       -14.2532
  27   2.0000      -0.510552       -13.8928
  28   2.0000      -0.498088       -13.5537
  29   2.0000      -0.488432       -13.2909
  30   2.0000      -0.460723       -12.5369
  31   2.0000      -0.439044       -11.9470
  32   2.0000      -0.425938       -11.5904
  33   2.0000      -0.420492       -11.4422
  34   2.0000      -0.407354       -11.0847
  35   2.0000      -0.400742       -10.9047
  36   2.0000      -0.365560        -9.9474
  37   2.0000      -0.358750        -9.7621
  38   2.0000      -0.356135        -9.6909
  39   2.0000      -0.337523        -9.1845
  40   2.0000      -0.319202        -8.6859
  41   2.0000      -0.306076        -8.3287
  42   2.0000      -0.296649        -8.0722
  43   2.0000      -0.292420        -7.9572
  44   2.0000      -0.282129        -7.6771
  45   2.0000      -0.274816        -7.4781
  46   2.0000      -0.228414        -6.2155
  47   2.0000      -0.139672        -3.8007
  48   0.0000      -0.017980        -0.4893
  49   0.0000       0.000868         0.0236
  50   0.0000       0.019823         0.5394
  51   0.0000       0.029743         0.8094
  52   0.0000       0.036095         0.9822

MULLIKEN ATOMIC CHARGES
-----------------------
   0 C :   -0.230747
   1 C :   -0.366489
   2 C :   -0.117141
   3 C :   -0.312431
   4 H :    0.172271
   5 H :    0.153474
   6 S :    0.709640
   7 C :    0.313890
   8 N :   -0.450128
   9 N :   -0.440168
  10 H :    0.230329
  11 H :    0.206091
  12 H :    0.079913
  13 H :    0.233476
  14 H :    0.203779
  15 O :   -0.350706
  16 O :   -0.347888
  17 F :   -0.095461
  18 H :    0.115776
  19 H :    0.092281
  20 H :    0.103268
  21 H :    0.096971
Sum of atomic charges:   -0.0000000

LOEWDIN ATOMIC CHARGES
----------------------
   0 C :   -0.289649
   1 C :   -0.279291
   2 C :   -0.288714
   3 C :   -0.374282
   4 H :    0.147008
   5 H :    0.151536
   6 S :    0.477597
   7 C :   -0.483366
   8 N :   -0.012526
   9 N :    0.011949
  10 H :    0.137664
  11 H :    0.163121
  12 H :    0.121091
  13 H :    0.173013
  14 H :    0.155086
  15 O :   -0.231663
  16 O :   -0.226819
  17 F :    0.081446
  18 H :    0.141603
  19 H :    0.145192
  20 H :    0.134220
  21 H :    0.145784

  Mayer bond orders larger than 0.100000
B(  0-C ,  1-C ) :   1.0515 B(  0-C ,  2-C ) :   0.9861 B(  0-C , 20-H ) :   0.9612
B(  0-C , 21-H ) :   0.9520 B(  1-C ,  7-C ) :   1.6310 B(  1-C , 12-H ) :   0.9808
B(  2-C ,  3-C ) :   0.9795 B(  2-C , 18-H ) :   0.9377 B(  2-C , 19-H ) :   0.9305
B(  3-C ,  4-H ) :   0.9249 B(  3-C ,  5-H ) :   0.9312 B(  3-C ,  6-S ) :   0.9160
B(  6-S , 15-O ) :   1.9848 B(  6-S , 16-O ) :   1.9801 B(  6-S , 17-F ) :   1.0413
B(  7-C ,  8-N ) :   1.1390 B(  7-C ,  9-N ) :   1.1754 B(  8-N , 13-H ) :   0.9158
B(  8-N , 14-H ) :   0.9208 B(  9-N , 10-H ) :   0.8857 B(  9-N , 11-H ) :   0.9187

Dispersion correction           -0.025056433
FINAL SINGLE POINT ENERGY      -954.541489875335

DIPOLE MOMENT
-------------
                                X             Y             Z
Electronic contribution:    -13.26724      -3.94972      -3.73840
Nuclear contribution   :     14.80811       3.53278       3.42836
                        -----------------------------------------
Total Dipole Moment    :      1.54087      -0.41694      -0.31005
                        -----------------------------------------
Magnitude (a.u.)       :      1.62611
Magnitude (Debye)      :      4.13325

Rotational constants in cm-1:     0.059173     0.020923     0.018056
Rotational constants in MHz :  1773.956621   627.264018   541.303397

                             ****ORCA TERMINATED NORMALLY****
TOTAL RUN TIME: 0 days 0 hours 0 minutes 12 seconds 87 msec
