                         Program Version 5.0.0 -  RELEASE  -
|  1> !LC-PBE RIJCOSX def2-SVPD def2/J TightSCF
|  2> *xyz -1 1
|  3> C          1.44442        5.26658       -0.97546
|  4> O          1.56525        4.23349       -1.86489
|  5> H          1.76623        6.17572       -1.43893
|  6> H          2.05096        5.07018       -0.11614
|  7> H          0.42160        5.36155       -0.67592
|  8> *
|  9> %MaxCore 64000
| 10>
| 11> %pal nprocs 8
| 12> end
| 13>
| 14> %scf
| 15>   MaxIter 150
| 16> end
| 17>
| 18>
| 19>                          ****END OF INPUT****

CARTESIAN COORDINATES (ANGSTROEM)
---------------------------------
  C      1.444420    5.266580   -0.975460
  O      1.565250    4.233490   -1.864890
  H      1.766230    6.175720   -1.438930
  H      2.050960    5.070180   -0.116140
  H      0.421600    5.361550   -0.675920

 Total Charge           Charge          ....   -1
 Multiplicity           Mult            ....    1
 Number of Electrons    NEL             ....   18
 Basis Dimension        Dim             ....   67

ORBITAL ENERGIES
----------------

  NO   OCC          E(Eh)            E(eV)
   0   2.0000     -18.629002      -506.9209
   1   2.0000      -9.909422      -269.6491
   2   2.0000      -0.812216       -22.1015
   3   2.0000      -0.548325       -14.9207
   4   2.0000      -0.338063        -9.1992
   5   2.0000      -0.338059        -9.1991
   6   2.0000      -0.231798        -6.3075
   7   2.0000      -0.074553        -2.0287
   8   2.0000      -0.074547        -2.0285
   9   0.0000       0.262498         7.1429
  10   0.0000       0.340424         9.2634
  11   0.0000       0.340426         9.2635
  12   0.0000       0.350059         9.5256
  13   0.0000       0.387685        10.5494

MULLIKEN ATOMIC CHARGES
-----------------------
   0 C :    0.535032
   1 O :   -1.000772
   2 H :   -0.178057
   3 H :   -0.178305
   4 H :   -0.177898
Sum of atomic charges:   -1.0000000

LOEWDIN ATOMIC CHARGES
----------------------
   0 C :   -0.151898
   1 O :   -0.660441
   2 H :   -0.062553
   3 H :   -0.062555
   4 H :   -0.062553

  Mayer bond orders larger than 0.100000
B(  0-C ,  1-O ) :   1.2907 B(  0-C ,  2-H ) :   0.9436 B(  0-C ,  3-H ) :   0.9437
B(  0-C ,  4-H ) :   0.9437

FINAL SINGLE POINT ENERGY      -114.684607221688

DIPOLE MOMENT
-------------
                                X             Y             Z
Electronic contribution:      0.15452      -1.32019      -1.13645
Nuclear contribution   :     -0.25440       2.17514       1.87266
                        -----------------------------------------
Total Dipole Moment    :     -0.09988       0.85495       0.73621
                        -----------------------------------------
Magnitude (a.u.)       :      1.13266
Magnitude (Debye)      :      2.87900

Rotational constants in cm-1:     5.477715     0.940444     0.940443
Rotational constants in MHz : 164217.753846 28193.799011 28193.774483

                             ****ORCA TERMINATED NORMALLY****
TOTAL RUN TIME: 0 days 0 hours 0 minutes 2 seconds 827 msec
