                         Program Version 5.0.0 -  RELEASE  -
|  1> !LC-PBE RIJCOSX def2-SVPD def2/J TightSCF
|  2> *xyz 1 1
|  3> C         -0.70169        4.07250       -4.00392
|  4> N          0.68053        4.61482       -4.04800
|  5> H          0.69993        5.58489       -4.38827
|  6> H          1.27804        4.05598       -4.66824
|  7> H          1.08573        4.53358       -3.10652
|  8> H         -1.14500        4.14653       -4.97495
|  9> H         -1.28296        4.63405       -3.30271
| 10> H         -0.67274        3.04629       -3.70235
| 11> *
| 12> %MaxCore 64000
| 13>
| 14> %pal nprocs 8
| 15> end
| 16>
| 17> %scf
| 18>   MaxIter 150
| 19> end
| 20>
| 21>
| 22>                          ****END OF INPUT****

CARTESIAN COORDINATES (ANGSTROEM)
---------------------------------
  C     -0.701690    4.072500   -4.003920
  N      0.680530    4.614820   -4.048000
  H      0.699930    5.584890   -4.388270
  H      1.278040    4.055980   -4.668240
  H      1.085730    4.533580   -3.106520
  H     -1.145000    4.146530   -4.974950
  H     -1.282960    4.634050   -3.302710
  H     -0.672740    3.046290   -3.702350

 Total Charge           Charge          ....    1
 Multiplicity           Mult            ....    1
 Number of Electrons    NEL             ....   18
 Basis Dimension        Dim             ....   88

ORBITAL ENERGIES
----------------

  NO   OCC          E(Eh)            E(eV)
   0   2.0000     -14.579422      -396.7262
   1   2.0000     -10.384047      -282.5643
   2   2.0000      -1.393100       -37.9082
   3   2.0000      -1.101122       -29.9631
   4   2.0000      -0.964879       -26.2557
   5   2.0000      -0.954754       -25.9802
   6   2.0000      -0.856202       -23.2984
   7   2.0000      -0.763336       -20.7714
   8   2.0000      -0.761539       -20.7225
   9   0.0000      -0.119267        -3.2454
  10   0.0000      -0.054119        -1.4727
  11   0.0000      -0.046615        -1.2685
  12   0.0000      -0.046226        -1.2579
  13   0.0000      -0.002800        -0.0762

MULLIKEN ATOMIC CHARGES
-----------------------
   0 C :    0.593326
   1 N :   -0.863741
   2 H :    0.394350
   3 H :    0.391794
   4 H :    0.409412
   5 H :    0.018695
   6 H :    0.027528
   7 H :    0.028636
Sum of atomic charges:    1.0000000

LOEWDIN ATOMIC CHARGES
----------------------
   0 C :    0.246616
   1 N :    0.293620
   2 H :    0.120355
   3 H :    0.116139
   4 H :    0.117525
   5 H :    0.034560
   6 H :    0.035453
   7 H :    0.035732

  Mayer bond orders larger than 0.100000
B(  0-C ,  1-N ) :   0.8370 B(  0-C ,  5-H ) :   0.9388 B(  0-C ,  6-H ) :   0.9280
B(  0-C ,  7-H ) :   0.9249 B(  1-N ,  2-H ) :   0.7740 B(  1-N ,  3-H ) :   0.7817
B(  1-N ,  4-H ) :   0.7572

FINAL SINGLE POINT ENERGY       -95.836944221436

DIPOLE MOMENT
-------------
                                X             Y             Z
Electronic contribution:      1.03085       0.42876      -0.03909
Nuclear contribution   :     -0.21844      -0.13976       0.01729
                        -----------------------------------------
Total Dipole Moment    :      0.81241       0.28900      -0.02180
                        -----------------------------------------
Magnitude (a.u.)       :      0.86256
Magnitude (Debye)      :      2.19245

Rotational constants in cm-1:     2.865765     0.688517     0.685249
Rotational constants in MHz : 85913.460223 20641.211162 20543.252263

                             ****ORCA TERMINATED NORMALLY****
TOTAL RUN TIME: 0 days 0 hours 0 minutes 3 seconds 336 msec
