                         Program Version 5.0.0 -  RELEASE  -
|  1> !LC-PBE RIJCOSX def2-SVPD def2/J TightSCF
|  2> *xyz 0 1
|  3> C          1.44442        5.26658       -0.97546
|  4> F          1.56525        4.23349       -1.86489
|  5> H          1.76623        6.17572       -1.43893
|  6> H          2.05096        5.07018       -0.11614
|  7> H          0.42160        5.36155       -0.67592
|  8> *
|  9> %MaxCore 64000
| 10>
| 11> %pal nprocs 8
| 12> end
| 13>
| 14> %scf
| 15>   MaxIter 150
| 16> end
| 17>
| 18>
| 19>                          ****END OF INPUT****

CARTESIAN COORDINATES (ANGSTROEM)
---------------------------------
  C      1.444420    5.266580   -0.975460
  F      1.565250    4.233490   -1.864890
  H      1.766230    6.175720   -1.438930
  H      2.050960    5.070180   -0.116140
  H      0.421600    5.361550   -0.675920

 Total Charge           Charge          ....    0
 Multiplicity           Mult            ....    1
 Number of Electrons    NEL             ....   18
 Basis Dimension        Dim             ....   67

ORBITAL ENERGIES
----------------

  NO   OCC          E(Eh)            E(eV)
   0   2.0000     -24.491195      -666.4393
   1   2.0000     -10.197430      -277.4862
   2   2.0000      -1.339665       -36.4541
   3   2.0000      -0.869401       -23.6576
   4   2.0000      -0.645396       -17.5621
   5   2.0000      -0.643680       -17.5154
   6   2.0000      -0.643674       -17.5153
   7   2.0000      -0.489465       -13.3190
   8   2.0000      -0.489450       -13.3186
   9   0.0000       0.091995         2.5033
  10   0.0000       0.147889         4.0243
  11   0.0000       0.175797         4.7837
  12   0.0000       0.175797         4.7837
  13   0.0000       0.213939         5.8216

MULLIKEN ATOMIC CHARGES
-----------------------
   0 C :    0.598752
   1 F :   -0.461221
   2 H :   -0.045815
   3 H :   -0.046063
   4 H :   -0.045654
Sum of atomic charges:   -0.0000000

LOEWDIN ATOMIC CHARGES
----------------------
   0 C :    0.228784
   1 F :   -0.247074
   2 H :    0.006098
   3 H :    0.006094
   4 H :    0.006098

  Mayer bond orders larger than 0.100000
B(  0-C ,  1-F ) :   0.8914 B(  0-C ,  2-H ) :   0.9644 B(  0-C ,  3-H ) :   0.9645
B(  0-C ,  4-H ) :   0.9642

FINAL SINGLE POINT ENERGY      -139.286308584608

DIPOLE MOMENT
-------------
                                X             Y             Z
Electronic contribution:      0.25510      -2.18043      -1.87717
Nuclear contribution   :     -0.32265       2.75860       2.37499
                        -----------------------------------------
Total Dipole Moment    :     -0.06755       0.57817       0.49782
                        -----------------------------------------
Magnitude (a.u.)       :      0.76594
Magnitude (Debye)      :      1.94687

Rotational constants in cm-1:     5.477715     0.875416     0.875415
Rotational constants in MHz : 164217.753846 26244.308980 26244.287726

                             ****ORCA TERMINATED NORMALLY****
TOTAL RUN TIME: 0 days 0 hours 0 minutes 2 seconds 721 msec
