                         Program Version 5.0.0 -  RELEASE  -
|  1> !LC-PBE RIJCOSX def2-SVPD def2/J TightSCF
|  2> *xyz 0 1
|  3> C         -0.70169        4.07250       -4.00392
|  4> C          0.68053        4.61482       -4.04800
|  5> H          0.69993        5.58489       -4.38827
|  6> H          1.27804        4.05598       -4.66824
|  7> H          1.08573        4.53358       -3.10652
|  8> H         -1.14500        4.14653       -4.97495
|  9> H         -1.28296        4.63405       -3.30271
| 10> H         -0.67274        3.04629       -3.70235
| 11> *
| 12> %MaxCore 64000
| 13>
| 14> %pal nprocs 8
| 15> end
| 16>
| 17> %scf
| 18>   MaxIter 150
| 19> end
| 20>
| 21>
| 22>                          ****END OF INPUT****

CARTESIAN COORDINATES (ANGSTROEM)
---------------------------------
  C     -0.701690    4.072500   -4.003920
  C      0.680530    4.614820   -4.048000
  H      0.699930    5.584890   -4.388270
  H      1.278040    4.055980   -4.668240
  H      1.085730    4.533580   -3.106520
  H     -1.145000    4.146530   -4.974950
  H     -1.282960    4.634050   -3.302710
  H     -0.672740    3.046290   -3.702350

 Total Charge           Charge          ....    0
 Multiplicity           Mult            ....    1
 Number of Electrons    NEL             ....   18
 Basis Dimension        Dim             ....   88

ORBITAL ENERGIES
----------------

  NO   OCC          E(Eh)            E(eV)
   0   2.0000     -10.102490      -274.9027
   1   2.0000     -10.089258      -274.5427
   2   2.0000      -0.941148       -25.6099
   3   2.0000      -0.777904       -21.1678
   4   2.0000      -0.597347       -16.2546
   5   2.0000      -0.591125       -16.0853
   6   2.0000      -0.503933       -13.7127
   7   2.0000      -0.477976       -13.0064
   8   2.0000      -0.472111       -12.8468
   9   0.0000       0.096501         2.6259
  10   0.0000       0.125758         3.4220
  11   0.0000       0.179980         4.8975
  12   0.0000       0.181592         4.9414
  13   0.0000       0.200911         5.4671

MULLIKEN ATOMIC CHARGES
-----------------------
   0 C :    0.002565
   1 C :    0.301476
   2 H :   -0.107114
   3 H :   -0.104159
   4 H :   -0.087690
   5 H :   -0.006098
   6 H :   -0.002331
   7 H :    0.003350
Sum of atomic charges:    0.0000000

LOEWDIN ATOMIC CHARGES
----------------------
   0 C :    0.040308
   1 C :    0.045102
   2 H :   -0.021018
   3 H :   -0.025001
   4 H :   -0.022722
   5 H :   -0.006524
   6 H :   -0.005434
   7 H :   -0.004714

  Mayer bond orders larger than 0.100000
B(  0-C ,  1-C ) :   1.4358 B(  0-C ,  2-H ) :   0.1269 B(  0-C ,  3-H ) :   0.1257
B(  0-C ,  4-H ) :   0.1406 B(  0-C ,  5-H ) :   0.9167 B(  0-C ,  6-H ) :   0.9035
B(  0-C ,  7-H ) :   0.9009 B(  1-C ,  2-H ) :   0.8620 B(  1-C ,  3-H ) :   0.8472
B(  1-C ,  4-H ) :   0.8464 B(  1-C ,  5-H ) :   0.1082 B(  1-C ,  6-H ) :   0.1134
B(  1-C ,  7-H ) :   0.1152

FINAL SINGLE POINT ENERGY       -79.466867046710

DIPOLE MOMENT
-------------
                                X             Y             Z
Electronic contribution:      0.00527       0.04310      -0.01068
Nuclear contribution   :      0.01985      -0.04545       0.00953
                        -----------------------------------------
Total Dipole Moment    :      0.02512      -0.00234      -0.00115
                        -----------------------------------------
Magnitude (a.u.)       :      0.02525
Magnitude (Debye)      :      0.06419

Rotational constants in cm-1:     2.865782     0.718825     0.715264
Rotational constants in MHz : 85913.996449 21549.842906 21443.078705

                             ****ORCA TERMINATED NORMALLY****
TOTAL RUN TIME: 0 days 0 hours 0 minutes 3 seconds 368 msec
