                         Program Version 5.0.0 -  RELEASE  -
|  1> !M062X D3Zero RIJCOSX def2-SVPD def2/J TightSCF
|  2> *xyz -1 1
|  3> C          3.80351        1.37472       -3.26081
|  4> C          3.93993        0.32036       -4.36773
|  5> H          4.10504       -0.65508       -3.90773
|  6> H          3.02280        0.28052       -4.95712
|  7> C          5.10585        0.66802       -5.30546
|  8> O          4.80913        1.15019       -6.41436
|  9> O          6.26737        0.56500       -4.81948
| 10> H          3.64113        2.33595       -3.70189
| 11> H          4.69995        1.39701       -2.67703
| 12> H          2.97435        1.12625       -2.63180
| 13> *
| 14>
| 15> %MaxCore 64000
| 16>
| 17> %pal nprocs 4
| 18> end
| 19>
| 20> %scf
| 21>   MaxIter 150
| 22> end
| 23>
| 24>
| 25>                          ****END OF INPUT****

CARTESIAN COORDINATES (ANGSTROEM)
---------------------------------
  C      3.803510    1.374720   -3.260810
  C      3.939930    0.320360   -4.367730
  H      4.105040   -0.655080   -3.907730
  H      3.022800    0.280520   -4.957120
  C      5.105850    0.668020   -5.305460
  O      4.809130    1.150190   -6.414360
  O      6.267370    0.565000   -4.819480
  H      3.641130    2.335950   -3.701890
  H      4.699950    1.397010   -2.677030
  H      2.974350    1.126250   -2.631800

 Total Charge           Charge          ....   -1
 Multiplicity           Mult            ....    1
 Number of Electrons    NEL             ....   40
 Basis Dimension        Dim             ....  146

ORBITAL ENERGIES
----------------

  NO   OCC          E(Eh)            E(eV)
   0   2.0000     -19.374524      -527.2076
   1   2.0000     -19.370482      -527.0976
   2   2.0000     -10.437708      -284.0245
   3   2.0000     -10.388924      -282.6970
   4   2.0000     -10.374282      -282.2986
   5   2.0000      -0.930262       -25.3137
   6   2.0000      -0.830815       -22.6076
   7   2.0000      -0.693478       -18.8705
   8   2.0000      -0.552201       -15.0262
   9   2.0000      -0.395162       -10.7529
  10   2.0000      -0.361287        -9.8311
  11   2.0000      -0.333772        -9.0824
  12   2.0000      -0.301625        -8.2076
  13   2.0000      -0.284954        -7.7540
  14   2.0000      -0.280048        -7.6205
  15   2.0000      -0.244444        -6.6517
  16   2.0000      -0.232946        -6.3388
  17   2.0000      -0.112489        -3.0610
  18   2.0000      -0.108188        -2.9440
  19   2.0000      -0.104233        -2.8363
  20   0.0000       0.174249         4.7416
  21   0.0000       0.206430         5.6173
  22   0.0000       0.216648         5.8953
  23   0.0000       0.245362         6.6766
  24   0.0000       0.263685         7.1752

MULLIKEN ATOMIC CHARGES
-----------------------
   0 C :    0.497045
   1 C :   -0.273412
   2 H :   -0.036203
   3 H :   -0.045532
   4 C :    0.578748
   5 O :   -0.736279
   6 O :   -0.785207
   7 H :   -0.069674
   8 H :   -0.045530
   9 H :   -0.083957
Sum of atomic charges:   -1.0000000

LOEWDIN ATOMIC CHARGES
----------------------
   0 C :    0.104181
   1 C :   -0.040539
   2 H :    0.003580
   3 H :   -0.000511
   4 C :   -0.296510
   5 O :   -0.333519
   6 O :   -0.346827
   7 H :   -0.021089
   8 H :   -0.025393
   9 H :   -0.043373

  Mayer bond orders larger than 0.100000
B(  0-C ,  1-C ) :   1.3050 B(  0-C ,  7-H ) :   0.8591 B(  0-C ,  8-H ) :   0.8463
B(  0-C ,  9-H ) :   0.8626 B(  1-C ,  2-H ) :   0.9266 B(  1-C ,  3-H ) :   0.9642
B(  1-C ,  4-C ) :   0.9897 B(  1-C ,  7-H ) :   0.1766 B(  1-C ,  8-H ) :   0.1842
B(  1-C ,  9-H ) :   0.1428 B(  3-H ,  4-C ) :   0.1410 B(  4-C ,  5-O ) :   1.4140
B(  4-C ,  6-O ) :   1.3960

Dispersion correction           -0.000084286
FINAL SINGLE POINT ENERGY      -267.533058923215

DIPOLE MOMENT
-------------
                                X             Y             Z
Electronic contribution:      3.69205      -0.49637      -4.47191
Nuclear contribution   :     -5.15232       0.33441       5.87398
                        -----------------------------------------
Total Dipole Moment    :     -1.46027      -0.16196       1.40207
                        -----------------------------------------
Magnitude (a.u.)       :      2.03087
Magnitude (Debye)      :      5.16205

Rotational constants in cm-1:     0.295355     0.137164     0.110193
Rotational constants in MHz :  8854.523706  4112.077980  3303.490503

                             ****ORCA TERMINATED NORMALLY****
TOTAL RUN TIME: 0 days 0 hours 0 minutes 17 seconds 524 msec
