                         Program Version 5.0.0 -  RELEASE  -
|  1> !M062X D3Zero RIJCOSX def2-SVPD def2/J TightSCF
|  2> *xyz 1 1
|  3> C          3.90595        2.81985       -3.75292
|  4> N          5.29562        3.13151       -4.10533
|  5> C          3.80351        1.37472       -3.26081
|  6> C          5.70862        3.46889       -5.32419
|  7> N          6.90470        3.03895       -5.71708
|  8> N          4.98188        4.29357       -6.09746
|  9> H          5.00055        4.10131       -7.08776
| 10> H          4.08469        4.59690       -5.73965
| 11> H          5.96336        2.52611       -3.64239
| 12> H          7.04716        2.06686       -5.47360
| 13> H          7.19815        3.30799       -6.64523
| 14> H          3.28202        2.94919       -4.64026
| 15> H          3.56525        3.51457       -2.98252
| 16> H          4.14157        0.71142       -4.02935
| 17> H          2.78528        1.15146       -3.01944
| 18> H          4.41205        1.25066       -2.38949
| 19> *
| 20>
| 21> %MaxCore 64000
| 22>
| 23> %pal nprocs 4
| 24> end
| 25>
| 26> %scf
| 27>   MaxIter 150
| 28> end
| 29>
| 30>
| 31>                          ****END OF INPUT****

CARTESIAN COORDINATES (ANGSTROEM)
---------------------------------
  C      3.905950    2.819850   -3.752920
  N      5.295620    3.131510   -4.105330
  C      3.803510    1.374720   -3.260810
  C      5.708620    3.468890   -5.324190
  N      6.904700    3.038950   -5.717080
  N      4.981880    4.293570   -6.097460
  H      5.000550    4.101310   -7.087760
  H      4.084690    4.596900   -5.739650
  H      5.963360    2.526110   -3.642390
  H      7.047160    2.066860   -5.473600
  H      7.198150    3.307990   -6.645230
  H      3.282020    2.949190   -4.640260
  H      3.565250    3.514570   -2.982520
  H      4.141570    0.711420   -4.029350
  H      2.785280    1.151460   -3.019440
  H      4.412050    1.250660   -2.389490

 Total Charge           Charge          ....    1
 Multiplicity           Mult            ....    1
 Number of Electrons    NEL             ....   48
 Basis Dimension        Dim             ....  200

ORBITAL ENERGIES
----------------

  NO   OCC          E(Eh)            E(eV)
   0   2.0000     -14.991140      -407.9297
   1   2.0000     -14.990692      -407.9175
   2   2.0000     -14.989630      -407.8886
   3   2.0000     -10.895150      -296.4721
   4   2.0000     -10.763335      -292.8852
   5   2.0000     -10.695919      -291.0508
   6   2.0000      -1.326102       -36.0851
   7   2.0000      -1.204934       -32.7879
   8   2.0000      -1.195414       -32.5289
   9   2.0000      -1.024043       -27.8656
  10   2.0000      -0.916574       -24.9413
  11   2.0000      -0.890253       -24.2250
  12   2.0000      -0.856281       -23.3006
  13   2.0000      -0.822266       -22.3750
  14   2.0000      -0.776774       -21.1371
  15   2.0000      -0.759356       -20.6631
  16   2.0000      -0.724600       -19.7174
  17   2.0000      -0.697947       -18.9921
  18   2.0000      -0.668409       -18.1883
  19   2.0000      -0.626421       -17.0458
  20   2.0000      -0.601437       -16.3659
  21   2.0000      -0.586090       -15.9483
  22   2.0000      -0.556017       -15.1300
  23   2.0000      -0.521737       -14.1972
  24   0.0000      -0.155826        -4.2402
  25   0.0000      -0.134054        -3.6478
  26   0.0000      -0.099792        -2.7155
  27   0.0000      -0.087963        -2.3936
  28   0.0000      -0.069135        -1.8813

MULLIKEN ATOMIC CHARGES
-----------------------
   0 C :    0.287801
   1 N :   -0.459009
   2 C :    0.627483
   3 C :    0.997737
   4 N :   -0.046055
   5 N :   -0.052197
   6 H :   -0.002591
   7 H :    0.016264
   8 H :   -0.090011
   9 H :    0.034094
  10 H :    0.021363
  11 H :   -0.061198
  12 H :   -0.219667
  13 H :   -0.034801
  14 H :   -0.028585
  15 H :    0.009370
Sum of atomic charges:    1.0000000

LOEWDIN ATOMIC CHARGES
----------------------
   0 C :    0.042618
   1 N :    0.042902
   2 C :    0.162530
   3 C :   -0.041004
   4 N :    0.264556
   5 N :    0.276901
   6 H :    0.039795
   7 H :    0.025718
   8 H :    0.046467
   9 H :    0.039765
  10 H :    0.038590
  11 H :    0.024402
  12 H :    0.038391
  13 H :   -0.005995
  14 H :    0.006363
  15 H :   -0.001998

  Mayer bond orders larger than 0.100000
B(  0-C ,  1-N ) :   0.8472 B(  0-C ,  2-C ) :   1.3113 B(  0-C , 11-H ) :   0.8255
B(  0-C , 12-H ) :   0.9457 B(  0-C , 13-H ) :   0.2167 B(  0-C , 14-H ) :   0.2266
B(  0-C , 15-H ) :   0.1426 B(  1-N ,  3-C ) :   1.1377 B(  1-N ,  4-N ) :   0.1842
B(  1-N ,  8-H ) :   1.1492 B(  1-N , 11-H ) :   0.1140 B(  1-N , 12-H ) :   0.1578
B(  2-C , 13-H ) :   0.8143 B(  2-C , 14-H ) :   0.8225 B(  2-C , 15-H ) :   0.8315
B(  3-C ,  4-N ) :   0.9783 B(  3-C ,  5-N ) :   0.9624 B(  3-C ,  8-H ) :  -0.1710
B(  4-N ,  5-N ) :   0.1012 B(  4-N ,  9-H ) :   1.0278 B(  4-N , 10-H ) :   0.9743
B(  5-N ,  6-H ) :   1.1348 B(  5-N ,  7-H ) :   0.9635 B(  6-H ,  7-H ) :  -0.1227

Dispersion correction           -0.000313006
FINAL SINGLE POINT ENERGY      -284.055296127021

DIPOLE MOMENT
-------------
                                X             Y             Z
Electronic contribution:      3.50295       3.39637      -2.65024
Nuclear contribution   :     -3.31456      -3.64300       1.57303
                        -----------------------------------------
Total Dipole Moment    :      0.18838      -0.24663      -1.07721
                        -----------------------------------------
Magnitude (a.u.)       :      1.12102
Magnitude (Debye)      :      2.84941

Rotational constants in cm-1:     0.229487     0.071000     0.059428
Rotational constants in MHz :  6879.840828  2128.520047  1781.605314

                             ****ORCA TERMINATED NORMALLY****
TOTAL RUN TIME: 0 days 0 hours 0 minutes 30 seconds 410 msec
