                         Program Version 5.0.0 -  RELEASE  -
|  1> !M062X D3Zero RIJCOSX def2-SVPD def2/J TightSCF
|  2> *xyz 0 1
|  3> C          3.80351        1.37472       -3.26081
|  4> C          3.93993        0.32036       -4.36773
|  5> H          4.10504       -0.65508       -3.90773
|  6> H          3.02280        0.28052       -4.95712
|  7> C          5.10585        0.66802       -5.30546
|  8> F          4.80913        1.15019       -6.41436
|  9> O          6.26737        0.56500       -4.81948
| 10> H          3.64113        2.33595       -3.70189
| 11> H          4.69995        1.39701       -2.67703
| 12> H          2.97435        1.12625       -2.63180
| 13> *
| 14>
| 15> %MaxCore 64000
| 16>
| 17> %pal nprocs 4
| 18> end
| 19>
| 20> %scf
| 21>   MaxIter 150
| 22> end
| 23>
| 24>
| 25>                          ****END OF INPUT****

CARTESIAN COORDINATES (ANGSTROEM)
---------------------------------
  C      3.803510    1.374720   -3.260810
  C      3.939930    0.320360   -4.367730
  H      4.105040   -0.655080   -3.907730
  H      3.022800    0.280520   -4.957120
  C      5.105850    0.668020   -5.305460
  F      4.809130    1.150190   -6.414360
  O      6.267370    0.565000   -4.819480
  H      3.641130    2.335950   -3.701890
  H      4.699950    1.397010   -2.677030
  H      2.974350    1.126250   -2.631800

 Total Charge           Charge          ....    0
 Multiplicity           Mult            ....    1
 Number of Electrons    NEL             ....   40
 Basis Dimension        Dim             ....  146

ORBITAL ENERGIES
----------------

  NO   OCC          E(Eh)            E(eV)
   0   2.0000     -25.334830      -689.3958
   1   2.0000     -19.648876      -534.6731
   2   2.0000     -10.740646      -292.2678
   3   2.0000     -10.584086      -288.0076
   4   2.0000     -10.559904      -287.3496
   5   2.0000      -1.455478       -39.6056
   6   2.0000      -1.140201       -31.0265
   7   2.0000      -0.893505       -24.3135
   8   2.0000      -0.784218       -21.3397
   9   2.0000      -0.732991       -19.9457
  10   2.0000      -0.651349       -17.7241
  11   2.0000      -0.637120       -17.3369
  12   2.0000      -0.590783       -16.0760
  13   2.0000      -0.538604       -14.6562
  14   2.0000      -0.512082       -13.9345
  15   2.0000      -0.469792       -12.7837
  16   2.0000      -0.450473       -12.2580
  17   2.0000      -0.439582       -11.9616
  18   2.0000      -0.414926       -11.2907
  19   2.0000      -0.369239       -10.0475
  20   0.0000       0.009035         0.2459
  21   0.0000       0.028258         0.7690
  22   0.0000       0.060947         1.6584
  23   0.0000       0.068690         1.8692
  24   0.0000       0.092905         2.5281

MULLIKEN ATOMIC CHARGES
-----------------------
   0 C :    0.494336
   1 C :   -0.361466
   2 H :    0.038443
   3 H :    0.019314
   4 C :    0.839408
   5 F :   -0.393038
   6 O :   -0.558913
   7 H :   -0.040414
   8 H :   -0.011386
   9 H :   -0.026283
Sum of atomic charges:    0.0000000

LOEWDIN ATOMIC CHARGES
----------------------
   0 C :    0.144106
   1 C :    0.007082
   2 H :    0.036834
   3 H :    0.022411
   4 C :    0.008339
   5 F :   -0.041178
   6 O :   -0.150461
   7 H :   -0.008640
   8 H :   -0.006737
   9 H :   -0.011754

  Mayer bond orders larger than 0.100000
B(  0-C ,  1-C ) :   1.3248 B(  0-C ,  7-H ) :   0.8591 B(  0-C ,  8-H ) :   0.8521
B(  0-C ,  9-H ) :   0.8748 B(  1-C ,  2-H ) :   0.9264 B(  1-C ,  3-H ) :   0.9568
B(  1-C ,  4-C ) :   1.0675 B(  1-C ,  7-H ) :   0.1560 B(  1-C ,  8-H ) :   0.1629
B(  1-C ,  9-H ) :   0.1313 B(  4-C ,  5-F ) :   0.6927 B(  4-C ,  6-O ) :   1.7619

Dispersion correction           -0.000088712
FINAL SINGLE POINT ENERGY      -292.060735666089

DIPOLE MOMENT
-------------
                                X             Y             Z
Electronic contribution:      3.96841      -0.01985      -7.41209
Nuclear contribution   :     -5.17129      -0.01923       7.59895
                        -----------------------------------------
Total Dipole Moment    :     -1.20288      -0.03908       0.18685
                        -----------------------------------------
Magnitude (a.u.)       :      1.21793
Magnitude (Debye)      :      3.09574

Rotational constants in cm-1:     0.282073     0.131822     0.105134
Rotational constants in MHz :  8456.328792  3951.925810  3151.840112

                             ****ORCA TERMINATED NORMALLY****
TOTAL RUN TIME: 0 days 0 hours 0 minutes 17 seconds 764 msec
