                         Program Version 5.0.0 -  RELEASE  -
|  1> !M062X D3Zero RIJCOSX def2-SVPD def2/J TightSCF
|  2> *xyz 0 1
|  3> C          3.90595        2.81985       -3.75292
|  4> C          5.29562        3.13151       -4.10533
|  5> C          3.80351        1.37472       -3.26081
|  6> C          5.70862        3.46889       -5.32419
|  7> N          6.90470        3.03895       -5.71708
|  8> N          4.98188        4.29357       -6.09746
|  9> H          5.00055        4.10131       -7.08776
| 10> H          4.08469        4.59690       -5.73965
| 11> H          5.96336        2.52611       -3.64239
| 12> H          7.04716        2.06686       -5.47360
| 13> H          7.19815        3.30799       -6.64523
| 14> H          3.28202        2.94919       -4.64026
| 15> H          3.56525        3.51457       -2.98252
| 16> H          4.14157        0.71142       -4.02935
| 17> H          2.78528        1.15146       -3.01944
| 18> H          4.41205        1.25066       -2.38949
| 19> *
| 20>
| 21> %MaxCore 64000
| 22>
| 23> %pal nprocs 4
| 24> end
| 25>
| 26> %scf
| 27>   MaxIter 150
| 28> end
| 29>
| 30>
| 31>                          ****END OF INPUT****

CARTESIAN COORDINATES (ANGSTROEM)
---------------------------------
  C      3.905950    2.819850   -3.752920
  C      5.295620    3.131510   -4.105330
  C      3.803510    1.374720   -3.260810
  C      5.708620    3.468890   -5.324190
  N      6.904700    3.038950   -5.717080
  N      4.981880    4.293570   -6.097460
  H      5.000550    4.101310   -7.087760
  H      4.084690    4.596900   -5.739650
  H      5.963360    2.526110   -3.642390
  H      7.047160    2.066860   -5.473600
  H      7.198150    3.307990   -6.645230
  H      3.282020    2.949190   -4.640260
  H      3.565250    3.514570   -2.982520
  H      4.141570    0.711420   -4.029350
  H      2.785280    1.151460   -3.019440
  H      4.412050    1.250660   -2.389490

 Total Charge           Charge          ....    0
 Multiplicity           Mult            ....    1
 Number of Electrons    NEL             ....   48
 Basis Dimension        Dim             ....  200

ORBITAL ENERGIES
----------------

  NO   OCC          E(Eh)            E(eV)
   0   2.0000     -14.766498      -401.8168
   1   2.0000     -14.762746      -401.7147
   2   2.0000     -10.596140      -288.3356
   3   2.0000     -10.529333      -286.5177
   4   2.0000     -10.522587      -286.3341
   5   2.0000     -10.478726      -285.1406
   6   2.0000      -1.066593       -29.0235
   7   2.0000      -0.970130       -26.3986
   8   2.0000      -0.869010       -23.6470
   9   2.0000      -0.781615       -21.2688
  10   2.0000      -0.693418       -18.8689
  11   2.0000      -0.654372       -17.8064
  12   2.0000      -0.610675       -16.6173
  13   2.0000      -0.584198       -15.8968
  14   2.0000      -0.548702       -14.9309
  15   2.0000      -0.517234       -14.0746
  16   2.0000      -0.489978       -13.3330
  17   2.0000      -0.458534       -12.4773
  18   2.0000      -0.438224       -11.9247
  19   2.0000      -0.414807       -11.2875
  20   2.0000      -0.389544       -10.6000
  21   2.0000      -0.386385       -10.5141
  22   2.0000      -0.340665        -9.2700
  23   2.0000      -0.223234        -6.0745
  24   0.0000       0.032261         0.8779
  25   0.0000       0.060895         1.6570
  26   0.0000       0.063223         1.7204
  27   0.0000       0.079772         2.1707
  28   0.0000       0.090651         2.4667

MULLIKEN ATOMIC CHARGES
-----------------------
   0 C :   -0.092903
   1 C :   -0.018323
   2 C :    0.739136
   3 C :    0.292819
   4 N :   -0.003254
   5 N :   -0.038088
   6 H :   -0.074616
   7 H :    0.008103
   8 H :   -0.254013
   9 H :    0.031173
  10 H :   -0.093047
  11 H :   -0.179273
  12 H :   -0.160266
  13 H :   -0.034200
  14 H :   -0.105898
  15 H :   -0.017349
Sum of atomic charges:    0.0000000

LOEWDIN ATOMIC CHARGES
----------------------
   0 C :   -0.107015
   1 C :   -0.016740
   2 C :    0.114750
   3 C :   -0.239862
   4 N :    0.177822
   5 N :    0.189681
   6 H :   -0.008727
   7 H :   -0.005321
   8 H :   -0.056914
   9 H :    0.005907
  10 H :   -0.009212
  11 H :    0.002679
  12 H :    0.009149
  13 H :   -0.016291
  14 H :   -0.023828
  15 H :   -0.016077

  Mayer bond orders larger than 0.100000
B(  0-C ,  1-C ) :   0.9632 B(  0-C ,  2-C ) :   1.2795 B(  0-C ,  8-H ) :   0.1882
B(  0-C , 11-H ) :   0.8808 B(  0-C , 12-H ) :   0.8606 B(  0-C , 13-H ) :   0.2326
B(  0-C , 14-H ) :   0.2705 B(  0-C , 15-H ) :   0.1854 B(  1-C ,  3-C ) :   1.9646
B(  1-C ,  4-N ) :   0.3012 B(  1-C ,  5-N ) :   0.1457 B(  1-C ,  8-H ) :   0.5219
B(  1-C , 12-H ) :   0.1617 B(  2-C , 13-H ) :   0.7909 B(  2-C , 14-H ) :   0.7966
B(  2-C , 15-H ) :   0.8116 B(  3-C ,  4-N ) :   0.9255 B(  3-C ,  5-N ) :   0.9396
B(  3-C ,  8-H ) :   0.3431 B(  4-N ,  9-H ) :   1.0167 B(  4-N , 10-H ) :   0.9304
B(  5-N ,  6-H ) :   1.0936 B(  5-N ,  7-H ) :   0.9680

Dispersion correction           -0.000311309
FINAL SINGLE POINT ENERGY      -267.592845234592

DIPOLE MOMENT
-------------
                                X             Y             Z
Electronic contribution:      3.15813       3.24712      -2.81970
Nuclear contribution   :     -3.27358      -3.61654       1.70633
                        -----------------------------------------
Total Dipole Moment    :     -0.11545      -0.36943      -1.11337
                        -----------------------------------------
Magnitude (a.u.)       :      1.17873
Magnitude (Debye)      :      2.99608

Rotational constants in cm-1:     0.231961     0.071249     0.059473
Rotational constants in MHz :  6954.024434  2135.976855  1782.962814

                             ****ORCA TERMINATED NORMALLY****
TOTAL RUN TIME: 0 days 0 hours 0 minutes 30 seconds 284 msec
