                         Program Version 5.0.0 -  RELEASE  -
|  1> !M062X D3Zero RIJCOSX def2-SVPD def2/J TightSCF
|  2> *xyz 0 1
|  3> C          3.80351        1.37472       -3.26081
|  4> C          3.93993        0.32036       -4.36773
|  5> H          4.10504       -0.65508       -3.90773
|  6> H          3.02280        0.28052       -4.95712
|  7> C          5.10585        0.66802       -5.30546
|  8> O          4.80913        1.15019       -6.41436
|  9> F          6.26737        0.56500       -4.81948
| 10> H          3.64113        2.33595       -3.70189
| 11> H          4.69995        1.39701       -2.67703
| 12> H          2.97435        1.12625       -2.63180
| 13> *
| 14>
| 15> %MaxCore 64000
| 16>
| 17> %pal nprocs 4
| 18> end
| 19>
| 20> %scf
| 21>   MaxIter 150
| 22> end
| 23>
| 24>
| 25>                          ****END OF INPUT****

CARTESIAN COORDINATES (ANGSTROEM)
---------------------------------
  C      3.803510    1.374720   -3.260810
  C      3.939930    0.320360   -4.367730
  H      4.105040   -0.655080   -3.907730
  H      3.022800    0.280520   -4.957120
  C      5.105850    0.668020   -5.305460
  O      4.809130    1.150190   -6.414360
  F      6.267370    0.565000   -4.819480
  H      3.641130    2.335950   -3.701890
  H      4.699950    1.397010   -2.677030
  H      2.974350    1.126250   -2.631800

 Total Charge           Charge          ....    0
 Multiplicity           Mult            ....    1
 Number of Electrons    NEL             ....   40
 Basis Dimension        Dim             ....  146

ORBITAL ENERGIES
----------------

  NO   OCC          E(Eh)            E(eV)
   0   2.0000     -25.328008      -689.2101
   1   2.0000     -19.651777      -534.7520
   2   2.0000     -10.738608      -292.2124
   3   2.0000     -10.583585      -287.9940
   4   2.0000     -10.562543      -287.4214
   5   2.0000      -1.441311       -39.2201
   6   2.0000      -1.151858       -31.3437
   7   2.0000      -0.895252       -24.3610
   8   2.0000      -0.776881       -21.1400
   9   2.0000      -0.731434       -19.9033
  10   2.0000      -0.644276       -17.5316
  11   2.0000      -0.632627       -17.2147
  12   2.0000      -0.588290       -16.0082
  13   2.0000      -0.539011       -14.6672
  14   2.0000      -0.513315       -13.9680
  15   2.0000      -0.475206       -12.9310
  16   2.0000      -0.456240       -12.4149
  17   2.0000      -0.439879       -11.9697
  18   2.0000      -0.423991       -11.5374
  19   2.0000      -0.369340       -10.0503
  20   0.0000       0.013482         0.3669
  21   0.0000       0.028162         0.7663
  22   0.0000       0.061409         1.6710
  23   0.0000       0.068171         1.8550
  24   0.0000       0.093239         2.5372

MULLIKEN ATOMIC CHARGES
-----------------------
   0 C :    0.475223
   1 C :   -0.344968
   2 H :    0.033065
   3 H :    0.011947
   4 C :    0.848643
   5 O :   -0.524029
   6 F :   -0.426639
   7 H :   -0.033045
   8 H :   -0.018858
   9 H :   -0.021337
Sum of atomic charges:    0.0000000

LOEWDIN ATOMIC CHARGES
----------------------
   0 C :    0.141119
   1 C :    0.009234
   2 H :    0.029300
   3 H :    0.033606
   4 C :    0.006823
   5 O :   -0.138697
   6 F :   -0.052890
   7 H :   -0.005461
   8 H :   -0.011771
   9 H :   -0.011263

  Mayer bond orders larger than 0.100000
B(  0-C ,  1-C ) :   1.3098 B(  0-C ,  7-H ) :   0.8733 B(  0-C ,  8-H ) :   0.8426
B(  0-C ,  9-H ) :   0.8801 B(  1-C ,  2-H ) :   0.9229 B(  1-C ,  3-H ) :   0.9807
B(  1-C ,  4-C ) :   1.0408 B(  1-C ,  7-H ) :   0.1563 B(  1-C ,  8-H ) :   0.1558
B(  1-C ,  9-H ) :   0.1296 B(  3-H ,  4-C ) :   0.1043 B(  4-C ,  5-O ) :   1.7802
B(  4-C ,  6-F ) :   0.6579

Dispersion correction           -0.000090414
FINAL SINGLE POINT ENERGY      -292.066210457604

DIPOLE MOMENT
-------------
                                X             Y             Z
Electronic contribution:      6.38247      -0.99477      -4.75106
Nuclear contribution   :     -6.76123       0.61881       5.86003
                        -----------------------------------------
Total Dipole Moment    :     -0.37876      -0.37597       1.10897
                        -----------------------------------------
Magnitude (a.u.)       :      1.23070
Magnitude (Debye)      :      3.12819

Rotational constants in cm-1:     0.275298     0.134631     0.105723
Rotational constants in MHz :  8253.224169  4036.137572  3169.487264

                             ****ORCA TERMINATED NORMALLY****
TOTAL RUN TIME: 0 days 0 hours 0 minutes 18 seconds 789 msec
