                         Program Version 5.0.0 -  RELEASE  -
|  1> !M062X D3Zero RIJCOSX def2-SVPD def2/J TightSCF
|  2> *xyz 0 1
|  3> C          3.90595        2.81985       -3.75292
|  4> N          5.29562        3.13151       -4.10533
|  5> C          3.80351        1.37472       -3.26081
|  6> C          5.70862        3.46889       -5.32419
|  7> C          6.90470        3.03895       -5.71708
|  8> N          4.98188        4.29357       -6.09746
|  9> H          5.00055        4.10131       -7.08776
| 10> H          4.08469        4.59690       -5.73965
| 11> H          5.96336        2.52611       -3.64239
| 12> H          7.04716        2.06686       -5.47360
| 13> H          7.19815        3.30799       -6.64523
| 14> H          3.28202        2.94919       -4.64026
| 15> H          3.56525        3.51457       -2.98252
| 16> H          4.14157        0.71142       -4.02935
| 17> H          2.78528        1.15146       -3.01944
| 18> H          4.41205        1.25066       -2.38949
| 19> *
| 20>
| 21> %MaxCore 64000
| 22>
| 23> %pal nprocs 4
| 24> end
| 25>
| 26> %scf
| 27>   MaxIter 150
| 28> end
| 29>
| 30>
| 31>                          ****END OF INPUT****

CARTESIAN COORDINATES (ANGSTROEM)
---------------------------------
  C      3.905950    2.819850   -3.752920
  N      5.295620    3.131510   -4.105330
  C      3.803510    1.374720   -3.260810
  C      5.708620    3.468890   -5.324190
  C      6.904700    3.038950   -5.717080
  N      4.981880    4.293570   -6.097460
  H      5.000550    4.101310   -7.087760
  H      4.084690    4.596900   -5.739650
  H      5.963360    2.526110   -3.642390
  H      7.047160    2.066860   -5.473600
  H      7.198150    3.307990   -6.645230
  H      3.282020    2.949190   -4.640260
  H      3.565250    3.514570   -2.982520
  H      4.141570    0.711420   -4.029350
  H      2.785280    1.151460   -3.019440
  H      4.412050    1.250660   -2.389490

 Total Charge           Charge          ....    0
 Multiplicity           Mult            ....    1
 Number of Electrons    NEL             ....   48
 Basis Dimension        Dim             ....  200

ORBITAL ENERGIES
----------------

  NO   OCC          E(Eh)            E(eV)
   0   2.0000     -14.765594      -401.7922
   1   2.0000     -14.763677      -401.7401
   2   2.0000     -10.600728      -288.4605
   3   2.0000     -10.592523      -288.2372
   4   2.0000     -10.551087      -287.1097
   5   2.0000     -10.463856      -284.7360
   6   2.0000      -1.071568       -29.1588
   7   2.0000      -0.982467       -26.7343
   8   2.0000      -0.863958       -23.5095
   9   2.0000      -0.793242       -21.5852
  10   2.0000      -0.710884       -19.3441
  11   2.0000      -0.675353       -18.3773
  12   2.0000      -0.608988       -16.5714
  13   2.0000      -0.567497       -15.4424
  14   2.0000      -0.557550       -15.1717
  15   2.0000      -0.521873       -14.2009
  16   2.0000      -0.491759       -13.3814
  17   2.0000      -0.470421       -12.8008
  18   2.0000      -0.446071       -12.1382
  19   2.0000      -0.438640       -11.9360
  20   2.0000      -0.435310       -11.8454
  21   2.0000      -0.404745       -11.0137
  22   2.0000      -0.324965        -8.8427
  23   2.0000      -0.226799        -6.1715
  24   0.0000       0.030095         0.8189
  25   0.0000       0.051772         1.4088
  26   0.0000       0.066448         1.8081
  27   0.0000       0.076774         2.0891
  28   0.0000       0.093940         2.5562

MULLIKEN ATOMIC CHARGES
-----------------------
   0 C :    0.284216
   1 N :   -0.481252
   2 C :    0.650028
   3 C :    0.345100
   4 C :    0.476298
   5 N :   -0.029868
   6 H :   -0.021602
   7 H :   -0.077684
   8 H :   -0.070244
   9 H :   -0.244822
  10 H :   -0.314087
  11 H :   -0.079430
  12 H :   -0.281608
  13 H :   -0.054603
  14 H :   -0.090107
  15 H :   -0.010337
Sum of atomic charges:   -0.0000000

LOEWDIN ATOMIC CHARGES
----------------------
   0 C :    0.010541
   1 N :   -0.021665
   2 C :    0.133100
   3 C :   -0.243843
   4 C :    0.147759
   5 N :    0.193281
   6 H :    0.006311
   7 H :   -0.017911
   8 H :    0.018974
   9 H :   -0.102644
  10 H :   -0.104170
  11 H :    0.010803
  12 H :    0.013414
  13 H :   -0.011465
  14 H :   -0.016825
  15 H :   -0.015658

  Mayer bond orders larger than 0.100000
B(  0-C ,  1-N ) :   0.8611 B(  0-C ,  2-C ) :   1.2914 B(  0-C , 11-H ) :   0.8135
B(  0-C , 12-H ) :   0.9300 B(  0-C , 13-H ) :   0.2361 B(  0-C , 14-H ) :   0.2357
B(  0-C , 15-H ) :   0.1518 B(  1-N ,  3-C ) :   1.0894 B(  1-N ,  4-C ) :   0.2151
B(  1-N ,  8-H ) :   1.0923 B(  1-N , 11-H ) :   0.1237 B(  1-N , 12-H ) :   0.1605
B(  2-C , 13-H ) :   0.8084 B(  2-C , 14-H ) :   0.8264 B(  2-C , 15-H ) :   0.8223
B(  3-C ,  4-C ) :   1.8510 B(  3-C ,  5-N ) :   0.8734 B(  3-C ,  8-H ) :  -0.1392
B(  3-C ,  9-H ) :   0.2180 B(  3-C , 10-H ) :   0.3519 B(  4-C ,  5-N ) :   0.2159
B(  4-C ,  9-H ) :   0.8646 B(  4-C , 10-H ) :   0.5445 B(  5-N ,  6-H ) :   1.1033
B(  5-N ,  7-H ) :   0.9397 B(  6-H ,  7-H ) :  -0.1192 B(  9-H , 10-H ) :   0.1427

Dispersion correction           -0.000307957
FINAL SINGLE POINT ENERGY      -267.580990066797

DIPOLE MOMENT
-------------
                                X             Y             Z
Electronic contribution:      1.53255       3.22681      -1.27137
Nuclear contribution   :     -2.93222      -3.63618       1.36440
                        -----------------------------------------
Total Dipole Moment    :     -1.39967      -0.40937       0.09303
                        -----------------------------------------
Magnitude (a.u.)       :      1.46127
Magnitude (Debye)      :      3.71426

Rotational constants in cm-1:     0.237993     0.072843     0.061284
Rotational constants in MHz :  7134.860770  2183.763760  1837.240960

                             ****ORCA TERMINATED NORMALLY****
TOTAL RUN TIME: 0 days 0 hours 0 minutes 34 seconds 365 msec
