                         Program Version 5.0.0 -  RELEASE  -
|  1> !M062X D3Zero RIJCOSX def2-SVPD def2/J TightSCF
|  2> *xyz 0 1
|  3> C          3.90595        2.81985       -3.75292
|  4> N          5.29562        3.13151       -4.10533
|  5> C          3.80351        1.37472       -3.26081
|  6> C          5.70862        3.46889       -5.32419
|  7> N          6.90470        3.03895       -5.71708
|  8> C          4.98188        4.29357       -6.09746
|  9> H          5.00055        4.10131       -7.08776
| 10> H          4.08469        4.59690       -5.73965
| 11> H          5.96336        2.52611       -3.64239
| 12> H          7.04716        2.06686       -5.47360
| 13> H          7.19815        3.30799       -6.64523
| 14> H          3.28202        2.94919       -4.64026
| 15> H          3.56525        3.51457       -2.98252
| 16> H          4.14157        0.71142       -4.02935
| 17> H          2.78528        1.15146       -3.01944
| 18> H          4.41205        1.25066       -2.38949
| 19> *
| 20>
| 21> %MaxCore 64000
| 22>
| 23> %pal nprocs 4
| 24> end
| 25>
| 26> %scf
| 27>   MaxIter 150
| 28> end
| 29>
| 30>
| 31>                          ****END OF INPUT****

CARTESIAN COORDINATES (ANGSTROEM)
---------------------------------
  C      3.905950    2.819850   -3.752920
  N      5.295620    3.131510   -4.105330
  C      3.803510    1.374720   -3.260810
  C      5.708620    3.468890   -5.324190
  N      6.904700    3.038950   -5.717080
  C      4.981880    4.293570   -6.097460
  H      5.000550    4.101310   -7.087760
  H      4.084690    4.596900   -5.739650
  H      5.963360    2.526110   -3.642390
  H      7.047160    2.066860   -5.473600
  H      7.198150    3.307990   -6.645230
  H      3.282020    2.949190   -4.640260
  H      3.565250    3.514570   -2.982520
  H      4.141570    0.711420   -4.029350
  H      2.785280    1.151460   -3.019440
  H      4.412050    1.250660   -2.389490

 Total Charge           Charge          ....    0
 Multiplicity           Mult            ....    1
 Number of Electrons    NEL             ....   48
 Basis Dimension        Dim             ....  200

ORBITAL ENERGIES
----------------

  NO   OCC          E(Eh)            E(eV)
   0   2.0000     -14.765924      -401.8012
   1   2.0000     -14.764567      -401.7643
   2   2.0000     -10.599767      -288.4343
   3   2.0000     -10.586692      -288.0785
   4   2.0000     -10.548962      -287.0518
   5   2.0000     -10.469761      -284.8967
   6   2.0000      -1.076735       -29.2994
   7   2.0000      -0.984619       -26.7928
   8   2.0000      -0.852020       -23.1846
   9   2.0000      -0.795236       -21.6395
  10   2.0000      -0.725255       -19.7352
  11   2.0000      -0.644101       -17.5269
  12   2.0000      -0.612284       -16.6611
  13   2.0000      -0.591123       -16.0853
  14   2.0000      -0.545178       -14.8350
  15   2.0000      -0.526894       -14.3375
  16   2.0000      -0.475361       -12.9352
  17   2.0000      -0.467928       -12.7330
  18   2.0000      -0.459345       -12.4994
  19   2.0000      -0.438644       -11.9361
  20   2.0000      -0.427113       -11.6223
  21   2.0000      -0.406184       -11.0528
  22   2.0000      -0.322652        -8.7798
  23   2.0000      -0.229936        -6.2569
  24   0.0000       0.030727         0.8361
  25   0.0000       0.057705         1.5702
  26   0.0000       0.065465         1.7814
  27   0.0000       0.080954         2.2029
  28   0.0000       0.088718         2.4141

MULLIKEN ATOMIC CHARGES
-----------------------
   0 C :    0.312448
   1 N :   -0.364851
   2 C :    0.680202
   3 C :    0.197878
   4 N :   -0.066843
   5 C :    0.445850
   6 H :   -0.413853
   7 H :   -0.077158
   8 H :   -0.198996
   9 H :   -0.016802
  10 H :    0.027257
  11 H :   -0.042171
  12 H :   -0.309031
  13 H :   -0.065712
  14 H :   -0.069390
  15 H :   -0.038827
Sum of atomic charges:    0.0000000

LOEWDIN ATOMIC CHARGES
----------------------
   0 C :    0.022035
   1 N :   -0.020305
   2 C :    0.130266
   3 C :   -0.255553
   4 N :    0.180124
   5 C :    0.166654
   6 H :   -0.104065
   7 H :   -0.109815
   8 H :    0.009226
   9 H :   -0.006647
  10 H :    0.004894
  11 H :    0.015712
  12 H :    0.018136
  13 H :   -0.015654
  14 H :   -0.015958
  15 H :   -0.019050

  Mayer bond orders larger than 0.100000
B(  0-C ,  1-N ) :   0.9004 B(  0-C ,  2-C ) :   1.2604 B(  0-C , 11-H ) :   0.8505
B(  0-C , 12-H ) :   0.9314 B(  0-C , 13-H ) :   0.2091 B(  0-C , 14-H ) :   0.2386
B(  0-C , 15-H ) :   0.1599 B(  1-N ,  3-C ) :   1.0810 B(  1-N ,  4-N ) :   0.1626
B(  1-N ,  5-C ) :   0.1941 B(  1-N ,  8-H ) :   1.0606 B(  1-N , 11-H ) :   0.1226
B(  1-N , 12-H ) :   0.1555 B(  2-C , 13-H ) :   0.8292 B(  2-C , 14-H ) :   0.8096
B(  2-C , 15-H ) :   0.8161 B(  3-C ,  4-N ) :   0.9791 B(  3-C ,  5-C ) :   1.9594
B(  3-C ,  6-H ) :   0.2054 B(  3-C ,  7-H ) :   0.3116 B(  3-C ,  8-H ) :  -0.1059
B(  4-N ,  5-C ) :   0.1155 B(  4-N ,  9-H ) :   0.9562 B(  4-N , 10-H ) :   0.9665
B(  5-C ,  6-H ) :   0.8541 B(  5-C ,  7-H ) :   0.4956 B(  6-H ,  7-H ) :   0.2442

Dispersion correction           -0.000310601
FINAL SINGLE POINT ENERGY      -267.585584917477

DIPOLE MOMENT
-------------
                                X             Y             Z
Electronic contribution:      3.37153       2.07288      -0.98840
Nuclear contribution   :     -3.34013      -3.37002       1.28371
                        -----------------------------------------
Total Dipole Moment    :      0.03139      -1.29713       0.29531
                        -----------------------------------------
Magnitude (a.u.)       :      1.33069
Magnitude (Debye)      :      3.38236

Rotational constants in cm-1:     0.239537     0.072280     0.060961
Rotational constants in MHz :  7181.153552  2166.902802  1827.551447

                             ****ORCA TERMINATED NORMALLY****
TOTAL RUN TIME: 0 days 0 hours 0 minutes 31 seconds 125 msec
