                         Program Version 5.0.0 -  RELEASE  -
|  1> !M062X D3Zero RIJCOSX def2-SVPD def2/J TightSCF xyzfile
|  2>
|  3> *xyzfile 0 1 D1.xyz
|  4>
|  5> %MaxCore 64000
|  6>
|  7> %pal nprocs 4
|  8> end
|  9>
| 10> %scf
| 11>   MaxIter 150
| 12> end
| 13>
| 14>
| 15>                          ****END OF INPUT****

CARTESIAN COORDINATES (ANGSTROEM)
---------------------------------
  C      3.905947    2.819855   -3.752920
  C      5.295615    3.131515   -4.105334
  C      3.803511    1.374716   -3.260807
  C      3.939934    0.320362   -4.367729
  H      4.105043   -0.655085   -3.907733
  H      3.022801    0.280517   -4.957117
  C      5.105846    0.668022   -5.305463
  C      5.708619    3.468885   -5.324190
  N      6.904696    3.038954   -5.717084
  N      4.981884    4.293570   -6.097457
  H      5.000546    4.101311   -7.087761
  H      4.084693    4.596899   -5.739652
  H      5.963358    2.526112   -3.642391
  H      7.047164    2.066861   -5.473604
  H      7.198145    3.307994   -6.645225
  H      3.282025    2.949187   -4.640259
  H      3.565254    3.514574   -2.982523
  H      4.574833    1.215157   -2.500443
  H      2.843514    1.260845   -2.751465
  F      4.809132    1.150187   -6.414361
  O      6.267366    0.564999   -4.819481

 Total Charge           Charge          ....    0
 Multiplicity           Mult            ....    1
 Number of Electrons    NEL             ....   78
 Basis Dimension        Dim             ....  294

ORBITAL ENERGIES
----------------

  NO   OCC          E(Eh)            E(eV)
   0   2.0000     -25.340444      -689.5485
   1   2.0000     -19.652251      -534.7649
   2   2.0000     -14.765655      -401.7939
   3   2.0000     -14.744627      -401.2217
   4   2.0000     -10.747909      -292.4655
   5   2.0000     -10.594917      -288.3024
   6   2.0000     -10.580832      -287.9191
   7   2.0000     -10.559706      -287.3442
   8   2.0000     -10.541442      -286.8472
   9   2.0000     -10.478539      -285.1355
  10   2.0000      -1.460877       -39.7525
  11   2.0000      -1.150620       -31.3100
  12   2.0000      -1.060908       -28.8688
  13   2.0000      -0.963330       -26.2135
  14   2.0000      -0.912140       -24.8206
  15   2.0000      -0.842649       -22.9296
  16   2.0000      -0.787267       -21.4226
  17   2.0000      -0.752507       -20.4768
  18   2.0000      -0.693108       -18.8604
  19   2.0000      -0.662778       -18.0351
  20   2.0000      -0.652390       -17.7524
  21   2.0000      -0.636446       -17.3186
  22   2.0000      -0.614267       -16.7151
  23   2.0000      -0.596951       -16.2439
  24   2.0000      -0.577835       -15.7237
  25   2.0000      -0.541247       -14.7281
  26   2.0000      -0.531985       -14.4761
  27   2.0000      -0.515787       -14.0353
  28   2.0000      -0.501330       -13.6419
  29   2.0000      -0.474441       -12.9102
  30   2.0000      -0.457529       -12.4500
  31   2.0000      -0.435881       -11.8609
  32   2.0000      -0.432838       -11.7781
  33   2.0000      -0.412457       -11.2235
  34   2.0000      -0.399342       -10.8666
  35   2.0000      -0.386259       -10.5106
  36   2.0000      -0.374922       -10.2021
  37   2.0000      -0.331133        -9.0106
  38   2.0000      -0.223747        -6.0885
  39   0.0000       0.002901         0.0789
  40   0.0000       0.026875         0.7313
  41   0.0000       0.048804         1.3280
  42   0.0000       0.056687         1.5425
  43   0.0000       0.068570         1.8659

MULLIKEN ATOMIC CHARGES
-----------------------
   0 C :    0.360790
   1 C :    0.096089
   2 C :    0.208892
   3 C :    0.266708
   4 H :   -0.071255
   5 H :    0.011935
   6 C :    0.871194
   7 C :    0.138555
   8 N :    0.209086
   9 N :   -0.045365
  10 H :   -0.035713
  11 H :    0.015461
  12 H :   -0.284813
  13 H :   -0.111302
  14 H :   -0.030183
  15 H :   -0.172782
  16 H :   -0.239487
  17 H :    0.058848
  18 H :   -0.183364
  19 F :   -0.423322
  20 O :   -0.639973
Sum of atomic charges:   -0.0000000

LOEWDIN ATOMIC CHARGES
----------------------
   0 C :   -0.048042
   1 C :   -0.007760
   2 C :   -0.013440
   3 C :    0.068689
   4 H :    0.037879
   5 H :    0.026641
   6 C :    0.028586
   7 C :   -0.247815
   8 N :    0.213411
   9 N :    0.199812
  10 H :   -0.007758
  11 H :   -0.005263
  12 H :   -0.055389
  13 H :   -0.070948
  14 H :   -0.000028
  15 H :    0.007881
  16 H :    0.012305
  17 H :    0.034363
  18 H :    0.022065
  19 F :   -0.033820
  20 O :   -0.161371

  Mayer bond orders larger than 0.100000
B(  0-C ,  1-C ) :   1.0006 B(  0-C ,  2-C ) :   1.1970 B(  0-C , 12-H ) :   0.2093
B(  0-C , 15-H ) :   0.7782 B(  0-C , 16-H ) :   0.8511 B(  0-C , 18-H ) :   0.2103
B(  1-C ,  2-C ) :   0.1248 B(  1-C ,  7-C ) :   1.8306 B(  1-C ,  8-N ) :   0.3252
B(  1-C ,  9-N ) :   0.1392 B(  1-C , 12-H ) :   0.3584 B(  1-C , 15-H ) :   0.1130
B(  1-C , 16-H ) :   0.1558 B(  2-C ,  3-C ) :   1.1962 B(  2-C ,  4-H ) :   0.1687
B(  2-C ,  5-H ) :   0.1176 B(  2-C , 17-H ) :   0.8280 B(  2-C , 18-H ) :   0.8920
B(  3-C ,  4-H ) :   0.8307 B(  3-C ,  5-H ) :   0.8751 B(  3-C ,  6-C ) :   1.0912
B(  4-H ,  6-C ) :   0.1134 B(  5-H ,  6-C ) :   0.1187 B(  6-C , 19-F ) :   0.5818
B(  6-C , 20-O ) :   1.5794 B(  7-C ,  8-N ) :   0.8665 B(  7-C ,  9-N ) :   0.9184
B(  7-C , 12-H ) :   0.3362 B(  7-C , 14-H ) :   0.1894 B(  8-N ,  9-N ) :   0.1187
B(  8-N , 13-H ) :   0.9140 B(  8-N , 14-H ) :   0.8291 B(  9-N , 10-H ) :   1.0564
B(  9-N , 11-H ) :   0.9698 B( 10-H , 11-H ) :  -0.1134 B( 13-H , 20-O ) :   0.1169
B( 15-H , 16-H ) :  -0.1405 B( 17-H , 18-H ) :  -0.1239

Dispersion correction           -0.000700714
FINAL SINGLE POINT ENERGY      -519.209655841541

DIPOLE MOMENT
-------------
                                X             Y             Z
Electronic contribution:      3.37485      -3.65297      -6.43703
Nuclear contribution   :     -4.60158       3.22721       5.56005
                        -----------------------------------------
Total Dipole Moment    :     -1.22673      -0.42576      -0.87697
                        -----------------------------------------
Magnitude (a.u.)       :      1.56692
Magnitude (Debye)      :      3.98278

Rotational constants in cm-1:     0.061224     0.042534     0.033552
Rotational constants in MHz :  1835.464095  1275.135177  1005.856966

                             ****ORCA TERMINATED NORMALLY****
TOTAL RUN TIME: 0 days 0 hours 1 minutes 18 seconds 771 msec
