                         Program Version 5.0.0 -  RELEASE  -
|  1> !M062X D3Zero RIJCOSX def2-SVPD def2/J TightSCF xyzfile
|  2>
|  3> *xyzfile 0 1 D6.xyz
|  4>
|  5> %MaxCore 64000
|  6>
|  7> %pal nprocs 4
|  8> end
|  9>
| 10> %scf
| 11>   MaxIter 150
| 12> end
| 13>
| 14>
| 15>                          ****END OF INPUT****

CARTESIAN COORDINATES (ANGSTROEM)
---------------------------------
  C      3.905947    2.819855   -3.752920
  N      5.295615    3.131515   -4.105334
  C      3.803511    1.374716   -3.260807
  C      3.939934    0.320362   -4.367729
  H      4.105043   -0.655085   -3.907733
  H      3.022801    0.280517   -4.957117
  C      5.105846    0.668022   -5.305463
  C      5.708619    3.468885   -5.324190
  N      6.904696    3.038954   -5.717084
  C      4.981884    4.293570   -6.097457
  H      5.000546    4.101311   -7.087761
  H      4.084693    4.596899   -5.739652
  H      5.963358    2.526112   -3.642391
  H      7.047164    2.066861   -5.473604
  H      7.198145    3.307994   -6.645225
  H      3.282025    2.949187   -4.640259
  H      3.565254    3.514574   -2.982523
  H      4.574833    1.215157   -2.500443
  H      2.843514    1.260845   -2.751465
  O      4.809132    1.150187   -6.414361
  F      6.267366    0.564999   -4.819481

 Total Charge           Charge          ....    0
 Multiplicity           Mult            ....    1
 Number of Electrons    NEL             ....   78
 Basis Dimension        Dim             ....  294

ORBITAL ENERGIES
----------------

  NO   OCC          E(Eh)            E(eV)
   0   2.0000     -25.351064      -689.8375
   1   2.0000     -19.663046      -535.0587
   2   2.0000     -14.771384      -401.9498
   3   2.0000     -14.750767      -401.3888
   4   2.0000     -10.749805      -292.5171
   5   2.0000     -10.596365      -288.3417
   6   2.0000     -10.594684      -288.2960
   7   2.0000     -10.593705      -288.2694
   8   2.0000     -10.584210      -288.0110
   9   2.0000     -10.463591      -284.7288
  10   2.0000      -1.467050       -39.9205
  11   2.0000      -1.164321       -31.6828
  12   2.0000      -1.076601       -29.2958
  13   2.0000      -0.985753       -26.8237
  14   2.0000      -0.910608       -24.7789
  15   2.0000      -0.828902       -22.5556
  16   2.0000      -0.791010       -21.5245
  17   2.0000      -0.774959       -21.0877
  18   2.0000      -0.718882       -19.5618
  19   2.0000      -0.673456       -18.3257
  20   2.0000      -0.665005       -18.0957
  21   2.0000      -0.645372       -17.5615
  22   2.0000      -0.604583       -16.4515
  23   2.0000      -0.590856       -16.0780
  24   2.0000      -0.578658       -15.7461
  25   2.0000      -0.559268       -15.2184
  26   2.0000      -0.553752       -15.0684
  27   2.0000      -0.506796       -13.7906
  28   2.0000      -0.499621       -13.5954
  29   2.0000      -0.474090       -12.9006
  30   2.0000      -0.464378       -12.6364
  31   2.0000      -0.458494       -12.4763
  32   2.0000      -0.448582       -12.2065
  33   2.0000      -0.433346       -11.7920
  34   2.0000      -0.425847       -11.5879
  35   2.0000      -0.401066       -10.9136
  36   2.0000      -0.376435       -10.2433
  37   2.0000      -0.321496        -8.7483
  38   2.0000      -0.224885        -6.1194
  39   0.0000       0.001405         0.0382
  40   0.0000       0.021804         0.5933
  41   0.0000       0.048537         1.3208
  42   0.0000       0.053844         1.4652
  43   0.0000       0.060848         1.6558

MULLIKEN ATOMIC CHARGES
-----------------------
   0 C :    0.803542
   1 N :   -0.283797
   2 C :    0.150960
   3 C :    0.288303
   4 H :   -0.073284
   5 H :    0.036156
   6 C :    0.699536
   7 C :    0.123153
   8 N :    0.108630
   9 C :    0.449705
  10 H :   -0.402949
  11 H :   -0.156220
  12 H :   -0.209953
  13 H :   -0.157796
  14 H :    0.077899
  15 H :    0.033672
  16 H :   -0.428902
  17 H :    0.011016
  18 H :   -0.157130
  19 O :   -0.448469
  20 F :   -0.464073
Sum of atomic charges:   -0.0000000

LOEWDIN ATOMIC CHARGES
----------------------
   0 C :    0.076408
   1 N :   -0.000464
   2 C :   -0.009599
   3 C :    0.069255
   4 H :    0.031631
   5 H :    0.040050
   6 C :    0.005189
   7 C :   -0.269479
   8 N :    0.210439
   9 C :    0.174269
  10 H :   -0.093941
  11 H :   -0.107656
  12 H :    0.004547
  13 H :   -0.059772
  14 H :    0.016684
  15 H :    0.026467
  16 H :    0.021702
  17 H :    0.025359
  18 H :    0.027440
  19 O :   -0.120240
  20 F :   -0.068291

  Mayer bond orders larger than 0.100000
B(  0-C ,  1-N ) :   0.8776 B(  0-C ,  2-C ) :   1.1173 B(  0-C , 15-H ) :   0.7418
B(  0-C , 16-H ) :   0.9408 B(  0-C , 18-H ) :   0.1764 B(  1-N ,  2-C ) :   0.1571
B(  1-N ,  7-C ) :   1.1869 B(  1-N ,  9-C ) :   0.2054 B(  1-N , 12-H ) :   0.9863
B(  1-N , 15-H ) :   0.1494 B(  2-C ,  3-C ) :   1.1783 B(  2-C ,  4-H ) :   0.1728
B(  2-C ,  5-H ) :   0.1070 B(  2-C , 17-H ) :   0.8301 B(  2-C , 18-H ) :   0.9451
B(  3-C ,  4-H ) :   0.8321 B(  3-C ,  5-H ) :   0.8417 B(  3-C ,  6-C ) :   1.0948
B(  4-H ,  6-C ) :   0.1042 B(  5-H ,  6-C ) :   0.2178 B(  6-C , 19-O ) :   1.7753
B(  6-C , 20-F ) :   0.5142 B(  7-C ,  8-N ) :   0.9712 B(  7-C ,  9-C ) :   2.0126
B(  7-C , 10-H ) :   0.2165 B(  7-C , 11-H ) :   0.3482 B(  7-C , 12-H ) :  -0.1488
B(  7-C , 13-H ) :   0.1303 B(  7-C , 14-H ) :   0.1069 B(  7-C , 15-H ) :   0.1006
B(  8-N ,  9-C ) :   0.1097 B(  8-N , 13-H ) :   0.8576 B(  8-N , 14-H ) :   0.8898
B(  9-C , 10-H ) :   0.8370 B(  9-C , 11-H ) :   0.5224 B( 10-H , 11-H ) :   0.1184
B( 12-H , 13-H ) :   0.1005 B( 15-H , 16-H ) :  -0.1581 B( 17-H , 18-H ) :  -0.1065

Dispersion correction           -0.000688392
FINAL SINGLE POINT ENERGY      -519.197726500843

DIPOLE MOMENT
-------------
                                X             Y             Z
Electronic contribution:      5.93110      -5.68083      -2.32275
Nuclear contribution   :     -6.29470       4.03423       3.50525
                        -----------------------------------------
Total Dipole Moment    :     -0.36360      -1.64660       1.18250
                        -----------------------------------------
Magnitude (a.u.)       :      2.05956
Magnitude (Debye)      :      5.23499

Rotational constants in cm-1:     0.061094     0.043661     0.033867
Rotational constants in MHz :  1831.559881  1308.929520  1015.295167

                             ****ORCA TERMINATED NORMALLY****
TOTAL RUN TIME: 0 days 0 hours 1 minutes 17 seconds 613 msec
