                         Program Version 5.0.0 -  RELEASE  -
|  1> !PBE D3BJ RIJCOSX def2-TZVP def2/J TightSCF
|  2> *xyz -1 1
|  3> C         -0.77894        0.17197        1.80496
|  4> C         -0.60249       -0.63071        0.49224
|  5> H          0.31389       -1.24035        0.60350
|  6> H         -0.36383        0.11332       -0.30117
|  7> O         -1.71206       -1.37684        0.20253
|  8> H         -1.65864        0.77733        1.73736
|  9> H          0.07466        0.79896        1.95712
| 10> H         -0.87474       -0.50584        2.62734
| 11> *
| 12> %MaxCore 64000
| 13>
| 14> %pal nprocs 4
| 15> end
| 16>
| 17> %scf
| 18>   MaxIter 150
| 19> end
| 20>
| 21>
| 22>                          ****END OF INPUT****

CARTESIAN COORDINATES (ANGSTROEM)
---------------------------------
  C     -0.778940    0.171970    1.804960
  C     -0.602490   -0.630710    0.492240
  H      0.313890   -1.240350    0.603500
  H     -0.363830    0.113320   -0.301170
  O     -1.712060   -1.376840    0.202530
  H     -1.658640    0.777330    1.737360
  H      0.074660    0.798960    1.957120
  H     -0.874740   -0.505840    2.627340

 Total Charge           Charge          ....   -1
 Multiplicity           Mult            ....    1
 Number of Electrons    NEL             ....   26
 Basis Dimension        Dim             ....  123

ORBITAL ENERGIES
----------------

  NO   OCC          E(Eh)            E(eV)
   0   2.0000     -18.404466      -500.8110
   1   2.0000      -9.684365      -263.5250
   2   2.0000      -9.662272      -262.9238
   3   2.0000      -0.587455       -15.9855
   4   2.0000      -0.446591       -12.1524
   5   2.0000      -0.305152        -8.3036
   6   2.0000      -0.193426        -5.2634
   7   2.0000      -0.171708        -4.6724
   8   2.0000      -0.120331        -3.2744
   9   2.0000      -0.105359        -2.8670
  10   2.0000      -0.059331        -1.6145
  11   2.0000       0.082713         2.2507
  12   2.0000       0.085352         2.3226
  13   0.0000       0.199839         5.4379
  14   0.0000       0.234229         6.3737
  15   0.0000       0.257355         7.0030
  16   0.0000       0.262726         7.1491
  17   0.0000       0.293514         7.9869

MULLIKEN ATOMIC CHARGES
-----------------------
   0 C :   -0.097233
   1 C :   -0.000659
   2 H :   -0.074278
   3 H :   -0.077569
   4 O :   -0.705736
   5 H :    0.009694
   6 H :   -0.064281
   7 H :    0.010062
Sum of atomic charges:   -1.0000000

LOEWDIN ATOMIC CHARGES
----------------------
   0 C :   -0.374246
   1 C :   -0.566535
   2 H :    0.049011
   3 H :    0.047646
   4 O :   -0.385237
   5 H :    0.082740
   6 H :    0.064363
   7 H :    0.082258

  Mayer bond orders larger than 0.100000
B(  0-C ,  1-C ) :   0.8776 B(  0-C ,  4-O ) :  -0.3474 B(  0-C ,  5-H ) :   0.9486
B(  0-C ,  6-H ) :   0.8826 B(  0-C ,  7-H ) :   0.9524 B(  1-C ,  2-H ) :   0.8963
B(  1-C ,  3-H ) :   0.8975 B(  1-C ,  4-O ) :   1.6914 B(  4-O ,  6-H ) :   0.1502

Dispersion correction           -0.003762079
FINAL SINGLE POINT ENERGY      -154.290256696943

DIPOLE MOMENT
-------------
                                X             Y             Z
Electronic contribution:     -1.89811      -2.08586      -1.63542
Nuclear contribution   :      2.47835       2.80827       2.30058
                        -----------------------------------------
Total Dipole Moment    :      0.58024       0.72241       0.66517
                        -----------------------------------------
Magnitude (a.u.)       :      1.14061
Magnitude (Debye)      :      2.89921

Rotational constants in cm-1:     1.255775     0.327783     0.287473
Rotational constants in MHz : 37647.186859  9826.677683  8618.224821

                             ****ORCA TERMINATED NORMALLY****
TOTAL RUN TIME: 0 days 0 hours 0 minutes 7 seconds 861 msec
