                         Program Version 5.0.0 -  RELEASE  -
|  1> !PBE D3BJ RIJCOSX def2-TZVP def2/J TightSCF
|  2> *xyz 1 1
|  3> C         -2.12050        0.88520        1.78951
|  4> C         -0.77894        0.17197        1.80496
|  5> H         -2.32419        1.47265        2.68608
|  6> H         -2.18770        1.54127        0.91948
|  7> N         -3.17690       -0.15948        1.61070
|  8> H         -4.06474        0.23127        1.28675
|  9> H         -3.34407       -0.67151        2.48493
| 10> H         -2.71686       -0.78189        0.93588
| 11> H         -0.65708       -0.37837        0.89547
| 12> H         -0.74207       -0.50050        2.63642
| 13> H          0.00707        0.89251        1.89389
| 14> *
| 15> %MaxCore 64000
| 16>
| 17> %pal nprocs 4
| 18> end
| 19>
| 20> %scf
| 21>   MaxIter 150
| 22> end
| 23>
| 24>
| 25>                          ****END OF INPUT****

CARTESIAN COORDINATES (ANGSTROEM)
---------------------------------
  C     -2.120500    0.885200    1.789510
  C     -0.778940    0.171970    1.804960
  H     -2.324190    1.472650    2.686080
  H     -2.187700    1.541270    0.919480
  N     -3.176900   -0.159480    1.610700
  H     -4.064740    0.231270    1.286750
  H     -3.344070   -0.671510    2.484930
  H     -2.716860   -0.781890    0.935880
  H     -0.657080   -0.378370    0.895470
  H     -0.742070   -0.500500    2.636420
  H      0.007070    0.892510    1.893890

 Total Charge           Charge          ....    1
 Multiplicity           Mult            ....    1
 Number of Electrons    NEL             ....   26
 Basis Dimension        Dim             ....  141

ORBITAL ENERGIES
----------------

  NO   OCC          E(Eh)            E(eV)
   0   2.0000     -14.315585      -389.5469
   1   2.0000     -10.135994      -275.8144
   2   2.0000     -10.060854      -273.7697
   3   2.0000      -1.137627       -30.9564
   4   2.0000      -0.899395       -24.4738
   5   2.0000      -0.785913       -21.3858
   6   2.0000      -0.752257       -20.4700
   7   2.0000      -0.741727       -20.1834
   8   2.0000      -0.645627       -17.5684
   9   2.0000      -0.597317       -16.2538
  10   2.0000      -0.542240       -14.7551
  11   2.0000      -0.535094       -14.5606
  12   2.0000      -0.513818       -13.9817
  13   0.0000      -0.217354        -5.9145
  14   0.0000      -0.159427        -4.3382
  15   0.0000      -0.157993        -4.2992
  16   0.0000      -0.135179        -3.6784
  17   0.0000      -0.104228        -2.8362

MULLIKEN ATOMIC CHARGES
-----------------------
   0 C :   -0.207038
   1 C :   -0.371141
   2 H :    0.195021
   3 H :    0.186700
   4 N :   -0.245684
   5 H :    0.324653
   6 H :    0.318564
   7 H :    0.312153
   8 H :    0.148240
   9 H :    0.155430
  10 H :    0.183103
Sum of atomic charges:    1.0000000

LOEWDIN ATOMIC CHARGES
----------------------
   0 C :   -0.280280
   1 C :   -0.283108
   2 H :    0.152849
   3 H :    0.155300
   4 N :    0.176575
   5 H :    0.217562
   6 H :    0.220035
   7 H :    0.224509
   8 H :    0.131632
   9 H :    0.133919
  10 H :    0.151006

  Mayer bond orders larger than 0.100000
B(  0-C ,  1-C ) :   1.0195 B(  0-C ,  2-H ) :   0.9409 B(  0-C ,  3-H ) :   0.9395
B(  0-C ,  4-N ) :   0.8888 B(  1-C ,  8-H ) :   0.9475 B(  1-C ,  9-H ) :   0.9555
B(  1-C , 10-H ) :   0.9510 B(  4-N ,  5-H ) :   0.8750 B(  4-N ,  6-H ) :   0.8797
B(  4-N ,  7-H ) :   0.8743

Dispersion correction           -0.006241059
FINAL SINGLE POINT ENERGY      -135.396882354459

DIPOLE MOMENT
-------------
                                X             Y             Z
Electronic contribution:     -1.81326      -0.15443      -0.05670
Nuclear contribution   :      0.50278      -0.30871      -0.06979
                        -----------------------------------------
Total Dipole Moment    :     -1.31048      -0.46314      -0.12649
                        -----------------------------------------
Magnitude (a.u.)       :      1.39566
Magnitude (Debye)      :      3.54748

Rotational constants in cm-1:     0.963746     0.295157     0.256910
Rotational constants in MHz : 28892.375247  8848.576767  7701.963879

                             ****ORCA TERMINATED NORMALLY****
TOTAL RUN TIME: 0 days 0 hours 0 minutes 7 seconds 836 msec
