                         Program Version 5.0.0 -  RELEASE  -
|  1> !PBE D3BJ RIJCOSX def2-TZVP def2/J TightSCF
|  2> *xyz 0 1
|  3> C         -0.77894        0.17197        1.80496
|  4> C         -0.60249       -0.63071        0.49224
|  5> H          0.31389       -1.24035        0.60350
|  6> H         -0.36383        0.11332       -0.30117
|  7> F         -1.71206       -1.37684        0.20253
|  8> H         -1.65864        0.77733        1.73736
|  9> H          0.07466        0.79896        1.95712
| 10> H         -0.87474       -0.50584        2.62734
| 11> *
| 12> %MaxCore 64000
| 13>
| 14> %pal nprocs 4
| 15> end
| 16>
| 17> %scf
| 18>   MaxIter 150
| 19> end
| 20>
| 21>
| 22>                          ****END OF INPUT****

CARTESIAN COORDINATES (ANGSTROEM)
---------------------------------
  C     -0.778940    0.171970    1.804960
  C     -0.602490   -0.630710    0.492240
  H      0.313890   -1.240350    0.603500
  H     -0.363830    0.113320   -0.301170
  F     -1.712060   -1.376840    0.202530
  H     -1.658640    0.777330    1.737360
  H      0.074660    0.798960    1.957120
  H     -0.874740   -0.505840    2.627340

 Total Charge           Charge          ....    0
 Multiplicity           Mult            ....    1
 Number of Electrons    NEL             ....   26
 Basis Dimension        Dim             ....  123

ORBITAL ENERGIES
----------------

  NO   OCC          E(Eh)            E(eV)
   0   2.0000     -24.243342      -659.6949
   1   2.0000      -9.955980      -270.9160
   2   2.0000      -9.873774      -268.6790
   3   2.0000      -1.098092       -29.8806
   4   2.0000      -0.690669       -18.7940
   5   2.0000      -0.568336       -15.4652
   6   2.0000      -0.454909       -12.3787
   7   2.0000      -0.438401       -11.9295
   8   2.0000      -0.401208       -10.9174
   9   2.0000      -0.354257        -9.6398
  10   2.0000      -0.352622        -9.5953
  11   2.0000      -0.284712        -7.7474
  12   2.0000      -0.281972        -7.6729
  13   0.0000       0.022998         0.6258
  14   0.0000       0.059169         1.6101
  15   0.0000       0.066688         1.8147
  16   0.0000       0.077312         2.1038
  17   0.0000       0.092420         2.5149

MULLIKEN ATOMIC CHARGES
-----------------------
   0 C :   -0.330048
   1 C :    0.008338
   2 H :    0.089790
   3 H :    0.088938
   4 F :   -0.202410
   5 H :    0.119240
   6 H :    0.108033
   7 H :    0.118118
Sum of atomic charges:   -0.0000000

LOEWDIN ATOMIC CHARGES
----------------------
   0 C :   -0.316587
   1 C :   -0.386251
   2 H :    0.115312
   3 H :    0.116580
   4 F :    0.115821
   5 H :    0.117380
   6 H :    0.121491
   7 H :    0.116255

  Mayer bond orders larger than 0.100000
B(  0-C ,  1-C ) :   1.0048 B(  0-C ,  5-H ) :   0.9654 B(  0-C ,  6-H ) :   0.9509
B(  0-C ,  7-H ) :   0.9667 B(  1-C ,  2-H ) :   0.9579 B(  1-C ,  3-H ) :   0.9590
B(  1-C ,  4-F ) :   1.0415

Dispersion correction           -0.003480356
FINAL SINGLE POINT ENERGY      -178.922866001375

DIPOLE MOMENT
-------------
                                X             Y             Z
Electronic contribution:     -2.78707      -3.32995      -2.84266
Nuclear contribution   :      3.27800       3.70743       3.04146
                        -----------------------------------------
Total Dipole Moment    :      0.49093       0.37748       0.19880
                        -----------------------------------------
Magnitude (a.u.)       :      0.65040
Magnitude (Debye)      :      1.65320

Rotational constants in cm-1:     1.234437     0.305084     0.268865
Rotational constants in MHz : 37007.496448  9146.194083  8060.380630

                             ****ORCA TERMINATED NORMALLY****
TOTAL RUN TIME: 0 days 0 hours 0 minutes 7 seconds 234 msec
