                         Program Version 5.0.0 -  RELEASE  -
|  1> !PBE D3BJ RIJCOSX def2-TZVP def2/J TightSCF
|  2> *xyz 0 1
|  3> C         -2.12050        0.88520        1.78951
|  4> C         -0.77894        0.17197        1.80496
|  5> H         -2.32419        1.47265        2.68608
|  6> H         -2.18770        1.54127        0.91948
|  7> C         -3.17690       -0.15948        1.61070
|  8> H         -4.06474        0.23127        1.28675
|  9> H         -3.34407       -0.67151        2.48493
| 10> H         -2.71686       -0.78189        0.93588
| 11> H         -0.65708       -0.37837        0.89547
| 12> H         -0.74207       -0.50050        2.63642
| 13> H          0.00707        0.89251        1.89389
| 14> *
| 15> %MaxCore 64000
| 16>
| 17> %pal nprocs 4
| 18> end
| 19>
| 20> %scf
| 21>   MaxIter 150
| 22> end
| 23>
| 24>
| 25>                          ****END OF INPUT****

CARTESIAN COORDINATES (ANGSTROEM)
---------------------------------
  C     -2.120500    0.885200    1.789510
  C     -0.778940    0.171970    1.804960
  H     -2.324190    1.472650    2.686080
  H     -2.187700    1.541270    0.919480
  C     -3.176900   -0.159480    1.610700
  H     -4.064740    0.231270    1.286750
  H     -3.344070   -0.671510    2.484930
  H     -2.716860   -0.781890    0.935880
  H     -0.657080   -0.378370    0.895470
  H     -0.742070   -0.500500    2.636420
  H      0.007070    0.892510    1.893890

 Total Charge           Charge          ....    0
 Multiplicity           Mult            ....    1
 Number of Electrons    NEL             ....   26
 Basis Dimension        Dim             ....  141

ORBITAL ENERGIES
----------------

  NO   OCC          E(Eh)            E(eV)
   0   2.0000      -9.867735      -268.5147
   1   2.0000      -9.858157      -268.2541
   2   2.0000      -9.838602      -267.7220
   3   2.0000      -0.722714       -19.6661
   4   2.0000      -0.619050       -16.8452
   5   2.0000      -0.525554       -14.3011
   6   2.0000      -0.421990       -11.4829
   7   2.0000      -0.404621       -11.0103
   8   2.0000      -0.354379        -9.6431
   9   2.0000      -0.339642        -9.2421
  10   2.0000      -0.298325        -8.1178
  11   2.0000      -0.290477        -7.9043
  12   2.0000      -0.285684        -7.7739
  13   0.0000       0.023510         0.6397
  14   0.0000       0.064193         1.7468
  15   0.0000       0.071335         1.9411
  16   0.0000       0.073889         2.0106
  17   0.0000       0.092461         2.5160

MULLIKEN ATOMIC CHARGES
-----------------------
   0 C :   -0.154057
   1 C :   -0.343258
   2 H :    0.088832
   3 H :    0.085138
   4 C :   -0.313338
   5 H :    0.110186
   6 H :    0.106769
   7 H :    0.092779
   8 H :    0.109269
   9 H :    0.107106
  10 H :    0.110573
Sum of atomic charges:    0.0000000

LOEWDIN ATOMIC CHARGES
----------------------
   0 C :   -0.324332
   1 C :   -0.313518
   2 H :    0.128150
   3 H :    0.133387
   4 C :   -0.305615
   5 H :    0.105234
   6 H :    0.108546
   7 H :    0.117567
   8 H :    0.117016
   9 H :    0.118084
  10 H :    0.115479

  Mayer bond orders larger than 0.100000
B(  0-C ,  1-C ) :   1.0104 B(  0-C ,  2-H ) :   0.9582 B(  0-C ,  3-H ) :   0.9580
B(  0-C ,  4-C ) :   0.9955 B(  1-C ,  8-H ) :   0.9695 B(  1-C ,  9-H ) :   0.9714
B(  1-C , 10-H ) :   0.9708 B(  4-C ,  5-H ) :   0.9726 B(  4-C ,  6-H ) :   0.9760
B(  4-C ,  7-H ) :   0.9732

Dispersion correction           -0.006236927
FINAL SINGLE POINT ENERGY      -118.986180389232

DIPOLE MOMENT
-------------
                                X             Y             Z
Electronic contribution:     -0.14510       0.47438       0.11310
Nuclear contribution   :      0.13334      -0.45108      -0.10852
                        -----------------------------------------
Total Dipole Moment    :     -0.01176       0.02330       0.00459
                        -----------------------------------------
Magnitude (a.u.)       :      0.02650
Magnitude (Debye)      :      0.06736

Rotational constants in cm-1:     0.972269     0.310387     0.269029
Rotational constants in MHz : 29147.878530  9305.178981  8065.286472

                             ****ORCA TERMINATED NORMALLY****
TOTAL RUN TIME: 0 days 0 hours 0 minutes 6 seconds 920 msec
