                         Program Version 5.0.0 -  RELEASE  -
|  1> !PBE D3BJ RIJCOSX def2-TZVP def2/J TightSCF xyzfile
|  2>
|  3> *xyzfile 0 1 D.xyz
|  4>
|  5> %MaxCore 64000
|  6>
|  7> %pal nprocs 18
|  8> end
|  9>
| 10> %scf
| 11>   MaxIter 150
| 12> end
| 13>
| 14>
| 15>                          ****END OF INPUT****

CARTESIAN COORDINATES (ANGSTROEM)
---------------------------------
  C     -2.120502    0.885196    1.789506
  C     -0.778939    0.171966    1.804965
  H     -2.324193    1.472649    2.686078
  H     -2.187698    1.541272    0.919482
  C     -3.176900   -0.159484    1.610700
  H      0.015695    0.910767    1.939153
  H     -0.743553   -0.506827    2.665420
  C     -0.602493   -0.630712    0.492240
  H      0.313894   -1.240346    0.603498
  H     -0.363829    0.113322   -0.301169
  F     -1.712061   -1.376836    0.202535
  H     -4.064736    0.231272    1.286754
  H     -3.344073   -0.671511    2.484928
  H     -2.716861   -0.781886    0.935880

 Total Charge           Charge          ....    0
 Multiplicity           Mult            ....    1
 Number of Electrons    NEL             ....   42
 Basis Dimension        Dim             ....  209

ORBITAL ENERGIES
----------------

  NO   OCC          E(Eh)            E(eV)
   0   2.0000     -24.264205      -660.2626
   1   2.0000      -9.964113      -271.1373
   2   2.0000      -9.885144      -268.9885
   3   2.0000      -9.865890      -268.4645
   4   2.0000      -9.804787      -266.8018
   5   2.0000      -1.131443       -30.7881
   6   2.0000      -0.732599       -19.9350
   7   2.0000      -0.665235       -18.1020
   8   2.0000      -0.573787       -15.6135
   9   2.0000      -0.531481       -14.4623
  10   2.0000      -0.473672       -12.8893
  11   2.0000      -0.470411       -12.8005
  12   2.0000      -0.432047       -11.7566
  13   2.0000      -0.391531       -10.6541
  14   2.0000      -0.362131        -9.8541
  15   2.0000      -0.354848        -9.6559
  16   2.0000      -0.334208        -9.0943
  17   2.0000      -0.298686        -8.1277
  18   2.0000      -0.287619        -7.8265
  19   2.0000      -0.281531        -7.6608
  20   2.0000      -0.231997        -6.3129
  21   0.0000       0.016861         0.4588
  22   0.0000       0.044683         1.2159
  23   0.0000       0.049454         1.3457
  24   0.0000       0.060815         1.6549
  25   0.0000       0.075679         2.0593

MULLIKEN ATOMIC CHARGES
-----------------------
   0 C :   -0.149431
   1 C :   -0.206164
   2 H :    0.091333
   3 H :    0.074318
   4 C :   -0.402981
   5 H :    0.107616
   6 H :    0.094163
   7 C :   -0.016219
   8 H :    0.103773
   9 H :    0.089831
  10 F :   -0.138940
  11 H :    0.093812
  12 H :    0.088420
  13 H :    0.170469
Sum of atomic charges:    0.0000000

LOEWDIN ATOMIC CHARGES
----------------------
   0 C :   -0.306299
   1 C :   -0.280227
   2 H :    0.128782
   3 H :    0.136113
   4 C :   -0.323113
   5 H :    0.141499
   6 H :    0.138658
   7 C :   -0.348571
   8 H :    0.123112
   9 H :    0.124905
  10 F :    0.182867
  11 H :    0.100940
  12 H :    0.103482
  13 H :    0.077851

  Mayer bond orders larger than 0.100000
B(  0-C ,  1-C ) :   1.0062 B(  0-C ,  2-H ) :   0.9518 B(  0-C ,  3-H ) :   0.9548
B(  0-C ,  4-C ) :   0.9966 B(  1-C ,  5-H ) :   0.9399 B(  1-C ,  6-H ) :   0.9490
B(  1-C ,  7-C ) :   1.0232 B(  4-C , 11-H ) :   0.9612 B(  4-C , 12-H ) :   0.9684
B(  4-C , 13-H ) :   0.9436 B(  7-C ,  8-H ) :   0.9484 B(  7-C ,  9-H ) :   0.9592
B(  7-C , 10-F ) :   1.0023

Dispersion correction           -0.009946013
FINAL SINGLE POINT ENERGY      -257.407669587836

DIPOLE MOMENT
-------------
                                X             Y             Z
Electronic contribution:      0.85198      -4.23508      -3.75365
Nuclear contribution   :     -0.20666       4.43855       3.76066
                        -----------------------------------------
Total Dipole Moment    :      0.64532       0.20347       0.00701
                        -----------------------------------------
Magnitude (a.u.)       :      0.67667
Magnitude (Debye)      :      1.71997

Rotational constants in cm-1:     0.236353     0.155239     0.105045
Rotational constants in MHz :  7085.692869  4653.957069  3149.180346

                             ****ORCA TERMINATED NORMALLY****
TOTAL RUN TIME: 0 days 0 hours 0 minutes 4 seconds 283 msec
