                         Program Version 5.0.0 -  RELEASE  -
|  1> !LC-BLYP RIJCOSX def2-TZVPD def2/J TightSCF
|  2> *xyz -1 1
|  3> C          4.93020       -7.37532       -2.64962
|  4> C          3.84189       -6.95161       -3.63283
|  5> H          3.45814       -5.95442       -3.40712
|  6> H          2.98848       -7.64361       -3.56708
|  7> S          4.31812       -6.91593       -5.36869
|  8> O          5.40615       -5.89948       -5.51297
|  9> O          3.11191       -6.44508       -6.04379
| 10> O          4.76340       -8.23942       -5.69863
| 11> H          5.27901       -8.35440       -2.90385
| 12> H          4.53000       -7.38577       -1.65734
| 13> H          5.74437       -6.68276       -2.69856
| 14> *
| 15>
| 16> %MaxCore 64000
| 17>
| 18> %pal nprocs 4
| 19> end
| 20>
| 21> %scf
| 22>   MaxIter 150
| 23> end
| 24>
| 25>
| 26>                          ****END OF INPUT****

CARTESIAN COORDINATES (ANGSTROEM)
---------------------------------
  C      4.930200   -7.375320   -2.649620
  C      3.841890   -6.951610   -3.632830
  H      3.458140   -5.954420   -3.407120
  H      2.988480   -7.643610   -3.567080
  S      4.318120   -6.915930   -5.368690
  O      5.406150   -5.899480   -5.512970
  O      3.111910   -6.445080   -6.043790
  O      4.763400   -8.239420   -5.698630
  H      5.279010   -8.354400   -2.903850
  H      4.530000   -7.385770   -1.657340
  H      5.744370   -6.682760   -2.698560

 Total Charge           Charge          ....   -1
 Multiplicity           Mult            ....    1
 Number of Electrons    NEL             ....   58
 Basis Dimension        Dim             ....  285

ORBITAL ENERGIES
----------------

  NO   OCC          E(Eh)            E(eV)
   0   2.0000     -88.261896     -2401.7283
   1   2.0000     -18.725718      -509.5527
   2   2.0000     -18.716515      -509.3023
   3   2.0000     -18.709122      -509.1011
   4   2.0000      -9.936125      -270.3757
   5   2.0000      -9.926657      -270.1181
   6   2.0000      -7.803854      -212.3537
   7   2.0000      -5.831981      -158.6963
   8   2.0000      -5.830971      -158.6688
   9   2.0000      -5.830586      -158.6583
  10   2.0000      -1.021474       -27.7957
  11   2.0000      -0.888695       -24.1826
  12   2.0000      -0.859991       -23.4015
  13   2.0000      -0.746576       -20.3154
  14   2.0000      -0.618844       -16.8396
  15   2.0000      -0.490613       -13.3503
  16   2.0000      -0.427693       -11.6381
  17   2.0000      -0.421967       -11.4823
  18   2.0000      -0.382061       -10.3964
  19   2.0000      -0.366631        -9.9765
  20   2.0000      -0.358204        -9.7472
  21   2.0000      -0.333811        -9.0835
  22   2.0000      -0.313963        -8.5434
  23   2.0000      -0.256130        -6.9696
  24   2.0000      -0.254597        -6.9279
  25   2.0000      -0.218964        -5.9583
  26   2.0000      -0.208705        -5.6791
  27   2.0000      -0.201350        -5.4790
  28   2.0000      -0.162829        -4.4308
  29   0.0000       0.161278         4.3886
  30   0.0000       0.175117         4.7652
  31   0.0000       0.175859         4.7854
  32   0.0000       0.184053         5.0083
  33   0.0000       0.206252         5.6124

MULLIKEN ATOMIC CHARGES
-----------------------
   0 C :   -1.282680
   1 C :   -0.669424
   2 H :    0.381315
   3 H :    0.377283
   4 S :    1.072369
   5 O :   -0.708466
   6 O :   -0.669556
   7 O :   -0.645250
   8 H :    0.364066
   9 H :    0.414019
  10 H :    0.366323
Sum of atomic charges:   -1.0000000

LOEWDIN ATOMIC CHARGES
----------------------
   0 C :   -0.157998
   1 C :   -0.348116
   2 H :    0.089779
   3 H :    0.093653
   4 S :    0.314803
   5 O :   -0.412920
   6 O :   -0.394950
   7 O :   -0.367117
   8 H :    0.063591
   9 H :    0.054605
  10 H :    0.064669

  Mayer bond orders larger than 0.100000
B(  0-C ,  1-C ) :   0.4738 B(  0-C ,  8-H ) :   0.9442 B(  0-C ,  9-H ) :   0.8745
B(  0-C , 10-H ) :   0.9476 B(  1-C ,  2-H ) :   0.9083 B(  1-C ,  3-H ) :   0.9066
B(  1-C ,  4-S ) :   0.9545 B(  1-C ,  5-O ) :   0.1000 B(  1-C ,  6-O ) :   0.1158
B(  4-S ,  5-O ) :   1.4663 B(  4-S ,  6-O ) :   1.4979 B(  4-S ,  7-O ) :   1.5189

FINAL SINGLE POINT ENERGY      -702.484274517518

DIPOLE MOMENT
-------------
                                X             Y             Z
Electronic contribution:     -0.37725       0.79763      -7.74771
Nuclear contribution   :      0.07504      -1.14369       9.75001
                        -----------------------------------------
Total Dipole Moment    :     -0.30221      -0.34606       2.00230
                        -----------------------------------------
Magnitude (a.u.)       :      2.05433
Magnitude (Debye)      :      5.22170

Rotational constants in cm-1:     0.160553     0.082191     0.080550
Rotational constants in MHz :  4813.250478  2464.013016  2414.833054

                             ****ORCA TERMINATED NORMALLY****
TOTAL RUN TIME: 0 days 0 hours 0 minutes 58 seconds 367 msec
