                         Program Version 5.0.0 -  RELEASE  -
|  1> !LC-BLYP RIJCOSX def2-TZVPD def2/J TightSCF
|  2> *xyz 1 1
|  3> C          5.55821       -1.99291       -6.21505
|  4> C          4.18188       -2.58967       -6.29891
|  5> N          3.14587       -1.76843       -6.48675
|  6> N          4.01910       -3.86431       -6.22743
|  7> H          4.76849       -4.59115       -5.99077
|  8> H          3.12241       -4.33339       -6.31462
|  9> H          3.28164       -0.77779       -6.56655
| 10> H          2.21255       -2.13419       -6.56225
| 11> C          6.41926       -2.54294       -5.07763
| 12> H          6.03683       -2.19819       -7.17685
| 13> H          5.46761       -0.90737       -6.12797
| 14> H          6.50056       -3.60553       -5.17358
| 15> H          5.96544       -2.30329       -4.13874
| 16> H          7.39438       -2.10494       -5.12457
| 17> *
| 18>
| 19> %MaxCore 64000
| 20>
| 21> %pal nprocs 4
| 22> end
| 23>
| 24> %scf
| 25>   MaxIter 150
| 26> end
| 27>
| 28>
| 29>                          ****END OF INPUT****

CARTESIAN COORDINATES (ANGSTROEM)
---------------------------------
  C      5.558210   -1.992910   -6.215050
  C      4.181880   -2.589670   -6.298910
  N      3.145870   -1.768430   -6.486750
  N      4.019100   -3.864310   -6.227430
  H      4.768490   -4.591150   -5.990770
  H      3.122410   -4.333390   -6.314620
  H      3.281640   -0.777790   -6.566550
  H      2.212550   -2.134190   -6.562250
  C      6.419260   -2.542940   -5.077630
  H      6.036830   -2.198190   -7.176850
  H      5.467610   -0.907370   -6.127970
  H      6.500560   -3.605530   -5.173580
  H      5.965440   -2.303290   -4.138740
  H      7.394380   -2.104940   -5.124570

 Total Charge           Charge          ....    1
 Multiplicity           Mult            ....    1
 Number of Electrons    NEL             ....   40
 Basis Dimension        Dim             ....  266

ORBITAL ENERGIES
----------------

  NO   OCC          E(Eh)            E(eV)
   0   2.0000     -14.421008      -392.4156
   1   2.0000     -14.409686      -392.1075
   2   2.0000     -10.395239      -282.8688
   3   2.0000     -10.266455      -279.3644
   4   2.0000     -10.221825      -278.1500
   5   2.0000      -1.305119       -35.5141
   6   2.0000      -1.206542       -32.8317
   7   2.0000      -1.078312       -29.3424
   8   2.0000      -0.973207       -26.4823
   9   2.0000      -0.922782       -25.1102
  10   2.0000      -0.878420       -23.9030
  11   2.0000      -0.851408       -23.1680
  12   2.0000      -0.798077       -21.7168
  13   2.0000      -0.764513       -20.8035
  14   2.0000      -0.725300       -19.7364
  15   2.0000      -0.707825       -19.2609
  16   2.0000      -0.649445       -17.6723
  17   2.0000      -0.638912       -17.3857
  18   2.0000      -0.621827       -16.9208
  19   2.0000      -0.590983       -16.0815
  20   0.0000      -0.129071        -3.5122
  21   0.0000      -0.111654        -3.0383
  22   0.0000      -0.077924        -2.1204
  23   0.0000      -0.067419        -1.8346
  24   0.0000      -0.043520        -1.1842

MULLIKEN ATOMIC CHARGES
-----------------------
   0 C :   -0.630921
   1 C :    0.653182
   2 N :   -0.312890
   3 N :   -0.263264
   4 H :    0.244903
   5 H :    0.227214
   6 H :    0.232381
   7 H :    0.204998
   8 C :   -1.406560
   9 H :    0.403844
  10 H :    0.376699
  11 H :    0.448325
  12 H :    0.403745
  13 H :    0.418344
Sum of atomic charges:    1.0000000

LOEWDIN ATOMIC CHARGES
----------------------
   0 C :   -0.158349
   1 C :   -0.373485
   2 N :    0.230284
   3 N :    0.223865
   4 H :    0.188961
   5 H :    0.151286
   6 H :    0.137470
   7 H :    0.139562
   8 C :   -0.072709
   9 H :    0.147444
  10 H :    0.131454
  11 H :    0.069215
  12 H :    0.092064
  13 H :    0.092939

  Mayer bond orders larger than 0.100000
B(  0-C ,  1-C ) :   0.6705 B(  0-C ,  8-C ) :   0.5133 B(  0-C ,  9-H ) :   0.8813
B(  0-C , 10-H ) :   0.9055 B(  1-C ,  2-N ) :   1.1109 B(  1-C ,  3-N ) :   1.1787
B(  1-C ,  8-C ) :  -0.1179 B(  2-N ,  3-N ) :   0.1100 B(  2-N ,  6-H ) :   0.9572
B(  2-N ,  7-H ) :   1.0279 B(  3-N ,  4-H ) :   0.9301 B(  3-N ,  5-H ) :   0.9933
B(  8-C , 11-H ) :   0.8478 B(  8-C , 12-H ) :   0.9133 B(  8-C , 13-H ) :   0.9179

FINAL SINGLE POINT ENERGY      -228.505410985495

DIPOLE MOMENT
-------------
                                X             Y             Z
Electronic contribution:     -3.76945      -0.47830      -1.56712
Nuclear contribution   :      2.76041       0.12669       1.26265
                        -----------------------------------------
Total Dipole Moment    :     -1.00904      -0.35160      -0.30447
                        -----------------------------------------
Magnitude (a.u.)       :      1.11108
Magnitude (Debye)      :      2.82413

Rotational constants in cm-1:     0.280918     0.124524     0.094121
Rotational constants in MHz :  8421.697738  3733.133254  2821.684112

                             ****ORCA TERMINATED NORMALLY****
TOTAL RUN TIME: 0 days 0 hours 0 minutes 47 seconds 23 msec
