                         Program Version 5.0.0 -  RELEASE  -
|  1> !LC-BLYP RIJCOSX def2-TZVPD def2/J TightSCF xyzfile
|  2>
|  3> *xyzfile 0 1 B.xyz
|  4>
|  5> %MaxCore 64000
|  6>
|  7> %pal nprocs 4
|  8> end
|  9>
| 10> %scf
| 11>   MaxIter 150
| 12> end
| 13>
| 14>
| 15>                          ****END OF INPUT****

CARTESIAN COORDINATES (ANGSTROEM)
---------------------------------
  C      5.558206   -1.992914   -6.215054
  C      4.930199   -7.375319   -2.649623
  C      3.841892   -6.951611   -3.632829
  H      3.458144   -5.954425   -3.407121
  H      2.988484   -7.643606   -3.567078
  S      4.318115   -6.915930   -5.368692
  C      4.181880   -2.589671   -6.298911
  N      3.145873   -1.768431   -6.486753
  N      4.019102   -3.864307   -6.227427
  H      4.768490   -4.591153   -5.990773
  H      3.122405   -4.333392   -6.314620
  H      3.281635   -0.777786   -6.566549
  H      2.212549   -2.134193   -6.562246
  O      5.406154   -5.899480   -5.512972
  O      3.111910   -6.445079   -6.043792
  C      6.419260   -2.542944   -5.077630
  C      5.872267   -5.002756   -2.427819
  C      6.173994   -6.485522   -2.606315
  H      6.734852   -6.613767   -3.534015
  H      6.821463   -6.831018   -1.793617
  H      4.469612   -7.406168   -1.655876
  H      5.230134   -8.398678   -2.885906
  C      5.896512   -2.169314   -3.694552
  H      7.428880   -2.143665   -5.208078
  H      6.505894   -3.627541   -5.175502
  C      6.807804   -2.623428   -2.551019
  H      4.894708   -2.589732   -3.557501
  H      5.778823   -1.081255   -3.635790
  C      7.111544   -4.122463   -2.520363
  H      7.751615   -2.071393   -2.614406
  H      6.345837   -2.326401   -1.604086
  H      5.362882   -4.828697   -1.471335
  H      5.174429   -4.702577   -3.211298
  H      7.778329   -4.329347   -1.677651
  H      7.673189   -4.402845   -3.417586
  O      4.763396   -8.239424   -5.698629
  H      6.036826   -2.198189   -7.176852
  H      5.467610   -0.907371   -6.127968

 Total Charge           Charge          ....    0
 Multiplicity           Mult            ....    1
 Number of Electrons    NEL             ....  136
 Basis Dimension        Dim             ....  808

ORBITAL ENERGIES
----------------

  NO   OCC          E(Eh)            E(eV)
   0   2.0000     -88.415646     -2405.9121
   1   2.0000     -18.884179      -513.8646
   2   2.0000     -18.873834      -513.5831
   3   2.0000     -18.867537      -513.4118
   4   2.0000     -14.260463      -388.0469
   5   2.0000     -14.222370      -387.0104
   6   2.0000     -10.230917      -278.3974
   7   2.0000     -10.127032      -275.5706
   8   2.0000     -10.093560      -274.6597
   9   2.0000     -10.081789      -274.3394
  10   2.0000     -10.070307      -274.0270
  11   2.0000     -10.064534      -273.8699
  12   2.0000     -10.057967      -273.6912
  13   2.0000     -10.051542      -273.5164
  14   2.0000     -10.049751      -273.4676
  15   2.0000     -10.042491      -273.2701
  16   2.0000      -7.958304      -216.5565
  17   2.0000      -5.986552      -162.9024
  18   2.0000      -5.985535      -162.8747
  19   2.0000      -5.984595      -162.8491
  20   2.0000      -1.180293       -32.1174
  21   2.0000      -1.141361       -31.0580
  22   2.0000      -1.047666       -28.5084
  23   2.0000      -1.037012       -28.2185
  24   2.0000      -1.032042       -28.0833
  25   2.0000      -0.952809       -25.9272
  26   2.0000      -0.917527       -24.9672
  27   2.0000      -0.894025       -24.3277
  28   2.0000      -0.853298       -23.2194
  29   2.0000      -0.818006       -22.2591
  30   2.0000      -0.784939       -21.3593
  31   2.0000      -0.764333       -20.7985
  32   2.0000      -0.737842       -20.0777
  33   2.0000      -0.714352       -19.4385
  34   2.0000      -0.704649       -19.1745
  35   2.0000      -0.685109       -18.6428
  36   2.0000      -0.669985       -18.2312
  37   2.0000      -0.646928       -17.6038
  38   2.0000      -0.620177       -16.8759
  39   2.0000      -0.614095       -16.7104
  40   2.0000      -0.596425       -16.2295
  41   2.0000      -0.580977       -15.8092
  42   2.0000      -0.574094       -15.6219
  43   2.0000      -0.559339       -15.2204
  44   2.0000      -0.552858       -15.0440
  45   2.0000      -0.544527       -14.8173
  46   2.0000      -0.535753       -14.5786
  47   2.0000      -0.528688       -14.3863
  48   2.0000      -0.514055       -13.9882
  49   2.0000      -0.501696       -13.6519
  50   2.0000      -0.498023       -13.5519
  51   2.0000      -0.495492       -13.4830
  52   2.0000      -0.475468       -12.9381
  53   2.0000      -0.467786       -12.7291
  54   2.0000      -0.462243       -12.5783
  55   2.0000      -0.442903       -12.0520
  56   2.0000      -0.434477       -11.8227
  57   2.0000      -0.428500       -11.6601
  58   2.0000      -0.426746       -11.6123
  59   2.0000      -0.416933       -11.3453
  60   2.0000      -0.412212       -11.2169
  61   2.0000      -0.410130       -11.1602
  62   2.0000      -0.400881       -10.9085
  63   2.0000      -0.397663       -10.8210
  64   2.0000      -0.367110        -9.9896
  65   2.0000      -0.364752        -9.9254
  66   2.0000      -0.352638        -9.5958
  67   2.0000      -0.330005        -8.9799
  68   0.0000       0.012099         0.3292
  69   0.0000       0.023212         0.6316
  70   0.0000       0.042293         1.1508
  71   0.0000       0.052384         1.4254
  72   0.0000       0.058232         1.5846

MULLIKEN ATOMIC CHARGES
-----------------------
   0 C :   -0.896284
   1 C :   -0.878135
   2 C :   -0.936441
   3 H :    0.420780
   4 H :    0.492179
   5 S :    1.188652
   6 C :    0.814853
   7 N :   -0.389366
   8 N :   -0.130671
   9 H :    0.198093
  10 H :    0.186373
  11 H :    0.209450
  12 H :    0.202346
  13 O :   -0.836963
  14 O :   -0.778804
  15 C :   -0.744351
  16 C :   -0.068649
  17 C :   -1.047711
  18 H :    0.414754
  19 H :    0.469334
  20 H :    0.396004
  21 H :    0.409693
  22 C :   -0.678020
  23 H :    0.383989
  24 H :    0.370519
  25 C :   -0.961239
  26 H :    0.373887
  27 H :    0.368295
  28 C :   -0.941501
  29 H :    0.424115
  30 H :    0.408076
  31 H :    0.342103
  32 H :    0.154569
  33 H :    0.433868
  34 H :    0.389613
  35 O :   -0.597670
  36 H :    0.414730
  37 H :    0.419530
Sum of atomic charges:   -0.0000000

LOEWDIN ATOMIC CHARGES
----------------------
   0 C :   -0.119195
   1 C :   -0.236135
   2 C :   -0.265007
   3 H :    0.094846
   4 H :    0.113382
   5 S :    0.418738
   6 C :   -0.380762
   7 N :    0.194924
   8 N :    0.231584
   9 H :    0.051735
  10 H :    0.114660
  11 H :    0.117497
  12 H :    0.127122
  13 O :   -0.367159
  14 O :   -0.355730
  15 C :   -0.202101
  16 C :   -0.236141
  17 C :   -0.228597
  18 H :    0.110387
  19 H :    0.121447
  20 H :    0.117028
  21 H :    0.117205
  22 C :   -0.224897
  23 H :    0.132473
  24 H :    0.103466
  25 C :   -0.219926
  26 H :    0.113770
  27 H :    0.119590
  28 C :   -0.223760
  29 H :    0.116331
  30 H :    0.117385
  31 H :    0.133254
  32 H :    0.082568
  33 H :    0.121267
  34 H :    0.117910
  35 O :   -0.295309
  36 H :    0.142869
  37 H :    0.123279

  Mayer bond orders larger than 0.100000
B(  0-C ,  6-C ) :   0.4182 B(  0-C , 15-C ) :   0.5675 B(  0-C , 36-H ) :   0.9519
B(  0-C , 37-H ) :   0.9586 B(  1-C ,  2-C ) :   0.6090 B(  1-C , 17-C ) :   0.6634
B(  1-C , 20-H ) :   0.9479 B(  1-C , 21-H ) :   0.9211 B(  2-C ,  3-H ) :   0.8714
B(  2-C ,  4-H ) :   0.8022 B(  2-C ,  5-S ) :   0.9142 B(  2-C , 14-O ) :   0.1152
B(  2-C , 35-O ) :   0.1190 B(  5-S , 13-O ) :   1.4397 B(  5-S , 14-O ) :   1.3047
B(  5-S , 35-O ) :   1.4429 B(  6-C ,  7-N ) :   0.8983 B(  6-C ,  8-N ) :   1.0819
B(  6-C ,  9-H ) :  -0.1412 B(  6-C , 10-H ) :  -0.1240 B(  6-C , 37-H ) :  -0.1571
B(  7-N ,  8-N ) :   0.1357 B(  7-N , 11-H ) :   0.9917 B(  7-N , 12-H ) :   1.0249
B(  8-N ,  9-H ) :   0.8896 B(  8-N , 10-H ) :   1.0624 B(  8-N , 13-O ) :  -0.1405
B(  9-H , 13-O ) :   0.1021 B(  9-H , 14-O ) :  -0.1158 B( 13-O , 14-O ) :   0.1002
B( 15-C , 22-C ) :   0.2274 B( 15-C , 23-H ) :   0.9358 B( 15-C , 24-H ) :   1.0119
B( 15-C , 26-H ) :  -0.1056 B( 16-C , 17-C ) :   0.2608 B( 16-C , 22-C ) :   0.1064
B( 16-C , 28-C ) :   0.2192 B( 16-C , 31-H ) :   0.8802 B( 16-C , 32-H ) :   1.1075
B( 17-C , 18-H ) :   0.9326 B( 17-C , 19-H ) :   0.8165 B( 17-C , 28-C ) :   0.2538
B( 22-C , 24-H ) :  -0.1021 B( 22-C , 25-C ) :   0.6911 B( 22-C , 26-H ) :   0.9980
B( 22-C , 27-H ) :   0.9271 B( 22-C , 28-C ) :  -0.1126 B( 23-H , 24-H ) :   0.1146
B( 25-C , 28-C ) :   0.6108 B( 25-C , 29-H ) :   0.9372 B( 25-C , 30-H ) :   0.9365
B( 28-C , 33-H ) :   0.8956 B( 28-C , 34-H ) :   0.9862 B( 31-H , 32-H ) :   0.2338

FINAL SINGLE POINT ENERGY     -1126.026610699366

DIPOLE MOMENT
-------------
                                X             Y             Z
Electronic contribution:     -9.19593     -11.42810     -14.15378
Nuclear contribution   :      8.53517      16.50844      14.36520
                        -----------------------------------------
Total Dipole Moment    :     -0.66076       5.08034       0.21142
                        -----------------------------------------
Magnitude (a.u.)       :      5.12749
Magnitude (Debye)      :     13.03304

Rotational constants in cm-1:     0.017951     0.012436     0.008288
Rotational constants in MHz :   538.163255   372.824050   248.467077

                             ****ORCA TERMINATED NORMALLY****
TOTAL RUN TIME: 0 days 0 hours 11 minutes 47 seconds 10 msec
