                         Program Version 5.0.0 -  RELEASE  -
|  1> !LC-BLYP RIJCOSX def2-TZVPD def2/J TightSCF
|  2> *xyz 0 1
|  3> C          4.93020       -7.37532       -2.64962
|  4> C          3.84189       -6.95161       -3.63283
|  5> H          3.45814       -5.95442       -3.40712
|  6> H          2.98848       -7.64361       -3.56708
|  7> S          4.31812       -6.91593       -5.36869
|  8> F          5.40615       -5.89948       -5.51297
|  9> O          3.11191       -6.44508       -6.04379
| 10> O          4.76340       -8.23942       -5.69863
| 11> H          5.27901       -8.35440       -2.90385
| 12> H          4.53000       -7.38577       -1.65734
| 13> H          5.74437       -6.68276       -2.69856
| 14> *
| 15>
| 16> %MaxCore 64000
| 17>
| 18> %pal nprocs 4
| 19> end
| 20>
| 21> %scf
| 22>   MaxIter 150
| 23> end
| 24>
| 25>
| 26>                          ****END OF INPUT****

CARTESIAN COORDINATES (ANGSTROEM)
---------------------------------
  C      4.930200   -7.375320   -2.649620
  C      3.841890   -6.951610   -3.632830
  H      3.458140   -5.954420   -3.407120
  H      2.988480   -7.643610   -3.567080
  S      4.318120   -6.915930   -5.368690
  F      5.406150   -5.899480   -5.512970
  O      3.111910   -6.445080   -6.043790
  O      4.763400   -8.239420   -5.698630
  H      5.279010   -8.354400   -2.903850
  H      4.530000   -7.385770   -1.657340
  H      5.744370   -6.682760   -2.698560

 Total Charge           Charge          ....    0
 Multiplicity           Mult            ....    1
 Number of Electrons    NEL             ....   58
 Basis Dimension        Dim             ....  285

ORBITAL ENERGIES
----------------

  NO   OCC          E(Eh)            E(eV)
   0   2.0000     -88.519245     -2408.7311
   1   2.0000     -24.554414      -668.1596
   2   2.0000     -18.958854      -515.8966
   3   2.0000     -18.949102      -515.6313
   4   2.0000     -10.135585      -275.8033
   5   2.0000     -10.090808      -274.5849
   6   2.0000      -8.061767      -219.3718
   7   2.0000      -6.093635      -165.8162
   8   2.0000      -6.086819      -165.6308
   9   2.0000      -6.086232      -165.6148
  10   2.0000      -1.426385       -38.8139
  11   2.0000      -1.210514       -32.9398
  12   2.0000      -1.116110       -30.3709
  13   2.0000      -0.936539       -25.4845
  14   2.0000      -0.827993       -22.5308
  15   2.0000      -0.780474       -21.2378
  16   2.0000      -0.685507       -18.6536
  17   2.0000      -0.663964       -18.0674
  18   2.0000      -0.650770       -17.7084
  19   2.0000      -0.602331       -16.3903
  20   2.0000      -0.584175       -15.8962
  21   2.0000      -0.559912       -15.2360
  22   2.0000      -0.539593       -14.6831
  23   2.0000      -0.513053       -13.9609
  24   2.0000      -0.507650       -13.8139
  25   2.0000      -0.482312       -13.1244
  26   2.0000      -0.443773       -12.0757
  27   2.0000      -0.431847       -11.7511
  28   2.0000      -0.421310       -11.4644
  29   0.0000       0.033991         0.9250
  30   0.0000       0.051677         1.4062
  31   0.0000       0.057011         1.5513
  32   0.0000       0.058999         1.6054
  33   0.0000       0.085773         2.3340

MULLIKEN ATOMIC CHARGES
-----------------------
   0 C :   -1.293568
   1 C :   -0.679660
   2 H :    0.447297
   3 H :    0.422525
   4 S :    1.067806
   5 F :   -0.154726
   6 O :   -0.530721
   7 O :   -0.509693
   8 H :    0.403273
   9 H :    0.421921
  10 H :    0.405546
Sum of atomic charges:   -0.0000000

LOEWDIN ATOMIC CHARGES
----------------------
   0 C :   -0.123866
   1 C :   -0.295956
   2 H :    0.107746
   3 H :    0.121946
   4 S :    0.563870
   5 F :   -0.074362
   6 O :   -0.278558
   7 O :   -0.252306
   8 H :    0.077176
   9 H :    0.078636
  10 H :    0.075673

  Mayer bond orders larger than 0.100000
B(  0-C ,  1-C ) :   0.4729 B(  0-C ,  8-H ) :   0.9271 B(  0-C ,  9-H ) :   0.8878
B(  0-C , 10-H ) :   0.8867 B(  1-C ,  2-H ) :   0.8453 B(  1-C ,  3-H ) :   0.8581
B(  1-C ,  4-S ) :   0.9354 B(  4-S ,  5-F ) :   0.9739 B(  4-S ,  6-O ) :   1.6925
B(  4-S ,  7-O ) :   1.7173

FINAL SINGLE POINT ENERGY      -727.003973309611

DIPOLE MOMENT
-------------
                                X             Y             Z
Electronic contribution:      1.30124       2.63168      -8.72389
Nuclear contribution   :     -0.98922      -2.24849      10.35711
                        -----------------------------------------
Total Dipole Moment    :      0.31202       0.38319       1.63322
                        -----------------------------------------
Magnitude (a.u.)       :      1.70634
Magnitude (Debye)      :      4.33717

Rotational constants in cm-1:     0.151436     0.080885     0.078670
Rotational constants in MHz :  4539.936009  2424.868817  2358.476812

                             ****ORCA TERMINATED NORMALLY****
TOTAL RUN TIME: 0 days 0 hours 0 minutes 51 seconds 25 msec
