                         Program Version 5.0.0 -  RELEASE  -
|  1> !LC-BLYP RIJCOSX def2-TZVPD def2/J TightSCF
|  2> *xyz 0 1
|  3> C          5.55821       -1.99291       -6.21505
|  4> C          4.18188       -2.58967       -6.29891
|  5> C          3.14587       -1.76843       -6.48675
|  6> N          4.01910       -3.86431       -6.22743
|  7> H          4.76849       -4.59115       -5.99077
|  8> H          3.12241       -4.33339       -6.31462
|  9> H          3.28164       -0.77779       -6.56655
| 10> H          2.21255       -2.13419       -6.56225
| 11> C          6.41926       -2.54294       -5.07763
| 12> H          6.03683       -2.19819       -7.17685
| 13> H          5.46761       -0.90737       -6.12797
| 14> H          6.50056       -3.60553       -5.17358
| 15> H          5.96544       -2.30329       -4.13874
| 16> H          7.39438       -2.10494       -5.12457
| 17> *
| 18>
| 19> %MaxCore 64000
| 20>
| 21> %pal nprocs 4
| 22> end
| 23>
| 24> %scf
| 25>   MaxIter 150
| 26> end
| 27>
| 28>
| 29>                          ****END OF INPUT****

CARTESIAN COORDINATES (ANGSTROEM)
---------------------------------
  C      5.558210   -1.992910   -6.215050
  C      4.181880   -2.589670   -6.298910
  C      3.145870   -1.768430   -6.486750
  N      4.019100   -3.864310   -6.227430
  H      4.768490   -4.591150   -5.990770
  H      3.122410   -4.333390   -6.314620
  H      3.281640   -0.777790   -6.566550
  H      2.212550   -2.134190   -6.562250
  C      6.419260   -2.542940   -5.077630
  H      6.036830   -2.198190   -7.176850
  H      5.467610   -0.907370   -6.127970
  H      6.500560   -3.605530   -5.173580
  H      5.965440   -2.303290   -4.138740
  H      7.394380   -2.104940   -5.124570

 Total Charge           Charge          ....    0
 Multiplicity           Mult            ....    1
 Number of Electrons    NEL             ....   40
 Basis Dimension        Dim             ....  266

ORBITAL ENERGIES
----------------

  NO   OCC          E(Eh)            E(eV)
   0   2.0000     -14.178133      -385.8066
   1   2.0000     -10.093146      -274.6485
   2   2.0000     -10.067271      -273.9444
   3   2.0000     -10.055842      -273.6334
   4   2.0000      -9.996457      -272.0174
   5   2.0000      -1.036589       -28.2070
   6   2.0000      -0.887306       -24.1448
   7   2.0000      -0.825925       -22.4746
   8   2.0000      -0.739355       -20.1189
   9   2.0000      -0.688404       -18.7324
  10   2.0000      -0.623543       -16.9675
  11   2.0000      -0.579182       -15.7603
  12   2.0000      -0.548423       -14.9234
  13   2.0000      -0.526335       -14.3223
  14   2.0000      -0.493983       -13.4420
  15   2.0000      -0.484635       -13.1876
  16   2.0000      -0.457580       -12.4514
  17   2.0000      -0.435165       -11.8414
  18   2.0000      -0.427000       -11.6192
  19   2.0000      -0.280854        -7.6424
  20   0.0000       0.049134         1.3370
  21   0.0000       0.074136         2.0173
  22   0.0000       0.076629         2.0852
  23   0.0000       0.089470         2.4346
  24   0.0000       0.110681         3.0118

MULLIKEN ATOMIC CHARGES
-----------------------
   0 C :   -0.607599
   1 C :    0.709109
   2 C :   -1.276105
   3 N :   -0.303037
   4 H :    0.171749
   5 H :    0.173384
   6 H :    0.312714
   7 H :    0.326076
   8 C :   -1.321066
   9 H :    0.334728
  10 H :    0.320505
  11 H :    0.388725
  12 H :    0.367207
  13 H :    0.403611
Sum of atomic charges:    0.0000000

LOEWDIN ATOMIC CHARGES
----------------------
   0 C :   -0.212038
   1 C :   -0.518506
   2 C :    0.016967
   3 N :    0.096317
   4 H :    0.141467
   5 H :    0.115073
   6 H :    0.012577
   7 H :    0.016796
   8 C :   -0.110710
   9 H :    0.122622
  10 H :    0.115877
  11 H :    0.054659
  12 H :    0.078667
  13 H :    0.070233

  Mayer bond orders larger than 0.100000
B(  0-C ,  1-C ) :   0.7075 B(  0-C ,  8-C ) :   0.4845 B(  0-C ,  9-H ) :   0.9221
B(  0-C , 10-H ) :   0.9370 B(  1-C ,  2-C ) :   1.0553 B(  1-C ,  3-N ) :   0.9108
B(  1-C ,  7-H ) :  -0.1644 B(  1-C ,  8-C ) :  -0.1390 B(  2-C ,  3-N ) :   0.1228
B(  2-C ,  6-H ) :   0.9439 B(  2-C ,  7-H ) :   1.0861 B(  3-N ,  4-H ) :   1.0089
B(  3-N ,  5-H ) :   1.0153 B(  8-C , 11-H ) :   0.8980 B(  8-C , 12-H ) :   0.9596
B(  8-C , 13-H ) :   0.9291

FINAL SINGLE POINT ENERGY      -212.034782312662

DIPOLE MOMENT
-------------
                                X             Y             Z
Electronic contribution:     -2.02178      -1.05518      -1.02537
Nuclear contribution   :      2.41345       0.31141       1.16343
                        -----------------------------------------
Total Dipole Moment    :      0.39167      -0.74377       0.13806
                        -----------------------------------------
Magnitude (a.u.)       :      0.85186
Magnitude (Debye)      :      2.16526

Rotational constants in cm-1:     0.287957     0.129204     0.097498
Rotational constants in MHz :  8632.737925  3873.424745  2922.919500

                             ****ORCA TERMINATED NORMALLY****
TOTAL RUN TIME: 0 days 0 hours 0 minutes 51 seconds 885 msec
