                         Program Version 5.0.0 -  RELEASE  -
|  1> !LC-BLYP RIJCOSX def2-TZVPD def2/J TightSCF
|  2> *xyz 0 1
|  3> C          4.93020       -7.37532       -2.64962
|  4> C          3.84189       -6.95161       -3.63283
|  5> H          3.45814       -5.95442       -3.40712
|  6> H          2.98848       -7.64361       -3.56708
|  7> S          4.31812       -6.91593       -5.36869
|  8> O          5.40615       -5.89948       -5.51297
|  9> F          3.11191       -6.44508       -6.04379
| 10> O          4.76340       -8.23942       -5.69863
| 11> H          5.27901       -8.35440       -2.90385
| 12> H          4.53000       -7.38577       -1.65734
| 13> H          5.74437       -6.68276       -2.69856
| 14> *
| 15>
| 16> %MaxCore 64000
| 17>
| 18> %pal nprocs 4
| 19> end
| 20>
| 21> %scf
| 22>   MaxIter 150
| 23> end
| 24>
| 25>
| 26>                          ****END OF INPUT****

CARTESIAN COORDINATES (ANGSTROEM)
---------------------------------
  C      4.930200   -7.375320   -2.649620
  C      3.841890   -6.951610   -3.632830
  H      3.458140   -5.954420   -3.407120
  H      2.988480   -7.643610   -3.567080
  S      4.318120   -6.915930   -5.368690
  O      5.406150   -5.899480   -5.512970
  F      3.111910   -6.445080   -6.043790
  O      4.763400   -8.239420   -5.698630
  H      5.279010   -8.354400   -2.903850
  H      4.530000   -7.385770   -1.657340
  H      5.744370   -6.682760   -2.698560

 Total Charge           Charge          ....    0
 Multiplicity           Mult            ....    1
 Number of Electrons    NEL             ....   58
 Basis Dimension        Dim             ....  285

ORBITAL ENERGIES
----------------

  NO   OCC          E(Eh)            E(eV)
   0   2.0000     -88.521344     -2408.7882
   1   2.0000     -24.569317      -668.5651
   2   2.0000     -18.958361      -515.8832
   3   2.0000     -18.941511      -515.4247
   4   2.0000     -10.136757      -275.8352
   5   2.0000     -10.089141      -274.5395
   6   2.0000      -8.063817      -219.4276
   7   2.0000      -6.095576      -165.8690
   8   2.0000      -6.088720      -165.6825
   9   2.0000      -6.088460      -165.6754
  10   2.0000      -1.452884       -39.5350
  11   2.0000      -1.204422       -32.7740
  12   2.0000      -1.098387       -29.8886
  13   2.0000      -0.936273       -25.4773
  14   2.0000      -0.841620       -22.9016
  15   2.0000      -0.780555       -21.2400
  16   2.0000      -0.688223       -18.7275
  17   2.0000      -0.683555       -18.6005
  18   2.0000      -0.660778       -17.9807
  19   2.0000      -0.603856       -16.4318
  20   2.0000      -0.588634       -16.0175
  21   2.0000      -0.546299       -14.8656
  22   2.0000      -0.535464       -14.5707
  23   2.0000      -0.514799       -14.0084
  24   2.0000      -0.491926       -13.3860
  25   2.0000      -0.490698       -13.3526
  26   2.0000      -0.439646       -11.9634
  27   2.0000      -0.425311       -11.5733
  28   2.0000      -0.408123       -11.1056
  29   0.0000       0.033435         0.9098
  30   0.0000       0.050283         1.3683
  31   0.0000       0.056628         1.5409
  32   0.0000       0.060154         1.6369
  33   0.0000       0.086224         2.3463

MULLIKEN ATOMIC CHARGES
-----------------------
   0 C :   -1.308938
   1 C :   -0.695893
   2 H :    0.445418
   3 H :    0.442326
   4 S :    1.062212
   5 O :   -0.560704
   6 F :   -0.108885
   7 O :   -0.505981
   8 H :    0.407129
   9 H :    0.419243
  10 H :    0.404074
Sum of atomic charges:    0.0000000

LOEWDIN ATOMIC CHARGES
----------------------
   0 C :   -0.113009
   1 C :   -0.303805
   2 H :    0.106726
   3 H :    0.111372
   4 S :    0.563061
   5 O :   -0.296094
   6 F :   -0.054386
   7 O :   -0.254493
   8 H :    0.079630
   9 H :    0.080141
  10 H :    0.080856

  Mayer bond orders larger than 0.100000
B(  0-C ,  1-C ) :   0.5508 B(  0-C ,  8-H ) :   0.8961 B(  0-C ,  9-H ) :   0.8765
B(  0-C , 10-H ) :   0.9046 B(  1-C ,  2-H ) :   0.8274 B(  1-C ,  3-H ) :   0.8268
B(  1-C ,  4-S ) :   0.9215 B(  4-S ,  5-O ) :   1.6587 B(  4-S ,  6-F ) :   1.0087
B(  4-S ,  7-O ) :   1.7158

FINAL SINGLE POINT ENERGY      -726.992719176877

DIPOLE MOMENT
-------------
                                X             Y             Z
Electronic contribution:     -2.60187       1.69753      -9.63977
Nuclear contribution   :      1.40145      -1.67996      10.91024
                        -----------------------------------------
Total Dipole Moment    :     -1.20042       0.01757       1.27047
                        -----------------------------------------
Magnitude (a.u.)       :      1.74798
Magnitude (Debye)      :      4.44301

Rotational constants in cm-1:     0.155875     0.079864     0.077188
Rotational constants in MHz :  4673.017506  2394.277415  2314.027118

                             ****ORCA TERMINATED NORMALLY****
TOTAL RUN TIME: 0 days 0 hours 0 minutes 49 seconds 958 msec
