                         Program Version 5.0.0 -  RELEASE  -
|  1> !LC-BLYP RIJCOSX def2-TZVPD def2/J TightSCF
|  2> *xyz 0 1
|  3> C          5.55821       -1.99291       -6.21505
|  4> C          4.18188       -2.58967       -6.29891
|  5> N          3.14587       -1.76843       -6.48675
|  6> C          4.01910       -3.86431       -6.22743
|  7> H          4.76849       -4.59115       -5.99077
|  8> H          3.12241       -4.33339       -6.31462
|  9> H          3.28164       -0.77779       -6.56655
| 10> H          2.21255       -2.13419       -6.56225
| 11> C          6.41926       -2.54294       -5.07763
| 12> H          6.03683       -2.19819       -7.17685
| 13> H          5.46761       -0.90737       -6.12797
| 14> H          6.50056       -3.60553       -5.17358
| 15> H          5.96544       -2.30329       -4.13874
| 16> H          7.39438       -2.10494       -5.12457
| 17> *
| 18>
| 19> %MaxCore 64000
| 20>
| 21> %pal nprocs 4
| 22> end
| 23>
| 24> %scf
| 25>   MaxIter 150
| 26> end
| 27>
| 28>
| 29>                          ****END OF INPUT****

CARTESIAN COORDINATES (ANGSTROEM)
---------------------------------
  C      5.558210   -1.992910   -6.215050
  C      4.181880   -2.589670   -6.298910
  N      3.145870   -1.768430   -6.486750
  C      4.019100   -3.864310   -6.227430
  H      4.768490   -4.591150   -5.990770
  H      3.122410   -4.333390   -6.314620
  H      3.281640   -0.777790   -6.566550
  H      2.212550   -2.134190   -6.562250
  C      6.419260   -2.542940   -5.077630
  H      6.036830   -2.198190   -7.176850
  H      5.467610   -0.907370   -6.127970
  H      6.500560   -3.605530   -5.173580
  H      5.965440   -2.303290   -4.138740
  H      7.394380   -2.104940   -5.124570

 Total Charge           Charge          ....    0
 Multiplicity           Mult            ....    1
 Number of Electrons    NEL             ....   40
 Basis Dimension        Dim             ....  266

ORBITAL ENERGIES
----------------

  NO   OCC          E(Eh)            E(eV)
   0   2.0000     -14.167504      -385.5174
   1   2.0000     -10.090588      -274.5789
   2   2.0000     -10.068303      -273.9724
   3   2.0000     -10.049696      -273.4661
   4   2.0000     -10.003669      -272.2137
   5   2.0000      -1.026543       -27.9336
   6   2.0000      -0.890746       -24.2384
   7   2.0000      -0.821137       -22.3443
   8   2.0000      -0.750356       -20.4182
   9   2.0000      -0.663391       -18.0518
  10   2.0000      -0.627322       -17.0703
  11   2.0000      -0.592744       -16.1294
  12   2.0000      -0.554591       -15.0912
  13   2.0000      -0.521594       -14.1933
  14   2.0000      -0.488789       -13.3006
  15   2.0000      -0.472440       -12.8557
  16   2.0000      -0.450210       -12.2508
  17   2.0000      -0.434669       -11.8279
  18   2.0000      -0.426817       -11.6143
  19   2.0000      -0.289594        -7.8803
  20   0.0000       0.053401         1.4531
  21   0.0000       0.073489         1.9997
  22   0.0000       0.078167         2.1270
  23   0.0000       0.090095         2.4516
  24   0.0000       0.112100         3.0504

MULLIKEN ATOMIC CHARGES
-----------------------
   0 C :   -0.677009
   1 C :    0.755972
   2 N :   -0.352860
   3 C :   -1.182821
   4 H :    0.229120
   5 H :    0.322056
   6 H :    0.182738
   7 H :    0.160371
   8 C :   -1.260434
   9 H :    0.345356
  10 H :    0.353768
  11 H :    0.361337
  12 H :    0.364359
  13 H :    0.398047
Sum of atomic charges:   -0.0000000

LOEWDIN ATOMIC CHARGES
----------------------
   0 C :   -0.211899
   1 C :   -0.501376
   2 N :    0.106314
   3 C :   -0.005263
   4 H :    0.057297
   5 H :    0.027026
   6 H :    0.091969
   7 H :    0.104127
   8 C :   -0.108941
   9 H :    0.124030
  10 H :    0.108755
  11 H :    0.060056
  12 H :    0.078972
  13 H :    0.068933

  Mayer bond orders larger than 0.100000
B(  0-C ,  1-C ) :   0.4815 B(  0-C ,  8-C ) :   0.5356 B(  0-C ,  9-H ) :   0.9309
B(  0-C , 10-H ) :   0.9827 B(  1-C ,  2-N ) :   0.8669 B(  1-C ,  3-C ) :   1.0364
B(  1-C ,  5-H ) :  -0.1940 B(  1-C , 10-H ) :  -0.1231 B(  2-N ,  3-C ) :   0.1235
B(  2-N ,  6-H ) :   1.0325 B(  2-N ,  7-H ) :   1.0466 B(  3-C ,  4-H ) :   1.0108
B(  3-C ,  5-H ) :   1.1168 B(  8-C , 11-H ) :   0.9385 B(  8-C , 12-H ) :   0.9434
B(  8-C , 13-H ) :   0.9181

FINAL SINGLE POINT ENERGY      -212.044794416793

DIPOLE MOMENT
-------------
                                X             Y             Z
Electronic contribution:     -2.78529       0.78859      -1.28332
Nuclear contribution   :      2.61570      -0.17401       1.22349
                        -----------------------------------------
Total Dipole Moment    :     -0.16959       0.61458      -0.05983
                        -----------------------------------------
Magnitude (a.u.)       :      0.64035
Magnitude (Debye)      :      1.62764

Rotational constants in cm-1:     0.298189     0.125314     0.096441
Rotational constants in MHz :  8939.495008  3756.825352  2891.223400

                             ****ORCA TERMINATED NORMALLY****
TOTAL RUN TIME: 0 days 0 hours 1 minutes 0 seconds 484 msec
