                         Program Version 5.0.0 -  RELEASE  -
|  1> !LC-BLYP RIJCOSX def2-TZVPD def2/J TightSCF
|  2> *xyz 0 1
|  3> C          4.93020       -7.37532       -2.64962
|  4> C          3.84189       -6.95161       -3.63283
|  5> H          3.45814       -5.95442       -3.40712
|  6> H          2.98848       -7.64361       -3.56708
|  7> S          4.31812       -6.91593       -5.36869
|  8> O          5.40615       -5.89948       -5.51297
|  9> O          3.11191       -6.44508       -6.04379
| 10> F          4.76340       -8.23942       -5.69863
| 11> H          5.27901       -8.35440       -2.90385
| 12> H          4.53000       -7.38577       -1.65734
| 13> H          5.74437       -6.68276       -2.69856
| 14> *
| 15>
| 16> %MaxCore 64000
| 17>
| 18> %pal nprocs 4
| 19> end
| 20>
| 21> %scf
| 22>   MaxIter 150
| 23> end
| 24>
| 25>
| 26>                          ****END OF INPUT****

CARTESIAN COORDINATES (ANGSTROEM)
---------------------------------
  C      4.930200   -7.375320   -2.649620
  C      3.841890   -6.951610   -3.632830
  H      3.458140   -5.954420   -3.407120
  H      2.988480   -7.643610   -3.567080
  S      4.318120   -6.915930   -5.368690
  O      5.406150   -5.899480   -5.512970
  O      3.111910   -6.445080   -6.043790
  F      4.763400   -8.239420   -5.698630
  H      5.279010   -8.354400   -2.903850
  H      4.530000   -7.385770   -1.657340
  H      5.744370   -6.682760   -2.698560

 Total Charge           Charge          ....    0
 Multiplicity           Mult            ....    1
 Number of Electrons    NEL             ....   58
 Basis Dimension        Dim             ....  285

ORBITAL ENERGIES
----------------

  NO   OCC          E(Eh)            E(eV)
   0   2.0000     -88.522822     -2408.8284
   1   2.0000     -24.582804      -668.9321
   2   2.0000     -18.949556      -515.6436
   3   2.0000     -18.942435      -515.4499
   4   2.0000     -10.136830      -275.8372
   5   2.0000     -10.091927      -274.6153
   6   2.0000      -8.065246      -219.4665
   7   2.0000      -6.097133      -165.9114
   8   2.0000      -6.089938      -165.7156
   9   2.0000      -6.089908      -165.7148
  10   2.0000      -1.474421       -40.1210
  11   2.0000      -1.193729       -32.4830
  12   2.0000      -1.091080       -29.6898
  13   2.0000      -0.938905       -25.5489
  14   2.0000      -0.844192       -22.9716
  15   2.0000      -0.791581       -21.5400
  16   2.0000      -0.709185       -19.2979
  17   2.0000      -0.697540       -18.9810
  18   2.0000      -0.654978       -17.8229
  19   2.0000      -0.602579       -16.3970
  20   2.0000      -0.583813       -15.8864
  21   2.0000      -0.556130       -15.1331
  22   2.0000      -0.534749       -14.5513
  23   2.0000      -0.512623       -13.9492
  24   2.0000      -0.501267       -13.6402
  25   2.0000      -0.478601       -13.0234
  26   2.0000      -0.430835       -11.7236
  27   2.0000      -0.424701       -11.5567
  28   2.0000      -0.402524       -10.9532
  29   0.0000       0.031877         0.8674
  30   0.0000       0.050145         1.3645
  31   0.0000       0.055888         1.5208
  32   0.0000       0.060176         1.6375
  33   0.0000       0.085323         2.3218

MULLIKEN ATOMIC CHARGES
-----------------------
   0 C :   -1.298067
   1 C :   -0.675344
   2 H :    0.423515
   3 H :    0.443406
   4 S :    1.046351
   5 O :   -0.556243
   6 O :   -0.521985
   7 F :   -0.095262
   8 H :    0.409361
   9 H :    0.422250
  10 H :    0.402018
Sum of atomic charges:    0.0000000

LOEWDIN ATOMIC CHARGES
----------------------
   0 C :   -0.124101
   1 C :   -0.296696
   2 H :    0.117362
   3 H :    0.112290
   4 S :    0.560849
   5 O :   -0.293659
   6 O :   -0.278235
   7 F :   -0.029403
   8 H :    0.074257
   9 H :    0.078816
  10 H :    0.078519

  Mayer bond orders larger than 0.100000
B(  0-C ,  1-C ) :   0.4667 B(  0-C ,  8-H ) :   0.8766 B(  0-C ,  9-H ) :   0.8891
B(  0-C , 10-H ) :   0.9362 B(  1-C ,  2-H ) :   0.8611 B(  1-C ,  3-H ) :   0.8462
B(  1-C ,  4-S ) :   0.9413 B(  4-S ,  5-O ) :   1.6704 B(  4-S ,  6-O ) :   1.7019
B(  4-S ,  7-F ) :   1.0307

FINAL SINGLE POINT ENERGY      -726.981374837341

DIPOLE MOMENT
-------------
                                X             Y             Z
Electronic contribution:      0.19712      -1.32681      -9.04080
Nuclear contribution   :     -0.31946       0.18980      10.55057
                        -----------------------------------------
Total Dipole Moment    :     -0.12234      -1.13702       1.50977
                        -----------------------------------------
Magnitude (a.u.)       :      1.89399
Magnitude (Debye)      :      4.81413

Rotational constants in cm-1:     0.151421     0.081183     0.078684
Rotational constants in MHz :  4539.489207  2433.790160  2358.892966

                             ****ORCA TERMINATED NORMALLY****
TOTAL RUN TIME: 0 days 0 hours 1 minutes 1 seconds 457 msec
