                         Program Version 5.0.0 -  RELEASE  -
|  1> !LC-BLYP RIJCOSX def2-TZVPD def2/J TightSCF xyzfile
|  2>
|  3> *xyzfile 0 1 D1.xyz
|  4>
|  5> %MaxCore 64000
|  6>
|  7> %pal nprocs 4
|  8> end
|  9>
| 10> %scf
| 11>   MaxIter 150
| 12> end
| 13>
| 14>
| 15>                          ****END OF INPUT****

CARTESIAN COORDINATES (ANGSTROEM)
---------------------------------
  C      5.558206   -1.992914   -6.215054
  C      4.930199   -7.375319   -2.649623
  C      3.841892   -6.951611   -3.632829
  H      3.458144   -5.954425   -3.407121
  H      2.988484   -7.643606   -3.567078
  S      4.318115   -6.915930   -5.368692
  C      4.181880   -2.589671   -6.298911
  C      3.145873   -1.768431   -6.486753
  N      4.019102   -3.864307   -6.227427
  H      4.768490   -4.591153   -5.990773
  H      3.122405   -4.333392   -6.314620
  H      3.281635   -0.777786   -6.566549
  H      2.212549   -2.134193   -6.562246
  F      5.406154   -5.899480   -5.512972
  O      3.111910   -6.445079   -6.043792
  C      6.419260   -2.542944   -5.077630
  C      5.872267   -5.002756   -2.427819
  C      6.173994   -6.485522   -2.606315
  H      6.734852   -6.613767   -3.534015
  H      6.821463   -6.831018   -1.793617
  H      4.469612   -7.406168   -1.655876
  H      5.230134   -8.398678   -2.885906
  C      5.896512   -2.169314   -3.694552
  H      7.428880   -2.143665   -5.208078
  H      6.505894   -3.627541   -5.175502
  C      6.807804   -2.623428   -2.551019
  H      4.894708   -2.589732   -3.557501
  H      5.778823   -1.081255   -3.635790
  C      7.111544   -4.122463   -2.520363
  H      7.751615   -2.071393   -2.614406
  H      6.345837   -2.326401   -1.604086
  H      5.362882   -4.828697   -1.471335
  H      5.174429   -4.702577   -3.211298
  H      7.778329   -4.329347   -1.677651
  H      7.673189   -4.402845   -3.417586
  O      4.763396   -8.239424   -5.698629
  H      6.036826   -2.198189   -7.176852
  H      5.467610   -0.907371   -6.127968

 Total Charge           Charge          ....    0
 Multiplicity           Mult            ....    1
 Number of Electrons    NEL             ....  136
 Basis Dimension        Dim             ....  808

ORBITAL ENERGIES
----------------

  NO   OCC          E(Eh)            E(eV)
   0   2.0000     -88.536699     -2409.2061
   1   2.0000     -24.583349      -668.9469
   2   2.0000     -18.975281      -516.3437
   3   2.0000     -18.967712      -516.1377
   4   2.0000     -14.153284      -385.1304
   5   2.0000     -10.142864      -276.0014
   6   2.0000     -10.105279      -274.9786
   7   2.0000     -10.088771      -274.5294
   8   2.0000     -10.081840      -274.3408
   9   2.0000     -10.079774      -274.2846
  10   2.0000     -10.072652      -274.0908
  11   2.0000     -10.067387      -273.9475
  12   2.0000     -10.066544      -273.9246
  13   2.0000     -10.062086      -273.8033
  14   2.0000     -10.061087      -273.7761
  15   2.0000      -9.986657      -271.7508
  16   2.0000      -8.079848      -219.8639
  17   2.0000      -6.112112      -166.3190
  18   2.0000      -6.104439      -166.1102
  19   2.0000      -6.104141      -166.1021
  20   2.0000      -1.461291       -39.7637
  21   2.0000      -1.229797       -33.4645
  22   2.0000      -1.135488       -30.8982
  23   2.0000      -1.022598       -27.8263
  24   2.0000      -0.965074       -26.2610
  25   2.0000      -0.931835       -25.3565
  26   2.0000      -0.902873       -24.5684
  27   2.0000      -0.870543       -23.6887
  28   2.0000      -0.850588       -23.1457
  29   2.0000      -0.820646       -22.3309
  30   2.0000      -0.808870       -22.0105
  31   2.0000      -0.770000       -20.9528
  32   2.0000      -0.734534       -19.9877
  33   2.0000      -0.724866       -19.7246
  34   2.0000      -0.719129       -19.5685
  35   2.0000      -0.693715       -18.8769
  36   2.0000      -0.679810       -18.4986
  37   2.0000      -0.668775       -18.1983
  38   2.0000      -0.662673       -18.0322
  39   2.0000      -0.620665       -16.8891
  40   2.0000      -0.610903       -16.6235
  41   2.0000      -0.597720       -16.2648
  42   2.0000      -0.591393       -16.0926
  43   2.0000      -0.582207       -15.8427
  44   2.0000      -0.572411       -15.5761
  45   2.0000      -0.567516       -15.4429
  46   2.0000      -0.558040       -15.1850
  47   2.0000      -0.540679       -14.7126
  48   2.0000      -0.536893       -14.6096
  49   2.0000      -0.527423       -14.3519
  50   2.0000      -0.514404       -13.9977
  51   2.0000      -0.511776       -13.9261
  52   2.0000      -0.496252       -13.5037
  53   2.0000      -0.481144       -13.0926
  54   2.0000      -0.474874       -12.9220
  55   2.0000      -0.470677       -12.8078
  56   2.0000      -0.469085       -12.7644
  57   2.0000      -0.458656       -12.4807
  58   2.0000      -0.455174       -12.3859
  59   2.0000      -0.445096       -12.1117
  60   2.0000      -0.440759       -11.9937
  61   2.0000      -0.436431       -11.8759
  62   2.0000      -0.435577       -11.8527
  63   2.0000      -0.427488       -11.6325
  64   2.0000      -0.416488       -11.3332
  65   2.0000      -0.410232       -11.1630
  66   2.0000      -0.405993       -11.0476
  67   2.0000      -0.269759        -7.3405
  68   0.0000       0.031391         0.8542
  69   0.0000       0.040822         1.1108
  70   0.0000       0.049907         1.3580
  71   0.0000       0.051921         1.4128
  72   0.0000       0.064542         1.7563

MULLIKEN ATOMIC CHARGES
-----------------------
   0 C :   -0.975480
   1 C :   -0.837296
   2 C :   -0.944455
   3 H :    0.474192
   4 H :    0.531846
   5 S :    1.147121
   6 C :    0.844242
   7 C :   -1.394940
   8 N :   -0.243334
   9 H :    0.287724
  10 H :    0.119957
  11 H :    0.347930
  12 H :    0.378387
  13 F :   -0.288650
  14 O :   -0.636890
  15 C :   -0.575078
  16 C :   -0.097649
  17 C :   -0.994038
  18 H :    0.357581
  19 H :    0.464798
  20 H :    0.416888
  21 H :    0.411204
  22 C :   -0.575971
  23 H :    0.371787
  24 H :    0.190984
  25 C :   -0.974910
  26 H :    0.308574
  27 H :    0.399497
  28 C :   -0.912671
  29 H :    0.429820
  30 H :    0.406669
  31 H :    0.344171
  32 H :    0.141575
  33 H :    0.430587
  34 H :    0.395665
  35 O :   -0.503397
  36 H :    0.367838
  37 H :    0.385719
Sum of atomic charges:    0.0000000

LOEWDIN ATOMIC CHARGES
----------------------
   0 C :   -0.156239
   1 C :   -0.230464
   2 C :   -0.229927
   3 H :    0.110921
   4 H :    0.130210
   5 S :    0.599004
   6 C :   -0.499132
   7 C :    0.021860
   8 N :    0.113220
   9 H :    0.064730
  10 H :    0.094648
  11 H :    0.011479
  12 H :    0.018625
  13 F :   -0.101304
  14 O :   -0.262771
  15 C :   -0.218401
  16 C :   -0.232835
  17 C :   -0.224853
  18 H :    0.111306
  19 H :    0.128397
  20 H :    0.127753
  21 H :    0.120216
  22 C :   -0.221120
  23 H :    0.125450
  24 H :    0.090814
  25 C :   -0.221655
  26 H :    0.114555
  27 H :    0.125145
  28 C :   -0.226097
  29 H :    0.116960
  30 H :    0.116686
  31 H :    0.138383
  32 H :    0.085036
  33 H :    0.121572
  34 H :    0.114389
  35 O :   -0.225589
  36 H :    0.127706
  37 H :    0.121320

  Mayer bond orders larger than 0.100000
B(  0-C ,  6-C ) :   0.4829 B(  0-C , 15-C ) :   0.6349 B(  0-C , 36-H ) :   0.9923
B(  0-C , 37-H ) :   0.9635 B(  1-C ,  2-C ) :   0.6009 B(  1-C , 17-C ) :   0.6636
B(  1-C , 20-H ) :   0.9227 B(  1-C , 21-H ) :   0.9432 B(  2-C ,  3-H ) :   0.8567
B(  2-C ,  4-H ) :   0.7369 B(  2-C ,  5-S ) :   0.9081 B(  5-S , 13-F ) :   1.1111
B(  5-S , 14-O ) :   1.5554 B(  5-S , 35-O ) :   1.5397 B(  6-C ,  7-C ) :   1.0026
B(  6-C ,  8-N ) :   0.7233 B(  6-C ,  9-H ) :  -0.1021 B(  6-C , 10-H ) :  -0.1461
B(  6-C , 12-H ) :  -0.1328 B(  7-C ,  8-N ) :   0.1726 B(  7-C , 11-H ) :   1.0182
B(  7-C , 12-H ) :   0.9898 B(  8-N ,  9-H ) :   0.9765 B(  8-N , 10-H ) :   1.0480
B(  8-N , 15-C ) :   0.1224 B( 15-C , 22-C ) :   0.3278 B( 15-C , 23-H ) :   0.9356
B( 15-C , 24-H ) :   1.1271 B( 16-C , 17-C ) :   0.1327 B( 16-C , 18-H ) :  -0.1321
B( 16-C , 28-C ) :   0.2571 B( 16-C , 31-H ) :   0.8959 B( 16-C , 32-H ) :   1.0900
B( 17-C , 18-H ) :   1.0404 B( 17-C , 19-H ) :   0.8180 B( 17-C , 28-C ) :   0.2190
B( 22-C , 24-H ) :  -0.1289 B( 22-C , 25-C ) :   0.6384 B( 22-C , 26-H ) :   1.0401
B( 22-C , 27-H ) :   0.8778 B( 23-H , 24-H ) :   0.1024 B( 25-C , 28-C ) :   0.6485
B( 25-C , 29-H ) :   0.9348 B( 25-C , 30-H ) :   0.9532 B( 28-C , 33-H ) :   0.8918
B( 28-C , 34-H ) :   0.9681 B( 31-H , 32-H ) :   0.2366

FINAL SINGLE POINT ENERGY     -1133.893297695756

DIPOLE MOMENT
-------------
                                X             Y             Z
Electronic contribution:     -6.99688     -18.76483     -13.18361
Nuclear contribution   :      7.78491      18.17172      15.09294
                        -----------------------------------------
Total Dipole Moment    :      0.78804      -0.59311       1.90932
                        -----------------------------------------
Magnitude (a.u.)       :      2.14902
Magnitude (Debye)      :      5.46237

Rotational constants in cm-1:     0.018190     0.012573     0.008405
Rotational constants in MHz :   545.327178   376.916509   251.974803

                             ****ORCA TERMINATED NORMALLY****
TOTAL RUN TIME: 0 days 0 hours 12 minutes 20 seconds 305 msec
