                         Program Version 5.0.0 -  RELEASE  -
|  1> !LC-BLYP RIJCOSX def2-TZVPD def2/J TightSCF xyzfile
|  2>
|  3> *xyzfile 0 1 D2.xyz
|  4>
|  5> %MaxCore 64000
|  6>
|  7> %pal nprocs 4
|  8> end
|  9>
| 10> %scf
| 11>   MaxIter 150
| 12> end
| 13>
| 14>
| 15>                          ****END OF INPUT****

CARTESIAN COORDINATES (ANGSTROEM)
---------------------------------
  C      5.558206   -1.992914   -6.215054
  C      4.930199   -7.375319   -2.649623
  C      3.841892   -6.951611   -3.632829
  H      3.458144   -5.954425   -3.407121
  H      2.988484   -7.643606   -3.567078
  S      4.318115   -6.915930   -5.368692
  C      4.181880   -2.589671   -6.298911
  N      3.145873   -1.768431   -6.486753
  C      4.019102   -3.864307   -6.227427
  H      4.768490   -4.591153   -5.990773
  H      3.122405   -4.333392   -6.314620
  H      3.281635   -0.777786   -6.566549
  H      2.212549   -2.134193   -6.562246
  F      5.406154   -5.899480   -5.512972
  O      3.111910   -6.445079   -6.043792
  C      6.419260   -2.542944   -5.077630
  C      5.872267   -5.002756   -2.427819
  C      6.173994   -6.485522   -2.606315
  H      6.734852   -6.613767   -3.534015
  H      6.821463   -6.831018   -1.793617
  H      4.469612   -7.406168   -1.655876
  H      5.230134   -8.398678   -2.885906
  C      5.896512   -2.169314   -3.694552
  H      7.428880   -2.143665   -5.208078
  H      6.505894   -3.627541   -5.175502
  C      6.807804   -2.623428   -2.551019
  H      4.894708   -2.589732   -3.557501
  H      5.778823   -1.081255   -3.635790
  C      7.111544   -4.122463   -2.520363
  H      7.751615   -2.071393   -2.614406
  H      6.345837   -2.326401   -1.604086
  H      5.362882   -4.828697   -1.471335
  H      5.174429   -4.702577   -3.211298
  H      7.778329   -4.329347   -1.677651
  H      7.673189   -4.402845   -3.417586
  O      4.763396   -8.239424   -5.698629
  H      6.036826   -2.198189   -7.176852
  H      5.467610   -0.907371   -6.127968

 Total Charge           Charge          ....    0
 Multiplicity           Mult            ....    1
 Number of Electrons    NEL             ....  136
 Basis Dimension        Dim             ....  808

ORBITAL ENERGIES
----------------

  NO   OCC          E(Eh)            E(eV)
   0   2.0000     -88.515692     -2408.6344
   1   2.0000     -24.552882      -668.1179
   2   2.0000     -18.955747      -515.8121
   3   2.0000     -18.943349      -515.4747
   4   2.0000     -14.160712      -385.3326
   5   2.0000     -10.127616      -275.5865
   6   2.0000     -10.093969      -274.6709
   7   2.0000     -10.081075      -274.3200
   8   2.0000     -10.078923      -274.2614
   9   2.0000     -10.071048      -274.0472
  10   2.0000     -10.066652      -273.9275
  11   2.0000     -10.064254      -273.8623
  12   2.0000     -10.063831      -273.8508
  13   2.0000     -10.063059      -273.8298
  14   2.0000     -10.059341      -273.7286
  15   2.0000      -9.981907      -271.6215
  16   2.0000      -8.058553      -219.2844
  17   2.0000      -6.090605      -165.7338
  18   2.0000      -6.083453      -165.5392
  19   2.0000      -6.082869      -165.5233
  20   2.0000      -1.432696       -38.9856
  21   2.0000      -1.208237       -32.8778
  22   2.0000      -1.113332       -30.2953
  23   2.0000      -1.019566       -27.7438
  24   2.0000      -0.952897       -25.9296
  25   2.0000      -0.926944       -25.2234
  26   2.0000      -0.896984       -24.4082
  27   2.0000      -0.868233       -23.6258
  28   2.0000      -0.830215       -22.5913
  29   2.0000      -0.819594       -22.3023
  30   2.0000      -0.792891       -21.5757
  31   2.0000      -0.769517       -20.9396
  32   2.0000      -0.732125       -19.9221
  33   2.0000      -0.715547       -19.4710
  34   2.0000      -0.697846       -18.9894
  35   2.0000      -0.672629       -18.3032
  36   2.0000      -0.671200       -18.2643
  37   2.0000      -0.650862       -17.7108
  38   2.0000      -0.644820       -17.5464
  39   2.0000      -0.619907       -16.8685
  40   2.0000      -0.603498       -16.4220
  41   2.0000      -0.597976       -16.2717
  42   2.0000      -0.592235       -16.1155
  43   2.0000      -0.575762       -15.6673
  44   2.0000      -0.563530       -15.3344
  45   2.0000      -0.560274       -15.2458
  46   2.0000      -0.552544       -15.0355
  47   2.0000      -0.540663       -14.7122
  48   2.0000      -0.521799       -14.1989
  49   2.0000      -0.516599       -14.0574
  50   2.0000      -0.512038       -13.9332
  51   2.0000      -0.503035       -13.6883
  52   2.0000      -0.480704       -13.0806
  53   2.0000      -0.475248       -12.9321
  54   2.0000      -0.467443       -12.7198
  55   2.0000      -0.461483       -12.5576
  56   2.0000      -0.451766       -12.2932
  57   2.0000      -0.449455       -12.2303
  58   2.0000      -0.443279       -12.0622
  59   2.0000      -0.437007       -11.8916
  60   2.0000      -0.429065       -11.6754
  61   2.0000      -0.428454       -11.6588
  62   2.0000      -0.420978       -11.4554
  63   2.0000      -0.414476       -11.2785
  64   2.0000      -0.409547       -11.1443
  65   2.0000      -0.405519       -11.0347
  66   2.0000      -0.401783       -10.9331
  67   2.0000      -0.280511        -7.6331
  68   0.0000       0.040267         1.0957
  69   0.0000       0.047951         1.3048
  70   0.0000       0.051804         1.4097
  71   0.0000       0.055900         1.5211
  72   0.0000       0.067429         1.8348

MULLIKEN ATOMIC CHARGES
-----------------------
   0 C :   -0.927342
   1 C :   -0.839479
   2 C :   -0.956474
   3 H :    0.472242
   4 H :    0.531529
   5 S :    1.123151
   6 C :    0.542576
   7 N :   -0.395239
   8 C :   -1.061595
   9 H :    0.320498
  10 H :    0.507765
  11 H :    0.167256
  12 H :    0.170135
  13 F :   -0.219936
  14 O :   -0.610283
  15 C :   -0.593955
  16 C :   -0.021157
  17 C :   -1.014945
  18 H :    0.365533
  19 H :    0.463600
  20 H :    0.412425
  21 H :    0.407928
  22 C :   -0.619483
  23 H :    0.381410
  24 H :    0.211082
  25 C :   -0.955477
  26 H :    0.316541
  27 H :    0.396403
  28 C :   -0.921781
  29 H :    0.425578
  30 H :    0.402451
  31 H :    0.338168
  32 H :    0.097581
  33 H :    0.426428
  34 H :    0.405860
  35 O :   -0.522517
  36 H :    0.367792
  37 H :    0.405729
Sum of atomic charges:    0.0000000

LOEWDIN ATOMIC CHARGES
----------------------
   0 C :   -0.153956
   1 C :   -0.232290
   2 C :   -0.230891
   3 H :    0.110142
   4 H :    0.128125
   5 S :    0.591951
   6 C :   -0.471677
   7 N :    0.114445
   8 C :   -0.002723
   9 H :    0.008798
  10 H :    0.026352
  11 H :    0.090974
  12 H :    0.105838
  13 F :   -0.114661
  14 O :   -0.269745
  15 C :   -0.214604
  16 C :   -0.231892
  17 C :   -0.225250
  18 H :    0.111654
  19 H :    0.126988
  20 H :    0.125824
  21 H :    0.119214
  22 C :   -0.222701
  23 H :    0.125260
  24 H :    0.096111
  25 C :   -0.222237
  26 H :    0.113973
  27 H :    0.121563
  28 C :   -0.225881
  29 H :    0.116050
  30 H :    0.115958
  31 H :    0.137243
  32 H :    0.087103
  33 H :    0.120906
  34 H :    0.115005
  35 O :   -0.235024
  36 H :    0.129061
  37 H :    0.114993

  Mayer bond orders larger than 0.100000
B(  0-C ,  6-C ) :   0.1866 B(  0-C , 15-C ) :   0.6930 B(  0-C , 36-H ) :   0.9792
B(  0-C , 37-H ) :   0.9754 B(  1-C ,  2-C ) :   0.5991 B(  1-C , 17-C ) :   0.6542
B(  1-C , 20-H ) :   0.9233 B(  1-C , 21-H ) :   0.9468 B(  2-C ,  3-H ) :   0.8641
B(  2-C ,  4-H ) :   0.7406 B(  2-C ,  5-S ) :   0.9110 B(  5-S , 13-F ) :   1.1455
B(  5-S , 14-O ) :   1.5511 B(  5-S , 35-O ) :   1.5013 B(  6-C ,  7-N ) :   0.7107
B(  6-C ,  8-C ) :   0.5947 B(  6-C ,  9-H ) :   0.3804 B(  6-C , 10-H ) :  -0.2898
B(  6-C , 37-H ) :  -0.1875 B(  7-N , 11-H ) :   1.0586 B(  7-N , 12-H ) :   1.0416
B(  8-C ,  9-H ) :   0.8656 B(  8-C , 10-H ) :   0.9802 B(  8-C , 13-F ) :   0.1614
B(  9-H , 13-F ) :  -0.3280 B( 15-C , 22-C ) :   0.3028 B( 15-C , 23-H ) :   0.9270
B( 15-C , 24-H ) :   1.1525 B( 15-C , 26-H ) :  -0.1055 B( 16-C , 17-C ) :   0.1545
B( 16-C , 18-H ) :  -0.1117 B( 16-C , 28-C ) :   0.2543 B( 16-C , 31-H ) :   0.9062
B( 16-C , 32-H ) :   1.0954 B( 17-C , 18-H ) :   1.0177 B( 17-C , 19-H ) :   0.8264
B( 17-C , 28-C ) :   0.2248 B( 22-C , 24-H ) :  -0.1128 B( 22-C , 25-C ) :   0.6230
B( 22-C , 26-H ) :   1.0522 B( 22-C , 27-H ) :   0.8795 B( 22-C , 28-C ) :  -0.1053
B( 23-H , 24-H ) :   0.1155 B( 25-C , 28-C ) :   0.6521 B( 25-C , 29-H ) :   0.9423
B( 25-C , 30-H ) :   0.9431 B( 28-C , 33-H ) :   0.8983 B( 28-C , 34-H ) :   0.9627
B( 31-H , 32-H ) :   0.2365

FINAL SINGLE POINT ENERGY     -1133.887659444015

DIPOLE MOMENT
-------------
                                X             Y             Z
Electronic contribution:     -7.71995     -16.95177     -13.59158
Nuclear contribution   :      7.91684      17.85507      15.13212
                        -----------------------------------------
Total Dipole Moment    :      0.19689       0.90330       1.54053
                        -----------------------------------------
Magnitude (a.u.)       :      1.79665
Magnitude (Debye)      :      4.56673

Rotational constants in cm-1:     0.018015     0.012410     0.008313
Rotational constants in MHz :   540.084467   372.038374   249.228144

                             ****ORCA TERMINATED NORMALLY****
TOTAL RUN TIME: 0 days 0 hours 10 minutes 54 seconds 66 msec
