                         Program Version 5.0.0 -  RELEASE  -
|  1> !LC-BLYP RIJCOSX def2-TZVPD def2/J TightSCF xyzfile
|  2>
|  3> *xyzfile 0 1 D3.xyz
|  4>
|  5> %MaxCore 64000
|  6>
|  7> %pal nprocs 4
|  8> end
|  9>
| 10> %scf
| 11>   MaxIter 150
| 12> end
| 13>
| 14>
| 15>                          ****END OF INPUT****

CARTESIAN COORDINATES (ANGSTROEM)
---------------------------------
  C      5.558206   -1.992914   -6.215054
  C      4.930199   -7.375319   -2.649623
  C      3.841892   -6.951611   -3.632829
  H      3.458144   -5.954425   -3.407121
  H      2.988484   -7.643606   -3.567078
  S      4.318115   -6.915930   -5.368692
  C      4.181880   -2.589671   -6.298911
  C      3.145873   -1.768431   -6.486753
  N      4.019102   -3.864307   -6.227427
  H      4.768490   -4.591153   -5.990773
  H      3.122405   -4.333392   -6.314620
  H      3.281635   -0.777786   -6.566549
  H      2.212549   -2.134193   -6.562246
  O      5.406154   -5.899480   -5.512972
  F      3.111910   -6.445079   -6.043792
  C      6.419260   -2.542944   -5.077630
  C      5.872267   -5.002756   -2.427819
  C      6.173994   -6.485522   -2.606315
  H      6.734852   -6.613767   -3.534015
  H      6.821463   -6.831018   -1.793617
  H      4.469612   -7.406168   -1.655876
  H      5.230134   -8.398678   -2.885906
  C      5.896512   -2.169314   -3.694552
  H      7.428880   -2.143665   -5.208078
  H      6.505894   -3.627541   -5.175502
  C      6.807804   -2.623428   -2.551019
  H      4.894708   -2.589732   -3.557501
  H      5.778823   -1.081255   -3.635790
  C      7.111544   -4.122463   -2.520363
  H      7.751615   -2.071393   -2.614406
  H      6.345837   -2.326401   -1.604086
  H      5.362882   -4.828697   -1.471335
  H      5.174429   -4.702577   -3.211298
  H      7.778329   -4.329347   -1.677651
  H      7.673189   -4.402845   -3.417586
  O      4.763396   -8.239424   -5.698629
  H      6.036826   -2.198189   -7.176852
  H      5.467610   -0.907371   -6.127968

 Total Charge           Charge          ....    0
 Multiplicity           Mult            ....    1
 Number of Electrons    NEL             ....  136
 Basis Dimension        Dim             ....  808

ORBITAL ENERGIES
----------------

  NO   OCC          E(Eh)            E(eV)
   0   2.0000     -88.546593     -2409.4753
   1   2.0000     -24.593280      -669.2172
   2   2.0000     -18.980718      -516.4916
   3   2.0000     -18.972329      -516.2633
   4   2.0000     -14.141818      -384.8184
   5   2.0000     -10.148008      -276.1413
   6   2.0000     -10.107083      -275.0277
   7   2.0000     -10.076770      -274.2029
   8   2.0000     -10.075923      -274.1798
   9   2.0000     -10.067424      -273.9485
  10   2.0000     -10.061460      -273.7862
  11   2.0000     -10.058047      -273.6934
  12   2.0000     -10.052928      -273.5541
  13   2.0000     -10.052529      -273.5432
  14   2.0000     -10.052340      -273.5381
  15   2.0000      -9.981157      -271.6011
  16   2.0000      -8.089472      -220.1257
  17   2.0000      -6.121239      -166.5674
  18   2.0000      -6.114482      -166.3835
  19   2.0000      -6.113905      -166.3678
  20   2.0000      -1.478323       -40.2272
  21   2.0000      -1.231294       -33.5052
  22   2.0000      -1.134873       -30.8815
  23   2.0000      -1.014466       -27.6050
  24   2.0000      -0.962892       -26.2016
  25   2.0000      -0.923992       -25.1431
  26   2.0000      -0.897925       -24.4338
  27   2.0000      -0.868800       -23.6413
  28   2.0000      -0.845981       -23.0203
  29   2.0000      -0.817410       -22.2429
  30   2.0000      -0.799073       -21.7439
  31   2.0000      -0.763947       -20.7880
  32   2.0000      -0.730826       -19.8868
  33   2.0000      -0.717753       -19.5310
  34   2.0000      -0.711349       -19.3568
  35   2.0000      -0.697284       -18.9741
  36   2.0000      -0.684952       -18.6385
  37   2.0000      -0.665729       -18.1154
  38   2.0000      -0.659730       -17.9522
  39   2.0000      -0.629487       -17.1292
  40   2.0000      -0.614138       -16.7115
  41   2.0000      -0.603580       -16.4242
  42   2.0000      -0.587550       -15.9881
  43   2.0000      -0.571981       -15.5644
  44   2.0000      -0.565270       -15.3818
  45   2.0000      -0.561989       -15.2925
  46   2.0000      -0.551948       -15.0193
  47   2.0000      -0.535474       -14.5710
  48   2.0000      -0.528661       -14.3856
  49   2.0000      -0.522453       -14.2167
  50   2.0000      -0.516003       -14.0412
  51   2.0000      -0.505649       -13.7594
  52   2.0000      -0.492113       -13.3911
  53   2.0000      -0.486427       -13.2363
  54   2.0000      -0.474462       -12.9108
  55   2.0000      -0.464941       -12.6517
  56   2.0000      -0.460457       -12.5297
  57   2.0000      -0.457242       -12.4422
  58   2.0000      -0.450676       -12.2635
  59   2.0000      -0.436221       -11.8702
  60   2.0000      -0.432345       -11.7647
  61   2.0000      -0.427473       -11.6321
  62   2.0000      -0.424783       -11.5589
  63   2.0000      -0.413591       -11.2544
  64   2.0000      -0.406194       -11.0531
  65   2.0000      -0.399567       -10.8728
  66   2.0000      -0.396012       -10.7760
  67   2.0000      -0.263745        -7.1769
  68   0.0000       0.023033         0.6268
  69   0.0000       0.042460         1.1554
  70   0.0000       0.046133         1.2553
  71   0.0000       0.055313         1.5051
  72   0.0000       0.066799         1.8177

MULLIKEN ATOMIC CHARGES
-----------------------
   0 C :   -0.946104
   1 C :   -0.887669
   2 C :   -0.946343
   3 H :    0.522855
   4 H :    0.506553
   5 S :    1.092529
   6 C :    0.767754
   7 C :   -1.401451
   8 N :   -0.199604
   9 H :    0.335779
  10 H :    0.080641
  11 H :    0.347425
  12 H :    0.369527
  13 O :   -0.702260
  14 F :   -0.172512
  15 C :   -0.619778
  16 C :   -0.121023
  17 C :   -1.000564
  18 H :    0.397478
  19 H :    0.474473
  20 H :    0.411171
  21 H :    0.410707
  22 C :   -0.582108
  23 H :    0.374142
  24 H :    0.247007
  25 C :   -0.965218
  26 H :    0.302224
  27 H :    0.398653
  28 C :   -0.940255
  29 H :    0.426948
  30 H :    0.403353
  31 H :    0.343533
  32 H :    0.185547
  33 H :    0.432469
  34 H :    0.407826
  35 O :   -0.502444
  36 H :    0.366111
  37 H :    0.382628
Sum of atomic charges:    0.0000000

LOEWDIN ATOMIC CHARGES
----------------------
   0 C :   -0.154492
   1 C :   -0.220324
   2 C :   -0.234127
   3 H :    0.110356
   4 H :    0.120737
   5 S :    0.624321
   6 C :   -0.501787
   7 C :    0.013819
   8 N :    0.103481
   9 H :    0.034110
  10 H :    0.095015
  11 H :    0.009189
  12 H :    0.013876
  13 O :   -0.288464
  14 F :   -0.045089
  15 C :   -0.215148
  16 C :   -0.233021
  17 C :   -0.223782
  18 H :    0.112026
  19 H :    0.127102
  20 H :    0.129334
  21 H :    0.121543
  22 C :   -0.221821
  23 H :    0.124538
  24 H :    0.093598
  25 C :   -0.222724
  26 H :    0.113796
  27 H :    0.123361
  28 C :   -0.224116
  29 H :    0.116026
  30 H :    0.115186
  31 H :    0.135475
  32 H :    0.085415
  33 H :    0.120179
  34 H :    0.116973
  35 O :   -0.222488
  36 H :    0.127871
  37 H :    0.120057

  Mayer bond orders larger than 0.100000
B(  0-C ,  6-C ) :   0.4791 B(  0-C ,  7-C ) :   0.1014 B(  0-C , 15-C ) :   0.6249
B(  0-C , 36-H ) :   0.9829 B(  0-C , 37-H ) :   0.9710 B(  1-C ,  2-C ) :   0.6627
B(  1-C , 17-C ) :   0.6619 B(  1-C , 20-H ) :   0.9195 B(  1-C , 21-H ) :   0.9178
B(  2-C ,  3-H ) :   0.7686 B(  2-C ,  4-H ) :   0.7742 B(  2-C ,  5-S ) :   0.8886
B(  5-S , 13-O ) :   1.6838 B(  5-S , 14-F ) :   0.9705 B(  5-S , 35-O ) :   1.5951
B(  6-C ,  7-C ) :   1.0146 B(  6-C ,  8-N ) :   0.8517 B(  6-C , 10-H ) :  -0.1101
B(  6-C , 12-H ) :  -0.1432 B(  7-C ,  8-N ) :   0.1702 B(  7-C , 11-H ) :   1.0152
B(  7-C , 12-H ) :   1.0058 B(  8-N ,  9-H ) :   0.8418 B(  8-N , 10-H ) :   1.0251
B(  8-N , 15-C ) :   0.1474 B( 15-C , 22-C ) :   0.3194 B( 15-C , 23-H ) :   0.9465
B( 15-C , 24-H ) :   1.0752 B( 16-C , 17-C ) :   0.2202 B( 16-C , 28-C ) :   0.2414
B( 16-C , 31-H ) :   0.8957 B( 16-C , 32-H ) :   1.0852 B( 17-C , 18-H ) :   0.9811
B( 17-C , 19-H ) :   0.8148 B( 17-C , 28-C ) :   0.2415 B( 22-C , 24-H ) :  -0.1208
B( 22-C , 25-C ) :   0.6288 B( 22-C , 26-H ) :   1.0488 B( 22-C , 27-H ) :   0.8814
B( 22-C , 28-C ) :  -0.1032 B( 23-H , 24-H ) :   0.1062 B( 25-C , 28-C ) :   0.6367
B( 25-C , 29-H ) :   0.9352 B( 25-C , 30-H ) :   0.9549 B( 28-C , 33-H ) :   0.8934
B( 28-C , 34-H ) :   0.9591 B( 31-H , 32-H ) :   0.2277

FINAL SINGLE POINT ENERGY     -1133.890889298058

DIPOLE MOMENT
-------------
                                X             Y             Z
Electronic contribution:    -10.96916     -20.02413     -14.20398
Nuclear contribution   :     10.48431      18.81367      15.71750
                        -----------------------------------------
Total Dipole Moment    :     -0.48485      -1.21046       1.51352
                        -----------------------------------------
Magnitude (a.u.)       :      1.99775
Magnitude (Debye)      :      5.07789

Rotational constants in cm-1:     0.017977     0.012528     0.008321
Rotational constants in MHz :   538.924099   375.570730   249.458530

                             ****ORCA TERMINATED NORMALLY****
TOTAL RUN TIME: 0 days 0 hours 10 minutes 50 seconds 74 msec
