                         Program Version 5.0.0 -  RELEASE  -
|  1> !LC-BLYP RIJCOSX def2-TZVPD def2/J TightSCF xyzfile
|  2>
|  3> *xyzfile 0 1 D4.xyz
|  4>
|  5> %MaxCore 64000
|  6>
|  7> %pal nprocs 4
|  8> end
|  9>
| 10> %scf
| 11>   MaxIter 150
| 12> end
| 13>
| 14>
| 15>                          ****END OF INPUT****

CARTESIAN COORDINATES (ANGSTROEM)
---------------------------------
  C      5.558206   -1.992914   -6.215054
  C      4.930199   -7.375319   -2.649623
  C      3.841892   -6.951611   -3.632829
  H      3.458144   -5.954425   -3.407121
  H      2.988484   -7.643606   -3.567078
  S      4.318115   -6.915930   -5.368692
  C      4.181880   -2.589671   -6.298911
  N      3.145873   -1.768431   -6.486753
  C      4.019102   -3.864307   -6.227427
  H      4.768490   -4.591153   -5.990773
  H      3.122405   -4.333392   -6.314620
  H      3.281635   -0.777786   -6.566549
  H      2.212549   -2.134193   -6.562246
  O      5.406154   -5.899480   -5.512972
  F      3.111910   -6.445079   -6.043792
  C      6.419260   -2.542944   -5.077630
  C      5.872267   -5.002756   -2.427819
  C      6.173994   -6.485522   -2.606315
  H      6.734852   -6.613767   -3.534015
  H      6.821463   -6.831018   -1.793617
  H      4.469612   -7.406168   -1.655876
  H      5.230134   -8.398678   -2.885906
  C      5.896512   -2.169314   -3.694552
  H      7.428880   -2.143665   -5.208078
  H      6.505894   -3.627541   -5.175502
  C      6.807804   -2.623428   -2.551019
  H      4.894708   -2.589732   -3.557501
  H      5.778823   -1.081255   -3.635790
  C      7.111544   -4.122463   -2.520363
  H      7.751615   -2.071393   -2.614406
  H      6.345837   -2.326401   -1.604086
  H      5.362882   -4.828697   -1.471335
  H      5.174429   -4.702577   -3.211298
  H      7.778329   -4.329347   -1.677651
  H      7.673189   -4.402845   -3.417586
  O      4.763396   -8.239424   -5.698629
  H      6.036826   -2.198189   -7.176852
  H      5.467610   -0.907371   -6.127968

 Total Charge           Charge          ....    0
 Multiplicity           Mult            ....    1
 Number of Electrons    NEL             ....  136
 Basis Dimension        Dim             ....  808

ORBITAL ENERGIES
----------------

  NO   OCC          E(Eh)            E(eV)
   0   2.0000     -88.523743     -2408.8535
   1   2.0000     -24.568223      -668.5353
   2   2.0000     -18.959904      -515.9252
   3   2.0000     -18.942360      -515.4478
   4   2.0000     -14.156604      -385.2208
   5   2.0000     -10.132064      -275.7075
   6   2.0000     -10.095154      -274.7031
   7   2.0000     -10.075231      -274.1610
   8   2.0000     -10.066471      -273.9226
   9   2.0000     -10.058583      -273.7080
  10   2.0000     -10.056166      -273.6422
  11   2.0000     -10.055478      -273.6235
  12   2.0000     -10.054686      -273.6019
  13   2.0000     -10.050226      -273.4805
  14   2.0000     -10.049971      -273.4736
  15   2.0000      -9.971923      -271.3498
  16   2.0000      -8.066433      -219.4988
  17   2.0000      -6.098028      -165.9358
  18   2.0000      -6.091368      -165.7545
  19   2.0000      -6.091176      -165.7493
  20   2.0000      -1.453492       -39.5515
  21   2.0000      -1.208258       -32.8784
  22   2.0000      -1.108840       -30.1731
  23   2.0000      -1.015039       -27.6206
  24   2.0000      -0.948901       -25.8209
  25   2.0000      -0.918920       -25.0051
  26   2.0000      -0.890611       -24.2348
  27   2.0000      -0.865497       -23.5514
  28   2.0000      -0.830973       -22.6119
  29   2.0000      -0.813155       -22.1271
  30   2.0000      -0.788264       -21.4498
  31   2.0000      -0.761266       -20.7151
  32   2.0000      -0.726901       -19.7800
  33   2.0000      -0.709042       -19.2940
  34   2.0000      -0.691247       -18.8098
  35   2.0000      -0.674669       -18.3587
  36   2.0000      -0.670746       -18.2519
  37   2.0000      -0.658944       -17.9308
  38   2.0000      -0.644072       -17.5261
  39   2.0000      -0.619579       -16.8596
  40   2.0000      -0.604495       -16.4491
  41   2.0000      -0.599064       -16.3014
  42   2.0000      -0.585604       -15.9351
  43   2.0000      -0.572649       -15.5826
  44   2.0000      -0.561897       -15.2900
  45   2.0000      -0.552805       -15.0426
  46   2.0000      -0.549415       -14.9503
  47   2.0000      -0.531668       -14.4674
  48   2.0000      -0.517134       -14.0719
  49   2.0000      -0.513053       -13.9609
  50   2.0000      -0.509253       -13.8575
  51   2.0000      -0.494879       -13.4663
  52   2.0000      -0.489749       -13.3267
  53   2.0000      -0.471594       -12.8327
  54   2.0000      -0.465835       -12.6760
  55   2.0000      -0.457212       -12.4414
  56   2.0000      -0.450480       -12.2582
  57   2.0000      -0.443597       -12.0709
  58   2.0000      -0.438810       -11.9406
  59   2.0000      -0.434958       -11.8358
  60   2.0000      -0.421549       -11.4709
  61   2.0000      -0.420524       -11.4430
  62   2.0000      -0.417993       -11.3742
  63   2.0000      -0.404114       -10.9965
  64   2.0000      -0.398630       -10.8473
  65   2.0000      -0.395609       -10.7651
  66   2.0000      -0.366947        -9.9851
  67   2.0000      -0.274785        -7.4773
  68   0.0000       0.032467         0.8835
  69   0.0000       0.050449         1.3728
  70   0.0000       0.051709         1.4071
  71   0.0000       0.057717         1.5706
  72   0.0000       0.067593         1.8393

MULLIKEN ATOMIC CHARGES
-----------------------
   0 C :   -0.910829
   1 C :   -0.891152
   2 C :   -0.956108
   3 H :    0.515350
   4 H :    0.510360
   5 S :    1.067147
   6 C :    0.314826
   7 N :   -0.396366
   8 C :   -0.786274
   9 H :    0.330191
  10 H :    0.430552
  11 H :    0.165784
  12 H :    0.160167
  13 O :   -0.637499
  14 F :   -0.137919
  15 C :   -0.621906
  16 C :   -0.057747
  17 C :   -1.019742
  18 H :    0.408839
  19 H :    0.477028
  20 H :    0.403326
  21 H :    0.408610
  22 C :   -0.625404
  23 H :    0.384556
  24 H :    0.245377
  25 C :   -0.945469
  26 H :    0.308205
  27 H :    0.397892
  28 C :   -0.949473
  29 H :    0.424220
  30 H :    0.400169
  31 H :    0.339067
  32 H :    0.145756
  33 H :    0.428636
  34 H :    0.416519
  35 O :   -0.519997
  36 H :    0.366669
  37 H :    0.406640
Sum of atomic charges:   -0.0000000

LOEWDIN ATOMIC CHARGES
----------------------
   0 C :   -0.152578
   1 C :   -0.222222
   2 C :   -0.235534
   3 H :    0.109304
   4 H :    0.118542
   5 S :    0.613485
   6 C :   -0.474646
   7 N :    0.109235
   8 C :   -0.011884
   9 H :   -0.019468
  10 H :    0.026052
  11 H :    0.089439
  12 H :    0.101970
  13 O :   -0.301963
  14 F :   -0.052638
  15 C :   -0.210734
  16 C :   -0.232227
  17 C :   -0.224471
  18 H :    0.112185
  19 H :    0.125610
  20 H :    0.127255
  21 H :    0.120550
  22 C :   -0.223316
  23 H :    0.124580
  24 H :    0.099318
  25 C :   -0.223266
  26 H :    0.113247
  27 H :    0.119821
  28 C :   -0.223937
  29 H :    0.115132
  30 H :    0.114497
  31 H :    0.134306
  32 H :    0.087470
  33 H :    0.119551
  34 H :    0.117565
  35 O :   -0.233162
  36 H :    0.129285
  37 H :    0.113650

  Mayer bond orders larger than 0.100000
B(  0-C ,  6-C ) :   0.1632 B(  0-C , 15-C ) :   0.6808 B(  0-C , 36-H ) :   0.9721
B(  0-C , 37-H ) :   0.9819 B(  1-C ,  2-C ) :   0.6621 B(  1-C , 17-C ) :   0.6529
B(  1-C , 20-H ) :   0.9235 B(  1-C , 21-H ) :   0.9164 B(  2-C ,  3-H ) :   0.7776
B(  2-C ,  4-H ) :   0.7766 B(  2-C ,  5-S ) :   0.8893 B(  2-C , 35-O ) :   0.1080
B(  5-S , 13-O ) :   1.7248 B(  5-S , 14-F ) :   0.9664 B(  5-S , 35-O ) :   1.5731
B(  6-C ,  7-N ) :   0.7015 B(  6-C ,  8-C ) :   0.8510 B(  6-C ,  9-H ) :   0.4780
B(  6-C , 10-H ) :  -0.2437 B(  6-C , 37-H ) :  -0.1939 B(  7-N , 11-H ) :   1.0617
B(  7-N , 12-H ) :   1.0502 B(  8-C ,  9-H ) :   0.7739 B(  8-C , 10-H ) :   1.0213
B(  8-C , 13-O ) :   0.1358 B(  9-H , 13-O ) :  -0.4134 B( 15-C , 22-C ) :   0.2939
B( 15-C , 23-H ) :   0.9347 B( 15-C , 24-H ) :   1.1117 B( 15-C , 26-H ) :  -0.1011
B( 16-C , 17-C ) :   0.2383 B( 16-C , 28-C ) :   0.2337 B( 16-C , 31-H ) :   0.9068
B( 16-C , 32-H ) :   1.0905 B( 17-C , 18-H ) :   0.9650 B( 17-C , 19-H ) :   0.8156
B( 17-C , 28-C ) :   0.2501 B( 22-C , 24-H ) :  -0.1116 B( 22-C , 25-C ) :   0.6168
B( 22-C , 26-H ) :   1.0597 B( 22-C , 27-H ) :   0.8822 B( 22-C , 28-C ) :  -0.1086
B( 23-H , 24-H ) :   0.1195 B( 25-C , 28-C ) :   0.6410 B( 25-C , 29-H ) :   0.9405
B( 25-C , 30-H ) :   0.9433 B( 28-C , 33-H ) :   0.8987 B( 28-C , 34-H ) :   0.9534
B( 31-H , 32-H ) :   0.2259

FINAL SINGLE POINT ENERGY     -1133.878835488457

DIPOLE MOMENT
-------------
                                X             Y             Z
Electronic contribution:    -11.69693     -18.15946     -14.62409
Nuclear contribution   :     10.61624      18.49702      15.75668
                        -----------------------------------------
Total Dipole Moment    :     -1.08069       0.33756       1.13259
                        -----------------------------------------
Magnitude (a.u.)       :      1.60144
Magnitude (Debye)      :      4.07053

Rotational constants in cm-1:     0.017796     0.012372     0.008231
Rotational constants in MHz :   533.524905   370.895973   246.762347

                             ****ORCA TERMINATED NORMALLY****
TOTAL RUN TIME: 0 days 0 hours 12 minutes 43 seconds 586 msec
