                         Program Version 5.0.0 -  RELEASE  -
|  1> !LC-BLYP RIJCOSX def2-TZVPD def2/J TightSCF xyzfile
|  2>
|  3> *xyzfile 0 1 D5.xyz
|  4>
|  5> %MaxCore 64000
|  6>
|  7> %pal nprocs 4
|  8> end
|  9>
| 10> %scf
| 11>   MaxIter 150
| 12> end
| 13>
| 14>
| 15>                          ****END OF INPUT****

CARTESIAN COORDINATES (ANGSTROEM)
---------------------------------
  C      5.558206   -1.992914   -6.215054
  C      4.930199   -7.375319   -2.649623
  C      3.841892   -6.951611   -3.632829
  H      3.458144   -5.954425   -3.407121
  H      2.988484   -7.643606   -3.567078
  S      4.318115   -6.915930   -5.368692
  C      4.181880   -2.589671   -6.298911
  C      3.145873   -1.768431   -6.486753
  N      4.019102   -3.864307   -6.227427
  H      4.768490   -4.591153   -5.990773
  H      3.122405   -4.333392   -6.314620
  H      3.281635   -0.777786   -6.566549
  H      2.212549   -2.134193   -6.562246
  O      5.406154   -5.899480   -5.512972
  O      3.111910   -6.445079   -6.043792
  C      6.419260   -2.542944   -5.077630
  C      5.872267   -5.002756   -2.427819
  C      6.173994   -6.485522   -2.606315
  H      6.734852   -6.613767   -3.534015
  H      6.821463   -6.831018   -1.793617
  H      4.469612   -7.406168   -1.655876
  H      5.230134   -8.398678   -2.885906
  C      5.896512   -2.169314   -3.694552
  H      7.428880   -2.143665   -5.208078
  H      6.505894   -3.627541   -5.175502
  C      6.807804   -2.623428   -2.551019
  H      4.894708   -2.589732   -3.557501
  H      5.778823   -1.081255   -3.635790
  C      7.111544   -4.122463   -2.520363
  H      7.751615   -2.071393   -2.614406
  H      6.345837   -2.326401   -1.604086
  H      5.362882   -4.828697   -1.471335
  H      5.174429   -4.702577   -3.211298
  H      7.778329   -4.329347   -1.677651
  H      7.673189   -4.402845   -3.417586
  F      4.763396   -8.239424   -5.698629
  H      6.036826   -2.198189   -7.176852
  H      5.467610   -0.907371   -6.127968

 Total Charge           Charge          ....    0
 Multiplicity           Mult            ....    1
 Number of Electrons    NEL             ....  136
 Basis Dimension        Dim             ....  808

ORBITAL ENERGIES
----------------

  NO   OCC          E(Eh)            E(eV)
   0   2.0000     -88.550677     -2409.5864
   1   2.0000     -24.605567      -669.5515
   2   2.0000     -18.975410      -516.3472
   3   2.0000     -18.974444      -516.3209
   4   2.0000     -14.124255      -384.3405
   5   2.0000     -10.149483      -276.1815
   6   2.0000     -10.110045      -275.1083
   7   2.0000     -10.080825      -274.3132
   8   2.0000     -10.068526      -273.9785
   9   2.0000     -10.063783      -273.8495
  10   2.0000     -10.061602      -273.7901
  11   2.0000     -10.056423      -273.6492
  12   2.0000     -10.048635      -273.4373
  13   2.0000     -10.048425      -273.4316
  14   2.0000     -10.044882      -273.3351
  15   2.0000      -9.968880      -271.2670
  16   2.0000      -8.093389      -220.2323
  17   2.0000      -6.125100      -166.6724
  18   2.0000      -6.118566      -166.4947
  19   2.0000      -6.117696      -166.4710
  20   2.0000      -1.497188       -40.7406
  21   2.0000      -1.226888       -33.3853
  22   2.0000      -1.127278       -30.6748
  23   2.0000      -0.999047       -27.1855
  24   2.0000      -0.966893       -26.3105
  25   2.0000      -0.923058       -25.1177
  26   2.0000      -0.896032       -24.3823
  27   2.0000      -0.865962       -23.5640
  28   2.0000      -0.847834       -23.0707
  29   2.0000      -0.816854       -22.2277
  30   2.0000      -0.795394       -21.6438
  31   2.0000      -0.761597       -20.7241
  32   2.0000      -0.736879       -20.0515
  33   2.0000      -0.724689       -19.7198
  34   2.0000      -0.714024       -19.4296
  35   2.0000      -0.701596       -19.0914
  36   2.0000      -0.678126       -18.4527
  37   2.0000      -0.663290       -18.0490
  38   2.0000      -0.653454       -17.7814
  39   2.0000      -0.620785       -16.8924
  40   2.0000      -0.616774       -16.7833
  41   2.0000      -0.608963       -16.5707
  42   2.0000      -0.587579       -15.9888
  43   2.0000      -0.569839       -15.5061
  44   2.0000      -0.567687       -15.4476
  45   2.0000      -0.557583       -15.1726
  46   2.0000      -0.545304       -14.8385
  47   2.0000      -0.535259       -14.5651
  48   2.0000      -0.526985       -14.3400
  49   2.0000      -0.523759       -14.2522
  50   2.0000      -0.507235       -13.8026
  51   2.0000      -0.500986       -13.6325
  52   2.0000      -0.492629       -13.4051
  53   2.0000      -0.478812       -13.0291
  54   2.0000      -0.470275       -12.7968
  55   2.0000      -0.460064       -12.5190
  56   2.0000      -0.456723       -12.4281
  57   2.0000      -0.449556       -12.2330
  58   2.0000      -0.447759       -12.1841
  59   2.0000      -0.437939       -11.9169
  60   2.0000      -0.427475       -11.6322
  61   2.0000      -0.423981       -11.5371
  62   2.0000      -0.422045       -11.4844
  63   2.0000      -0.410870       -11.1803
  64   2.0000      -0.402978       -10.9656
  65   2.0000      -0.393885       -10.7182
  66   2.0000      -0.389619       -10.6021
  67   2.0000      -0.250093        -6.8054
  68   0.0000       0.018257         0.4968
  69   0.0000       0.038567         1.0495
  70   0.0000       0.047031         1.2798
  71   0.0000       0.054051         1.4708
  72   0.0000       0.062876         1.7109

MULLIKEN ATOMIC CHARGES
-----------------------
   0 C :   -0.946709
   1 C :   -0.827357
   2 C :   -0.963354
   3 H :    0.452972
   4 H :    0.525813
   5 S :    1.100537
   6 C :    0.793650
   7 C :   -1.391060
   8 N :   -0.182829
   9 H :    0.260694
  10 H :    0.116289
  11 H :    0.344543
  12 H :    0.373633
  13 O :   -0.690220
  14 O :   -0.641500
  15 C :   -0.627454
  16 C :   -0.122258
  17 C :   -0.947902
  18 H :    0.355697
  19 H :    0.475556
  20 H :    0.408518
  21 H :    0.414581
  22 C :   -0.579704
  23 H :    0.371999
  24 H :    0.254210
  25 C :   -0.961868
  26 H :    0.303032
  27 H :    0.398952
  28 C :   -0.950794
  29 H :    0.426396
  30 H :    0.402815
  31 H :    0.343649
  32 H :    0.170528
  33 H :    0.431094
  34 H :    0.413935
  35 F :   -0.048282
  36 H :    0.363825
  37 H :    0.378372
Sum of atomic charges:   -0.0000000

LOEWDIN ATOMIC CHARGES
----------------------
   0 C :   -0.156414
   1 C :   -0.230921
   2 C :   -0.225893
   3 H :    0.120999
   4 H :    0.121658
   5 S :    0.633730
   6 C :   -0.503193
   7 C :    0.009951
   8 N :    0.112639
   9 H :    0.037369
  10 H :    0.092328
  11 H :    0.006103
  12 H :    0.013590
  13 O :   -0.291735
  14 O :   -0.258196
  15 C :   -0.216471
  16 C :   -0.231375
  17 C :   -0.229254
  18 H :    0.107635
  19 H :    0.126387
  20 H :    0.127924
  21 H :    0.116646
  22 C :   -0.221433
  23 H :    0.123500
  24 H :    0.092549
  25 C :   -0.222979
  26 H :    0.114477
  27 H :    0.123489
  28 C :   -0.224637
  29 H :    0.115828
  30 H :    0.115054
  31 H :    0.136136
  32 H :    0.087308
  33 H :    0.119709
  34 H :    0.116474
  35 F :   -0.004738
  36 H :    0.126722
  37 H :    0.119036

  Mayer bond orders larger than 0.100000
B(  0-C ,  6-C ) :   0.4853 B(  0-C ,  7-C ) :   0.1020 B(  0-C , 15-C ) :   0.6264
B(  0-C , 36-H ) :   0.9808 B(  0-C , 37-H ) :   0.9775 B(  1-C ,  2-C ) :   0.5391
B(  1-C , 17-C ) :   0.6352 B(  1-C , 20-H ) :   0.9312 B(  1-C , 21-H ) :   0.9170
B(  2-C ,  3-H ) :   0.8642 B(  2-C ,  4-H ) :   0.7664 B(  2-C ,  5-S ) :   0.9229
B(  2-C , 14-O ) :   0.1009 B(  5-S , 13-O ) :   1.7171 B(  5-S , 14-O ) :   1.6355
B(  5-S , 35-F ) :   0.9596 B(  6-C ,  7-C ) :   1.0383 B(  6-C ,  8-N ) :   0.7875
B(  6-C ,  9-H ) :  -0.1245 B(  6-C , 10-H ) :  -0.1335 B(  6-C , 12-H ) :  -0.1270
B(  7-C ,  8-N ) :   0.1716 B(  7-C , 11-H ) :   1.0258 B(  7-C , 12-H ) :   0.9904
B(  8-N ,  9-H ) :   0.9158 B(  8-N , 10-H ) :   1.0468 B(  8-N , 13-O ) :  -0.1035
B(  8-N , 15-C ) :   0.1495 B( 13-O , 14-O ) :   0.1128 B( 15-C , 22-C ) :   0.3153
B( 15-C , 23-H ) :   0.9477 B( 15-C , 24-H ) :   1.0707 B( 15-C , 36-H ) :  -0.1008
B( 16-C , 17-C ) :   0.2369 B( 16-C , 28-C ) :   0.2408 B( 16-C , 31-H ) :   0.8922
B( 16-C , 32-H ) :   1.0690 B( 17-C , 18-H ) :   1.0142 B( 17-C , 19-H ) :   0.8215
B( 17-C , 28-C ) :   0.2518 B( 22-C , 24-H ) :  -0.1195 B( 22-C , 25-C ) :   0.6229
B( 22-C , 26-H ) :   1.0465 B( 22-C , 27-H ) :   0.8797 B( 22-C , 28-C ) :  -0.1038
B( 23-H , 24-H ) :   0.1054 B( 25-C , 28-C ) :   0.6415 B( 25-C , 29-H ) :   0.9361
B( 25-C , 30-H ) :   0.9541 B( 28-C , 33-H ) :   0.8945 B( 28-C , 34-H ) :   0.9499
B( 31-H , 32-H ) :   0.2365

FINAL SINGLE POINT ENERGY     -1133.882355906842

DIPOLE MOMENT
-------------
                                X             Y             Z
Electronic contribution:     -8.07882     -23.37984     -13.58525
Nuclear contribution   :      8.54118      20.92489      15.31138
                        -----------------------------------------
Total Dipole Moment    :      0.46236      -2.45495       1.72613
                        -----------------------------------------
Magnitude (a.u.)       :      3.03646
Magnitude (Debye)      :      7.71806

Rotational constants in cm-1:     0.018156     0.012306     0.008278
Rotational constants in MHz :   544.309022   368.914527   248.178402

                             ****ORCA TERMINATED NORMALLY****
TOTAL RUN TIME: 0 days 0 hours 13 minutes 8 seconds 394 msec
