                         Program Version 5.0.0 -  RELEASE  -
|  1> !LC-BLYP RIJCOSX def2-TZVPD def2/J TightSCF xyzfile
|  2>
|  3> *xyzfile 0 1 D6.xyz
|  4>
|  5> %MaxCore 64000
|  6>
|  7> %pal nprocs 4
|  8> end
|  9>
| 10> %scf
| 11>   MaxIter 150
| 12> end
| 13>
| 14>
| 15>                          ****END OF INPUT****

CARTESIAN COORDINATES (ANGSTROEM)
---------------------------------
  C      5.558206   -1.992914   -6.215054
  C      4.930199   -7.375319   -2.649623
  C      3.841892   -6.951611   -3.632829
  H      3.458144   -5.954425   -3.407121
  H      2.988484   -7.643606   -3.567078
  S      4.318115   -6.915930   -5.368692
  C      4.181880   -2.589671   -6.298911
  N      3.145873   -1.768431   -6.486753
  C      4.019102   -3.864307   -6.227427
  H      4.768490   -4.591153   -5.990773
  H      3.122405   -4.333392   -6.314620
  H      3.281635   -0.777786   -6.566549
  H      2.212549   -2.134193   -6.562246
  O      5.406154   -5.899480   -5.512972
  O      3.111910   -6.445079   -6.043792
  C      6.419260   -2.542944   -5.077630
  C      5.872267   -5.002756   -2.427819
  C      6.173994   -6.485522   -2.606315
  H      6.734852   -6.613767   -3.534015
  H      6.821463   -6.831018   -1.793617
  H      4.469612   -7.406168   -1.655876
  H      5.230134   -8.398678   -2.885906
  C      5.896512   -2.169314   -3.694552
  H      7.428880   -2.143665   -5.208078
  H      6.505894   -3.627541   -5.175502
  C      6.807804   -2.623428   -2.551019
  H      4.894708   -2.589732   -3.557501
  H      5.778823   -1.081255   -3.635790
  C      7.111544   -4.122463   -2.520363
  H      7.751615   -2.071393   -2.614406
  H      6.345837   -2.326401   -1.604086
  H      5.362882   -4.828697   -1.471335
  H      5.174429   -4.702577   -3.211298
  H      7.778329   -4.329347   -1.677651
  H      7.673189   -4.402845   -3.417586
  F      4.763396   -8.239424   -5.698629
  H      6.036826   -2.198189   -7.176852
  H      5.467610   -0.907371   -6.127968

 Total Charge           Charge          ....    0
 Multiplicity           Mult            ....    1
 Number of Electrons    NEL             ....  136
 Basis Dimension        Dim             ....  808

ORBITAL ENERGIES
----------------

  NO   OCC          E(Eh)            E(eV)
   0   2.0000     -88.526164     -2408.9194
   1   2.0000     -24.584179      -668.9695
   2   2.0000     -18.951416      -515.6942
   3   2.0000     -18.946407      -515.5579
   4   2.0000     -14.144362      -384.8877
   5   2.0000     -10.132889      -275.7299
   6   2.0000     -10.097900      -274.7778
   7   2.0000     -10.070314      -274.0272
   8   2.0000     -10.060375      -273.7567
   9   2.0000     -10.059540      -273.7340
  10   2.0000     -10.055428      -273.6221
  11   2.0000     -10.052816      -273.5510
  12   2.0000     -10.047918      -273.4177
  13   2.0000     -10.045939      -273.3639
  14   2.0000     -10.045184      -273.3434
  15   2.0000      -9.956280      -270.9242
  16   2.0000      -8.068864      -219.5649
  17   2.0000      -6.100679      -166.0079
  18   2.0000      -6.093745      -165.8192
  19   2.0000      -6.093374      -165.8091
  20   2.0000      -1.476073       -40.1660
  21   2.0000      -1.201523       -32.6951
  22   2.0000      -1.101342       -29.9690
  23   2.0000      -1.002639       -27.2832
  24   2.0000      -0.952576       -25.9209
  25   2.0000      -0.917117       -24.9560
  26   2.0000      -0.887709       -24.1558
  27   2.0000      -0.863131       -23.4870
  28   2.0000      -0.832640       -22.6573
  29   2.0000      -0.812043       -22.0968
  30   2.0000      -0.786730       -21.4080
  31   2.0000      -0.757843       -20.6219
  32   2.0000      -0.726089       -19.7579
  33   2.0000      -0.713309       -19.4101
  34   2.0000      -0.703235       -19.1360
  35   2.0000      -0.690401       -18.7868
  36   2.0000      -0.664506       -18.0821
  37   2.0000      -0.653989       -17.7959
  38   2.0000      -0.635616       -17.2960
  39   2.0000      -0.610887       -16.6231
  40   2.0000      -0.604905       -16.4603
  41   2.0000      -0.596333       -16.2271
  42   2.0000      -0.580132       -15.7862
  43   2.0000      -0.571106       -15.5406
  44   2.0000      -0.563931       -15.3453
  45   2.0000      -0.554240       -15.0816
  46   2.0000      -0.549225       -14.9452
  47   2.0000      -0.526578       -14.3289
  48   2.0000      -0.519489       -14.1360
  49   2.0000      -0.514750       -14.0071
  50   2.0000      -0.513659       -13.9774
  51   2.0000      -0.493044       -13.4164
  52   2.0000      -0.474559       -12.9134
  53   2.0000      -0.468708       -12.7542
  54   2.0000      -0.456108       -12.4113
  55   2.0000      -0.449064       -12.2197
  56   2.0000      -0.446424       -12.1478
  57   2.0000      -0.440188       -11.9781
  58   2.0000      -0.431447       -11.7403
  59   2.0000      -0.426055       -11.5935
  60   2.0000      -0.420080       -11.4310
  61   2.0000      -0.416603       -11.3364
  62   2.0000      -0.413129       -11.2418
  63   2.0000      -0.402000       -10.9390
  64   2.0000      -0.395576       -10.7642
  65   2.0000      -0.390785       -10.6338
  66   2.0000      -0.364618        -9.9218
  67   2.0000      -0.260705        -7.0941
  68   0.0000       0.027951         0.7606
  69   0.0000       0.045561         1.2398
  70   0.0000       0.054427         1.4810
  71   0.0000       0.058693         1.5971
  72   0.0000       0.069298         1.8857

MULLIKEN ATOMIC CHARGES
-----------------------
   0 C :   -0.911494
   1 C :   -0.826653
   2 C :   -0.967064
   3 H :    0.448151
   4 H :    0.523182
   5 S :    1.059866
   6 C :    0.446890
   7 N :   -0.395191
   8 C :   -0.854808
   9 H :    0.262923
  10 H :    0.458657
  11 H :    0.161996
  12 H :    0.164026
  13 O :   -0.625459
  14 O :   -0.611313
  15 C :   -0.625033
  16 C :   -0.042008
  17 C :   -0.978861
  18 H :    0.370775
  19 H :    0.477312
  20 H :    0.403726
  21 H :    0.407930
  22 C :   -0.625773
  23 H :    0.385486
  24 H :    0.246702
  25 C :   -0.945644
  26 H :    0.311403
  27 H :    0.399358
  28 C :   -0.957322
  29 H :    0.423586
  30 H :    0.399369
  31 H :    0.338718
  32 H :    0.111761
  33 H :    0.427466
  34 H :    0.422314
  35 F :   -0.054957
  36 H :    0.363164
  37 H :    0.406816
Sum of atomic charges:    0.0000000

LOEWDIN ATOMIC CHARGES
----------------------
   0 C :   -0.155432
   1 C :   -0.232771
   2 C :   -0.228181
   3 H :    0.119542
   4 H :    0.119201
   5 S :    0.620663
   6 C :   -0.476636
   7 N :    0.105503
   8 C :   -0.003592
   9 H :   -0.014724
  10 H :    0.025828
  11 H :    0.086610
  12 H :    0.101699
  13 O :   -0.302682
  14 O :   -0.265389
  15 C :   -0.212532
  16 C :   -0.230631
  17 C :   -0.230106
  18 H :    0.107609
  19 H :    0.124855
  20 H :    0.125834
  21 H :    0.115614
  22 C :   -0.223034
  23 H :    0.123410
  24 H :    0.097977
  25 C :   -0.223624
  26 H :    0.113803
  27 H :    0.119920
  28 C :   -0.224496
  29 H :    0.114897
  30 H :    0.114312
  31 H :    0.134952
  32 H :    0.089180
  33 H :    0.119052
  34 H :    0.117041
  35 F :   -0.013715
  36 H :    0.127579
  37 H :    0.112465

  Mayer bond orders larger than 0.100000
B(  0-C ,  6-C ) :   0.1568 B(  0-C , 15-C ) :   0.6832 B(  0-C , 36-H ) :   0.9699
B(  0-C , 37-H ) :   0.9817 B(  1-C ,  2-C ) :   0.5368 B(  1-C , 17-C ) :   0.6289
B(  1-C , 20-H ) :   0.9327 B(  1-C , 21-H ) :   0.9223 B(  2-C ,  3-H ) :   0.8710
B(  2-C ,  4-H ) :   0.7722 B(  2-C ,  5-S ) :   0.9201 B(  2-C , 14-O ) :   0.1005
B(  5-S , 13-O ) :   1.7699 B(  5-S , 14-O ) :   1.6250 B(  5-S , 35-F ) :   0.9456
B(  6-C ,  7-N ) :   0.7093 B(  6-C ,  8-C ) :   0.6505 B(  6-C ,  9-H ) :   0.4569
B(  6-C , 10-H ) :  -0.2943 B(  6-C , 37-H ) :  -0.1940 B(  7-N , 11-H ) :   1.0657
B(  7-N , 12-H ) :   1.0464 B(  8-C ,  9-H ) :   0.9159 B(  8-C , 10-H ) :   1.0351
B(  8-C , 13-O ) :   0.1363 B(  9-H , 13-O ) :  -0.4407 B( 13-O , 14-O ) :   0.1212
B( 15-C , 22-C ) :   0.2933 B( 15-C , 23-H ) :   0.9335 B( 15-C , 24-H ) :   1.1112
B( 16-C , 17-C ) :   0.2512 B( 16-C , 28-C ) :   0.2342 B( 16-C , 31-H ) :   0.9053
B( 16-C , 32-H ) :   1.0768 B( 17-C , 18-H ) :   0.9937 B( 17-C , 19-H ) :   0.8234
B( 17-C , 28-C ) :   0.2599 B( 22-C , 24-H ) :  -0.1122 B( 22-C , 25-C ) :   0.6087
B( 22-C , 26-H ) :   1.0567 B( 22-C , 27-H ) :   0.8796 B( 22-C , 28-C ) :  -0.1095
B( 23-H , 24-H ) :   0.1168 B( 25-C , 28-C ) :   0.6447 B( 25-C , 29-H ) :   0.9420
B( 25-C , 30-H ) :   0.9439 B( 28-C , 33-H ) :   0.9004 B( 28-C , 34-H ) :   0.9450
B( 31-H , 32-H ) :   0.2350

FINAL SINGLE POINT ENERGY     -1133.866232054963

DIPOLE MOMENT
-------------
                                X             Y             Z
Electronic contribution:     -8.82274     -21.52032     -14.02159
Nuclear contribution   :      8.67311      20.60825      15.35056
                        -----------------------------------------
Total Dipole Moment    :     -0.14964      -0.91207       1.32897
                        -----------------------------------------
Magnitude (a.u.)       :      1.61877
Magnitude (Debye)      :      4.11458

Rotational constants in cm-1:     0.017976     0.012151     0.008188
Rotational constants in MHz :   538.898457   364.286417   245.482451

                             ****ORCA TERMINATED NORMALLY****
TOTAL RUN TIME: 0 days 0 hours 12 minutes 42 seconds 864 msec
