                         Program Version 5.0.0 -  RELEASE  -
|  1> !BLYP D3BJ RIJCOSX def2-TZVP def2/J TightSCF
|  2> *xyz -1 1
|  3> C          0.96805        1.63064       -3.71575
|  4> C         -0.50835        1.72268       -4.12430
|  5> S         -1.32861        0.14674       -4.43578
|  6> H         -0.59151        2.29496       -5.04722
|  7> H         -1.11411        2.23561       -3.37436
|  8> O         -2.57135        0.47573       -5.06834
|  9> O         -1.51496       -0.40051       -3.06342
| 10> O         -0.37793       -0.62756       -5.20114
| 11> H          1.51840        1.12197       -4.47946
| 12> H          1.05062        1.08971       -2.79625
| 13> H          1.36450        2.61606       -3.58668
| 14> *
| 15> %MaxCore 64000
| 16>
| 17> %pal nprocs 4
| 18> end
| 19>
| 20> %scf
| 21>   MaxIter 150
| 22> end
| 23>
| 24>
| 25>                          ****END OF INPUT****

CARTESIAN COORDINATES (ANGSTROEM)
---------------------------------
  C      0.968050    1.630640   -3.715750
  C     -0.508350    1.722680   -4.124300
  S     -1.328610    0.146740   -4.435780
  H     -0.591510    2.294960   -5.047220
  H     -1.114110    2.235610   -3.374360
  O     -2.571350    0.475730   -5.068340
  O     -1.514960   -0.400510   -3.063420
  O     -0.377930   -0.627560   -5.201140
  H      1.518400    1.121970   -4.479460
  H      1.050620    1.089710   -2.796250
  H      1.364500    2.616060   -3.586680

 Total Charge           Charge          ....   -1
 Multiplicity           Mult            ....    1
 Number of Electrons    NEL             ....   58
 Basis Dimension        Dim             ....  222

ORBITAL ENERGIES
----------------

  NO   OCC          E(Eh)            E(eV)
   0   2.0000     -88.069487     -2396.4926
   1   2.0000     -18.545594      -504.6513
   2   2.0000     -18.542311      -504.5619
   3   2.0000     -18.526308      -504.1265
   4   2.0000      -9.754334      -265.4289
   5   2.0000      -9.752494      -265.3788
   6   2.0000      -7.600221      -206.8125
   7   2.0000      -5.628886      -153.1698
   8   2.0000      -5.627904      -153.1430
   9   2.0000      -5.627622      -153.1354
  10   2.0000      -0.819543       -22.3009
  11   2.0000      -0.698302       -19.0018
  12   2.0000      -0.668622       -18.1941
  13   2.0000      -0.543084       -14.7781
  14   2.0000      -0.428085       -11.6488
  15   2.0000      -0.309007        -8.4085
  16   2.0000      -0.255653        -6.9567
  17   2.0000      -0.248895        -6.7728
  18   2.0000      -0.212459        -5.7813
  19   2.0000      -0.196834        -5.3561
  20   2.0000      -0.193345        -5.2612
  21   2.0000      -0.172629        -4.6975
  22   2.0000      -0.159837        -4.3494
  23   2.0000      -0.092851        -2.5266
  24   2.0000      -0.090783        -2.4703
  25   2.0000      -0.062505        -1.7008
  26   2.0000      -0.056355        -1.5335
  27   2.0000      -0.040339        -1.0977
  28   2.0000      -0.007564        -0.2058
  29   0.0000       0.156333         4.2540
  30   0.0000       0.197771         5.3816
  31   0.0000       0.213429         5.8077
  32   0.0000       0.217861         5.9283
  33   0.0000       0.244265         6.6468

MULLIKEN ATOMIC CHARGES
-----------------------
   0 C :   -0.277815
   1 C :   -0.180854
   2 S :    0.736350
   3 H :    0.041376
   4 H :    0.050536
   5 O :   -0.500885
   6 O :   -0.569974
   7 O :   -0.518305
   8 H :    0.091766
   9 H :    0.084028
  10 H :    0.043778
Sum of atomic charges:   -1.0000000

LOEWDIN ATOMIC CHARGES
----------------------
   0 C :   -0.338470
   1 C :   -0.431768
   2 S :    0.376863
   3 H :    0.107358
   4 H :    0.111423
   5 O :   -0.350407
   6 O :   -0.423197
   7 O :   -0.363224
   8 H :    0.109092
   9 H :    0.108400
  10 H :    0.093929

  Mayer bond orders larger than 0.100000
B(  0-C ,  1-C ) :   0.9386 B(  0-C ,  8-H ) :   0.9731 B(  0-C ,  9-H ) :   0.9747
B(  0-C , 10-H ) :   0.9564 B(  1-C ,  2-S ) :   0.8546 B(  1-C ,  3-H ) :   0.9460
B(  1-C ,  4-H ) :   0.9573 B(  2-S ,  5-O ) :   1.8545 B(  2-S ,  6-O ) :   1.7608
B(  2-S ,  7-O ) :   1.7865

Dispersion correction           -0.020497875
FINAL SINGLE POINT ENERGY      -703.240787376659

DIPOLE MOMENT
-------------
                                X             Y             Z
Electronic contribution:     -5.69894      -5.44430      -1.95933
Nuclear contribution   :      6.64523       6.80157       2.07300
                        -----------------------------------------
Total Dipole Moment    :      0.94628       1.35728       0.11367
                        -----------------------------------------
Magnitude (a.u.)       :      1.65848
Magnitude (Debye)      :      4.21553

Rotational constants in cm-1:     0.163070     0.082807     0.081541
Rotational constants in MHz :  4888.719902  2482.497026  2444.541148

                             ****ORCA TERMINATED NORMALLY****
TOTAL RUN TIME: 0 days 0 hours 0 minutes 12 seconds 15 msec
