                         Program Version 5.0.0 -  RELEASE  -
|  1> !BLYP D3BJ RIJCOSX def2-TZVP def2/J TightSCF
|  2> *xyz 1 1
|  3> C          1.36401        0.46874       -2.81376
|  4> N          0.42884        0.32140       -1.65531
|  5> C          0.96805        1.63064       -3.71575
|  6> H          0.74858       -0.40054       -1.00134
|  7> H         -0.46105        0.02333       -2.07773
|  8> H          0.31026        1.20137       -1.13495
|  9> H          1.29485       -0.46874       -3.36468
| 10> H          2.37622        0.59740       -2.43149
| 11> H          1.65923        1.70213       -4.52942
| 12> H          0.98421        2.54058       -3.15304
| 13> H         -0.01744        1.46536       -4.09838
| 14> *
| 15> %MaxCore 64000
| 16>
| 17> %pal nprocs 4
| 18> end
| 19>
| 20> %scf
| 21>   MaxIter 150
| 22> end
| 23>
| 24>
| 25>                          ****END OF INPUT****

CARTESIAN COORDINATES (ANGSTROEM)
---------------------------------
  C      1.364010    0.468740   -2.813760
  N      0.428840    0.321400   -1.655310
  C      0.968050    1.630640   -3.715750
  H      0.748580   -0.400540   -1.001340
  H     -0.461050    0.023330   -2.077730
  H      0.310260    1.201370   -1.134950
  H      1.294850   -0.468740   -3.364680
  H      2.376220    0.597400   -2.431490
  H      1.659230    1.702130   -4.529420
  H      0.984210    2.540580   -3.153040
  H     -0.017440    1.465360   -4.098380

 Total Charge           Charge          ....    1
 Multiplicity           Mult            ....    1
 Number of Electrons    NEL             ....   26
 Basis Dimension        Dim             ....  141

ORBITAL ENERGIES
----------------

  NO   OCC          E(Eh)            E(eV)
   0   2.0000     -14.338929      -390.1821
   1   2.0000     -10.158183      -276.4182
   2   2.0000     -10.080587      -274.3067
   3   2.0000      -1.129009       -30.7219
   4   2.0000      -0.889981       -24.2176
   5   2.0000      -0.778090       -21.1729
   6   2.0000      -0.748718       -20.3737
   7   2.0000      -0.732691       -19.9375
   8   2.0000      -0.642788       -17.4912
   9   2.0000      -0.594176       -16.1683
  10   2.0000      -0.538205       -14.6453
  11   2.0000      -0.522833       -14.2270
  12   2.0000      -0.508728       -13.8432
  13   0.0000      -0.222687        -6.0596
  14   0.0000      -0.162822        -4.4306
  15   0.0000      -0.158442        -4.3114
  16   0.0000      -0.136714        -3.7202
  17   0.0000      -0.099642        -2.7114

MULLIKEN ATOMIC CHARGES
-----------------------
   0 C :   -0.176028
   1 N :   -0.243639
   2 C :   -0.304774
   3 H :    0.315284
   4 H :    0.310127
   5 H :    0.307608
   6 H :    0.176648
   7 H :    0.177368
   8 H :    0.168651
   9 H :    0.135817
  10 H :    0.132938
Sum of atomic charges:    1.0000000

LOEWDIN ATOMIC CHARGES
----------------------
   0 C :   -0.270762
   1 N :    0.177054
   2 C :   -0.268237
   3 H :    0.217732
   4 H :    0.223328
   5 H :    0.217346
   6 H :    0.150674
   7 H :    0.149538
   8 H :    0.147077
   9 H :    0.128399
  10 H :    0.127852

  Mayer bond orders larger than 0.100000
B(  0-C ,  1-N ) :   0.8495 B(  0-C ,  2-C ) :   0.9803 B(  0-C ,  6-H ) :   0.9516
B(  0-C ,  7-H ) :   0.9489 B(  1-N ,  3-H ) :   0.8844 B(  1-N ,  4-H ) :   0.8884
B(  1-N ,  5-H ) :   0.8812 B(  2-C ,  8-H ) :   0.9583 B(  2-C ,  9-H ) :   0.9585
B(  2-C , 10-H ) :   0.9569

Dispersion correction           -0.012468106
FINAL SINGLE POINT ENERGY      -135.518994384693

DIPOLE MOMENT
-------------
                                X             Y             Z
Electronic contribution:     -0.34133      -0.94200       1.56154
Nuclear contribution   :     -0.20470       0.31427      -0.31587
                        -----------------------------------------
Total Dipole Moment    :     -0.54603      -0.62773       1.24568
                        -----------------------------------------
Magnitude (a.u.)       :      1.49797
Magnitude (Debye)      :      3.80753

Rotational constants in cm-1:     1.011480     0.279280     0.248378
Rotational constants in MHz : 30323.408050  8372.602834  7446.185305

                             ****ORCA TERMINATED NORMALLY****
TOTAL RUN TIME: 0 days 0 hours 0 minutes 8 seconds 119 msec
