                         Program Version 5.0.0 -  RELEASE  -
|  1> !BLYP D3BJ RIJCOSX def2-TZVP def2/J TightSCF xyzfile
|  2>
|  3> *xyzfile 0 1 B.xyz
|  4>
|  5> %MaxCore 64000
|  6>
|  7> %pal nprocs 18
|  8> end
|  9>
| 10> %scf
| 11>   MaxIter 150
| 12> end
| 13>
| 14>
| 15>                          ****END OF INPUT****

CARTESIAN COORDINATES (ANGSTROEM)
---------------------------------
  C      1.364014    0.468742   -2.813764
  N      0.428844    0.321402   -1.655312
  C      0.968045    1.630639   -3.715749
  C     -0.508347    1.722679   -4.124300
  S     -1.328608    0.146737   -4.435781
  H     -0.591511    2.294958   -5.047219
  H     -1.114114    2.235610   -3.374362
  H      0.748578   -0.400542   -1.001345
  H     -0.461053    0.023332   -2.077731
  H      0.310258    1.201375   -1.134948
  O     -2.571347    0.475733   -5.068341
  O     -1.514963   -0.400512   -3.063420
  H      1.294847   -0.468742   -3.364684
  H      2.376216    0.597400   -2.431495
  H      1.578688    1.520652   -4.612733
  H      1.266653    2.575988   -3.250448
  O     -0.377928   -0.627558   -5.201141

 Total Charge           Charge          ....    0
 Multiplicity           Mult            ....    1
 Number of Electrons    NEL             ....   74
 Basis Dimension        Dim             ....  308

ORBITAL ENERGIES
----------------

  NO   OCC          E(Eh)            E(eV)
   0   2.0000     -88.241510     -2401.1736
   1   2.0000     -18.722595      -509.4677
   2   2.0000     -18.707095      -509.0459
   3   2.0000     -18.704892      -508.9860
   4   2.0000     -14.135408      -384.6440
   5   2.0000      -9.992776      -271.9173
   6   2.0000      -9.944091      -270.5925
   7   2.0000      -9.920882      -269.9609
   8   2.0000      -7.772563      -211.5022
   9   2.0000      -5.801606      -157.8697
  10   2.0000      -5.800554      -157.8411
  11   2.0000      -5.799176      -157.8036
  12   2.0000      -0.992889       -27.0179
  13   2.0000      -0.941624       -25.6229
  14   2.0000      -0.860951       -23.4277
  15   2.0000      -0.859299       -23.3827
  16   2.0000      -0.744445       -20.2574
  17   2.0000      -0.663588       -18.0572
  18   2.0000      -0.586306       -15.9542
  19   2.0000      -0.562654       -15.3106
  20   2.0000      -0.554946       -15.1009
  21   2.0000      -0.483166       -13.1476
  22   2.0000      -0.467237       -12.7142
  23   2.0000      -0.433942       -11.8082
  24   2.0000      -0.416205       -11.3255
  25   2.0000      -0.401361       -10.9216
  26   2.0000      -0.371098       -10.0981
  27   2.0000      -0.362673        -9.8688
  28   2.0000      -0.353276        -9.6131
  29   2.0000      -0.340814        -9.2740
  30   2.0000      -0.328535        -8.9399
  31   2.0000      -0.267391        -7.2761
  32   2.0000      -0.258971        -7.0470
  33   2.0000      -0.234601        -6.3838
  34   2.0000      -0.222519        -6.0550
  35   2.0000      -0.219905        -5.9839
  36   2.0000      -0.183817        -5.0019
  37   0.0000      -0.061502        -1.6736
  38   0.0000      -0.012964        -0.3528
  39   0.0000       0.004147         0.1129
  40   0.0000       0.034758         0.9458
  41   0.0000       0.042723         1.1626

MULLIKEN ATOMIC CHARGES
-----------------------
   0 C :   -0.169188
   1 N :   -0.256004
   2 C :   -0.164389
   3 C :   -0.278867
   4 S :    0.781341
   5 H :    0.118587
   6 H :    0.095641
   7 H :    0.260762
   8 H :    0.293030
   9 H :    0.250335
  10 O :   -0.441021
  11 O :   -0.536287
  12 H :    0.179860
  13 H :    0.124800
  14 H :    0.114353
  15 H :    0.097728
  16 O :   -0.470680
Sum of atomic charges:   -0.0000000

LOEWDIN ATOMIC CHARGES
----------------------
   0 C :   -0.271980
   1 N :    0.148636
   2 C :   -0.286273
   3 C :   -0.394178
   4 S :    0.413174
   5 H :    0.137150
   6 H :    0.122845
   7 H :    0.192369
   8 H :    0.133655
   9 H :    0.191253
  10 O :   -0.286726
  11 O :   -0.352213
  12 H :    0.149764
  13 H :    0.130292
  14 H :    0.155409
  15 H :    0.134188
  16 O :   -0.317367

  Mayer bond orders larger than 0.100000
B(  0-C ,  1-N ) :   0.8565 B(  0-C ,  2-C ) :   0.9716 B(  0-C , 12-H ) :   0.9442
B(  0-C , 13-H ) :   0.9606 B(  1-N ,  7-H ) :   0.9073 B(  1-N ,  8-H ) :   0.7171
B(  1-N ,  9-H ) :   0.9030 B(  2-C ,  3-C ) :   0.9442 B(  2-C , 14-H ) :   0.9513
B(  2-C , 15-H ) :   0.9536 B(  3-C ,  4-S ) :   0.8818 B(  3-C ,  5-H ) :   0.9528
B(  3-C ,  6-H ) :   0.9524 B(  4-S , 10-O ) :   1.9380 B(  4-S , 11-O ) :   1.4613
B(  4-S , 16-O ) :   1.7907 B(  8-H , 11-O ) :   0.2762

Dispersion correction           -0.037763650
FINAL SINGLE POINT ENERGY      -798.429209271944

DIPOLE MOMENT
-------------
                                X             Y             Z
Electronic contribution:     -7.02863      -4.23767      -4.38187
Nuclear contribution   :      9.95459       5.57517       7.68169
                        -----------------------------------------
Total Dipole Moment    :      2.92596       1.33751       3.29982
                        -----------------------------------------
Magnitude (a.u.)       :      4.60857
Magnitude (Debye)      :     11.71406

Rotational constants in cm-1:     0.102119     0.045768     0.041299
Rotational constants in MHz :  3061.441288  1372.093000  1238.124534

                             ****ORCA TERMINATED NORMALLY****
TOTAL RUN TIME: 0 days 0 hours 0 minutes 9 seconds 804 msec
