                         Program Version 5.0.0 -  RELEASE  -
|  1> !BLYP D3BJ RIJCOSX def2-TZVP def2/J TightSCF
|  2> *xyz 0 1
|  3> C          0.96805        1.63064       -3.71575
|  4> C         -0.50835        1.72268       -4.12430
|  5> S         -1.32861        0.14674       -4.43578
|  6> H         -0.59151        2.29496       -5.04722
|  7> H         -1.11411        2.23561       -3.37436
|  8> F         -2.57135        0.47573       -5.06834
|  9> O         -1.51496       -0.40051       -3.06342
| 10> O         -0.37793       -0.62756       -5.20114
| 11> H          1.51840        1.12197       -4.47946
| 12> H          1.05062        1.08971       -2.79625
| 13> H          1.36450        2.61606       -3.58668
| 14> *
| 15> %MaxCore 64000
| 16>
| 17> %pal nprocs 4
| 18> end
| 19>
| 20> %scf
| 21>   MaxIter 150
| 22> end
| 23>
| 24>
| 25>                          ****END OF INPUT****

CARTESIAN COORDINATES (ANGSTROEM)
---------------------------------
  C      0.968050    1.630640   -3.715750
  C     -0.508350    1.722680   -4.124300
  S     -1.328610    0.146740   -4.435780
  H     -0.591510    2.294960   -5.047220
  H     -1.114110    2.235610   -3.374360
  F     -2.571350    0.475730   -5.068340
  O     -1.514960   -0.400510   -3.063420
  O     -0.377930   -0.627560   -5.201140
  H      1.518400    1.121970   -4.479460
  H      1.050620    1.089710   -2.796250
  H      1.364500    2.616060   -3.586680

 Total Charge           Charge          ....    0
 Multiplicity           Mult            ....    1
 Number of Electrons    NEL             ....   58
 Basis Dimension        Dim             ....  222

ORBITAL ENERGIES
----------------

  NO   OCC          E(Eh)            E(eV)
   0   2.0000     -88.334223     -2403.6964
   1   2.0000     -24.403846      -664.0624
   2   2.0000     -18.781199      -511.0624
   3   2.0000     -18.765855      -510.6449
   4   2.0000      -9.958824      -270.9934
   5   2.0000      -9.918984      -269.9093
   6   2.0000      -7.865583      -214.0334
   7   2.0000      -5.897693      -160.4844
   8   2.0000      -5.891072      -160.3042
   9   2.0000      -5.890960      -160.3012
  10   2.0000      -1.277607       -34.7655
  11   2.0000      -1.003438       -27.3049
  12   2.0000      -0.906862       -24.6770
  13   2.0000      -0.735475       -20.0133
  14   2.0000      -0.663801       -18.0630
  15   2.0000      -0.605172       -16.4676
  16   2.0000      -0.522069       -14.2062
  17   2.0000      -0.520854       -14.1732
  18   2.0000      -0.490345       -13.3430
  19   2.0000      -0.435608       -11.8535
  20   2.0000      -0.422577       -11.4989
  21   2.0000      -0.385106       -10.4793
  22   2.0000      -0.377361       -10.2685
  23   2.0000      -0.357547        -9.7294
  24   2.0000      -0.340204        -9.2574
  25   2.0000      -0.328763        -8.9461
  26   2.0000      -0.283574        -7.7164
  27   2.0000      -0.268061        -7.2943
  28   2.0000      -0.251974        -6.8566
  29   0.0000      -0.011706        -0.3185
  30   0.0000       0.008780         0.2389
  31   0.0000       0.032156         0.8750
  32   0.0000       0.041881         1.1396
  33   0.0000       0.049994         1.3604

MULLIKEN ATOMIC CHARGES
-----------------------
   0 C :   -0.304335
   1 C :   -0.198152
   2 S :    0.784345
   3 H :    0.105279
   4 H :    0.120806
   5 F :   -0.072661
   6 O :   -0.424908
   7 O :   -0.377116
   8 H :    0.127756
   9 H :    0.127204
  10 H :    0.111782
Sum of atomic charges:    0.0000000

LOEWDIN ATOMIC CHARGES
----------------------
   0 C :   -0.295477
   1 C :   -0.396660
   2 S :    0.491713
   3 H :    0.127487
   4 H :    0.133440
   5 F :    0.118943
   6 O :   -0.301105
   7 O :   -0.246482
   8 H :    0.122887
   9 H :    0.123644
  10 H :    0.121611

  Mayer bond orders larger than 0.100000
B(  0-C ,  1-C ) :   0.9593 B(  0-C ,  8-H ) :   0.9684 B(  0-C ,  9-H ) :   0.9707
B(  0-C , 10-H ) :   0.9555 B(  1-C ,  2-S ) :   0.9008 B(  1-C ,  3-H ) :   0.9308
B(  1-C ,  4-H ) :   0.9365 B(  2-S ,  5-F ) :   1.1578 B(  2-S ,  6-O ) :   1.8944
B(  2-S ,  7-O ) :   1.9276

Dispersion correction           -0.019595241
FINAL SINGLE POINT ENERGY      -727.765396951288

DIPOLE MOMENT
-------------
                                X             Y             Z
Electronic contribution:     -8.35009      -5.23183      -3.22990
Nuclear contribution   :      8.31000       6.74109       2.87442
                        -----------------------------------------
Total Dipole Moment    :     -0.04008       1.50926      -0.35548
                        -----------------------------------------
Magnitude (a.u.)       :      1.55108
Magnitude (Debye)      :      3.94253

Rotational constants in cm-1:     0.158705     0.080192     0.078179
Rotational constants in MHz :  4757.865601  2404.095079  2343.752507

                             ****ORCA TERMINATED NORMALLY****
TOTAL RUN TIME: 0 days 0 hours 0 minutes 11 seconds 828 msec
