                         Program Version 5.0.0 -  RELEASE  -
|  1> !BLYP D3BJ RIJCOSX def2-TZVP def2/J TightSCF
|  2> *xyz 0 1
|  3> C          1.36401        0.46874       -2.81376
|  4> C          0.42884        0.32140       -1.65531
|  5> C          0.96805        1.63064       -3.71575
|  6> H          0.74858       -0.40054       -1.00134
|  7> H         -0.46105        0.02333       -2.07773
|  8> H          0.31026        1.20137       -1.13495
|  9> H          1.29485       -0.46874       -3.36468
| 10> H          2.37622        0.59740       -2.43149
| 11> H          1.65923        1.70213       -4.52942
| 12> H          0.98421        2.54058       -3.15304
| 13> H         -0.01744        1.46536       -4.09838
| 14> *
| 15> %MaxCore 64000
| 16>
| 17> %pal nprocs 4
| 18> end
| 19>
| 20> %scf
| 21>   MaxIter 150
| 22> end
| 23>
| 24>
| 25>                          ****END OF INPUT****

CARTESIAN COORDINATES (ANGSTROEM)
---------------------------------
  C      1.364010    0.468740   -2.813760
  C      0.428840    0.321400   -1.655310
  C      0.968050    1.630640   -3.715750
  H      0.748580   -0.400540   -1.001340
  H     -0.461050    0.023330   -2.077730
  H      0.310260    1.201370   -1.134950
  H      1.294850   -0.468740   -3.364680
  H      2.376220    0.597400   -2.431490
  H      1.659230    1.702130   -4.529420
  H      0.984210    2.540580   -3.153040
  H     -0.017440    1.465360   -4.098380

 Total Charge           Charge          ....    0
 Multiplicity           Mult            ....    1
 Number of Electrons    NEL             ....   26
 Basis Dimension        Dim             ....  141

ORBITAL ENERGIES
----------------

  NO   OCC          E(Eh)            E(eV)
   0   2.0000      -9.889938      -269.1189
   1   2.0000      -9.881472      -268.8885
   2   2.0000      -9.864776      -268.4342
   3   2.0000      -0.710482       -19.3332
   4   2.0000      -0.616446       -16.7743
   5   2.0000      -0.518843       -14.1184
   6   2.0000      -0.416954       -11.3459
   7   2.0000      -0.392286       -10.6746
   8   2.0000      -0.353067        -9.6074
   9   2.0000      -0.342319        -9.3150
  10   2.0000      -0.292227        -7.9519
  11   2.0000      -0.288574        -7.8525
  12   2.0000      -0.284893        -7.7523
  13   0.0000       0.020511         0.5581
  14   0.0000       0.063217         1.7202
  15   0.0000       0.070044         1.9060
  16   0.0000       0.072777         1.9804
  17   0.0000       0.090803         2.4709

MULLIKEN ATOMIC CHARGES
-----------------------
   0 C :   -0.120393
   1 C :   -0.279493
   2 C :   -0.283015
   3 H :    0.097596
   4 H :    0.087877
   5 H :    0.087547
   6 H :    0.068302
   7 H :    0.069204
   8 H :    0.095825
   9 H :    0.088965
  10 H :    0.087584
Sum of atomic charges:   -0.0000000

LOEWDIN ATOMIC CHARGES
----------------------
   0 C :   -0.313577
   1 C :   -0.296139
   2 C :   -0.299533
   3 H :    0.104787
   4 H :    0.110369
   5 H :    0.104018
   6 H :    0.129058
   7 H :    0.124727
   8 H :    0.112239
   9 H :    0.111889
  10 H :    0.112162

  Mayer bond orders larger than 0.100000
B(  0-C ,  1-C ) :   0.9578 B(  0-C ,  2-C ) :   0.9677 B(  0-C ,  6-H ) :   0.9697
B(  0-C ,  7-H ) :   0.9674 B(  1-C ,  3-H ) :   0.9794 B(  1-C ,  4-H ) :   0.9796
B(  1-C ,  5-H ) :   0.9784 B(  2-C ,  8-H ) :   0.9764 B(  2-C ,  9-H ) :   0.9757
B(  2-C , 10-H ) :   0.9749

Dispersion correction           -0.012552241
FINAL SINGLE POINT ENERGY      -119.097591484240

DIPOLE MOMENT
-------------
                                X             Y             Z
Electronic contribution:      0.36885      -0.18532      -0.01548
Nuclear contribution   :     -0.35842       0.15752       0.02695
                        -----------------------------------------
Total Dipole Moment    :      0.01043      -0.02779       0.01147
                        -----------------------------------------
Magnitude (a.u.)       :      0.03183
Magnitude (Debye)      :      0.08089

Rotational constants in cm-1:     1.019891     0.293671     0.260247
Rotational constants in MHz : 30575.551403  8804.039097  7802.009261

                             ****ORCA TERMINATED NORMALLY****
TOTAL RUN TIME: 0 days 0 hours 0 minutes 8 seconds 175 msec
