                         Program Version 5.0.0 -  RELEASE  -
|  1> !BLYP D3BJ RIJCOSX def2-TZVP def2/J TightSCF
|  2> *xyz 0 1
|  3> C          0.96805        1.63064       -3.71575
|  4> C         -0.50835        1.72268       -4.12430
|  5> S         -1.32861        0.14674       -4.43578
|  6> H         -0.59151        2.29496       -5.04722
|  7> H         -1.11411        2.23561       -3.37436
|  8> O         -2.57135        0.47573       -5.06834
|  9> F         -1.51496       -0.40051       -3.06342
| 10> O         -0.37793       -0.62756       -5.20114
| 11> H          1.51840        1.12197       -4.47946
| 12> H          1.05062        1.08971       -2.79625
| 13> H          1.36450        2.61606       -3.58668
| 14> *
| 15> %MaxCore 64000
| 16>
| 17> %pal nprocs 4
| 18> end
| 19>
| 20> %scf
| 21>   MaxIter 150
| 22> end
| 23>
| 24>
| 25>                          ****END OF INPUT****

CARTESIAN COORDINATES (ANGSTROEM)
---------------------------------
  C      0.968050    1.630640   -3.715750
  C     -0.508350    1.722680   -4.124300
  S     -1.328610    0.146740   -4.435780
  H     -0.591510    2.294960   -5.047220
  H     -1.114110    2.235610   -3.374360
  O     -2.571350    0.475730   -5.068340
  F     -1.514960   -0.400510   -3.063420
  O     -0.377930   -0.627560   -5.201140
  H      1.518400    1.121970   -4.479460
  H      1.050620    1.089710   -2.796250
  H      1.364500    2.616060   -3.586680

 Total Charge           Charge          ....    0
 Multiplicity           Mult            ....    1
 Number of Electrons    NEL             ....   58
 Basis Dimension        Dim             ....  222

ORBITAL ENERGIES
----------------

  NO   OCC          E(Eh)            E(eV)
   0   2.0000     -88.331329     -2403.6177
   1   2.0000     -24.375661      -663.2955
   2   2.0000     -18.784519      -511.1527
   3   2.0000     -18.781363      -511.0669
   4   2.0000      -9.958113      -270.9740
   5   2.0000      -9.920265      -269.9441
   6   2.0000      -7.862850      -213.9590
   7   2.0000      -5.895130      -160.4146
   8   2.0000      -5.888463      -160.2332
   9   2.0000      -5.888089      -160.2231
  10   2.0000      -1.232192       -33.5297
  11   2.0000      -1.018352       -27.7108
  12   2.0000      -0.932360       -25.3708
  13   2.0000      -0.737132       -20.0584
  14   2.0000      -0.645426       -17.5629
  15   2.0000      -0.598331       -16.2814
  16   2.0000      -0.508530       -13.8378
  17   2.0000      -0.488948       -13.3049
  18   2.0000      -0.481304       -13.0970
  19   2.0000      -0.436059       -11.8658
  20   2.0000      -0.418478       -11.3874
  21   2.0000      -0.398502       -10.8438
  22   2.0000      -0.381057       -10.3691
  23   2.0000      -0.355324        -9.6689
  24   2.0000      -0.352229        -9.5846
  25   2.0000      -0.332188        -9.0393
  26   2.0000      -0.291313        -7.9270
  27   2.0000      -0.285209        -7.7609
  28   2.0000      -0.271509        -7.3881
  29   0.0000      -0.013209        -0.3594
  30   0.0000       0.016493         0.4488
  31   0.0000       0.029531         0.8036
  32   0.0000       0.045897         1.2489
  33   0.0000       0.055683         1.5152

MULLIKEN ATOMIC CHARGES
-----------------------
   0 C :   -0.298840
   1 C :   -0.217514
   2 S :    0.792742
   3 H :    0.132825
   4 H :    0.117067
   5 O :   -0.369536
   6 F :   -0.120444
   7 O :   -0.387401
   8 H :    0.133362
   9 H :    0.106249
  10 H :    0.111491
Sum of atomic charges:    0.0000000

LOEWDIN ATOMIC CHARGES
----------------------
   0 C :   -0.307637
   1 C :   -0.392488
   2 S :    0.502654
   3 H :    0.142541
   4 H :    0.131283
   5 O :   -0.237335
   6 F :    0.050467
   7 O :   -0.249407
   8 H :    0.122791
   9 H :    0.116548
  10 H :    0.120581

  Mayer bond orders larger than 0.100000
B(  0-C ,  1-C ) :   0.9454 B(  0-C ,  8-H ) :   0.9673 B(  0-C ,  9-H ) :   0.9709
B(  0-C , 10-H ) :   0.9581 B(  1-C ,  2-S ) :   0.8946 B(  1-C ,  3-H ) :   0.9428
B(  1-C ,  4-H ) :   0.9429 B(  2-S ,  5-O ) :   1.9707 B(  2-S ,  6-F ) :   1.0965
B(  2-S ,  7-O ) :   1.9226

Dispersion correction           -0.019511205
FINAL SINGLE POINT ENERGY      -727.788772371959

DIPOLE MOMENT
-------------
                                X             Y             Z
Electronic contribution:     -6.59320      -6.69699       0.13271
Nuclear contribution   :      7.20921       7.65416       0.78523
                        -----------------------------------------
Total Dipole Moment    :      0.61601       0.95717       0.91795
                        -----------------------------------------
Magnitude (a.u.)       :      1.46228
Magnitude (Debye)      :      3.71683

Rotational constants in cm-1:     0.153780     0.081282     0.079816
Rotational constants in MHz :  4610.199589  2436.778679  2392.820729

                             ****ORCA TERMINATED NORMALLY****
TOTAL RUN TIME: 0 days 0 hours 0 minutes 11 seconds 635 msec
