                         Program Version 5.0.0 -  RELEASE  -
|  1> !BLYP D3BJ RIJCOSX def2-TZVP def2/J TightSCF
|  2> *xyz 0 1
|  3> C          0.96805        1.63064       -3.71575
|  4> C         -0.50835        1.72268       -4.12430
|  5> S         -1.32861        0.14674       -4.43578
|  6> H         -0.59151        2.29496       -5.04722
|  7> H         -1.11411        2.23561       -3.37436
|  8> O         -2.57135        0.47573       -5.06834
|  9> O         -1.51496       -0.40051       -3.06342
| 10> F         -0.37793       -0.62756       -5.20114
| 11> H          1.51840        1.12197       -4.47946
| 12> H          1.05062        1.08971       -2.79625
| 13> H          1.36450        2.61606       -3.58668
| 14> *
| 15> %MaxCore 64000
| 16>
| 17> %pal nprocs 4
| 18> end
| 19>
| 20> %scf
| 21>   MaxIter 150
| 22> end
| 23>
| 24>
| 25>                          ****END OF INPUT****

CARTESIAN COORDINATES (ANGSTROEM)
---------------------------------
  C      0.968050    1.630640   -3.715750
  C     -0.508350    1.722680   -4.124300
  S     -1.328610    0.146740   -4.435780
  H     -0.591510    2.294960   -5.047220
  H     -1.114110    2.235610   -3.374360
  O     -2.571350    0.475730   -5.068340
  O     -1.514960   -0.400510   -3.063420
  F     -0.377930   -0.627560   -5.201140
  H      1.518400    1.121970   -4.479460
  H      1.050620    1.089710   -2.796250
  H      1.364500    2.616060   -3.586680

 Total Charge           Charge          ....    0
 Multiplicity           Mult            ....    1
 Number of Electrons    NEL             ....   58
 Basis Dimension        Dim             ....  222

ORBITAL ENERGIES
----------------

  NO   OCC          E(Eh)            E(eV)
   0   2.0000     -88.333577     -2403.6788
   1   2.0000     -24.397990      -663.9031
   2   2.0000     -18.784848      -511.1617
   3   2.0000     -18.766182      -510.6538
   4   2.0000      -9.958738      -270.9910
   5   2.0000      -9.923691      -270.0374
   6   2.0000      -7.864985      -214.0171
   7   2.0000      -5.897272      -160.4729
   8   2.0000      -5.890461      -160.2876
   9   2.0000      -5.890242      -160.2816
  10   2.0000      -1.267641       -34.4943
  11   2.0000      -1.009225       -27.4624
  12   2.0000      -0.909708       -24.7544
  13   2.0000      -0.739177       -20.1140
  14   2.0000      -0.657508       -17.8917
  15   2.0000      -0.607369       -16.5274
  16   2.0000      -0.527465       -14.3530
  17   2.0000      -0.513444       -13.9715
  18   2.0000      -0.482291       -13.1238
  19   2.0000      -0.437267       -11.8986
  20   2.0000      -0.418233       -11.3807
  21   2.0000      -0.394792       -10.7428
  22   2.0000      -0.383421       -10.4334
  23   2.0000      -0.360817        -9.8183
  24   2.0000      -0.347373        -9.4525
  25   2.0000      -0.329761        -8.9732
  26   2.0000      -0.287192        -7.8149
  27   2.0000      -0.268398        -7.3035
  28   2.0000      -0.254833        -6.9343
  29   0.0000      -0.018424        -0.5013
  30   0.0000       0.016580         0.4512
  31   0.0000       0.027814         0.7569
  32   0.0000       0.045577         1.2402
  33   0.0000       0.050322         1.3693

MULLIKEN ATOMIC CHARGES
-----------------------
   0 C :   -0.313071
   1 C :   -0.204127
   2 S :    0.786165
   3 H :    0.117263
   4 H :    0.137987
   5 O :   -0.360131
   6 O :   -0.427230
   7 F :   -0.086931
   8 H :    0.106231
   9 H :    0.129475
  10 H :    0.114370
Sum of atomic charges:   -0.0000000

LOEWDIN ATOMIC CHARGES
----------------------
   0 C :   -0.310234
   1 C :   -0.390135
   2 S :    0.494885
   3 H :    0.131455
   4 H :    0.144751
   5 O :   -0.233236
   6 O :   -0.301225
   7 F :    0.105312
   8 H :    0.114739
   9 H :    0.121826
  10 H :    0.121861

  Mayer bond orders larger than 0.100000
B(  0-C ,  1-C ) :   0.9428 B(  0-C ,  8-H ) :   0.9702 B(  0-C ,  9-H ) :   0.9687
B(  0-C , 10-H ) :   0.9594 B(  1-C ,  2-S ) :   0.8954 B(  1-C ,  3-H ) :   0.9376
B(  1-C ,  4-H ) :   0.9436 B(  2-S ,  5-O ) :   1.9742 B(  2-S ,  6-O ) :   1.8889
B(  2-S ,  7-F ) :   1.1309

Dispersion correction           -0.019472425
FINAL SINGLE POINT ENERGY      -727.769911009769

DIPOLE MOMENT
-------------
                                X             Y             Z
Electronic contribution:     -4.69406      -7.05319      -3.43704
Nuclear contribution   :      6.02439       7.89075       3.01280
                        -----------------------------------------
Total Dipole Moment    :      1.33033       0.83756      -0.42423
                        -----------------------------------------
Magnitude (a.u.)       :      1.62827
Magnitude (Debye)      :      4.13873

Rotational constants in cm-1:     0.153652     0.082400     0.079295
Rotational constants in MHz :  4606.361242  2470.285703  2377.214112

                             ****ORCA TERMINATED NORMALLY****
TOTAL RUN TIME: 0 days 0 hours 0 minutes 11 seconds 977 msec
