                         Program Version 5.0.0 -  RELEASE  -
|  1> !BLYP D3BJ RIJCOSX def2-TZVP def2/J TightSCF xyzfile
|  2>
|  3> *xyzfile 0 1 D2.xyz
|  4>
|  5> %MaxCore 64000
|  6>
|  7> %pal nprocs 18
|  8> end
|  9>
| 10> %scf
| 11>   MaxIter 150
| 12> end
| 13>
| 14>
| 15>                          ****END OF INPUT****

CARTESIAN COORDINATES (ANGSTROEM)
---------------------------------
  C      1.364014    0.468742   -2.813764
  C      0.428844    0.321402   -1.655312
  C      0.968045    1.630639   -3.715749
  C     -0.508347    1.722679   -4.124300
  S     -1.328608    0.146737   -4.435781
  H     -0.591511    2.294958   -5.047219
  H     -1.114114    2.235610   -3.374362
  H      0.748578   -0.400542   -1.001345
  H     -0.461053    0.023332   -2.077731
  H      0.310258    1.201375   -1.134948
  O     -2.571347    0.475733   -5.068341
  F     -1.514963   -0.400512   -3.063420
  H      1.294847   -0.468742   -3.364684
  H      2.376216    0.597400   -2.431495
  H      1.578688    1.520652   -4.612733
  H      1.266653    2.575988   -3.250448
  O     -0.377928   -0.627558   -5.201141

 Total Charge           Charge          ....    0
 Multiplicity           Mult            ....    1
 Number of Electrons    NEL             ....   74
 Basis Dimension        Dim             ....  308

ORBITAL ENERGIES
----------------

  NO   OCC          E(Eh)            E(eV)
   0   2.0000     -88.334955     -2403.7163
   1   2.0000     -24.382541      -663.4827
   2   2.0000     -18.787432      -511.2320
   3   2.0000     -18.784736      -511.1586
   4   2.0000      -9.957696      -270.9627
   5   2.0000      -9.924137      -270.0495
   6   2.0000      -9.902012      -269.4475
   7   2.0000      -9.862442      -268.3707
   8   2.0000      -7.866826      -214.0672
   9   2.0000      -5.899247      -160.5267
  10   2.0000      -5.892307      -160.3378
  11   2.0000      -5.891927      -160.3275
  12   2.0000      -1.246342       -33.9147
  13   2.0000      -1.022876       -27.8339
  14   2.0000      -0.935947       -25.4684
  15   2.0000      -0.754132       -20.5210
  16   2.0000      -0.700495       -19.0614
  17   2.0000      -0.641022       -17.4431
  18   2.0000      -0.621453       -16.9106
  19   2.0000      -0.533325       -14.5125
  20   2.0000      -0.519409       -14.1338
  21   2.0000      -0.500517       -13.6198
  22   2.0000      -0.485023       -13.1981
  23   2.0000      -0.441417       -12.0116
  24   2.0000      -0.425541       -11.5796
  25   2.0000      -0.418954       -11.4003
  26   2.0000      -0.401574       -10.9274
  27   2.0000      -0.379749       -10.3335
  28   2.0000      -0.363852        -9.9009
  29   2.0000      -0.353298        -9.6137
  30   2.0000      -0.341672        -9.2974
  31   2.0000      -0.309447        -8.4205
  32   2.0000      -0.300552        -8.1784
  33   2.0000      -0.295533        -8.0419
  34   2.0000      -0.287106        -7.8126
  35   2.0000      -0.280271        -7.6266
  36   2.0000      -0.269767        -7.3407
  37   0.0000      -0.012848        -0.3496
  38   0.0000       0.006308         0.1717
  39   0.0000       0.020560         0.5595
  40   0.0000       0.035141         0.9562
  41   0.0000       0.049495         1.3468

MULLIKEN ATOMIC CHARGES
-----------------------
   0 C :   -0.185996
   1 C :   -0.341643
   2 C :   -0.127816
   3 C :   -0.260961
   4 S :    0.787237
   5 H :    0.145281
   6 H :    0.126828
   7 H :    0.101874
   8 H :    0.124954
   9 H :    0.085151
  10 O :   -0.372323
  11 F :   -0.092062
  12 H :    0.117136
  13 H :    0.080274
  14 H :    0.097739
  15 H :    0.093163
  16 O :   -0.378835
Sum of atomic charges:   -0.0000000

LOEWDIN ATOMIC CHARGES
----------------------
   0 C :   -0.300014
   1 C :   -0.311368
   2 C :   -0.276083
   3 C :   -0.361721
   4 S :    0.514632
   5 H :    0.146536
   6 H :    0.135742
   7 H :    0.106203
   8 H :    0.084217
   9 H :    0.103184
  10 O :   -0.234313
  11 F :    0.082411
  12 H :    0.137164
  13 H :    0.131997
  14 H :    0.142220
  15 H :    0.139941
  16 O :   -0.240749

  Mayer bond orders larger than 0.100000
B(  0-C ,  1-C ) :   0.9378 B(  0-C ,  2-C ) :   0.9598 B(  0-C , 12-H ) :   0.9731
B(  0-C , 13-H ) :   0.9635 B(  1-C ,  7-H ) :   0.9783 B(  1-C ,  8-H ) :   0.9729
B(  1-C ,  9-H ) :   0.9745 B(  2-C ,  3-C ) :   0.9405 B(  2-C , 14-H ) :   0.9631
B(  2-C , 15-H ) :   0.9464 B(  3-C ,  4-S ) :   0.9048 B(  3-C ,  5-H ) :   0.9460
B(  3-C ,  6-H ) :   0.9393 B(  4-S , 10-O ) :   1.9801 B(  4-S , 11-F ) :   1.0613
B(  4-S , 16-O ) :   1.9113

Dispersion correction           -0.036550297
FINAL SINGLE POINT ENERGY      -806.354223298089

DIPOLE MOMENT
-------------
                                X             Y             Z
Electronic contribution:    -10.55583      -5.62365      -6.21215
Nuclear contribution   :     11.08796       6.45140       7.05645
                        -----------------------------------------
Total Dipole Moment    :      0.53213       0.82775       0.84431
                        -----------------------------------------
Magnitude (a.u.)       :      1.29661
Magnitude (Debye)      :      3.29571

Rotational constants in cm-1:     0.100113     0.046890     0.041843
Rotational constants in MHz :  3001.313402  1405.711946  1254.411771

                             ****ORCA TERMINATED NORMALLY****
TOTAL RUN TIME: 0 days 0 hours 0 minutes 9 seconds 40 msec
