                         Program Version 5.0.0 -  RELEASE  -
|  1> !PBE0 D3BJ RIJCOSX def2-SVP def2/J TightSCF
|  2> *xyz -1 1
|  3> C          2.49556        1.81615       -2.13636
|  4> C          1.87218        0.42790       -2.07750
|  5> H          2.61427       -0.36583       -2.19889
|  6> H          1.38995        0.27309       -1.11236
|  7> S          0.57902        0.14047       -3.29794
|  8> O          0.22886       -1.24687       -3.12787
|  9> O         -0.43927        1.11897       -3.01455
| 10> O          1.24788        0.40347       -4.59565
| 11> H          2.96535        1.95613       -3.08747
| 12> H          3.22581        1.91242       -1.36024
| 13> H          1.73350        2.55528       -2.00274
| 14> *
| 15>
| 16> %MaxCore 64000
| 17>
| 18> %pal nprocs 4
| 19> end
| 20>
| 21> %scf
| 22>   MaxIter 150
| 23> end
| 24>
| 25>
| 26>                          ****END OF INPUT****

CARTESIAN COORDINATES (ANGSTROEM)
---------------------------------
  C      2.495560    1.816150   -2.136360
  C      1.872180    0.427900   -2.077500
  H      2.614270   -0.365830   -2.198890
  H      1.389950    0.273090   -1.112360
  S      0.579020    0.140470   -3.297940
  O      0.228860   -1.246870   -3.127870
  O     -0.439270    1.118970   -3.014550
  O      1.247880    0.403470   -4.595650
  H      2.965350    1.956130   -3.087470
  H      3.225810    1.912420   -1.360240
  H      1.733500    2.555280   -2.002740

 Total Charge           Charge          ....   -1
 Multiplicity           Mult            ....    1
 Number of Electrons    NEL             ....   58
 Basis Dimension        Dim             ....  113

ORBITAL ENERGIES
----------------

  NO   OCC          E(Eh)            E(eV)
   0   2.0000     -88.998323     -2421.7675
   1   2.0000     -18.963415      -516.0207
   2   2.0000     -18.963297      -516.0175
   3   2.0000     -18.947056      -515.5756
   4   2.0000     -10.078743      -274.2565
   5   2.0000     -10.075621      -274.1716
   6   2.0000      -7.965106      -216.7416
   7   2.0000      -5.906775      -160.7315
   8   2.0000      -5.906555      -160.7255
   9   2.0000      -5.906465      -160.7231
  10   2.0000      -0.933268       -25.3955
  11   2.0000      -0.794328       -21.6148
  12   2.0000      -0.765647       -20.8343
  13   2.0000      -0.637211       -17.3394
  14   2.0000      -0.507519       -13.8103
  15   2.0000      -0.377289       -10.2666
  16   2.0000      -0.319362        -8.6903
  17   2.0000      -0.312854        -8.5132
  18   2.0000      -0.274608        -7.4725
  19   2.0000      -0.256889        -6.9903
  20   2.0000      -0.251513        -6.8440
  21   2.0000      -0.230176        -6.2634
  22   2.0000      -0.211150        -5.7457
  23   2.0000      -0.138734        -3.7751
  24   2.0000      -0.137140        -3.7318
  25   2.0000      -0.104922        -2.8551
  26   2.0000      -0.095126        -2.5885
  27   2.0000      -0.084355        -2.2954
  28   2.0000      -0.049724        -1.3531
  29   0.0000       0.215782         5.8717
  30   0.0000       0.266422         7.2497
  31   0.0000       0.272335         7.4106
  32   0.0000       0.279887         7.6161
  33   0.0000       0.309104         8.4111

MULLIKEN ATOMIC CHARGES
-----------------------
   0 C :   -0.027507
   1 C :   -0.153332
   2 H :    0.022536
   3 H :    0.015300
   4 S :    0.883006
   5 O :   -0.578128
   6 O :   -0.579260
   7 O :   -0.624707
   8 H :    0.028309
   9 H :   -0.012868
  10 H :    0.026650
Sum of atomic charges:   -1.0000000

LOEWDIN ATOMIC CHARGES
----------------------
   0 C :   -0.083623
   1 C :   -0.198235
   2 H :    0.010825
   3 H :    0.006638
   4 S :    1.086613
   5 O :   -0.605624
   6 O :   -0.606336
   7 O :   -0.653703
   8 H :    0.019593
   9 H :    0.004093
  10 H :    0.019759

  Mayer bond orders larger than 0.100000
B(  0-C ,  1-C ) :   1.0483 B(  0-C ,  8-H ) :   0.9671 B(  0-C ,  9-H ) :   0.9643
B(  0-C , 10-H ) :   0.9674 B(  1-C ,  2-H ) :   0.9445 B(  1-C ,  3-H ) :   0.9414
B(  1-C ,  4-S ) :   0.8923 B(  4-S ,  5-O ) :   1.6347 B(  4-S ,  6-O ) :   1.6214
B(  4-S ,  7-O ) :   1.5757

Dispersion correction           -0.008288434
FINAL SINGLE POINT ENERGY      -702.265261698187

DIPOLE MOMENT
-------------
                                X             Y             Z
Electronic contribution:     -5.79594      -3.64925      -4.17804
Nuclear contribution   :      6.89220       4.11756       5.35566
                        -----------------------------------------
Total Dipole Moment    :      1.09626       0.46831       1.17762
                        -----------------------------------------
Magnitude (a.u.)       :      1.67567
Magnitude (Debye)      :      4.25922

Rotational constants in cm-1:     0.162183     0.084017     0.082390
Rotational constants in MHz :  4862.117324  2518.774315  2469.980309

                             ****ORCA TERMINATED NORMALLY****
TOTAL RUN TIME: 0 days 0 hours 0 minutes 8 seconds 361 msec
