                         Program Version 5.0.0 -  RELEASE  -
|  1> !PBE0 D3BJ RIJCOSX def2-SVP def2/J TightSCF
|  2> *xyz 1 1
|  3> C          3.38093        2.08304       -3.35013
|  4> N          4.53592        1.18245       -3.42852
|  5> C          2.49556        1.81615       -2.13636
|  6> C          4.67196        0.12227       -4.22060
|  7> N          5.86602       -0.50785       -4.22428
|  8> N          3.69888       -0.31284       -4.98699
|  9> H          2.73141       -0.05009       -4.84900
| 10> H          3.89005       -1.05517       -5.64373
| 11> H          5.25193        1.30346       -2.72101
| 12> H          6.69516       -0.06232       -3.85160
| 13> H          5.97538       -1.39688       -4.69141
| 14> H          2.80646        1.98651       -4.26848
| 15> H          3.77871        3.09828       -3.30738
| 16> H          2.11090        0.81901       -2.18783
| 17> H          1.68276        2.51198       -2.12786
| 18> H          3.07216        1.93031       -1.24227
| 19> *
| 20>
| 21> %MaxCore 64000
| 22>
| 23> %pal nprocs 4
| 24> end
| 25>
| 26> %scf
| 27>   MaxIter 150
| 28> end
| 29>
| 30>
| 31>                          ****END OF INPUT****

CARTESIAN COORDINATES (ANGSTROEM)
---------------------------------
  C      3.380930    2.083040   -3.350130
  N      4.535920    1.182450   -3.428520
  C      2.495560    1.816150   -2.136360
  C      4.671960    0.122270   -4.220600
  N      5.866020   -0.507850   -4.224280
  N      3.698880   -0.312840   -4.986990
  H      2.731410   -0.050090   -4.849000
  H      3.890050   -1.055170   -5.643730
  H      5.251930    1.303460   -2.721010
  H      6.695160   -0.062320   -3.851600
  H      5.975380   -1.396880   -4.691410
  H      2.806460    1.986510   -4.268480
  H      3.778710    3.098280   -3.307380
  H      2.110900    0.819010   -2.187830
  H      1.682760    2.511980   -2.127860
  H      3.072160    1.930310   -1.242270

 Total Charge           Charge          ....    1
 Multiplicity           Mult            ....    1
 Number of Electrons    NEL             ....   48
 Basis Dimension        Dim             ....  134

ORBITAL ENERGIES
----------------

  NO   OCC          E(Eh)            E(eV)
   0   2.0000     -14.619722      -397.8229
   1   2.0000     -14.614964      -397.6934
   2   2.0000     -14.611607      -397.6020
   3   2.0000     -10.564692      -287.4799
   4   2.0000     -10.436761      -283.9987
   5   2.0000     -10.366032      -282.0741
   6   2.0000      -1.231638       -33.5146
   7   2.0000      -1.120085       -30.4791
   8   2.0000      -1.103985       -30.0410
   9   2.0000      -0.945208       -25.7204
  10   2.0000      -0.855169       -23.2703
  11   2.0000      -0.816311       -22.2129
  12   2.0000      -0.801489       -21.8096
  13   2.0000      -0.755850       -20.5677
  14   2.0000      -0.709928       -19.3181
  15   2.0000      -0.706353       -19.2208
  16   2.0000      -0.655806       -17.8454
  17   2.0000      -0.644262       -17.5313
  18   2.0000      -0.615120       -16.7383
  19   2.0000      -0.569942       -15.5089
  20   2.0000      -0.540121       -14.6974
  21   2.0000      -0.523506       -14.2453
  22   2.0000      -0.488047       -13.2804
  23   2.0000      -0.456605       -12.4248
  24   0.0000      -0.150914        -4.1066
  25   0.0000      -0.123339        -3.3562
  26   0.0000      -0.090711        -2.4684
  27   0.0000      -0.081168        -2.2087
  28   0.0000      -0.065797        -1.7904

MULLIKEN ATOMIC CHARGES
-----------------------
   0 C :   -0.012469
   1 N :   -0.198263
   2 C :   -0.046785
   3 C :    0.155192
   4 N :   -0.111476
   5 N :   -0.071392
   6 H :    0.188553
   7 H :    0.181970
   8 H :    0.178275
   9 H :    0.185194
  10 H :    0.180256
  11 H :    0.068402
  12 H :    0.098383
  13 H :    0.048293
  14 H :    0.088868
  15 H :    0.067000
Sum of atomic charges:    1.0000000

LOEWDIN ATOMIC CHARGES
----------------------
   0 C :    0.038053
   1 N :    0.021102
   2 C :   -0.055781
   3 C :    0.146044
   4 N :    0.027709
   5 N :    0.056697
   6 H :    0.114207
   7 H :    0.114363
   8 H :    0.107996
   9 H :    0.112455
  10 H :    0.108984
  11 H :    0.034948
  12 H :    0.052063
  13 H :    0.030286
  14 H :    0.052182
  15 H :    0.038693

  Mayer bond orders larger than 0.100000
B(  0-C ,  1-N ) :   0.9196 B(  0-C ,  2-C ) :   1.0859 B(  0-C , 11-H ) :   0.9546
B(  0-C , 12-H ) :   0.9471 B(  1-N ,  3-C ) :   1.3657 B(  1-N ,  8-H ) :   0.9090
B(  2-C , 13-H ) :   0.9692 B(  2-C , 14-H ) :   0.9632 B(  2-C , 15-H ) :   0.9686
B(  3-C ,  4-N ) :   1.3590 B(  3-C ,  5-N ) :   1.4055 B(  4-N ,  9-H ) :   0.9259
B(  4-N , 10-H ) :   0.9297 B(  5-N ,  6-H ) :   0.9220 B(  5-N ,  7-H ) :   0.9242

Dispersion correction           -0.010226723
FINAL SINGLE POINT ENERGY      -283.874577017706

DIPOLE MOMENT
-------------
                                X             Y             Z
Electronic contribution:      3.61047      -2.71602      -2.85570
Nuclear contribution   :     -2.93277       1.85779       2.25966
                        -----------------------------------------
Total Dipole Moment    :      0.67770      -0.85823      -0.59604
                        -----------------------------------------
Magnitude (a.u.)       :      1.24543
Magnitude (Debye)      :      3.16563

Rotational constants in cm-1:     0.245511     0.068839     0.059711
Rotational constants in MHz :  7360.233487  2063.743353  1790.088408

                             ****ORCA TERMINATED NORMALLY****
TOTAL RUN TIME: 0 days 0 hours 0 minutes 10 seconds 575 msec
