                         Program Version 5.0.0 -  RELEASE  -
|  1> !PBE0 D3BJ RIJCOSX def2-SVP def2/J TightSCF
|  2> *xyz 0 1
|  3> C          2.49556        1.81615       -2.13636
|  4> C          1.87218        0.42790       -2.07750
|  5> H          2.61427       -0.36583       -2.19889
|  6> H          1.38995        0.27309       -1.11236
|  7> S          0.57902        0.14047       -3.29794
|  8> F          0.22886       -1.24687       -3.12787
|  9> O         -0.43927        1.11897       -3.01455
| 10> O          1.24788        0.40347       -4.59565
| 11> H          2.96535        1.95613       -3.08747
| 12> H          3.22581        1.91242       -1.36024
| 13> H          1.73350        2.55528       -2.00274
| 14> *
| 15>
| 16> %MaxCore 64000
| 17>
| 18> %pal nprocs 4
| 19> end
| 20>
| 21> %scf
| 22>   MaxIter 150
| 23> end
| 24>
| 25>
| 26>                          ****END OF INPUT****

CARTESIAN COORDINATES (ANGSTROEM)
---------------------------------
  C      2.495560    1.816150   -2.136360
  C      1.872180    0.427900   -2.077500
  H      2.614270   -0.365830   -2.198890
  H      1.389950    0.273090   -1.112360
  S      0.579020    0.140470   -3.297940
  F      0.228860   -1.246870   -3.127870
  O     -0.439270    1.118970   -3.014550
  O      1.247880    0.403470   -4.595650
  H      2.965350    1.956130   -3.087470
  H      3.225810    1.912420   -1.360240
  H      1.733500    2.555280   -2.002740

 Total Charge           Charge          ....    0
 Multiplicity           Mult            ....    1
 Number of Electrons    NEL             ....   58
 Basis Dimension        Dim             ....  113

ORBITAL ENERGIES
----------------

  NO   OCC          E(Eh)            E(eV)
   0   2.0000     -89.273002     -2429.2419
   1   2.0000     -24.890309      -677.2997
   2   2.0000     -19.215334      -522.8758
   3   2.0000     -19.199361      -522.4412
   4   2.0000     -10.288485      -279.9639
   5   2.0000     -10.248514      -278.8763
   6   2.0000      -8.242199      -224.2816
   7   2.0000      -6.187814      -168.3790
   8   2.0000      -6.181385      -168.2040
   9   2.0000      -6.180169      -168.1709
  10   2.0000      -1.404594       -38.2209
  11   2.0000      -1.128237       -30.7009
  12   2.0000      -1.019227       -27.7346
  13   2.0000      -0.837432       -22.7877
  14   2.0000      -0.752421       -20.4744
  15   2.0000      -0.689506       -18.7624
  16   2.0000      -0.602973       -16.4077
  17   2.0000      -0.601647       -16.3716
  18   2.0000      -0.565844       -15.3974
  19   2.0000      -0.505811       -13.7638
  20   2.0000      -0.493422       -13.4267
  21   2.0000      -0.450055       -12.2466
  22   2.0000      -0.441559       -12.0154
  23   2.0000      -0.420268       -11.4361
  24   2.0000      -0.396789       -10.7972
  25   2.0000      -0.392286       -10.6746
  26   2.0000      -0.339034        -9.2256
  27   2.0000      -0.324080        -8.8187
  28   2.0000      -0.307852        -8.3771
  29   0.0000       0.045755         1.2451
  30   0.0000       0.058189         1.5834
  31   0.0000       0.084545         2.3006
  32   0.0000       0.096598         2.6286
  33   0.0000       0.108100         2.9415

MULLIKEN ATOMIC CHARGES
-----------------------
   0 C :   -0.041333
   1 C :   -0.185469
   2 H :    0.086170
   3 H :    0.081719
   4 S :    0.959904
   5 F :   -0.175044
   6 O :   -0.441391
   7 O :   -0.486495
   8 H :    0.072638
   9 H :    0.059830
  10 H :    0.069470
Sum of atomic charges:   -0.0000000

LOEWDIN ATOMIC CHARGES
----------------------
   0 C :   -0.056542
   1 C :   -0.161946
   2 H :    0.037233
   3 H :    0.034508
   4 S :    1.146692
   5 F :   -0.114705
   6 O :   -0.477713
   7 O :   -0.525026
   8 H :    0.039080
   9 H :    0.039724
  10 H :    0.038695

  Mayer bond orders larger than 0.100000
B(  0-C ,  1-C ) :   1.0629 B(  0-C ,  8-H ) :   0.9698 B(  0-C ,  9-H ) :   0.9639
B(  0-C , 10-H ) :   0.9693 B(  1-C ,  2-H ) :   0.9300 B(  1-C ,  3-H ) :   0.9290
B(  1-C ,  4-S ) :   0.9236 B(  4-S ,  5-F ) :   1.0194 B(  4-S ,  6-O ) :   1.7734
B(  4-S ,  7-O ) :   1.7299

Dispersion correction           -0.007925029
FINAL SINGLE POINT ENERGY      -726.751155241005

DIPOLE MOMENT
-------------
                                X             Y             Z
Electronic contribution:     -6.86070      -6.43537      -4.12131
Nuclear contribution   :      7.60530       5.82028       5.38743
                        -----------------------------------------
Total Dipole Moment    :      0.74460      -0.61509       1.26612
                        -----------------------------------------
Magnitude (a.u.)       :      1.59243
Magnitude (Debye)      :      4.04764

Rotational constants in cm-1:     0.157861     0.081452     0.078859
Rotational constants in MHz :  4732.562506  2441.865430  2364.129821

                             ****ORCA TERMINATED NORMALLY****
TOTAL RUN TIME: 0 days 0 hours 0 minutes 7 seconds 934 msec
