                         Program Version 5.0.0 -  RELEASE  -
|  1> !PBE0 D3BJ RIJCOSX def2-SVP def2/J TightSCF
|  2> *xyz 0 1
|  3> C          3.38093        2.08304       -3.35013
|  4> C          4.53592        1.18245       -3.42852
|  5> C          2.49556        1.81615       -2.13636
|  6> C          4.67196        0.12227       -4.22060
|  7> N          5.86602       -0.50785       -4.22428
|  8> N          3.69888       -0.31284       -4.98699
|  9> H          2.73141       -0.05009       -4.84900
| 10> H          3.89005       -1.05517       -5.64373
| 11> H          5.25193        1.30346       -2.72101
| 12> H          6.69516       -0.06232       -3.85160
| 13> H          5.97538       -1.39688       -4.69141
| 14> H          2.80646        1.98651       -4.26848
| 15> H          3.77871        3.09828       -3.30738
| 16> H          2.11090        0.81901       -2.18783
| 17> H          1.68276        2.51198       -2.12786
| 18> H          3.07216        1.93031       -1.24227
| 19> *
| 20>
| 21> %MaxCore 64000
| 22>
| 23> %pal nprocs 4
| 24> end
| 25>
| 26> %scf
| 27>   MaxIter 150
| 28> end
| 29>
| 30>
| 31>                          ****END OF INPUT****

CARTESIAN COORDINATES (ANGSTROEM)
---------------------------------
  C      3.380930    2.083040   -3.350130
  C      4.535920    1.182450   -3.428520
  C      2.495560    1.816150   -2.136360
  C      4.671960    0.122270   -4.220600
  N      5.866020   -0.507850   -4.224280
  N      3.698880   -0.312840   -4.986990
  H      2.731410   -0.050090   -4.849000
  H      3.890050   -1.055170   -5.643730
  H      5.251930    1.303460   -2.721010
  H      6.695160   -0.062320   -3.851600
  H      5.975380   -1.396880   -4.691410
  H      2.806460    1.986510   -4.268480
  H      3.778710    3.098280   -3.307380
  H      2.110900    0.819010   -2.187830
  H      1.682760    2.511980   -2.127860
  H      3.072160    1.930310   -1.242270

 Total Charge           Charge          ....    0
 Multiplicity           Mult            ....    1
 Number of Electrons    NEL             ....   48
 Basis Dimension        Dim             ....  134

ORBITAL ENERGIES
----------------

  NO   OCC          E(Eh)            E(eV)
   0   2.0000     -14.390023      -391.5724
   1   2.0000     -14.381873      -391.3506
   2   2.0000     -10.266932      -279.3774
   3   2.0000     -10.198918      -277.5267
   4   2.0000     -10.192140      -277.3422
   5   2.0000     -10.143448      -276.0172
   6   2.0000      -0.970935       -26.4205
   7   2.0000      -0.876703       -23.8563
   8   2.0000      -0.779530       -21.2121
   9   2.0000      -0.701507       -19.0890
  10   2.0000      -0.623825       -16.9751
  11   2.0000      -0.585194       -15.9239
  12   2.0000      -0.552469       -15.0334
  13   2.0000      -0.512850       -13.9554
  14   2.0000      -0.487582       -13.2678
  15   2.0000      -0.448177       -12.1955
  16   2.0000      -0.421655       -11.4738
  17   2.0000      -0.398675       -10.8485
  18   2.0000      -0.382713       -10.4141
  19   2.0000      -0.356688        -9.7060
  20   2.0000      -0.331148        -9.0110
  21   2.0000      -0.323920        -8.8143
  22   2.0000      -0.267379        -7.2757
  23   2.0000      -0.156337        -4.2541
  24   0.0000       0.055522         1.5108
  25   0.0000       0.082640         2.2487
  26   0.0000       0.106553         2.8995
  27   0.0000       0.110543         3.0080
  28   0.0000       0.125404         3.4124

MULLIKEN ATOMIC CHARGES
-----------------------
   0 C :   -0.015078
   1 C :   -0.224042
   2 C :   -0.006544
   3 C :    0.026910
   4 N :   -0.148591
   5 N :   -0.113541
   6 H :    0.137890
   7 H :    0.112021
   8 H :   -0.067065
   9 H :    0.133566
  10 H :    0.106395
  11 H :   -0.007527
  12 H :    0.018923
  13 H :    0.010377
  14 H :    0.015513
  15 H :    0.020794
Sum of atomic charges:    0.0000000

LOEWDIN ATOMIC CHARGES
----------------------
   0 C :   -0.048453
   1 C :   -0.224616
   2 C :   -0.064611
   3 C :    0.019020
   4 N :   -0.039508
   5 N :   -0.014071
   6 H :    0.083507
   7 H :    0.067266
   8 H :   -0.007941
   9 H :    0.083260
  10 H :    0.061133
  11 H :    0.010496
  12 H :    0.024504
  13 H :    0.015102
  14 H :    0.014089
  15 H :    0.020823

  Mayer bond orders larger than 0.100000
B(  0-C ,  1-C ) :   1.0772 B(  0-C ,  2-C ) :   1.0760 B(  0-C , 11-H ) :   0.9444
B(  0-C , 12-H ) :   0.9280 B(  1-C ,  3-C ) :   1.6827 B(  1-C ,  8-H ) :   0.9544
B(  2-C , 13-H ) :   0.9721 B(  2-C , 14-H ) :   0.9658 B(  2-C , 15-H ) :   0.9716
B(  3-C ,  4-N ) :   1.2015 B(  3-C ,  5-N ) :   1.2460 B(  4-N ,  9-H ) :   0.9441
B(  4-N , 10-H ) :   0.9517 B(  5-N ,  6-H ) :   0.9387 B(  5-N ,  7-H ) :   0.9482

Dispersion correction           -0.010650433
FINAL SINGLE POINT ENERGY      -267.410231868599

DIPOLE MOMENT
-------------
                                X             Y             Z
Electronic contribution:      3.04952      -2.94475      -2.99900
Nuclear contribution   :     -2.84307       1.95814       2.32378
                        -----------------------------------------
Total Dipole Moment    :      0.20645      -0.98662      -0.67522
                        -----------------------------------------
Magnitude (a.u.)       :      1.21324
Magnitude (Debye)      :      3.08381

Rotational constants in cm-1:     0.248902     0.068887     0.059904
Rotational constants in MHz :  7461.898926  2065.183281  1795.882140

                             ****ORCA TERMINATED NORMALLY****
TOTAL RUN TIME: 0 days 0 hours 0 minutes 11 seconds 344 msec
