                         Program Version 5.0.0 -  RELEASE  -
|  1> !PBE0 D3BJ RIJCOSX def2-SVP def2/J TightSCF
|  2> *xyz 0 1
|  3> C          2.49556        1.81615       -2.13636
|  4> C          1.87218        0.42790       -2.07750
|  5> H          2.61427       -0.36583       -2.19889
|  6> H          1.38995        0.27309       -1.11236
|  7> S          0.57902        0.14047       -3.29794
|  8> O          0.22886       -1.24687       -3.12787
|  9> F         -0.43927        1.11897       -3.01455
| 10> O          1.24788        0.40347       -4.59565
| 11> H          2.96535        1.95613       -3.08747
| 12> H          3.22581        1.91242       -1.36024
| 13> H          1.73350        2.55528       -2.00274
| 14> *
| 15>
| 16> %MaxCore 64000
| 17>
| 18> %pal nprocs 4
| 19> end
| 20>
| 21> %scf
| 22>   MaxIter 150
| 23> end
| 24>
| 25>
| 26>                          ****END OF INPUT****

CARTESIAN COORDINATES (ANGSTROEM)
---------------------------------
  C      2.495560    1.816150   -2.136360
  C      1.872180    0.427900   -2.077500
  H      2.614270   -0.365830   -2.198890
  H      1.389950    0.273090   -1.112360
  S      0.579020    0.140470   -3.297940
  O      0.228860   -1.246870   -3.127870
  F     -0.439270    1.118970   -3.014550
  O      1.247880    0.403470   -4.595650
  H      2.965350    1.956130   -3.087470
  H      3.225810    1.912420   -1.360240
  H      1.733500    2.555280   -2.002740

 Total Charge           Charge          ....    0
 Multiplicity           Mult            ....    1
 Number of Electrons    NEL             ....   58
 Basis Dimension        Dim             ....  113

ORBITAL ENERGIES
----------------

  NO   OCC          E(Eh)            E(eV)
   0   2.0000     -89.273219     -2429.2478
   1   2.0000     -24.890449      -677.3035
   2   2.0000     -19.215767      -522.8876
   3   2.0000     -19.200569      -522.4740
   4   2.0000     -10.288306      -279.9590
   5   2.0000     -10.251662      -278.9619
   6   2.0000      -8.242394      -224.2870
   7   2.0000      -6.188100      -168.3868
   8   2.0000      -6.181512      -168.2075
   9   2.0000      -6.180355      -168.1760
  10   2.0000      -1.404875       -38.2286
  11   2.0000      -1.127965       -30.6935
  12   2.0000      -1.020644       -27.7731
  13   2.0000      -0.840555       -22.8727
  14   2.0000      -0.748665       -20.3722
  15   2.0000      -0.693517       -18.8716
  16   2.0000      -0.612375       -16.6636
  17   2.0000      -0.601445       -16.3662
  18   2.0000      -0.558822       -15.2063
  19   2.0000      -0.505278       -13.7493
  20   2.0000      -0.491429       -13.3725
  21   2.0000      -0.462802       -12.5935
  22   2.0000      -0.442523       -12.0417
  23   2.0000      -0.419355       -11.4112
  24   2.0000      -0.407237       -11.0815
  25   2.0000      -0.386420       -10.5150
  26   2.0000      -0.338966        -9.2237
  27   2.0000      -0.324397        -8.8273
  28   2.0000      -0.310344        -8.4449
  29   0.0000       0.037324         1.0156
  30   0.0000       0.066898         1.8204
  31   0.0000       0.078856         2.1458
  32   0.0000       0.102638         2.7929
  33   0.0000       0.105199         2.8626

MULLIKEN ATOMIC CHARGES
-----------------------
   0 C :   -0.053989
   1 C :   -0.189995
   2 H :    0.116634
   3 H :    0.082353
   4 S :    0.960658
   5 O :   -0.436593
   6 F :   -0.176619
   7 O :   -0.485751
   8 H :    0.074858
   9 H :    0.060462
  10 H :    0.047982
Sum of atomic charges:    0.0000000

LOEWDIN ATOMIC CHARGES
----------------------
   0 C :   -0.071038
   1 C :   -0.158404
   2 H :    0.056898
   3 H :    0.034167
   4 S :    1.147177
   5 O :   -0.475234
   6 F :   -0.115469
   7 O :   -0.524004
   8 H :    0.037933
   9 H :    0.039274
  10 H :    0.028700

  Mayer bond orders larger than 0.100000
B(  0-C ,  1-C ) :   1.0397 B(  0-C ,  8-H ) :   0.9689 B(  0-C ,  9-H ) :   0.9626
B(  0-C , 10-H ) :   0.9729 B(  1-C ,  2-H ) :   0.9355 B(  1-C ,  3-H ) :   0.9323
B(  1-C ,  4-S ) :   0.9224 B(  4-S ,  5-O ) :   1.7840 B(  4-S ,  6-F ) :   1.0128
B(  4-S ,  7-O ) :   1.7303

Dispersion correction           -0.007884603
FINAL SINGLE POINT ENERGY      -726.751366702054

DIPOLE MOMENT
-------------
                                X             Y             Z
Electronic contribution:     -7.98722      -2.43783      -3.92707
Nuclear contribution   :      8.30151       3.35500       5.26935
                        -----------------------------------------
Total Dipole Moment    :      0.31429       0.91717       1.34228
                        -----------------------------------------
Magnitude (a.u.)       :      1.65580
Magnitude (Debye)      :      4.20871

Rotational constants in cm-1:     0.152913     0.083043     0.080351
Rotational constants in MHz :  4584.227971  2489.580280  2408.872860

                             ****ORCA TERMINATED NORMALLY****
TOTAL RUN TIME: 0 days 0 hours 0 minutes 8 seconds 280 msec
