                         Program Version 5.0.0 -  RELEASE  -
|  1> !PBE0 D3BJ RIJCOSX def2-SVP def2/J TightSCF
|  2> *xyz 0 1
|  3> C          3.38093        2.08304       -3.35013
|  4> N          4.53592        1.18245       -3.42852
|  5> C          2.49556        1.81615       -2.13636
|  6> C          4.67196        0.12227       -4.22060
|  7> C          5.86602       -0.50785       -4.22428
|  8> N          3.69888       -0.31284       -4.98699
|  9> H          2.73141       -0.05009       -4.84900
| 10> H          3.89005       -1.05517       -5.64373
| 11> H          5.25193        1.30346       -2.72101
| 12> H          6.69516       -0.06232       -3.85160
| 13> H          5.97538       -1.39688       -4.69141
| 14> H          2.80646        1.98651       -4.26848
| 15> H          3.77871        3.09828       -3.30738
| 16> H          2.11090        0.81901       -2.18783
| 17> H          1.68276        2.51198       -2.12786
| 18> H          3.07216        1.93031       -1.24227
| 19> *
| 20>
| 21> %MaxCore 64000
| 22>
| 23> %pal nprocs 4
| 24> end
| 25>
| 26> %scf
| 27>   MaxIter 150
| 28> end
| 29>
| 30>
| 31>                          ****END OF INPUT****

CARTESIAN COORDINATES (ANGSTROEM)
---------------------------------
  C      3.380930    2.083040   -3.350130
  N      4.535920    1.182450   -3.428520
  C      2.495560    1.816150   -2.136360
  C      4.671960    0.122270   -4.220600
  C      5.866020   -0.507850   -4.224280
  N      3.698880   -0.312840   -4.986990
  H      2.731410   -0.050090   -4.849000
  H      3.890050   -1.055170   -5.643730
  H      5.251930    1.303460   -2.721010
  H      6.695160   -0.062320   -3.851600
  H      5.975380   -1.396880   -4.691410
  H      2.806460    1.986510   -4.268480
  H      3.778710    3.098280   -3.307380
  H      2.110900    0.819010   -2.187830
  H      1.682760    2.511980   -2.127860
  H      3.072160    1.930310   -1.242270

 Total Charge           Charge          ....    0
 Multiplicity           Mult            ....    1
 Number of Electrons    NEL             ....   48
 Basis Dimension        Dim             ....  134

ORBITAL ENERGIES
----------------

  NO   OCC          E(Eh)            E(eV)
   0   2.0000     -14.390291      -391.5797
   1   2.0000     -14.387776      -391.5113
   2   2.0000     -10.270974      -279.4874
   3   2.0000     -10.269347      -279.4431
   4   2.0000     -10.223868      -278.2056
   5   2.0000     -10.133845      -275.7559
   6   2.0000      -0.979942       -26.6656
   7   2.0000      -0.897738       -24.4287
   8   2.0000      -0.783870       -21.3302
   9   2.0000      -0.705709       -19.2033
  10   2.0000      -0.636876       -17.3303
  11   2.0000      -0.612215       -16.6592
  12   2.0000      -0.553182       -15.0528
  13   2.0000      -0.507452       -13.8085
  14   2.0000      -0.490829       -13.3561
  15   2.0000      -0.455740       -12.4013
  16   2.0000      -0.438091       -11.9211
  17   2.0000      -0.410467       -11.1694
  18   2.0000      -0.394789       -10.7427
  19   2.0000      -0.376671       -10.2497
  20   2.0000      -0.371225       -10.1016
  21   2.0000      -0.358783        -9.7630
  22   2.0000      -0.258067        -7.0224
  23   2.0000      -0.157747        -4.2925
  24   0.0000       0.051761         1.4085
  25   0.0000       0.084995         2.3128
  26   0.0000       0.095765         2.6059
  27   0.0000       0.112016         3.0481
  28   0.0000       0.120530         3.2798

MULLIKEN ATOMIC CHARGES
-----------------------
   0 C :    0.024497
   1 N :   -0.219648
   2 C :   -0.034601
   3 C :    0.009977
   4 C :   -0.145705
   5 N :   -0.117170
   6 H :    0.116038
   7 H :    0.136145
   8 H :    0.135754
   9 H :   -0.033837
  10 H :   -0.042040
  11 H :    0.030786
  12 H :    0.039824
  13 H :    0.031578
  14 H :    0.033224
  15 H :    0.035180
Sum of atomic charges:    0.0000000

LOEWDIN ATOMIC CHARGES
----------------------
   0 C :    0.025932
   1 N :   -0.034062
   2 C :   -0.073411
   3 C :    0.031317
   4 C :   -0.278376
   5 N :   -0.011270
   6 H :    0.065655
   7 H :    0.087524
   8 H :    0.085476
   9 H :   -0.007887
  10 H :   -0.010408
  11 H :    0.020903
  12 H :    0.024262
  13 H :    0.023177
  14 H :    0.026114
  15 H :    0.025053

  Mayer bond orders larger than 0.100000
B(  0-C ,  1-N ) :   0.9995 B(  0-C ,  2-C ) :   1.0790 B(  0-C , 11-H ) :   0.9540
B(  0-C , 12-H ) :   0.9548 B(  1-N ,  3-C ) :   1.1868 B(  1-N ,  8-H ) :   0.9285
B(  2-C , 13-H ) :   0.9696 B(  2-C , 14-H ) :   0.9637 B(  2-C , 15-H ) :   0.9701
B(  3-C ,  4-C ) :   1.7075 B(  3-C ,  5-N ) :   1.2413 B(  4-C ,  9-H ) :   0.9479
B(  4-C , 10-H ) :   0.9478 B(  5-N ,  6-H ) :   0.9467 B(  5-N ,  7-H ) :   0.9408

Dispersion correction           -0.010548447
FINAL SINGLE POINT ENERGY      -267.400314403893

DIPOLE MOMENT
-------------
                                X             Y             Z
Electronic contribution:      1.46817      -1.13320      -2.07288
Nuclear contribution   :     -2.56090       1.59955       2.15496
                        -----------------------------------------
Total Dipole Moment    :     -1.09274       0.46635       0.08209
                        -----------------------------------------
Magnitude (a.u.)       :      1.19092
Magnitude (Debye)      :      3.02708

Rotational constants in cm-1:     0.249834     0.071381     0.061833
Rotational constants in MHz :  7489.842787  2139.945635  1853.706310

                             ****ORCA TERMINATED NORMALLY****
TOTAL RUN TIME: 0 days 0 hours 0 minutes 10 seconds 304 msec
