                         Program Version 5.0.0 -  RELEASE  -
|  1> !PBE0 D3BJ RIJCOSX def2-SVP def2/J TightSCF
|  2> *xyz 0 1
|  3> C          2.49556        1.81615       -2.13636
|  4> C          1.87218        0.42790       -2.07750
|  5> H          2.61427       -0.36583       -2.19889
|  6> H          1.38995        0.27309       -1.11236
|  7> S          0.57902        0.14047       -3.29794
|  8> O          0.22886       -1.24687       -3.12787
|  9> O         -0.43927        1.11897       -3.01455
| 10> F          1.24788        0.40347       -4.59565
| 11> H          2.96535        1.95613       -3.08747
| 12> H          3.22581        1.91242       -1.36024
| 13> H          1.73350        2.55528       -2.00274
| 14> *
| 15>
| 16> %MaxCore 64000
| 17>
| 18> %pal nprocs 4
| 19> end
| 20>
| 21> %scf
| 22>   MaxIter 150
| 23> end
| 24>
| 25>
| 26>                          ****END OF INPUT****

CARTESIAN COORDINATES (ANGSTROEM)
---------------------------------
  C      2.495560    1.816150   -2.136360
  C      1.872180    0.427900   -2.077500
  H      2.614270   -0.365830   -2.198890
  H      1.389950    0.273090   -1.112360
  S      0.579020    0.140470   -3.297940
  O      0.228860   -1.246870   -3.127870
  O     -0.439270    1.118970   -3.014550
  F      1.247880    0.403470   -4.595650
  H      2.965350    1.956130   -3.087470
  H      3.225810    1.912420   -1.360240
  H      1.733500    2.555280   -2.002740

 Total Charge           Charge          ....    0
 Multiplicity           Mult            ....    1
 Number of Electrons    NEL             ....   58
 Basis Dimension        Dim             ....  113

ORBITAL ENERGIES
----------------

  NO   OCC          E(Eh)            E(eV)
   0   2.0000     -89.271672     -2429.2057
   1   2.0000     -24.867769      -676.6864
   2   2.0000     -19.216310      -522.9024
   3   2.0000     -19.215680      -522.8852
   4   2.0000     -10.287278      -279.9311
   5   2.0000     -10.252325      -278.9799
   6   2.0000      -8.240722      -224.2414
   7   2.0000      -6.186154      -168.3338
   8   2.0000      -6.180173      -168.1710
   9   2.0000      -6.178885      -168.1360
  10   2.0000      -1.367290       -37.2059
  11   2.0000      -1.139166       -30.9983
  12   2.0000      -1.043433       -28.3932
  13   2.0000      -0.840001       -22.8576
  14   2.0000      -0.734428       -19.9848
  15   2.0000      -0.686088       -18.6694
  16   2.0000      -0.594911       -16.1884
  17   2.0000      -0.575721       -15.6662
  18   2.0000      -0.556416       -15.1409
  19   2.0000      -0.506609       -13.7855
  20   2.0000      -0.488906       -13.3038
  21   2.0000      -0.465820       -12.6756
  22   2.0000      -0.447711       -12.1828
  23   2.0000      -0.420105       -11.4316
  24   2.0000      -0.412711       -11.2304
  25   2.0000      -0.389999       -10.6124
  26   2.0000      -0.347947        -9.4681
  27   2.0000      -0.336087        -9.1454
  28   2.0000      -0.326752        -8.8914
  29   0.0000       0.038212         1.0398
  30   0.0000       0.072160         1.9636
  31   0.0000       0.083966         2.2848
  32   0.0000       0.103342         2.8121
  33   0.0000       0.107706         2.9308

MULLIKEN ATOMIC CHARGES
-----------------------
   0 C :   -0.056989
   1 C :   -0.194792
   2 H :    0.091191
   3 H :    0.111019
   4 S :    0.972247
   5 O :   -0.441897
   6 O :   -0.446477
   7 F :   -0.218754
   8 H :    0.052726
   9 H :    0.061674
  10 H :    0.070053
Sum of atomic charges:    0.0000000

LOEWDIN ATOMIC CHARGES
----------------------
   0 C :   -0.071816
   1 C :   -0.160682
   2 H :    0.039505
   3 H :    0.053485
   4 S :    1.153746
   5 O :   -0.479429
   6 O :   -0.481494
   7 F :   -0.159253
   8 H :    0.029549
   9 H :    0.039790
  10 H :    0.036601

  Mayer bond orders larger than 0.100000
B(  0-C ,  1-C ) :   1.0396 B(  0-C ,  8-H ) :   0.9743 B(  0-C ,  9-H ) :   0.9632
B(  0-C , 10-H ) :   0.9686 B(  1-C ,  2-H ) :   0.9341 B(  1-C ,  3-H ) :   0.9345
B(  1-C ,  4-S ) :   0.9247 B(  4-S ,  5-O ) :   1.7879 B(  4-S ,  6-O ) :   1.7780
B(  4-S ,  7-F ) :   0.9656

Dispersion correction           -0.007882547
FINAL SINGLE POINT ENERGY      -726.771274016635

DIPOLE MOMENT
-------------
                                X             Y             Z
Electronic contribution:     -5.12505      -3.63828      -6.60721
Nuclear contribution   :      6.54345       4.10057       6.91691
                        -----------------------------------------
Total Dipole Moment    :      1.41840       0.46229       0.30970
                        -----------------------------------------
Magnitude (a.u.)       :      1.52364
Magnitude (Debye)      :      3.87279

Rotational constants in cm-1:     0.152835     0.082826     0.080611
Rotational constants in MHz :  4581.878371  2483.049050  2416.647141

                             ****ORCA TERMINATED NORMALLY****
TOTAL RUN TIME: 0 days 0 hours 0 minutes 8 seconds 366 msec
