                         Program Version 5.0.0 -  RELEASE  -
|  1> !PBE0 D3BJ RIJCOSX def2-SVP def2/J TightSCF
|  2> *xyz 0 1
|  3> C          3.38093        2.08304       -3.35013
|  4> N          4.53592        1.18245       -3.42852
|  5> C          2.49556        1.81615       -2.13636
|  6> C          4.67196        0.12227       -4.22060
|  7> N          5.86602       -0.50785       -4.22428
|  8> C          3.69888       -0.31284       -4.98699
|  9> H          2.73141       -0.05009       -4.84900
| 10> H          3.89005       -1.05517       -5.64373
| 11> H          5.25193        1.30346       -2.72101
| 12> H          6.69516       -0.06232       -3.85160
| 13> H          5.97538       -1.39688       -4.69141
| 14> H          2.80646        1.98651       -4.26848
| 15> H          3.77871        3.09828       -3.30738
| 16> H          2.11090        0.81901       -2.18783
| 17> H          1.68276        2.51198       -2.12786
| 18> H          3.07216        1.93031       -1.24227
| 19> *
| 20>
| 21> %MaxCore 64000
| 22>
| 23> %pal nprocs 4
| 24> end
| 25>
| 26> %scf
| 27>   MaxIter 150
| 28> end
| 29>
| 30>
| 31>                          ****END OF INPUT****

CARTESIAN COORDINATES (ANGSTROEM)
---------------------------------
  C      3.380930    2.083040   -3.350130
  N      4.535920    1.182450   -3.428520
  C      2.495560    1.816150   -2.136360
  C      4.671960    0.122270   -4.220600
  N      5.866020   -0.507850   -4.224280
  C      3.698880   -0.312840   -4.986990
  H      2.731410   -0.050090   -4.849000
  H      3.890050   -1.055170   -5.643730
  H      5.251930    1.303460   -2.721010
  H      6.695160   -0.062320   -3.851600
  H      5.975380   -1.396880   -4.691410
  H      2.806460    1.986510   -4.268480
  H      3.778710    3.098280   -3.307380
  H      2.110900    0.819010   -2.187830
  H      1.682760    2.511980   -2.127860
  H      3.072160    1.930310   -1.242270

 Total Charge           Charge          ....    0
 Multiplicity           Mult            ....    1
 Number of Electrons    NEL             ....   48
 Basis Dimension        Dim             ....  134

ORBITAL ENERGIES
----------------

  NO   OCC          E(Eh)            E(eV)
   0   2.0000     -14.387673      -391.5085
   1   2.0000     -14.382902      -391.3787
   2   2.0000     -10.268363      -279.4164
   3   2.0000     -10.260085      -279.1911
   4   2.0000     -10.215492      -277.9777
   5   2.0000     -10.136910      -275.8394
   6   2.0000      -0.973091       -26.4792
   7   2.0000      -0.887907       -24.1612
   8   2.0000      -0.768105       -20.9012
   9   2.0000      -0.719001       -19.5650
  10   2.0000      -0.648709       -17.6523
  11   2.0000      -0.572806       -15.5868
  12   2.0000      -0.553161       -15.0523
  13   2.0000      -0.522076       -14.2064
  14   2.0000      -0.467867       -12.7313
  15   2.0000      -0.457376       -12.4458
  16   2.0000      -0.428947       -11.6723
  17   2.0000      -0.409009       -11.1297
  18   2.0000      -0.385519       -10.4905
  19   2.0000      -0.383181       -10.4269
  20   2.0000      -0.360796        -9.8178
  21   2.0000      -0.355027        -9.6608
  22   2.0000      -0.250266        -6.8101
  23   2.0000      -0.169131        -4.6023
  24   0.0000       0.060903         1.6573
  25   0.0000       0.083752         2.2790
  26   0.0000       0.102793         2.7971
  27   0.0000       0.112390         3.0583
  28   0.0000       0.128719         3.5026

MULLIKEN ATOMIC CHARGES
-----------------------
   0 C :    0.055927
   1 N :   -0.242820
   2 C :   -0.045465
   3 C :    0.073763
   4 N :   -0.162931
   5 C :   -0.156792
   6 H :   -0.023038
   7 H :   -0.042445
   8 H :    0.110845
   9 H :    0.111109
  10 H :    0.132835
  11 H :    0.052617
  12 H :    0.031601
  13 H :    0.046388
  14 H :    0.033243
  15 H :    0.025164
Sum of atomic charges:    0.0000000

LOEWDIN ATOMIC CHARGES
----------------------
   0 C :    0.039504
   1 N :   -0.039898
   2 C :   -0.071131
   3 C :    0.037171
   4 N :   -0.039108
   5 C :   -0.257893
   6 H :   -0.004280
   7 H :   -0.004884
   8 H :    0.064687
   9 H :    0.063475
  10 H :    0.081671
  11 H :    0.032932
  12 H :    0.021023
  13 H :    0.029613
  14 H :    0.026713
  15 H :    0.020404

  Mayer bond orders larger than 0.100000
B(  0-C ,  1-N ) :   0.9808 B(  0-C ,  2-C ) :   1.0941 B(  0-C , 11-H ) :   0.9430
B(  0-C , 12-H ) :   0.9589 B(  1-N ,  3-C ) :   1.1547 B(  1-N ,  8-H ) :   0.9334
B(  2-C , 13-H ) :   0.9706 B(  2-C , 14-H ) :   0.9654 B(  2-C , 15-H ) :   0.9702
B(  3-C ,  4-N ) :   1.2008 B(  3-C ,  5-C ) :   1.7584 B(  4-N ,  9-H ) :   0.9509
B(  4-N , 10-H ) :   0.9465 B(  5-C ,  6-H ) :   0.9428 B(  5-C ,  7-H ) :   0.9377

Dispersion correction           -0.010605433
FINAL SINGLE POINT ENERGY      -267.403805863871

DIPOLE MOMENT
-------------
                                X             Y             Z
Electronic contribution:      3.78592      -1.34384      -1.32212
Nuclear contribution   :     -3.02065       1.64092       1.99316
                        -----------------------------------------
Total Dipole Moment    :      0.76527       0.29708       0.67104
                        -----------------------------------------
Magnitude (a.u.)       :      1.06028
Magnitude (Debye)      :      2.69501

Rotational constants in cm-1:     0.259304     0.069422     0.060943
Rotational constants in MHz :  7773.747720  2081.225169  1827.013389

                             ****ORCA TERMINATED NORMALLY****
TOTAL RUN TIME: 0 days 0 hours 0 minutes 10 seconds 526 msec
