                         Program Version 5.0.0 -  RELEASE  -
|  1> !PBE0 D3BJ RIJCOSX def2-TZVP def2/J TightSCF xyzfile
|  2>
|  3> *xyzfile 0 1 D1.xyz
|  4>
|  5> %MaxCore 64000
|  6>
|  7> %pal nprocs 18
|  8> end
|  9>
| 10> %scf
| 11>   MaxIter 150
| 12> end
| 13>
| 14>
| 15>                          ****END OF INPUT****

CARTESIAN COORDINATES (ANGSTROEM)
---------------------------------
  C      3.380928    2.083045   -3.350127
  C      4.535924    1.182447   -3.428518
  C      2.495557    1.816150   -2.136364
  C      1.872181    0.427903   -2.077497
  H      2.614270   -0.365825   -2.198894
  H      1.389953    0.273087   -1.112360
  S      0.579024    0.140472   -3.297943
  C      4.671956    0.122273   -4.220598
  N      5.866023   -0.507849   -4.224284
  N      3.698881   -0.312844   -4.986988
  H      2.731405   -0.050091   -4.849000
  H      3.890046   -1.055172   -5.643730
  H      5.251933    1.303459   -2.721014
  H      6.695165   -0.062322   -3.851596
  H      5.975383   -1.396884   -4.691414
  F      0.228860   -1.246868   -3.127871
  O     -0.439269    1.118966   -3.014550
  O      1.247881    0.403474   -4.595647
  H      1.697003    2.561969   -2.141109
  H      3.080787    1.987436   -1.225838
  H      2.806463    1.986511   -4.268484
  H      3.778714    3.098282   -3.307383

 Total Charge           Charge          ....    0
 Multiplicity           Mult            ....    1
 Number of Electrons    NEL             ....   96
 Basis Dimension        Dim             ....  413

ORBITAL ENERGIES
----------------

  NO   OCC          E(Eh)            E(eV)
   0   2.0000     -89.269998     -2429.1601
   1   2.0000     -24.900984      -677.5902
   2   2.0000     -19.226546      -523.1809
   3   2.0000     -19.222412      -523.0684
   4   2.0000     -14.373728      -391.1290
   5   2.0000     -14.357335      -390.6829
   6   2.0000     -10.271805      -279.5100
   7   2.0000     -10.258494      -279.1478
   8   2.0000     -10.228940      -278.3436
   9   2.0000     -10.195157      -277.4243
  10   2.0000     -10.138471      -275.8818
  11   2.0000      -8.216503      -223.5824
  12   2.0000      -6.156712      -167.5327
  13   2.0000      -6.150738      -167.3701
  14   2.0000      -6.150123      -167.3534
  15   2.0000      -1.425507       -38.7900
  16   2.0000      -1.145969       -31.1834
  17   2.0000      -1.051361       -28.6090
  18   2.0000      -0.977046       -26.5868
  19   2.0000      -0.883465       -24.0403
  20   2.0000      -0.846138       -23.0246
  21   2.0000      -0.785895       -21.3853
  22   2.0000      -0.747246       -20.3336
  23   2.0000      -0.700467       -19.0607
  24   2.0000      -0.644989       -17.5510
  25   2.0000      -0.616813       -16.7843
  26   2.0000      -0.606099       -16.4928
  27   2.0000      -0.597612       -16.2619
  28   2.0000      -0.568452       -15.4684
  29   2.0000      -0.549202       -14.9446
  30   2.0000      -0.529383       -14.4052
  31   2.0000      -0.504572       -13.7301
  32   2.0000      -0.496872       -13.5206
  33   2.0000      -0.482334       -13.1250
  34   2.0000      -0.464411       -12.6373
  35   2.0000      -0.450903       -12.2697
  36   2.0000      -0.419751       -11.4220
  37   2.0000      -0.415799       -11.3145
  38   2.0000      -0.404161       -10.9978
  39   2.0000      -0.392505       -10.6806
  40   2.0000      -0.368734       -10.0338
  41   2.0000      -0.364277        -9.9125
  42   2.0000      -0.348807        -9.4915
  43   2.0000      -0.345717        -9.4074
  44   2.0000      -0.330987        -9.0066
  45   2.0000      -0.321716        -8.7543
  46   2.0000      -0.265026        -7.2117
  47   2.0000      -0.165251        -4.4967
  48   0.0000       0.023352         0.6354
  49   0.0000       0.039059         1.0628
  50   0.0000       0.049193         1.3386
  51   0.0000       0.067912         1.8480
  52   0.0000       0.075499         2.0544

MULLIKEN ATOMIC CHARGES
-----------------------
   0 C :   -0.232442
   1 C :   -0.407904
   2 C :   -0.144086
   3 C :   -0.326006
   4 H :    0.179964
   5 H :    0.151379
   6 S :    0.847535
   7 C :    0.327388
   8 N :   -0.499706
   9 N :   -0.487845
  10 H :    0.262166
  11 H :    0.208362
  12 H :    0.085285
  13 H :    0.246238
  14 H :    0.216557
  15 F :   -0.083530
  16 O :   -0.385010
  17 O :   -0.447950
  18 H :    0.127174
  19 H :    0.107780
  20 H :    0.153087
  21 H :    0.101562
Sum of atomic charges:   -0.0000000

LOEWDIN ATOMIC CHARGES
----------------------
   0 C :   -0.286105
   1 C :   -0.292764
   2 C :   -0.276930
   3 C :   -0.373508
   4 H :    0.147307
   5 H :    0.140790
   6 S :    0.540815
   7 C :   -0.476672
   8 N :   -0.028495
   9 N :    0.004140
  10 H :    0.133177
  11 H :    0.159772
  12 H :    0.118106
  13 H :    0.173085
  14 H :    0.155777
  15 F :    0.105272
  16 O :   -0.244458
  17 O :   -0.280646
  18 H :    0.144189
  19 H :    0.147522
  20 H :    0.146720
  21 H :    0.142907

  Mayer bond orders larger than 0.100000
B(  0-C ,  1-C ) :   1.0277 B(  0-C ,  2-C ) :   0.9827 B(  0-C , 20-H ) :   0.9701
B(  0-C , 21-H ) :   0.9618 B(  1-C ,  7-C ) :   1.6476 B(  1-C , 12-H ) :   0.9869
B(  2-C ,  3-C ) :   0.9969 B(  2-C , 18-H ) :   0.9455 B(  2-C , 19-H ) :   0.9414
B(  3-C ,  4-H ) :   0.9220 B(  3-C ,  5-H ) :   0.9320 B(  3-C ,  6-S ) :   0.9423
B(  6-S , 15-F ) :   1.1573 B(  6-S , 16-O ) :   1.9675 B(  6-S , 17-O ) :   1.7386
B(  7-C ,  8-N ) :   1.1334 B(  7-C ,  9-N ) :   1.2052 B(  8-N , 13-H ) :   0.9142
B(  8-N , 14-H ) :   0.9199 B(  9-N , 10-H ) :   0.8323 B(  9-N , 11-H ) :   0.9231
B( 10-H , 17-O ) :   0.1359

Dispersion correction           -0.022087192
FINAL SINGLE POINT ENERGY      -954.590601875845

DIPOLE MOMENT
-------------
                                X             Y             Z
Electronic contribution:    -15.28789      -6.78142      -1.20772
Nuclear contribution   :     15.92508       5.34175       1.81950
                        -----------------------------------------
Total Dipole Moment    :      0.63719      -1.43966       0.61177
                        -----------------------------------------
Magnitude (a.u.)       :      1.68905
Magnitude (Debye)      :      4.29324

Rotational constants in cm-1:     0.058561     0.020662     0.017762
Rotational constants in MHz :  1755.621534   619.433801   532.501507

                             ****ORCA TERMINATED NORMALLY****
TOTAL RUN TIME: 0 days 0 hours 0 minutes 38 seconds 860 msec
