                         Program Version 5.0.0 -  RELEASE  -
|  1> !PBE0 D3BJ RIJCOSX def2-TZVP def2/J TightSCF xyzfile
|  2>
|  3> *xyzfile 0 1 D3.xyz
|  4>
|  5> %MaxCore 64000
|  6>
|  7> %pal nprocs 18
|  8> end
|  9>
| 10> %scf
| 11>   MaxIter 150
| 12> end
| 13>
| 14>
| 15>                          ****END OF INPUT****

CARTESIAN COORDINATES (ANGSTROEM)
---------------------------------
  C      3.380928    2.083045   -3.350127
  N      4.535924    1.182447   -3.428518
  C      2.495557    1.816150   -2.136364
  C      1.872181    0.427903   -2.077497
  H      2.614270   -0.365825   -2.198894
  H      1.389953    0.273087   -1.112360
  S      0.579024    0.140472   -3.297943
  C      4.671956    0.122273   -4.220598
  N      5.866023   -0.507849   -4.224284
  C      3.698881   -0.312844   -4.986988
  H      2.731405   -0.050091   -4.849000
  H      3.890046   -1.055172   -5.643730
  H      5.251933    1.303459   -2.721014
  H      6.695165   -0.062322   -3.851596
  H      5.975383   -1.396884   -4.691414
  F      0.228860   -1.246868   -3.127871
  O     -0.439269    1.118966   -3.014550
  O      1.247881    0.403474   -4.595647
  H      1.697003    2.561969   -2.141109
  H      3.080787    1.987436   -1.225838
  H      2.806463    1.986511   -4.268484
  H      3.778714    3.098282   -3.307383

 Total Charge           Charge          ....    0
 Multiplicity           Mult            ....    1
 Number of Electrons    NEL             ....   96
 Basis Dimension        Dim             ....  413

ORBITAL ENERGIES
----------------

  NO   OCC          E(Eh)            E(eV)
   0   2.0000     -89.261529     -2428.9297
   1   2.0000     -24.893332      -677.3820
   2   2.0000     -19.219420      -522.9870
   3   2.0000     -19.204798      -522.5891
   4   2.0000     -14.384676      -391.4269
   5   2.0000     -14.372491      -391.0954
   6   2.0000     -10.276592      -279.6403
   7   2.0000     -10.256598      -279.0962
   8   2.0000     -10.255077      -279.0548
   9   2.0000     -10.248851      -278.8854
  10   2.0000     -10.106925      -275.0234
  11   2.0000      -8.207871      -223.3475
  12   2.0000      -6.148098      -167.2983
  13   2.0000      -6.141895      -167.1295
  14   2.0000      -6.141753      -167.1256
  15   2.0000      -1.417536       -38.5731
  16   2.0000      -1.136252       -30.9190
  17   2.0000      -1.038194       -28.2507
  18   2.0000      -0.986487       -26.8437
  19   2.0000      -0.903494       -24.5853
  20   2.0000      -0.844702       -22.9855
  21   2.0000      -0.774543       -21.0764
  22   2.0000      -0.737011       -20.0551
  23   2.0000      -0.714698       -19.4479
  24   2.0000      -0.660298       -17.9676
  25   2.0000      -0.607063       -16.5190
  26   2.0000      -0.602865       -16.4048
  27   2.0000      -0.589177       -16.0323
  28   2.0000      -0.570235       -15.5169
  29   2.0000      -0.551873       -15.0172
  30   2.0000      -0.530076       -14.4241
  31   2.0000      -0.506348       -13.7784
  32   2.0000      -0.503956       -13.7133
  33   2.0000      -0.469755       -12.7827
  34   2.0000      -0.464574       -12.6417
  35   2.0000      -0.459440       -12.5020
  36   2.0000      -0.418406       -11.3854
  37   2.0000      -0.410396       -11.1674
  38   2.0000      -0.402722       -10.9586
  39   2.0000      -0.393356       -10.7038
  40   2.0000      -0.389420       -10.5967
  41   2.0000      -0.379780       -10.3343
  42   2.0000      -0.360517        -9.8102
  43   2.0000      -0.347482        -9.4555
  44   2.0000      -0.330029        -8.9805
  45   2.0000      -0.293571        -7.9885
  46   2.0000      -0.257706        -7.0125
  47   2.0000      -0.170205        -4.6315
  48   0.0000       0.025976         0.7068
  49   0.0000       0.031404         0.8546
  50   0.0000       0.047788         1.3004
  51   0.0000       0.069519         1.8917
  52   0.0000       0.070341         1.9141

MULLIKEN ATOMIC CHARGES
-----------------------
   0 C :   -0.175908
   1 N :   -0.346383
   2 C :   -0.202689
   3 C :   -0.294909
   4 H :    0.178766
   5 H :    0.151114
   6 S :    0.835483
   7 C :    0.394691
   8 N :   -0.521268
   9 C :   -0.601157
  10 H :    0.163947
  11 H :    0.083016
  12 H :    0.191567
  13 H :    0.217889
  14 H :    0.246531
  15 F :   -0.084000
  16 O :   -0.396399
  17 O :   -0.407927
  18 H :    0.134433
  19 H :    0.114629
  20 H :    0.196109
  21 H :    0.122465
Sum of atomic charges:    0.0000000

LOEWDIN ATOMIC CHARGES
----------------------
   0 C :   -0.271980
   1 N :    0.111640
   2 C :   -0.285017
   3 C :   -0.372998
   4 H :    0.149077
   5 H :    0.140207
   6 S :    0.534037
   7 C :   -0.488816
   8 N :   -0.032116
   9 C :   -0.334168
  10 H :    0.079219
  11 H :    0.096788
  12 H :    0.174418
  13 H :    0.154400
  14 H :    0.172722
  15 F :    0.106467
  16 O :   -0.255267
  17 O :   -0.262030
  18 H :    0.151433
  19 H :    0.144975
  20 H :    0.152817
  21 H :    0.134192

  Mayer bond orders larger than 0.100000
B(  0-C ,  1-N ) :   0.9023 B(  0-C ,  2-C ) :   1.0102 B(  0-C , 20-H ) :   0.9551
B(  0-C , 21-H ) :   0.9649 B(  1-N ,  7-C ) :   1.1529 B(  1-N , 12-H ) :   0.9213
B(  2-C ,  3-C ) :   1.0063 B(  2-C , 18-H ) :   0.9445 B(  2-C , 19-H ) :   0.9451
B(  3-C ,  4-H ) :   0.9262 B(  3-C ,  5-H ) :   0.9304 B(  3-C ,  6-S ) :   0.9315
B(  6-S , 15-F ) :   1.1573 B(  6-S , 16-O ) :   1.9463 B(  6-S , 17-O ) :   1.8043
B(  7-C ,  8-N ) :   1.0907 B(  7-C ,  9-C ) :   1.6326 B(  8-N , 13-H ) :   0.9191
B(  8-N , 14-H ) :   0.9166 B(  9-C , 10-H ) :   0.9744 B(  9-C , 11-H ) :   1.0021

Dispersion correction           -0.022076101
FINAL SINGLE POINT ENERGY      -954.558218547733

DIPOLE MOMENT
-------------
                                X             Y             Z
Electronic contribution:    -14.66214      -5.49848       0.05984
Nuclear contribution   :     15.84345       5.19593       1.66752
                        -----------------------------------------
Total Dipole Moment    :      1.18131      -0.30254       1.72736
                        -----------------------------------------
Magnitude (a.u.)       :      2.11442
Magnitude (Debye)      :      5.37444

Rotational constants in cm-1:     0.059060     0.020573     0.017713
Rotational constants in MHz :  1770.576058   616.749938   531.036486

                             ****ORCA TERMINATED NORMALLY****
TOTAL RUN TIME: 0 days 0 hours 0 minutes 33 seconds 528 msec
