                         Program Version 5.0.0 -  RELEASE  -
|  1> !PBE0 D3BJ RIJCOSX def2-TZVP def2/J TightSCF xyzfile
|  2>
|  3> *xyzfile 0 1 D6.xyz
|  4>
|  5> %MaxCore 64000
|  6>
|  7> %pal nprocs 18
|  8> end
|  9>
| 10> %scf
| 11>   MaxIter 150
| 12> end
| 13>
| 14>
| 15>                          ****END OF INPUT****

CARTESIAN COORDINATES (ANGSTROEM)
---------------------------------
  C      3.380928    2.083045   -3.350127
  N      4.535924    1.182447   -3.428518
  C      2.495557    1.816150   -2.136364
  C      1.872181    0.427903   -2.077497
  H      2.614270   -0.365825   -2.198894
  H      1.389953    0.273087   -1.112360
  S      0.579024    0.140472   -3.297943
  C      4.671956    0.122273   -4.220598
  N      5.866023   -0.507849   -4.224284
  C      3.698881   -0.312844   -4.986988
  H      2.731405   -0.050091   -4.849000
  H      3.890046   -1.055172   -5.643730
  H      5.251933    1.303459   -2.721014
  H      6.695165   -0.062322   -3.851596
  H      5.975383   -1.396884   -4.691414
  O      0.228860   -1.246868   -3.127871
  F     -0.439269    1.118966   -3.014550
  O      1.247881    0.403474   -4.595647
  H      1.697003    2.561969   -2.141109
  H      3.080787    1.987436   -1.225838
  H      2.806463    1.986511   -4.268484
  H      3.778714    3.098282   -3.307383

 Total Charge           Charge          ....    0
 Multiplicity           Mult            ....    1
 Number of Electrons    NEL             ....   96
 Basis Dimension        Dim             ....  413

ORBITAL ENERGIES
----------------

  NO   OCC          E(Eh)            E(eV)
   0   2.0000     -89.260470     -2428.9009
   1   2.0000     -24.893291      -677.3809
   2   2.0000     -19.218717      -522.9679
   3   2.0000     -19.206195      -522.6271
   4   2.0000     -14.385058      -391.4373
   5   2.0000     -14.370952      -391.0535
   6   2.0000     -10.276424      -279.6357
   7   2.0000     -10.258709      -279.1537
   8   2.0000     -10.253560      -279.0136
   9   2.0000     -10.251182      -278.9488
  10   2.0000     -10.106433      -275.0100
  11   2.0000      -8.206860      -223.3200
  12   2.0000      -6.147217      -167.2743
  13   2.0000      -6.140870      -167.1016
  14   2.0000      -6.140634      -167.0951
  15   2.0000      -1.418273       -38.5932
  16   2.0000      -1.134772       -30.8787
  17   2.0000      -1.038401       -28.2563
  18   2.0000      -0.986071       -26.8324
  19   2.0000      -0.903168       -24.5764
  20   2.0000      -0.847402       -23.0590
  21   2.0000      -0.771634       -20.9972
  22   2.0000      -0.738352       -20.0916
  23   2.0000      -0.715009       -19.4564
  24   2.0000      -0.660721       -17.9791
  25   2.0000      -0.614687       -16.7265
  26   2.0000      -0.607314       -16.5259
  27   2.0000      -0.584453       -15.9038
  28   2.0000      -0.568965       -15.4823
  29   2.0000      -0.548468       -14.9246
  30   2.0000      -0.528702       -14.3867
  31   2.0000      -0.506505       -13.7827
  32   2.0000      -0.500326       -13.6146
  33   2.0000      -0.477534       -12.9943
  34   2.0000      -0.463655       -12.6167
  35   2.0000      -0.457035       -12.4365
  36   2.0000      -0.427754       -11.6398
  37   2.0000      -0.410815       -11.1788
  38   2.0000      -0.405182       -11.0256
  39   2.0000      -0.396832       -10.7983
  40   2.0000      -0.386462       -10.5162
  41   2.0000      -0.377937       -10.2842
  42   2.0000      -0.361967        -9.8496
  43   2.0000      -0.335226        -9.1220
  44   2.0000      -0.322117        -8.7652
  45   2.0000      -0.307583        -8.3697
  46   2.0000      -0.257531        -7.0078
  47   2.0000      -0.168592        -4.5876
  48   0.0000       0.020493         0.5576
  49   0.0000       0.035052         0.9538
  50   0.0000       0.047155         1.2831
  51   0.0000       0.062062         1.6888
  52   0.0000       0.070883         1.9288

MULLIKEN ATOMIC CHARGES
-----------------------
   0 C :   -0.160592
   1 N :   -0.347249
   2 C :   -0.211582
   3 C :   -0.297109
   4 H :    0.198051
   5 H :    0.152412
   6 S :    0.824316
   7 C :    0.379502
   8 N :   -0.522342
   9 C :   -0.580542
  10 H :    0.175622
  11 H :    0.083455
  12 H :    0.191820
  13 H :    0.217108
  14 H :    0.247958
  15 O :   -0.386552
  16 F :   -0.087791
  17 O :   -0.413026
  18 H :    0.112117
  19 H :    0.115213
  20 H :    0.187571
  21 H :    0.121639
Sum of atomic charges:    0.0000000

LOEWDIN ATOMIC CHARGES
----------------------
   0 C :   -0.275710
   1 N :    0.110968
   2 C :   -0.297510
   3 C :   -0.367156
   4 H :    0.161662
   5 H :    0.140340
   6 S :    0.529791
   7 C :   -0.489026
   8 N :   -0.031916
   9 C :   -0.322403
  10 H :    0.082687
  11 H :    0.098060
  12 H :    0.174418
  13 H :    0.154153
  14 H :    0.173428
  15 O :   -0.248540
  16 F :    0.102503
  17 O :   -0.264611
  18 H :    0.141431
  19 H :    0.143569
  20 H :    0.150534
  21 H :    0.133330

  Mayer bond orders larger than 0.100000
B(  0-C ,  1-N ) :   0.9061 B(  0-C ,  2-C ) :   0.9950 B(  0-C , 20-H ) :   0.9548
B(  0-C , 21-H ) :   0.9648 B(  1-N ,  7-C ) :   1.1429 B(  1-N , 12-H ) :   0.9210
B(  2-C ,  3-C ) :   0.9903 B(  2-C , 18-H ) :   0.9549 B(  2-C , 19-H ) :   0.9449
B(  3-C ,  4-H ) :   0.9288 B(  3-C ,  5-H ) :   0.9393 B(  3-C ,  6-S ) :   0.9277
B(  6-S , 15-O ) :   1.9698 B(  6-S , 16-F ) :   1.1430 B(  6-S , 17-O ) :   1.8036
B(  7-C ,  8-N ) :   1.0894 B(  7-C ,  9-C ) :   1.6443 B(  8-N , 13-H ) :   0.9196
B(  8-N , 14-H ) :   0.9161 B(  9-C , 10-H ) :   0.9733 B(  9-C , 11-H ) :   1.0003

Dispersion correction           -0.022055674
FINAL SINGLE POINT ENERGY      -954.557704190060

DIPOLE MOMENT
-------------
                                X             Y             Z
Electronic contribution:    -15.78868      -1.45172       0.24208
Nuclear contribution   :     16.57580       2.60270       1.54331
                        -----------------------------------------
Total Dipole Moment    :      0.78712       1.15098       1.78539
                        -----------------------------------------
Magnitude (a.u.)       :      2.26537
Magnitude (Debye)      :      5.75812

Rotational constants in cm-1:     0.060402     0.020377     0.017632
Rotational constants in MHz :  1810.792194   610.900365   528.582827

                             ****ORCA TERMINATED NORMALLY****
TOTAL RUN TIME: 0 days 0 hours 0 minutes 33 seconds 975 msec
