                         Program Version 5.0.0 -  RELEASE  -
|  1> !wB97X-D3 RIJCOSX def2-SVPD def2/J TightSCF
|  2> *xyz -1 1
|  3> C          2.49556        1.81615       -2.13636
|  4> C          1.87218        0.42790       -2.07750
|  5> H          2.61427       -0.36583       -2.19889
|  6> H          1.38995        0.27309       -1.11236
|  7> S          0.57902        0.14047       -3.29794
|  8> O          0.22886       -1.24687       -3.12787
|  9> O         -0.43927        1.11897       -3.01455
| 10> O          1.24788        0.40347       -4.59565
| 11> H          2.96535        1.95613       -3.08747
| 12> H          3.22581        1.91242       -1.36024
| 13> H          1.73350        2.55528       -2.00274
| 14> *
| 15>
| 16> %MaxCore 64000
| 17>
| 18> %pal nprocs 18
| 19> end
| 20>
| 21> %scf
| 22>   MaxIter 150
| 23> end
| 24>
| 25>
| 26>                          ****END OF INPUT****

CARTESIAN COORDINATES (ANGSTROEM)
---------------------------------
  C      2.495560    1.816150   -2.136360
  C      1.872180    0.427900   -2.077500
  H      2.614270   -0.365830   -2.198890
  H      1.389950    0.273090   -1.112360
  S      0.579020    0.140470   -3.297940
  O      0.228860   -1.246870   -3.127870
  O     -0.439270    1.118970   -3.014550
  O      1.247880    0.403470   -4.595650
  H      2.965350    1.956130   -3.087470
  H      3.225810    1.912420   -1.360240
  H      1.733500    2.555280   -2.002740

 Total Charge           Charge          ....   -1
 Multiplicity           Mult            ....    1
 Number of Electrons    NEL             ....   58
 Basis Dimension        Dim             ....  176

ORBITAL ENERGIES
----------------

  NO   OCC          E(Eh)            E(eV)
   0   2.0000     -88.975980     -2421.1595
   1   2.0000     -19.028074      -517.7802
   2   2.0000     -19.027929      -517.7763
   3   2.0000     -19.013187      -517.3751
   4   2.0000     -10.151353      -276.2324
   5   2.0000     -10.145300      -276.0676
   6   2.0000      -8.049754      -219.0449
   7   2.0000      -6.009276      -163.5207
   8   2.0000      -6.009179      -163.5181
   9   2.0000      -6.008815      -163.5082
  10   2.0000      -1.050812       -28.5941
  11   2.0000      -0.910937       -24.7879
  12   2.0000      -0.883532       -24.0421
  13   2.0000      -0.744484       -20.2584
  14   2.0000      -0.614506       -16.7216
  15   2.0000      -0.487791       -13.2735
  16   2.0000      -0.423711       -11.5298
  17   2.0000      -0.420402       -11.4397
  18   2.0000      -0.381226       -10.3737
  19   2.0000      -0.369254       -10.0479
  20   2.0000      -0.357538        -9.7291
  21   2.0000      -0.329352        -8.9621
  22   2.0000      -0.308687        -8.3998
  23   2.0000      -0.253536        -6.8991
  24   2.0000      -0.251863        -6.8536
  25   2.0000      -0.216040        -5.8788
  26   2.0000      -0.203819        -5.5462
  27   2.0000      -0.194430        -5.2907
  28   2.0000      -0.161615        -4.3978
  29   0.0000       0.209239         5.6937
  30   0.0000       0.229617         6.2482
  31   0.0000       0.233011         6.3405
  32   0.0000       0.237301         6.4573
  33   0.0000       0.260940         7.1005

MULLIKEN ATOMIC CHARGES
-----------------------
   0 C :    0.690289
   1 C :   -0.363296
   2 H :   -0.062403
   3 H :   -0.027330
   4 S :    1.362093
   5 O :   -0.800667
   6 O :   -0.799820
   7 O :   -0.844080
   8 H :   -0.040738
   9 H :   -0.079488
  10 H :   -0.034559
Sum of atomic charges:   -1.0000000

LOEWDIN ATOMIC CHARGES
----------------------
   0 C :    0.097766
   1 C :   -0.140627
   2 H :    0.006831
   3 H :    0.001917
   4 S :    0.858607
   5 O :   -0.579288
   6 O :   -0.576412
   7 O :   -0.599471
   8 H :   -0.019595
   9 H :   -0.032210
  10 H :   -0.017517

  Mayer bond orders larger than 0.100000
B(  0-C ,  1-C ) :   1.2428 B(  0-C ,  8-H ) :   0.8448 B(  0-C ,  9-H ) :   0.7656
B(  0-C , 10-H ) :   0.8271 B(  1-C ,  2-H ) :   1.0181 B(  1-C ,  3-H ) :   0.9812
B(  1-C ,  4-S ) :   0.9369 B(  1-C ,  8-H ) :   0.1785 B(  1-C ,  9-H ) :   0.1935
B(  1-C , 10-H ) :   0.1861 B(  4-S ,  5-O ) :   1.3539 B(  4-S ,  6-O ) :   1.3178
B(  4-S ,  7-O ) :   1.2834

Dispersion correction           -0.002932987
FINAL SINGLE POINT ENERGY      -702.693780249993

DIPOLE MOMENT
-------------
                                X             Y             Z
Electronic contribution:     -5.61267      -3.56156      -4.01460
Nuclear contribution   :      6.89220       4.11756       5.35566
                        -----------------------------------------
Total Dipole Moment    :      1.27952       0.55600       1.34106
                        -----------------------------------------
Magnitude (a.u.)       :      1.93514
Magnitude (Debye)      :      4.91873

Rotational constants in cm-1:     0.162183     0.084017     0.082390
Rotational constants in MHz :  4862.117324  2518.774315  2469.980309

                             ****ORCA TERMINATED NORMALLY****
TOTAL RUN TIME: 0 days 0 hours 0 minutes 10 seconds 246 msec
