                         Program Version 5.0.0 -  RELEASE  -
|  1> !wB97X-D3 RIJCOSX def2-SVPD def2/J TightSCF
|  2> *xyz 1 1
|  3> C          3.38093        2.08304       -3.35013
|  4> N          4.53592        1.18245       -3.42852
|  5> C          2.49556        1.81615       -2.13636
|  6> C          4.67196        0.12227       -4.22060
|  7> N          5.86602       -0.50785       -4.22428
|  8> N          3.69888       -0.31284       -4.98699
|  9> H          2.73141       -0.05009       -4.84900
| 10> H          3.89005       -1.05517       -5.64373
| 11> H          5.25193        1.30346       -2.72101
| 12> H          6.69516       -0.06232       -3.85160
| 13> H          5.97538       -1.39688       -4.69141
| 14> H          2.80646        1.98651       -4.26848
| 15> H          3.77871        3.09828       -3.30738
| 16> H          2.11090        0.81901       -2.18783
| 17> H          1.68276        2.51198       -2.12786
| 18> H          3.07216        1.93031       -1.24227
| 19> *
| 20>
| 21> %MaxCore 64000
| 22>
| 23> %pal nprocs 18
| 24> end
| 25>
| 26> %scf
| 27>   MaxIter 150
| 28> end
| 29>
| 30>
| 31>                          ****END OF INPUT****

CARTESIAN COORDINATES (ANGSTROEM)
---------------------------------
  C      3.380930    2.083040   -3.350130
  N      4.535920    1.182450   -3.428520
  C      2.495560    1.816150   -2.136360
  C      4.671960    0.122270   -4.220600
  N      5.866020   -0.507850   -4.224280
  N      3.698880   -0.312840   -4.986990
  H      2.731410   -0.050090   -4.849000
  H      3.890050   -1.055170   -5.643730
  H      5.251930    1.303460   -2.721010
  H      6.695160   -0.062320   -3.851600
  H      5.975380   -1.396880   -4.691410
  H      2.806460    1.986510   -4.268480
  H      3.778710    3.098280   -3.307380
  H      2.110900    0.819010   -2.187830
  H      1.682760    2.511980   -2.127860
  H      3.072160    1.930310   -1.242270

 Total Charge           Charge          ....    1
 Multiplicity           Mult            ....    1
 Number of Electrons    NEL             ....   48
 Basis Dimension        Dim             ....  200

ORBITAL ENERGIES
----------------

  NO   OCC          E(Eh)            E(eV)
   0   2.0000     -14.664954      -399.0537
   1   2.0000     -14.660245      -398.9256
   2   2.0000     -14.656996      -398.8371
   3   2.0000     -10.630488      -289.2703
   4   2.0000     -10.496168      -285.6152
   5   2.0000     -10.424512      -283.6654
   6   2.0000      -1.325732       -36.0750
   7   2.0000      -1.213432       -33.0192
   8   2.0000      -1.197840       -32.5949
   9   2.0000      -1.040108       -28.3028
  10   2.0000      -0.947747       -25.7895
  11   2.0000      -0.909460       -24.7477
  12   2.0000      -0.893080       -24.3019
  13   2.0000      -0.846357       -23.0306
  14   2.0000      -0.798306       -21.7230
  15   2.0000      -0.793914       -21.6035
  16   2.0000      -0.743785       -20.2394
  17   2.0000      -0.734812       -19.9953
  18   2.0000      -0.703762       -19.1503
  19   2.0000      -0.656685       -17.8693
  20   2.0000      -0.626212       -17.0401
  21   2.0000      -0.609059       -16.5733
  22   2.0000      -0.574079       -15.6215
  23   2.0000      -0.539968       -14.6933
  24   0.0000      -0.087947        -2.3932
  25   0.0000      -0.074512        -2.0276
  26   0.0000      -0.040360        -1.0982
  27   0.0000      -0.032872        -0.8945
  28   0.0000      -0.009429        -0.2566

MULLIKEN ATOMIC CHARGES
-----------------------
   0 C :    0.295306
   1 N :   -0.504802
   2 C :    0.544446
   3 C :    1.478171
   4 N :   -0.149448
   5 N :   -0.088637
   6 H :   -0.038286
   7 H :   -0.042795
   8 H :   -0.218653
   9 H :   -0.040252
  10 H :    0.003509
  11 H :   -0.097451
  12 H :   -0.148241
  13 H :   -0.049455
  14 H :    0.072468
  15 H :   -0.015880
Sum of atomic charges:    1.0000000

LOEWDIN ATOMIC CHARGES
----------------------
   0 C :    0.046173
   1 N :    0.033269
   2 C :    0.152942
   3 C :   -0.021138
   4 N :    0.249763
   5 N :    0.270647
   6 H :    0.035914
   7 H :    0.044743
   8 H :    0.062243
   9 H :    0.038782
  10 H :    0.035646
  11 H :    0.021652
  12 H :    0.041232
  13 H :   -0.011582
  14 H :    0.004607
  15 H :   -0.004893

  Mayer bond orders larger than 0.100000
B(  0-C ,  1-N ) :   0.8522 B(  0-C ,  2-C ) :   1.2465 B(  0-C ,  8-H ) :  -0.1896
B(  0-C , 11-H ) :   0.8926 B(  0-C , 12-H ) :   0.9450 B(  0-C , 13-H ) :   0.1792
B(  0-C , 14-H ) :   0.1501 B(  0-C , 15-H ) :   0.1886 B(  1-N ,  3-C ) :   0.9869
B(  1-N ,  4-N ) :   0.2430 B(  1-N ,  5-N ) :   0.2349 B(  1-N ,  8-H ) :   1.3520
B(  1-N , 11-H ) :   0.1405 B(  1-N , 12-H ) :   0.1479 B(  2-C , 13-H ) :   0.8517
B(  2-C , 14-H ) :   0.8161 B(  2-C , 15-H ) :   0.8313 B(  3-C ,  4-N ) :   0.7948
B(  3-C ,  5-N ) :   0.9314 B(  3-C ,  6-H ) :  -0.1585 B(  3-C ,  7-H ) :  -0.1354
B(  3-C ,  8-H ) :  -0.2404 B(  3-C ,  9-H ) :  -0.1589 B(  4-N ,  5-N ) :   0.1705
B(  4-N ,  9-H ) :   1.1946 B(  4-N , 10-H ) :   1.1610 B(  5-N ,  6-H ) :   1.1644
B(  5-N ,  7-H ) :   1.2206 B(  6-H ,  7-H ) :  -0.1828 B(  9-H , 10-H ) :  -0.1617

Dispersion correction           -0.003697503
FINAL SINGLE POINT ENERGY      -284.139965769574

DIPOLE MOMENT
-------------
                                X             Y             Z
Electronic contribution:      3.56619      -2.65991      -2.82761
Nuclear contribution   :     -2.93277       1.85779       2.25966
                        -----------------------------------------
Total Dipole Moment    :      0.63343      -0.80212      -0.56795
                        -----------------------------------------
Magnitude (a.u.)       :      1.16927
Magnitude (Debye)      :      2.97204

Rotational constants in cm-1:     0.245511     0.068839     0.059711
Rotational constants in MHz :  7360.233487  2063.743353  1790.088408

                             ****ORCA TERMINATED NORMALLY****
TOTAL RUN TIME: 0 days 0 hours 0 minutes 11 seconds 943 msec
