                         Program Version 5.0.0 -  RELEASE  -
|  1> !wB97X-D3 RIJCOSX def2-SVPD def2/J TightSCF
|  2> *xyz 0 1
|  3> C          2.49556        1.81615       -2.13636
|  4> C          1.87218        0.42790       -2.07750
|  5> H          2.61427       -0.36583       -2.19889
|  6> H          1.38995        0.27309       -1.11236
|  7> S          0.57902        0.14047       -3.29794
|  8> F          0.22886       -1.24687       -3.12787
|  9> O         -0.43927        1.11897       -3.01455
| 10> O          1.24788        0.40347       -4.59565
| 11> H          2.96535        1.95613       -3.08747
| 12> H          3.22581        1.91242       -1.36024
| 13> H          1.73350        2.55528       -2.00274
| 14> *
| 15>
| 16> %MaxCore 64000
| 17>
| 18> %pal nprocs 18
| 19> end
| 20>
| 21> %scf
| 22>   MaxIter 150
| 23> end
| 24>
| 25>
| 26>                          ****END OF INPUT****

CARTESIAN COORDINATES (ANGSTROEM)
---------------------------------
  C      2.495560    1.816150   -2.136360
  C      1.872180    0.427900   -2.077500
  H      2.614270   -0.365830   -2.198890
  H      1.389950    0.273090   -1.112360
  S      0.579020    0.140470   -3.297940
  F      0.228860   -1.246870   -3.127870
  O     -0.439270    1.118970   -3.014550
  O      1.247880    0.403470   -4.595650
  H      2.965350    1.956130   -3.087470
  H      3.225810    1.912420   -1.360240
  H      1.733500    2.555280   -2.002740

 Total Charge           Charge          ....    0
 Multiplicity           Mult            ....    1
 Number of Electrons    NEL             ....   58
 Basis Dimension        Dim             ....  176

ORBITAL ENERGIES
----------------

  NO   OCC          E(Eh)            E(eV)
   0   2.0000     -89.236871     -2428.2587
   1   2.0000     -24.926026      -678.2716
   2   2.0000     -19.262682      -524.1642
   3   2.0000     -19.247455      -523.7499
   4   2.0000     -10.354500      -281.7603
   5   2.0000     -10.308864      -280.5184
   6   2.0000      -8.311502      -226.1675
   7   2.0000      -6.275219      -170.7574
   8   2.0000      -6.268707      -170.5802
   9   2.0000      -6.267378      -170.5440
  10   2.0000      -1.499146       -40.7938
  11   2.0000      -1.228468       -33.4283
  12   2.0000      -1.119641       -30.4670
  13   2.0000      -0.936849       -25.4930
  14   2.0000      -0.852017       -23.1846
  15   2.0000      -0.787260       -21.4224
  16   2.0000      -0.700909       -19.0727
  17   2.0000      -0.698517       -19.0076
  18   2.0000      -0.664632       -18.0856
  19   2.0000      -0.599367       -16.3096
  20   2.0000      -0.590473       -16.0676
  21   2.0000      -0.547867       -14.9082
  22   2.0000      -0.531918       -14.4742
  23   2.0000      -0.509332       -13.8596
  24   2.0000      -0.488444       -13.2912
  25   2.0000      -0.484913       -13.1952
  26   2.0000      -0.433973       -11.8090
  27   2.0000      -0.418535       -11.3889
  28   2.0000      -0.404325       -11.0022
  29   0.0000       0.063574         1.7299
  30   0.0000       0.089135         2.4255
  31   0.0000       0.096928         2.6375
  32   0.0000       0.097287         2.6473
  33   0.0000       0.121193         3.2978

MULLIKEN ATOMIC CHARGES
-----------------------
   0 C :    0.639330
   1 C :   -0.434705
   2 H :    0.012865
   3 H :    0.048555
   4 S :    1.552991
   5 F :   -0.414218
   6 O :   -0.661829
   7 O :   -0.703418
   8 H :   -0.008867
   9 H :   -0.026515
  10 H :   -0.004190
Sum of atomic charges:    0.0000000

LOEWDIN ATOMIC CHARGES
----------------------
   0 C :    0.141294
   1 C :   -0.103355
   2 H :    0.024685
   3 H :    0.019939
   4 S :    1.128516
   5 F :   -0.255230
   6 O :   -0.465138
   7 O :   -0.487313
   8 H :   -0.001763
   9 H :   -0.001472
  10 H :   -0.000164

  Mayer bond orders larger than 0.100000
B(  0-C ,  1-C ) :   1.3107 B(  0-C ,  8-H ) :   0.8484 B(  0-C ,  9-H ) :   0.7879
B(  0-C , 10-H ) :   0.8307 B(  1-C ,  2-H ) :   0.9977 B(  1-C ,  3-H ) :   0.9619
B(  1-C ,  4-S ) :   0.9754 B(  1-C ,  8-H ) :   0.1708 B(  1-C ,  9-H ) :   0.1797
B(  1-C , 10-H ) :   0.1766 B(  4-S ,  5-F ) :   0.6811 B(  4-S ,  6-O ) :   1.5273
B(  4-S ,  7-O ) :   1.4928

Dispersion correction           -0.002931511
FINAL SINGLE POINT ENERGY      -727.175030134007

DIPOLE MOMENT
-------------
                                X             Y             Z
Electronic contribution:     -6.77635      -6.40353      -4.03979
Nuclear contribution   :      7.60530       5.82028       5.38743
                        -----------------------------------------
Total Dipole Moment    :      0.82895      -0.58325       1.34765
                        -----------------------------------------
Magnitude (a.u.)       :      1.68626
Magnitude (Debye)      :      4.28614

Rotational constants in cm-1:     0.157861     0.081452     0.078859
Rotational constants in MHz :  4732.562506  2441.865430  2364.129821

                             ****ORCA TERMINATED NORMALLY****
TOTAL RUN TIME: 0 days 0 hours 0 minutes 10 seconds 58 msec
