                         Program Version 5.0.0 -  RELEASE  -
|  1> !wB97X-D3 RIJCOSX def2-SVPD def2/J TightSCF
|  2> *xyz 0 1
|  3> C          2.49556        1.81615       -2.13636
|  4> C          1.87218        0.42790       -2.07750
|  5> H          2.61427       -0.36583       -2.19889
|  6> H          1.38995        0.27309       -1.11236
|  7> S          0.57902        0.14047       -3.29794
|  8> O          0.22886       -1.24687       -3.12787
|  9> F         -0.43927        1.11897       -3.01455
| 10> O          1.24788        0.40347       -4.59565
| 11> H          2.96535        1.95613       -3.08747
| 12> H          3.22581        1.91242       -1.36024
| 13> H          1.73350        2.55528       -2.00274
| 14> *
| 15>
| 16> %MaxCore 64000
| 17>
| 18> %pal nprocs 18
| 19> end
| 20>
| 21> %scf
| 22>   MaxIter 150
| 23> end
| 24>
| 25>
| 26>                          ****END OF INPUT****

CARTESIAN COORDINATES (ANGSTROEM)
---------------------------------
  C      2.495560    1.816150   -2.136360
  C      1.872180    0.427900   -2.077500
  H      2.614270   -0.365830   -2.198890
  H      1.389950    0.273090   -1.112360
  S      0.579020    0.140470   -3.297940
  O      0.228860   -1.246870   -3.127870
  F     -0.439270    1.118970   -3.014550
  O      1.247880    0.403470   -4.595650
  H      2.965350    1.956130   -3.087470
  H      3.225810    1.912420   -1.360240
  H      1.733500    2.555280   -2.002740

 Total Charge           Charge          ....    0
 Multiplicity           Mult            ....    1
 Number of Electrons    NEL             ....   58
 Basis Dimension        Dim             ....  176

ORBITAL ENERGIES
----------------

  NO   OCC          E(Eh)            E(eV)
   0   2.0000     -89.237039     -2428.2633
   1   2.0000     -24.926035      -678.2719
   2   2.0000     -19.263012      -524.1732
   3   2.0000     -19.248010      -523.7650
   4   2.0000     -10.354461      -281.7592
   5   2.0000     -10.312166      -280.6083
   6   2.0000      -8.311625      -226.1708
   7   2.0000      -6.275442      -170.7634
   8   2.0000      -6.268758      -170.5816
   9   2.0000      -6.267494      -170.5472
  10   2.0000      -1.499573       -40.8055
  11   2.0000      -1.227908       -33.4131
  12   2.0000      -1.120699       -30.4958
  13   2.0000      -0.939873       -25.5752
  14   2.0000      -0.848081       -23.0775
  15   2.0000      -0.791618       -21.5410
  16   2.0000      -0.709921       -19.3179
  17   2.0000      -0.699399       -19.0316
  18   2.0000      -0.657065       -17.8797
  19   2.0000      -0.599119       -16.3029
  20   2.0000      -0.586158       -15.9502
  21   2.0000      -0.558509       -15.1978
  22   2.0000      -0.536318       -14.5940
  23   2.0000      -0.509157       -13.8549
  24   2.0000      -0.498229       -13.5575
  25   2.0000      -0.479097       -13.0369
  26   2.0000      -0.433382       -11.7929
  27   2.0000      -0.418293       -11.3823
  28   2.0000      -0.406377       -11.0581
  29   0.0000       0.061727         1.6797
  30   0.0000       0.090670         2.4672
  31   0.0000       0.095990         2.6120
  32   0.0000       0.098289         2.6746
  33   0.0000       0.121635         3.3099

MULLIKEN ATOMIC CHARGES
-----------------------
   0 C :    0.670681
   1 C :   -0.415093
   2 H :    0.008809
   3 H :    0.035173
   4 S :    1.524923
   5 O :   -0.657120
   6 F :   -0.400275
   7 O :   -0.706300
   8 H :   -0.005475
   9 H :   -0.027439
  10 H :   -0.027883
Sum of atomic charges:   -0.0000000

LOEWDIN ATOMIC CHARGES
----------------------
   0 C :    0.126383
   1 C :   -0.092285
   2 H :    0.038834
   3 H :    0.020378
   4 S :    1.126188
   5 O :   -0.465899
   6 F :   -0.253193
   7 O :   -0.485403
   8 H :   -0.004087
   9 H :   -0.003511
  10 H :   -0.007404

  Mayer bond orders larger than 0.100000
B(  0-C ,  1-C ) :   1.2640 B(  0-C ,  8-H ) :   0.8559 B(  0-C ,  9-H ) :   0.7815
B(  0-C , 10-H ) :   0.8255 B(  1-C ,  2-H ) :   1.0164 B(  1-C ,  3-H ) :   0.9775
B(  1-C ,  4-S ) :   1.0041 B(  1-C ,  8-H ) :   0.1719 B(  1-C ,  9-H ) :   0.1796
B(  1-C , 10-H ) :   0.1734 B(  4-S ,  5-O ) :   1.5649 B(  4-S ,  6-F ) :   0.6669
B(  4-S ,  7-O ) :   1.5060

Dispersion correction           -0.002903666
FINAL SINGLE POINT ENERGY      -727.174982804432

DIPOLE MOMENT
-------------
                                X             Y             Z
Electronic contribution:     -7.89902      -2.38149      -3.84104
Nuclear contribution   :      8.30151       3.35500       5.26935
                        -----------------------------------------
Total Dipole Moment    :      0.40248       0.97351       1.42831
                        -----------------------------------------
Magnitude (a.u.)       :      1.77477
Magnitude (Debye)      :      4.51110

Rotational constants in cm-1:     0.152913     0.083043     0.080351
Rotational constants in MHz :  4584.227971  2489.580280  2408.872860

                             ****ORCA TERMINATED NORMALLY****
TOTAL RUN TIME: 0 days 0 hours 0 minutes 10 seconds 329 msec
