                         Program Version 5.0.0 -  RELEASE  -
|  1> !wB97X-D3 RIJCOSX def2-SVPD def2/J TightSCF
|  2> *xyz 0 1
|  3> C          3.38093        2.08304       -3.35013
|  4> N          4.53592        1.18245       -3.42852
|  5> C          2.49556        1.81615       -2.13636
|  6> C          4.67196        0.12227       -4.22060
|  7> C          5.86602       -0.50785       -4.22428
|  8> N          3.69888       -0.31284       -4.98699
|  9> H          2.73141       -0.05009       -4.84900
| 10> H          3.89005       -1.05517       -5.64373
| 11> H          5.25193        1.30346       -2.72101
| 12> H          6.69516       -0.06232       -3.85160
| 13> H          5.97538       -1.39688       -4.69141
| 14> H          2.80646        1.98651       -4.26848
| 15> H          3.77871        3.09828       -3.30738
| 16> H          2.11090        0.81901       -2.18783
| 17> H          1.68276        2.51198       -2.12786
| 18> H          3.07216        1.93031       -1.24227
| 19> *
| 20>
| 21> %MaxCore 64000
| 22>
| 23> %pal nprocs 18
| 24> end
| 25>
| 26> %scf
| 27>   MaxIter 150
| 28> end
| 29>
| 30>
| 31>                          ****END OF INPUT****

CARTESIAN COORDINATES (ANGSTROEM)
---------------------------------
  C      3.380930    2.083040   -3.350130
  N      4.535920    1.182450   -3.428520
  C      2.495560    1.816150   -2.136360
  C      4.671960    0.122270   -4.220600
  C      5.866020   -0.507850   -4.224280
  N      3.698880   -0.312840   -4.986990
  H      2.731410   -0.050090   -4.849000
  H      3.890050   -1.055170   -5.643730
  H      5.251930    1.303460   -2.721010
  H      6.695160   -0.062320   -3.851600
  H      5.975380   -1.396880   -4.691410
  H      2.806460    1.986510   -4.268480
  H      3.778710    3.098280   -3.307380
  H      2.110900    0.819010   -2.187830
  H      1.682760    2.511980   -2.127860
  H      3.072160    1.930310   -1.242270

 Total Charge           Charge          ....    0
 Multiplicity           Mult            ....    1
 Number of Electrons    NEL             ....   48
 Basis Dimension        Dim             ....  200

ORBITAL ENERGIES
----------------

  NO   OCC          E(Eh)            E(eV)
   0   2.0000     -14.440607      -392.9489
   1   2.0000     -14.436588      -392.8395
   2   2.0000     -10.338966      -281.3376
   3   2.0000     -10.330538      -281.1082
   4   2.0000     -10.283099      -279.8174
   5   2.0000     -10.195379      -277.4304
   6   2.0000      -1.078634       -29.3511
   7   2.0000      -0.995477       -27.0883
   8   2.0000      -0.881527       -23.9876
   9   2.0000      -0.804634       -21.8952
  10   2.0000      -0.733286       -19.9537
  11   2.0000      -0.708334       -19.2748
  12   2.0000      -0.648090       -17.6354
  13   2.0000      -0.600147       -16.3308
  14   2.0000      -0.581948       -15.8356
  15   2.0000      -0.546498       -14.8710
  16   2.0000      -0.529162       -14.3992
  17   2.0000      -0.500896       -13.6301
  18   2.0000      -0.486220       -13.2307
  19   2.0000      -0.464109       -12.6290
  20   2.0000      -0.458769       -12.4837
  21   2.0000      -0.449602       -12.2343
  22   2.0000      -0.347925        -9.4675
  23   2.0000      -0.243847        -6.6354
  24   0.0000       0.082417         2.2427
  25   0.0000       0.114727         3.1219
  26   0.0000       0.118755         3.2315
  27   0.0000       0.123700         3.3661
  28   0.0000       0.150980         4.1084

MULLIKEN ATOMIC CHARGES
-----------------------
   0 C :    0.312456
   1 N :   -0.397507
   2 C :    0.579081
   3 C :    0.748436
   4 C :    0.438703
   5 N :    0.048673
   6 H :   -0.159587
   7 H :   -0.077008
   8 H :   -0.274841
   9 H :   -0.396555
  10 H :   -0.373096
  11 H :   -0.136348
  12 H :   -0.219643
  13 H :   -0.076182
  14 H :    0.033773
  15 H :   -0.050354
Sum of atomic charges:   -0.0000000

LOEWDIN ATOMIC CHARGES
----------------------
   0 C :    0.015826
   1 N :   -0.022293
   2 C :    0.124329
   3 C :   -0.233940
   4 C :    0.132040
   5 N :    0.186736
   6 H :   -0.009668
   7 H :    0.013783
   8 H :    0.037456
   9 H :   -0.105822
  10 H :   -0.109640
  11 H :    0.007508
  12 H :    0.017376
  13 H :   -0.018813
  14 H :   -0.017294
  15 H :   -0.017584

  Mayer bond orders larger than 0.100000
B(  0-C ,  1-N ) :   0.8807 B(  0-C ,  2-C ) :   1.2279 B(  0-C ,  8-H ) :  -0.2011
B(  0-C , 11-H ) :   0.8991 B(  0-C , 12-H ) :   0.9407 B(  0-C , 13-H ) :   0.1964
B(  0-C , 14-H ) :   0.1633 B(  0-C , 15-H ) :   0.2036 B(  1-N ,  3-C ) :   0.9995
B(  1-N ,  4-C ) :   0.2281 B(  1-N ,  5-N ) :   0.1793 B(  1-N ,  8-H ) :   1.2952
B(  1-N , 11-H ) :   0.1557 B(  1-N , 12-H ) :   0.1505 B(  2-C , 13-H ) :   0.8551
B(  2-C , 14-H ) :   0.8037 B(  2-C , 15-H ) :   0.8240 B(  3-C ,  4-C ) :   1.4922
B(  3-C ,  5-N ) :   1.0153 B(  3-C ,  6-H ) :  -0.1004 B(  3-C ,  8-H ) :  -0.2178
B(  3-C , 10-H ) :   0.1794 B(  4-C ,  5-N ) :   0.1891 B(  4-C ,  9-H ) :   0.9074
B(  4-C , 10-H ) :   0.7749 B(  5-N ,  6-H ) :   1.1850 B(  5-N ,  7-H ) :   1.1892
B(  6-H ,  7-H ) :  -0.1760

Dispersion correction           -0.003724561
FINAL SINGLE POINT ENERGY      -267.657836703808

DIPOLE MOMENT
-------------
                                X             Y             Z
Electronic contribution:      1.48516      -1.09363      -2.03765
Nuclear contribution   :     -2.56090       1.59955       2.15496
                        -----------------------------------------
Total Dipole Moment    :     -1.07574       0.50592       0.11731
                        -----------------------------------------
Magnitude (a.u.)       :      1.19454
Magnitude (Debye)      :      3.03629

Rotational constants in cm-1:     0.249834     0.071381     0.061833
Rotational constants in MHz :  7489.842787  2139.945635  1853.706310

                             ****ORCA TERMINATED NORMALLY****
TOTAL RUN TIME: 0 days 0 hours 0 minutes 13 seconds 320 msec
