                         Program Version 5.0.0 -  RELEASE  -
|  1> !wB97X-D3 RIJCOSX def2-SVPD def2/J TightSCF
|  2> *xyz 0 1
|  3> C          3.38093        2.08304       -3.35013
|  4> N          4.53592        1.18245       -3.42852
|  5> C          2.49556        1.81615       -2.13636
|  6> C          4.67196        0.12227       -4.22060
|  7> N          5.86602       -0.50785       -4.22428
|  8> C          3.69888       -0.31284       -4.98699
|  9> H          2.73141       -0.05009       -4.84900
| 10> H          3.89005       -1.05517       -5.64373
| 11> H          5.25193        1.30346       -2.72101
| 12> H          6.69516       -0.06232       -3.85160
| 13> H          5.97538       -1.39688       -4.69141
| 14> H          2.80646        1.98651       -4.26848
| 15> H          3.77871        3.09828       -3.30738
| 16> H          2.11090        0.81901       -2.18783
| 17> H          1.68276        2.51198       -2.12786
| 18> H          3.07216        1.93031       -1.24227
| 19> *
| 20>
| 21> %MaxCore 64000
| 22>
| 23> %pal nprocs 18
| 24> end
| 25>
| 26> %scf
| 27>   MaxIter 150
| 28> end
| 29>
| 30>
| 31>                          ****END OF INPUT****

CARTESIAN COORDINATES (ANGSTROEM)
---------------------------------
  C      3.380930    2.083040   -3.350130
  N      4.535920    1.182450   -3.428520
  C      2.495560    1.816150   -2.136360
  C      4.671960    0.122270   -4.220600
  N      5.866020   -0.507850   -4.224280
  C      3.698880   -0.312840   -4.986990
  H      2.731410   -0.050090   -4.849000
  H      3.890050   -1.055170   -5.643730
  H      5.251930    1.303460   -2.721010
  H      6.695160   -0.062320   -3.851600
  H      5.975380   -1.396880   -4.691410
  H      2.806460    1.986510   -4.268480
  H      3.778710    3.098280   -3.307380
  H      2.110900    0.819010   -2.187830
  H      1.682760    2.511980   -2.127860
  H      3.072160    1.930310   -1.242270

 Total Charge           Charge          ....    0
 Multiplicity           Mult            ....    1
 Number of Electrons    NEL             ....   48
 Basis Dimension        Dim             ....  200

ORBITAL ENERGIES
----------------

  NO   OCC          E(Eh)            E(eV)
   0   2.0000     -14.437144      -392.8547
   1   2.0000     -14.434155      -392.7733
   2   2.0000     -10.336395      -281.2676
   3   2.0000     -10.322127      -280.8794
   4   2.0000     -10.275439      -279.6089
   5   2.0000     -10.200500      -277.5697
   6   2.0000      -1.072232       -29.1769
   7   2.0000      -0.986554       -26.8455
   8   2.0000      -0.865939       -23.5634
   9   2.0000      -0.819964       -22.3123
  10   2.0000      -0.745490       -20.2858
  11   2.0000      -0.668582       -18.1930
  12   2.0000      -0.648496       -17.6465
  13   2.0000      -0.616757       -16.7828
  14   2.0000      -0.558353       -15.1935
  15   2.0000      -0.549790       -14.9605
  16   2.0000      -0.521847       -14.2002
  17   2.0000      -0.500355       -13.6153
  18   2.0000      -0.477114       -12.9829
  19   2.0000      -0.471517       -12.8306
  20   2.0000      -0.450704       -12.2643
  21   2.0000      -0.444707       -12.1011
  22   2.0000      -0.340533        -9.2664
  23   2.0000      -0.257035        -6.9943
  24   0.0000       0.089546         2.4367
  25   0.0000       0.110191         2.9985
  26   0.0000       0.122790         3.3413
  27   0.0000       0.127337         3.4650
  28   0.0000       0.153613         4.1800

MULLIKEN ATOMIC CHARGES
-----------------------
   0 C :    0.281761
   1 N :   -0.450324
   2 C :    0.557243
   3 C :    0.955377
   4 N :   -0.022833
   5 C :    0.163096
   6 H :   -0.209049
   7 H :   -0.411371
   8 H :   -0.347899
   9 H :   -0.172346
  10 H :   -0.019668
  11 H :   -0.029437
  12 H :   -0.210859
  13 H :   -0.066390
  14 H :    0.025234
  15 H :   -0.042534
Sum of atomic charges:    0.0000000

LOEWDIN ATOMIC CHARGES
----------------------
   0 C :    0.024487
   1 N :   -0.031686
   2 C :    0.127643
   3 C :   -0.233315
   4 N :    0.173017
   5 C :    0.143218
   6 H :   -0.100364
   7 H :   -0.096567
   8 H :    0.023155
   9 H :   -0.010200
  10 H :    0.003398
  11 H :    0.013389
  12 H :    0.017326
  13 H :   -0.015560
  14 H :   -0.016875
  15 H :   -0.021067

  Mayer bond orders larger than 0.100000
B(  0-C ,  1-N ) :   0.8569 B(  0-C ,  2-C ) :   1.2256 B(  0-C ,  8-H ) :  -0.1835
B(  0-C , 11-H ) :   0.8855 B(  0-C , 12-H ) :   0.9484 B(  0-C , 13-H ) :   0.1873
B(  0-C , 14-H ) :   0.1661 B(  0-C , 15-H ) :   0.1847 B(  1-N ,  3-C ) :   0.8682
B(  1-N ,  4-N ) :   0.1705 B(  1-N ,  5-C ) :   0.3513 B(  1-N ,  8-H ) :   1.3950
B(  1-N , 11-H ) :   0.1258 B(  1-N , 12-H ) :   0.1469 B(  2-C , 13-H ) :   0.8670
B(  2-C , 14-H ) :   0.8095 B(  2-C , 15-H ) :   0.8355 B(  3-C ,  4-N ) :   0.8738
B(  3-C ,  5-C ) :   1.5947 B(  3-C ,  6-H ) :   0.1172 B(  3-C ,  7-H ) :   0.1365
B(  3-C ,  8-H ) :  -0.2756 B(  3-C ,  9-H ) :  -0.1125 B(  4-N ,  5-C ) :   0.2718
B(  4-N ,  9-H ) :   1.2252 B(  4-N , 10-H ) :   1.1322 B(  5-C ,  6-H ) :   0.7368
B(  5-C ,  7-H ) :   0.9148 B(  9-H , 10-H ) :  -0.1607

Dispersion correction           -0.003700597
FINAL SINGLE POINT ENERGY      -267.662718689703

DIPOLE MOMENT
-------------
                                X             Y             Z
Electronic contribution:      3.65902      -1.31990      -1.35202
Nuclear contribution   :     -3.02065       1.64092       1.99316
                        -----------------------------------------
Total Dipole Moment    :      0.63837       0.32102       0.64114
                        -----------------------------------------
Magnitude (a.u.)       :      0.96002
Magnitude (Debye)      :      2.44017

Rotational constants in cm-1:     0.259304     0.069422     0.060943
Rotational constants in MHz :  7773.747720  2081.225169  1827.013389

                             ****ORCA TERMINATED NORMALLY****
TOTAL RUN TIME: 0 days 0 hours 0 minutes 12 seconds 260 msec
