                         Program Version 5.0.0 -  RELEASE  -
|  1> !wB97X-D3 RIJCOSX def2-SVPD def2/J TightSCF xyzfile
|  2>
|  3> *xyzfile 0 1 D1.xyz
|  4>
|  5> %MaxCore 64000
|  6>
|  7> %pal nprocs 18
|  8> end
|  9>
| 10> %scf
| 11>   MaxIter 150
| 12> end
| 13>
| 14>
| 15>                          ****END OF INPUT****

CARTESIAN COORDINATES (ANGSTROEM)
---------------------------------
  C      3.380928    2.083045   -3.350127
  C      4.535924    1.182447   -3.428518
  C      2.495557    1.816150   -2.136364
  C      1.872181    0.427903   -2.077497
  H      2.614270   -0.365825   -2.198894
  H      1.389953    0.273087   -1.112360
  S      0.579024    0.140472   -3.297943
  C      4.671956    0.122273   -4.220598
  N      5.866023   -0.507849   -4.224284
  N      3.698881   -0.312844   -4.986988
  H      2.731405   -0.050091   -4.849000
  H      3.890046   -1.055172   -5.643730
  H      5.251933    1.303459   -2.721014
  H      6.695165   -0.062322   -3.851596
  H      5.975383   -1.396884   -4.691414
  F      0.228860   -1.246868   -3.127871
  O     -0.439269    1.118966   -3.014550
  O      1.247881    0.403474   -4.595647
  H      1.697003    2.561969   -2.141109
  H      3.080787    1.987436   -1.225838
  H      2.806463    1.986511   -4.268484
  H      3.778714    3.098282   -3.307383

 Total Charge           Charge          ....    0
 Multiplicity           Mult            ....    1
 Number of Electrons    NEL             ....   96
 Basis Dimension        Dim             ....  324

ORBITAL ENERGIES
----------------

  NO   OCC          E(Eh)            E(eV)
   0   2.0000     -89.247532     -2428.5488
   1   2.0000     -24.933159      -678.4658
   2   2.0000     -19.270383      -524.3738
   3   2.0000     -19.264610      -524.2167
   4   2.0000     -14.431734      -392.7075
   5   2.0000     -14.413923      -392.2228
   6   2.0000     -10.346663      -281.5470
   7   2.0000     -10.332556      -281.1631
   8   2.0000     -10.301682      -280.3230
   9   2.0000     -10.266795      -279.3737
  10   2.0000     -10.209200      -277.8064
  11   2.0000      -8.321493      -226.4393
  12   2.0000      -6.285224      -171.0296
  13   2.0000      -6.279080      -170.8625
  14   2.0000      -6.277080      -170.8080
  15   2.0000      -1.506127       -40.9838
  16   2.0000      -1.240417       -33.7535
  17   2.0000      -1.138723       -30.9862
  18   2.0000      -1.062568       -28.9140
  19   2.0000      -0.967298       -26.3215
  20   2.0000      -0.940579       -25.5945
  21   2.0000      -0.878593       -23.9077
  22   2.0000      -0.839158       -22.8347
  23   2.0000      -0.792523       -21.5656
  24   2.0000      -0.738440       -20.0940
  25   2.0000      -0.711020       -19.3479
  26   2.0000      -0.698653       -19.0113
  27   2.0000      -0.688465       -18.7341
  28   2.0000      -0.659469       -17.9451
  29   2.0000      -0.640716       -17.4348
  30   2.0000      -0.620909       -16.8958
  31   2.0000      -0.594683       -16.1821
  32   2.0000      -0.590099       -16.0574
  33   2.0000      -0.572506       -15.5787
  34   2.0000      -0.555282       -15.1100
  35   2.0000      -0.539804       -14.6888
  36   2.0000      -0.508305       -13.8317
  37   2.0000      -0.505203       -13.7473
  38   2.0000      -0.493638       -13.4326
  39   2.0000      -0.482116       -13.1190
  40   2.0000      -0.456328       -12.4173
  41   2.0000      -0.451331       -12.2814
  42   2.0000      -0.434144       -11.8137
  43   2.0000      -0.431657       -11.7460
  44   2.0000      -0.415537       -11.3073
  45   2.0000      -0.405949       -11.0464
  46   2.0000      -0.350625        -9.5410
  47   2.0000      -0.244962        -6.6658
  48   0.0000       0.062191         1.6923
  49   0.0000       0.088286         2.4024
  50   0.0000       0.090119         2.4523
  51   0.0000       0.099671         2.7122
  52   0.0000       0.114048         3.1034

MULLIKEN ATOMIC CHARGES
-----------------------
   0 C :    0.327698
   1 C :   -0.127922
   2 C :    0.140515
   3 C :   -0.009664
   4 H :    0.125394
   5 H :   -0.038027
   6 S :    1.633363
   7 C :    0.935739
   8 N :   -0.081805
   9 N :    0.451643
  10 H :   -0.377595
  11 H :   -0.240442
  12 H :   -0.389413
  13 H :   -0.088190
  14 H :   -0.110353
  15 F :   -0.430364
  16 O :   -0.703989
  17 O :   -0.828658
  18 H :    0.015148
  19 H :   -0.000129
  20 H :   -0.083787
  21 H :   -0.119162
Sum of atomic charges:   -0.0000000

LOEWDIN ATOMIC CHARGES
----------------------
   0 C :   -0.037584
   1 C :   -0.033956
   2 C :   -0.018586
   3 C :   -0.041159
   4 H :    0.020450
   5 H :    0.020859
   6 S :    1.179017
   7 C :   -0.211485
   8 N :    0.171611
   9 N :    0.222528
  10 H :   -0.145224
  11 H :    0.001719
  12 H :   -0.051332
  13 H :    0.002981
  14 H :   -0.013363
  15 F :   -0.245626
  16 O :   -0.448198
  17 O :   -0.458700
  18 H :    0.027809
  19 H :    0.038726
  20 H :   -0.002010
  21 H :    0.021522

  Mayer bond orders larger than 0.100000
B(  0-C ,  1-C ) :   1.1025 B(  0-C ,  2-C ) :   1.1431 B(  0-C , 12-H ) :   0.2061
B(  0-C , 18-H ) :   0.1656 B(  0-C , 19-H ) :   0.1623 B(  0-C , 20-H ) :   0.8275
B(  0-C , 21-H ) :   0.8001 B(  1-C ,  7-C ) :   1.6369 B(  1-C ,  8-N ) :   0.3955
B(  1-C ,  9-N ) :   0.1921 B(  1-C , 10-H ) :  -0.1080 B(  1-C , 12-H ) :   0.8099
B(  1-C , 20-H ) :   0.2531 B(  1-C , 21-H ) :   0.1258 B(  2-C ,  3-C ) :   1.2927
B(  2-C ,  4-H ) :   0.1411 B(  2-C ,  5-H ) :   0.1713 B(  2-C , 18-H ) :   0.8131
B(  2-C , 19-H ) :   0.7872 B(  2-C , 20-H ) :   0.1475 B(  3-C ,  4-H ) :   0.9320
B(  3-C ,  5-H ) :   0.7991 B(  3-C ,  6-S ) :   0.9489 B(  3-C , 17-O ) :   0.1388
B(  3-C , 18-H ) :   0.1458 B(  3-C , 19-H ) :   0.1201 B(  6-S , 15-F ) :   0.6343
B(  6-S , 16-O ) :   1.5387 B(  6-S , 17-O ) :   1.3709 B(  7-C ,  8-N ) :   0.7347
B(  7-C ,  9-N ) :   1.0164 B(  7-C , 11-H ) :  -0.1914 B(  7-C , 12-H ) :   0.1137
B(  7-C , 13-H ) :  -0.1620 B(  7-C , 20-H ) :  -0.1182 B(  8-N , 12-H ) :   0.1077
B(  8-N , 13-H ) :   1.2314 B(  8-N , 14-H ) :   1.1583 B(  9-N , 10-H ) :   1.1151
B(  9-N , 11-H ) :   1.2339 B( 10-H , 11-H ) :  -0.1965 B( 10-H , 17-O ) :   0.1416
B( 13-H , 14-H ) :  -0.1555

Dispersion correction           -0.009842530
FINAL SINGLE POINT ENERGY      -954.379771315113

DIPOLE MOMENT
-------------
                                X             Y             Z
Electronic contribution:    -15.26455      -6.70190      -1.10637
Nuclear contribution   :     15.92508       5.34175       1.81950
                        -----------------------------------------
Total Dipole Moment    :      0.66053      -1.36015       0.71312
                        -----------------------------------------
Magnitude (a.u.)       :      1.67178
Magnitude (Debye)      :      4.24933

Rotational constants in cm-1:     0.058561     0.020662     0.017762
Rotational constants in MHz :  1755.621534   619.433801   532.501507

                             ****ORCA TERMINATED NORMALLY****
TOTAL RUN TIME: 0 days 0 hours 0 minutes 48 seconds 450 msec
