                         Program Version 5.0.0 -  RELEASE  -
|  1> !wB97X-D3 RIJCOSX def2-SVPD def2/J TightSCF xyzfile
|  2>
|  3> *xyzfile 0 1 D2.xyz
|  4>
|  5> %MaxCore 64000
|  6>
|  7> %pal nprocs 18
|  8> end
|  9>
| 10> %scf
| 11>   MaxIter 150
| 12> end
| 13>
| 14>
| 15>                          ****END OF INPUT****

CARTESIAN COORDINATES (ANGSTROEM)
---------------------------------
  C      3.380928    2.083045   -3.350127
  N      4.535924    1.182447   -3.428518
  C      2.495557    1.816150   -2.136364
  C      1.872181    0.427903   -2.077497
  H      2.614270   -0.365825   -2.198894
  H      1.389953    0.273087   -1.112360
  S      0.579024    0.140472   -3.297943
  C      4.671956    0.122273   -4.220598
  C      5.866023   -0.507849   -4.224284
  N      3.698881   -0.312844   -4.986988
  H      2.731405   -0.050091   -4.849000
  H      3.890046   -1.055172   -5.643730
  H      5.251933    1.303459   -2.721014
  H      6.695165   -0.062322   -3.851596
  H      5.975383   -1.396884   -4.691414
  F      0.228860   -1.246868   -3.127871
  O     -0.439269    1.118966   -3.014550
  O      1.247881    0.403474   -4.595647
  H      1.697003    2.561969   -2.141109
  H      3.080787    1.987436   -1.225838
  H      2.806463    1.986511   -4.268484
  H      3.778714    3.098282   -3.307383

 Total Charge           Charge          ....    0
 Multiplicity           Mult            ....    1
 Number of Electrons    NEL             ....   96
 Basis Dimension        Dim             ....  324

ORBITAL ENERGIES
----------------

  NO   OCC          E(Eh)            E(eV)
   0   2.0000     -89.261404     -2428.9263
   1   2.0000     -24.944488      -678.7740
   2   2.0000     -19.283241      -524.7237
   3   2.0000     -19.276595      -524.5428
   4   2.0000     -14.439097      -392.9078
   5   2.0000     -14.410984      -392.1428
   6   2.0000     -10.365553      -282.0610
   7   2.0000     -10.334424      -281.2140
   8   2.0000     -10.332195      -281.1533
   9   2.0000     -10.329431      -281.0781
  10   2.0000     -10.189640      -277.2742
  11   2.0000      -8.335188      -226.8120
  12   2.0000      -6.298869      -171.4009
  13   2.0000      -6.292735      -171.2340
  14   2.0000      -6.290953      -171.1855
  15   2.0000      -1.517376       -41.2899
  16   2.0000      -1.253266       -34.1031
  17   2.0000      -1.151232       -31.3266
  18   2.0000      -1.073236       -29.2042
  19   2.0000      -0.990129       -26.9428
  20   2.0000      -0.951206       -25.8836
  21   2.0000      -0.885536       -24.0967
  22   2.0000      -0.839638       -22.8477
  23   2.0000      -0.798613       -21.7314
  24   2.0000      -0.748226       -20.3603
  25   2.0000      -0.721088       -19.6218
  26   2.0000      -0.706649       -19.2289
  27   2.0000      -0.703691       -19.1484
  28   2.0000      -0.690251       -18.7827
  29   2.0000      -0.652099       -17.7445
  30   2.0000      -0.615308       -16.7434
  31   2.0000      -0.597461       -16.2577
  32   2.0000      -0.592478       -16.1222
  33   2.0000      -0.584248       -15.8982
  34   2.0000      -0.568154       -15.4602
  35   2.0000      -0.548730       -14.9317
  36   2.0000      -0.518268       -14.1028
  37   2.0000      -0.510617       -13.8946
  38   2.0000      -0.506509       -13.7828
  39   2.0000      -0.487004       -13.2521
  40   2.0000      -0.482193       -13.1211
  41   2.0000      -0.467457       -12.7202
  42   2.0000      -0.454834       -12.3767
  43   2.0000      -0.445497       -12.1226
  44   2.0000      -0.435177       -11.8418
  45   2.0000      -0.423213       -11.5162
  46   2.0000      -0.342140        -9.3101
  47   2.0000      -0.239073        -6.5055
  48   0.0000       0.054748         1.4898
  49   0.0000       0.076603         2.0845
  50   0.0000       0.087252         2.3742
  51   0.0000       0.090565         2.4644
  52   0.0000       0.102812         2.7977

MULLIKEN ATOMIC CHARGES
-----------------------
   0 C :    0.897591
   1 N :   -0.429306
   2 C :    0.093058
   3 C :    0.007218
   4 H :    0.182128
   5 H :   -0.080233
   6 S :    1.628304
   7 C :    0.537173
   8 C :    0.402023
   9 N :    0.584595
  10 H :   -0.477115
  11 H :   -0.161959
  12 H :   -0.231520
  13 H :   -0.384143
  14 H :   -0.286105
  15 F :   -0.426422
  16 O :   -0.697440
  17 O :   -0.838368
  18 H :    0.031373
  19 H :   -0.010030
  20 H :   -0.048640
  21 H :   -0.292182
Sum of atomic charges:   -0.0000000

LOEWDIN ATOMIC CHARGES
----------------------
   0 C :    0.077703
   1 N :   -0.012155
   2 C :   -0.009658
   3 C :   -0.039513
   4 H :    0.025500
   5 H :    0.023427
   6 S :    1.181756
   7 C :   -0.236021
   8 C :    0.127908
   9 N :    0.222269
  10 H :   -0.153248
  11 H :    0.018353
  12 H :    0.036687
  13 H :   -0.110558
  14 H :   -0.110667
  15 F :   -0.239339
  16 O :   -0.445993
  17 O :   -0.459397
  18 H :    0.033178
  19 H :    0.038035
  20 H :    0.005370
  21 H :    0.026362

  Mayer bond orders larger than 0.100000
B(  0-C ,  1-N ) :   0.9019 B(  0-C ,  2-C ) :   1.0990 B(  0-C , 12-H ) :  -0.1833
B(  0-C , 18-H ) :   0.1437 B(  0-C , 19-H ) :   0.1348 B(  0-C , 20-H ) :   0.7615
B(  0-C , 21-H ) :   0.8852 B(  1-N ,  7-C ) :   1.0030 B(  1-N ,  8-C ) :   0.2158
B(  1-N ,  9-N ) :   0.1174 B(  1-N , 12-H ) :   1.2570 B(  1-N , 20-H ) :   0.2339
B(  1-N , 21-H ) :   0.1411 B(  2-C ,  3-C ) :   1.2687 B(  2-C ,  4-H ) :   0.1402
B(  2-C ,  5-H ) :   0.1693 B(  2-C , 18-H ) :   0.8481 B(  2-C , 19-H ) :   0.8147
B(  2-C , 20-H ) :   0.1383 B(  3-C ,  4-H ) :   0.8912 B(  3-C ,  5-H ) :   0.8242
B(  3-C ,  6-S ) :   0.9543 B(  3-C , 17-O ) :   0.1398 B(  3-C , 18-H ) :   0.1226
B(  3-C , 19-H ) :   0.1097 B(  6-S , 15-F ) :   0.6418 B(  6-S , 16-O ) :   1.5431
B(  6-S , 17-O ) :   1.3751 B(  7-C ,  8-C ) :   1.5573 B(  7-C ,  9-N ) :   1.0855
B(  7-C , 12-H ) :  -0.1876 B(  7-C , 13-H ) :   0.1162 B(  7-C , 14-H ) :   0.1931
B(  8-C ,  9-N ) :   0.1404 B(  8-C , 13-H ) :   0.7762 B(  8-C , 14-H ) :   0.7976
B(  9-N , 10-H ) :   0.9570 B(  9-N , 11-H ) :   1.1537 B(  9-N , 20-H ) :   0.1100
B( 10-H , 11-H ) :  -0.2167 B( 10-H , 17-O ) :   0.1533 B( 13-H , 14-H ) :   0.1329
B( 20-H , 21-H ) :  -0.1281

Dispersion correction           -0.009881783
FINAL SINGLE POINT ENERGY      -954.363467175647

DIPOLE MOMENT
-------------
                                X             Y             Z
Electronic contribution:    -16.73638      -5.23402      -0.33175
Nuclear contribution   :     16.05479       5.17692       1.74190
                        -----------------------------------------
Total Dipole Moment    :     -0.68159      -0.05710       1.41014
                        -----------------------------------------
Magnitude (a.u.)       :      1.56727
Magnitude (Debye)      :      3.98368

Rotational constants in cm-1:     0.058652     0.021107     0.018077
Rotational constants in MHz :  1758.344290   632.763813   541.920558

                             ****ORCA TERMINATED NORMALLY****
TOTAL RUN TIME: 0 days 0 hours 0 minutes 49 seconds 743 msec
