                         Program Version 5.0.0 -  RELEASE  -
|  1> !wB97X-D3 RIJCOSX def2-SVPD def2/J TightSCF xyzfile
|  2>
|  3> *xyzfile 0 1 D3.xyz
|  4>
|  5> %MaxCore 64000
|  6>
|  7> %pal nprocs 18
|  8> end
|  9>
| 10> %scf
| 11>   MaxIter 150
| 12> end
| 13>
| 14>
| 15>                          ****END OF INPUT****

CARTESIAN COORDINATES (ANGSTROEM)
---------------------------------
  C      3.380928    2.083045   -3.350127
  N      4.535924    1.182447   -3.428518
  C      2.495557    1.816150   -2.136364
  C      1.872181    0.427903   -2.077497
  H      2.614270   -0.365825   -2.198894
  H      1.389953    0.273087   -1.112360
  S      0.579024    0.140472   -3.297943
  C      4.671956    0.122273   -4.220598
  N      5.866023   -0.507849   -4.224284
  C      3.698881   -0.312844   -4.986988
  H      2.731405   -0.050091   -4.849000
  H      3.890046   -1.055172   -5.643730
  H      5.251933    1.303459   -2.721014
  H      6.695165   -0.062322   -3.851596
  H      5.975383   -1.396884   -4.691414
  F      0.228860   -1.246868   -3.127871
  O     -0.439269    1.118966   -3.014550
  O      1.247881    0.403474   -4.595647
  H      1.697003    2.561969   -2.141109
  H      3.080787    1.987436   -1.225838
  H      2.806463    1.986511   -4.268484
  H      3.778714    3.098282   -3.307383

 Total Charge           Charge          ....    0
 Multiplicity           Mult            ....    1
 Number of Electrons    NEL             ....   96
 Basis Dimension        Dim             ....  324

ORBITAL ENERGIES
----------------

  NO   OCC          E(Eh)            E(eV)
   0   2.0000     -89.239501     -2428.3303
   1   2.0000     -24.925634      -678.2610
   2   2.0000     -19.263335      -524.1820
   3   2.0000     -19.246872      -523.7340
   4   2.0000     -14.439824      -392.9276
   5   2.0000     -14.430292      -392.6682
   6   2.0000     -10.350969      -281.6642
   7   2.0000     -10.328958      -281.0652
   8   2.0000     -10.327677      -281.0304
   9   2.0000     -10.320827      -280.8440
  10   2.0000     -10.178338      -276.9667
  11   2.0000      -8.313189      -226.2134
  12   2.0000      -6.276922      -170.8037
  13   2.0000      -6.270626      -170.6324
  14   2.0000      -6.269032      -170.5890
  15   2.0000      -1.498269       -40.7700
  16   2.0000      -1.230856       -33.4933
  17   2.0000      -1.125738       -30.6329
  18   2.0000      -1.072018       -29.1711
  19   2.0000      -0.989049       -26.9134
  20   2.0000      -0.937694       -25.5159
  21   2.0000      -0.867111       -23.5953
  22   2.0000      -0.827799       -22.5256
  23   2.0000      -0.805447       -21.9173
  24   2.0000      -0.754038       -20.5184
  25   2.0000      -0.701214       -19.0810
  26   2.0000      -0.696023       -18.9397
  27   2.0000      -0.680089       -18.5062
  28   2.0000      -0.661180       -17.9916
  29   2.0000      -0.642570       -17.4852
  30   2.0000      -0.620891       -16.8953
  31   2.0000      -0.599289       -16.3075
  32   2.0000      -0.595347       -16.2002
  33   2.0000      -0.559272       -15.2186
  34   2.0000      -0.554084       -15.0774
  35   2.0000      -0.549873       -14.9628
  36   2.0000      -0.507350       -13.8057
  37   2.0000      -0.498006       -13.5514
  38   2.0000      -0.491412       -13.3720
  39   2.0000      -0.480243       -13.0681
  40   2.0000      -0.477028       -12.9806
  41   2.0000      -0.466840       -12.7034
  42   2.0000      -0.448073       -12.1927
  43   2.0000      -0.433306       -11.7908
  44   2.0000      -0.414344       -11.2749
  45   2.0000      -0.376957       -10.2575
  46   2.0000      -0.342464        -9.3189
  47   2.0000      -0.250068        -6.8047
  48   0.0000       0.066226         1.8021
  49   0.0000       0.082189         2.2365
  50   0.0000       0.095095         2.5877
  51   0.0000       0.097284         2.6472
  52   0.0000       0.113343         3.0842

MULLIKEN ATOMIC CHARGES
-----------------------
   0 C :    0.894412
   1 N :   -0.586391
   2 C :    0.071491
   3 C :    0.062536
   4 H :    0.137959
   5 H :   -0.081561
   6 S :    1.610755
   7 C :    0.948032
   8 N :   -0.024131
   9 C :    0.744447
  10 H :   -0.745692
  11 H :   -0.379687
  12 H :   -0.289002
  13 H :   -0.140863
  14 H :   -0.009666
  15 F :   -0.427848
  16 O :   -0.711518
  17 O :   -0.844954
  18 H :    0.011119
  19 H :   -0.013160
  20 H :    0.048998
  21 H :   -0.275275
Sum of atomic charges:    0.0000000

LOEWDIN ATOMIC CHARGES
----------------------
   0 C :    0.085431
   1 N :   -0.023008
   2 C :   -0.008804
   3 C :   -0.040161
   4 H :    0.020991
   5 H :    0.020206
   6 S :    1.173287
   7 C :   -0.229475
   8 N :    0.169697
   9 C :    0.180873
  10 H :   -0.211167
  11 H :   -0.083471
  12 H :    0.022106
  13 H :   -0.013744
  14 H :    0.001969
  15 F :   -0.243812
  16 O :   -0.457701
  17 O :   -0.468420
  18 H :    0.032789
  19 H :    0.034090
  20 H :    0.011768
  21 H :    0.026555

  Mayer bond orders larger than 0.100000
B(  0-C ,  1-N ) :   0.8554 B(  0-C ,  2-C ) :   1.0815 B(  0-C , 12-H ) :  -0.1655
B(  0-C , 18-H ) :   0.1378 B(  0-C , 19-H ) :   0.1175 B(  0-C , 20-H ) :   0.7247
B(  0-C , 21-H ) :   0.9081 B(  1-N ,  7-C ) :   0.8150 B(  1-N ,  8-N ) :   0.1917
B(  1-N ,  9-C ) :   0.2942 B(  1-N , 12-H ) :   1.4270 B(  1-N , 20-H ) :   0.1787
B(  1-N , 21-H ) :   0.1360 B(  2-C ,  3-C ) :   1.2626 B(  2-C ,  4-H ) :   0.1392
B(  2-C ,  5-H ) :   0.1778 B(  2-C , 18-H ) :   0.8641 B(  2-C , 19-H ) :   0.8245
B(  2-C , 20-H ) :   0.1318 B(  3-C ,  4-H ) :   0.9268 B(  3-C ,  5-H ) :   0.7968
B(  3-C ,  6-S ) :   0.9680 B(  3-C , 17-O ) :   0.1385 B(  3-C , 18-H ) :   0.1270
B(  3-C , 19-H ) :   0.1127 B(  6-S , 15-F ) :   0.6250 B(  6-S , 16-O ) :   1.5212
B(  6-S , 17-O ) :   1.4160 B(  7-C ,  8-N ) :   0.8594 B(  7-C ,  9-C ) :   1.8131
B(  7-C , 11-H ) :   0.3253 B(  7-C , 12-H ) :  -0.2916 B(  8-N ,  9-C ) :   0.3506
B(  8-N , 11-H ) :   0.1013 B(  8-N , 13-H ) :   1.1788 B(  8-N , 14-H ) :   1.1298
B(  9-C , 10-H ) :   0.1195 B(  9-C , 11-H ) :   0.7350 B( 10-H , 17-O ) :   0.1576
B( 10-H , 20-H ) :   0.1050 B( 13-H , 14-H ) :  -0.1633 B( 20-H , 21-H ) :  -0.1537

Dispersion correction           -0.009823238
FINAL SINGLE POINT ENERGY      -954.346313054491

DIPOLE MOMENT
-------------
                                X             Y             Z
Electronic contribution:    -14.66196      -5.48326       0.08600
Nuclear contribution   :     15.84345       5.19593       1.66752
                        -----------------------------------------
Total Dipole Moment    :      1.18149      -0.28732       1.75352
                        -----------------------------------------
Magnitude (a.u.)       :      2.13385
Magnitude (Debye)      :      5.42381

Rotational constants in cm-1:     0.059060     0.020573     0.017713
Rotational constants in MHz :  1770.576058   616.749938   531.036486

                             ****ORCA TERMINATED NORMALLY****
TOTAL RUN TIME: 0 days 0 hours 0 minutes 34 seconds 688 msec
