                         Program Version 5.0.0 -  RELEASE  -
|  1> !wB97X-D3 RIJCOSX def2-SVPD def2/J TightSCF xyzfile
|  2>
|  3> *xyzfile 0 1 D8.xyz
|  4>
|  5> %MaxCore 64000
|  6>
|  7> %pal nprocs 18
|  8> end
|  9>
| 10> %scf
| 11>   MaxIter 150
| 12> end
| 13>
| 14>
| 15>                          ****END OF INPUT****

CARTESIAN COORDINATES (ANGSTROEM)
---------------------------------
  C      3.380928    2.083045   -3.350127
  N      4.535924    1.182447   -3.428518
  C      2.495557    1.816150   -2.136364
  C      1.872181    0.427903   -2.077497
  H      2.614270   -0.365825   -2.198894
  H      1.389953    0.273087   -1.112360
  S      0.579024    0.140472   -3.297943
  C      4.671956    0.122273   -4.220598
  C      5.866023   -0.507849   -4.224284
  N      3.698881   -0.312844   -4.986988
  H      2.731405   -0.050091   -4.849000
  H      3.890046   -1.055172   -5.643730
  H      5.251933    1.303459   -2.721014
  H      6.695165   -0.062322   -3.851596
  H      5.975383   -1.396884   -4.691414
  O      0.228860   -1.246868   -3.127871
  O     -0.439269    1.118966   -3.014550
  F      1.247881    0.403474   -4.595647
  H      1.697003    2.561969   -2.141109
  H      3.080787    1.987436   -1.225838
  H      2.806463    1.986511   -4.268484
  H      3.778714    3.098282   -3.307383

 Total Charge           Charge          ....    0
 Multiplicity           Mult            ....    1
 Number of Electrons    NEL             ....   96
 Basis Dimension        Dim             ....  324

ORBITAL ENERGIES
----------------

  NO   OCC          E(Eh)            E(eV)
   0   2.0000     -89.250740     -2428.6361
   1   2.0000     -24.932324      -678.4430
   2   2.0000     -19.277399      -524.5647
   3   2.0000     -19.276509      -524.5405
   4   2.0000     -14.452764      -393.2797
   5   2.0000     -14.441029      -392.9604
   6   2.0000     -10.360953      -281.9359
   7   2.0000     -10.350666      -281.6559
   8   2.0000     -10.348692      -281.6022
   9   2.0000     -10.330600      -281.1099
  10   2.0000     -10.204999      -277.6921
  11   2.0000      -8.324816      -226.5298
  12   2.0000      -6.288813      -171.1273
  13   2.0000      -6.282032      -170.9428
  14   2.0000      -6.280604      -170.9039
  15   2.0000      -1.494460       -40.6663
  16   2.0000      -1.254271       -34.1305
  17   2.0000      -1.156248       -31.4631
  18   2.0000      -1.091861       -29.7111
  19   2.0000      -1.009733       -27.4762
  20   2.0000      -0.954117       -25.9628
  21   2.0000      -0.886462       -24.1218
  22   2.0000      -0.839808       -22.8523
  23   2.0000      -0.814889       -22.1743
  24   2.0000      -0.754625       -20.5344
  25   2.0000      -0.724174       -19.7058
  26   2.0000      -0.719228       -19.5712
  27   2.0000      -0.704134       -19.1605
  28   2.0000      -0.671964       -18.2851
  29   2.0000      -0.644281       -17.5318
  30   2.0000      -0.623359       -16.9625
  31   2.0000      -0.603183       -16.4134
  32   2.0000      -0.596895       -16.2424
  33   2.0000      -0.589689       -16.0463
  34   2.0000      -0.575021       -15.6471
  35   2.0000      -0.562539       -15.3075
  36   2.0000      -0.531287       -14.4571
  37   2.0000      -0.510498       -13.8914
  38   2.0000      -0.509395       -13.8613
  39   2.0000      -0.493389       -13.4258
  40   2.0000      -0.486414       -13.2360
  41   2.0000      -0.478386       -13.0175
  42   2.0000      -0.461294       -12.5525
  43   2.0000      -0.454350       -12.3635
  44   2.0000      -0.438744       -11.9388
  45   2.0000      -0.433487       -11.7958
  46   2.0000      -0.360833        -9.8188
  47   2.0000      -0.254679        -6.9302
  48   0.0000       0.061468         1.6726
  49   0.0000       0.078639         2.1399
  50   0.0000       0.088910         2.4194
  51   0.0000       0.090404         2.4600
  52   0.0000       0.106974         2.9109

MULLIKEN ATOMIC CHARGES
-----------------------
   0 C :    0.899348
   1 N :   -0.423212
   2 C :    0.128943
   3 C :    0.074691
   4 H :    0.152220
   5 H :   -0.090465
   6 S :    1.495300
   7 C :    0.583048
   8 C :    0.383519
   9 N :    0.554634
  10 H :   -0.430728
  11 H :   -0.141738
  12 H :   -0.226641
  13 H :   -0.374634
  14 H :   -0.271342
  15 O :   -0.679395
  16 O :   -0.714299
  17 F :   -0.544563
  18 H :    0.040691
  19 H :   -0.011392
  20 H :   -0.111911
  21 H :   -0.292072
Sum of atomic charges:   -0.0000000

LOEWDIN ATOMIC CHARGES
----------------------
   0 C :    0.072636
   1 N :   -0.011382
   2 C :   -0.024134
   3 C :   -0.032388
   4 H :    0.026313
   5 H :    0.036480
   6 S :    1.136740
   7 C :   -0.231777
   8 C :    0.137811
   9 N :    0.221399
  10 H :   -0.106527
  11 H :    0.024221
  12 H :    0.040463
  13 H :   -0.103861
  14 H :   -0.104819
  15 O :   -0.449416
  16 O :   -0.449988
  17 F :   -0.280839
  18 H :    0.030227
  19 H :    0.035977
  20 H :    0.004989
  21 H :    0.027875

  Mayer bond orders larger than 0.100000
B(  0-C ,  1-N ) :   0.9030 B(  0-C ,  2-C ) :   1.1010 B(  0-C , 12-H ) :  -0.1832
B(  0-C , 18-H ) :   0.1384 B(  0-C , 19-H ) :   0.1393 B(  0-C , 20-H ) :   0.7588
B(  0-C , 21-H ) :   0.8918 B(  1-N ,  7-C ) :   0.9929 B(  1-N ,  8-C ) :   0.2188
B(  1-N ,  9-N ) :   0.1184 B(  1-N , 12-H ) :   1.2466 B(  1-N , 20-H ) :   0.2318
B(  1-N , 21-H ) :   0.1442 B(  2-C ,  3-C ) :   1.2302 B(  2-C ,  4-H ) :   0.1413
B(  2-C ,  5-H ) :   0.1559 B(  2-C , 18-H ) :   0.8506 B(  2-C , 19-H ) :   0.8059
B(  2-C , 20-H ) :   0.1321 B(  3-C ,  4-H ) :   0.9190 B(  3-C ,  5-H ) :   0.8195
B(  3-C ,  6-S ) :   1.0240 B(  3-C , 18-H ) :   0.1319 B(  3-C , 19-H ) :   0.1156
B(  5-H ,  6-S ) :   0.1053 B(  6-S , 15-O ) :   1.5382 B(  6-S , 16-O ) :   1.5238
B(  6-S , 17-F ) :   0.6360 B(  7-C ,  8-C ) :   1.5477 B(  7-C ,  9-N ) :   1.0575
B(  7-C , 11-H ) :  -0.1030 B(  7-C , 12-H ) :  -0.1899 B(  7-C , 13-H ) :   0.1058
B(  7-C , 14-H ) :   0.1880 B(  8-C ,  9-N ) :   0.1506 B(  8-C , 13-H ) :   0.7891
B(  8-C , 14-H ) :   0.7970 B(  9-N , 10-H ) :   0.9779 B(  9-N , 11-H ) :   1.1615
B(  9-N , 20-H ) :   0.1032 B( 10-H , 11-H ) :  -0.1892 B( 10-H , 17-F ) :   0.1127
B( 13-H , 14-H ) :   0.1256 B( 20-H , 21-H ) :  -0.1335

Dispersion correction           -0.009882910
FINAL SINGLE POINT ENERGY      -954.369656486395

DIPOLE MOMENT
-------------
                                X             Y             Z
Electronic contribution:    -14.60381      -2.40118      -2.87175
Nuclear contribution   :     14.93782       3.36795       3.35075
                        -----------------------------------------
Total Dipole Moment    :      0.33401       0.96677       0.47900
                        -----------------------------------------
Magnitude (a.u.)       :      1.12944
Magnitude (Debye)      :      2.87082

Rotational constants in cm-1:     0.059219     0.021387     0.018380
Rotational constants in MHz :  1775.354399   641.172207   551.019443

                             ****ORCA TERMINATED NORMALLY****
TOTAL RUN TIME: 0 days 0 hours 0 minutes 41 seconds 767 msec
