                         Program Version 5.0.0 -  RELEASE  -
|  1> !M062X D3Zero RIJCOSX def2-SVPD def2/J TightSCF
|  2> *xyz -1 1
|  3> C         -1.10433        0.25137       -2.86006
|  4> C         -0.71189        0.84252       -4.21834
|  5> H          0.15463        1.49980       -4.13091
|  6> H         -1.53813        1.45922       -4.58267
|  7> C         -0.39762       -0.20587       -5.28802
|  8> O          0.61717       -0.00535       -5.99827
|  9> O         -1.13317       -1.22138       -5.34147
| 10> H         -1.95489       -0.38644       -2.98099
| 11> H         -1.34603        1.04362       -2.18269
| 12> H         -0.28606       -0.31581       -2.46809
| 13> *
| 14>
| 15> %MaxCore 64000
| 16>
| 17> %pal nprocs 4
| 18> end
| 19>
| 20> %scf
| 21>   MaxIter 150
| 22> end
| 23>
| 24>
| 25>                          ****END OF INPUT****

CARTESIAN COORDINATES (ANGSTROEM)
---------------------------------
  C     -1.104330    0.251370   -2.860060
  C     -0.711890    0.842520   -4.218340
  H      0.154630    1.499800   -4.130910
  H     -1.538130    1.459220   -4.582670
  C     -0.397620   -0.205870   -5.288020
  O      0.617170   -0.005350   -5.998270
  O     -1.133170   -1.221380   -5.341470
  H     -1.954890   -0.386440   -2.980990
  H     -1.346030    1.043620   -2.182690
  H     -0.286060   -0.315810   -2.468090

 Total Charge           Charge          ....   -1
 Multiplicity           Mult            ....    1
 Number of Electrons    NEL             ....   40
 Basis Dimension        Dim             ....  146

ORBITAL ENERGIES
----------------

  NO   OCC          E(Eh)            E(eV)
   0   2.0000     -19.372215      -527.1448
   1   2.0000     -19.371222      -527.1178
   2   2.0000     -10.437565      -284.0206
   3   2.0000     -10.387127      -282.6481
   4   2.0000     -10.375737      -282.3382
   5   2.0000      -0.929600       -25.2957
   6   2.0000      -0.829430       -22.5699
   7   2.0000      -0.693125       -18.8609
   8   2.0000      -0.554766       -15.0959
   9   2.0000      -0.393297       -10.7022
  10   2.0000      -0.362937        -9.8760
  11   2.0000      -0.334145        -9.0925
  12   2.0000      -0.301519        -8.2047
  13   2.0000      -0.284389        -7.7386
  14   2.0000      -0.279227        -7.5982
  15   2.0000      -0.246509        -6.7079
  16   2.0000      -0.228794        -6.2258
  17   2.0000      -0.111727        -3.0403
  18   2.0000      -0.110260        -3.0003
  19   2.0000      -0.103040        -2.8039
  20   0.0000       0.172784         4.7017
  21   0.0000       0.208057         5.6615
  22   0.0000       0.215851         5.8736
  23   0.0000       0.240915         6.5556
  24   0.0000       0.264043         7.1850

MULLIKEN ATOMIC CHARGES
-----------------------
   0 C :    0.581600
   1 C :   -0.314746
   2 H :   -0.077303
   3 H :   -0.026536
   4 C :    0.567082
   5 O :   -0.753773
   6 O :   -0.779556
   7 H :   -0.044492
   8 H :   -0.086837
   9 H :   -0.065438
Sum of atomic charges:   -1.0000000

LOEWDIN ATOMIC CHARGES
----------------------
   0 C :    0.097934
   1 C :   -0.039334
   2 H :    0.000303
   3 H :    0.010035
   4 C :   -0.294310
   5 O :   -0.343477
   6 O :   -0.333850
   7 H :   -0.029504
   8 H :   -0.044259
   9 H :   -0.023537

  Mayer bond orders larger than 0.100000
B(  0-C ,  1-C ) :   1.2784 B(  0-C ,  7-H ) :   0.8256 B(  0-C ,  8-H ) :   0.8262
B(  0-C ,  9-H ) :   0.8523 B(  1-C ,  2-H ) :   0.9726 B(  1-C ,  3-H ) :   0.8962
B(  1-C ,  4-C ) :   1.0032 B(  1-C ,  7-H ) :   0.2091 B(  1-C ,  8-H ) :   0.1864
B(  1-C ,  9-H ) :   0.1655 B(  2-H ,  4-C ) :   0.1854 B(  4-C ,  5-O ) :   1.3870
B(  4-C ,  6-O ) :   1.4061

Dispersion correction           -0.000088286
FINAL SINGLE POINT ENERGY      -267.533776849528

DIPOLE MOMENT
-------------
                                X             Y             Z
Electronic contribution:      1.53842      -2.34681      -5.19737
Nuclear contribution   :     -2.09607       3.44215       6.87744
                        -----------------------------------------
Total Dipole Moment    :     -0.55765       1.09533       1.68007
                        -----------------------------------------
Magnitude (a.u.)       :      2.08167
Magnitude (Debye)      :      5.29120

Rotational constants in cm-1:     0.324698     0.133739     0.103466
Rotational constants in MHz :  9734.203431  4009.406827  3101.846422

                             ****ORCA TERMINATED NORMALLY****
TOTAL RUN TIME: 0 days 0 hours 0 minutes 20 seconds 512 msec
