                         Program Version 5.0.0 -  RELEASE  -
|  1> !M062X D3Zero RIJCOSX def2-SVPD def2/J TightSCF
|  2> *xyz 1 1
|  3> C          2.23447       -2.98975       -2.39762
|  4> N          2.75680       -2.94555       -3.76503
|  5> C          1.98721       -2.59045       -4.81898
|  6> N          0.74322       -3.01749       -4.91352
|  7> N          2.49964       -1.84860       -5.80324
|  8> H          3.30978       -1.29282       -5.55895
|  9> H          1.80103       -1.30430       -6.28913
| 10> H          3.71612       -2.62880       -3.82953
| 11> H          0.39583       -3.62775       -4.18502
| 12> H          0.03920       -2.45438       -5.37137
| 13> C          2.19120       -1.61950       -1.71549
| 14> H          2.87278       -3.66637       -1.82801
| 15> H          1.24619       -3.44744       -2.40784
| 16> H          1.56387       -0.96046       -2.27853
| 17> H          3.18033       -1.21449       -1.66568
| 18> H          1.79916       -1.72608       -0.72562
| 19> *
| 20>
| 21> %MaxCore 64000
| 22>
| 23> %pal nprocs 4
| 24> end
| 25>
| 26> %scf
| 27>   MaxIter 150
| 28> end
| 29>
| 30>
| 31>                          ****END OF INPUT****

CARTESIAN COORDINATES (ANGSTROEM)
---------------------------------
  C      2.234470   -2.989750   -2.397620
  N      2.756800   -2.945550   -3.765030
  C      1.987210   -2.590450   -4.818980
  N      0.743220   -3.017490   -4.913520
  N      2.499640   -1.848600   -5.803240
  H      3.309780   -1.292820   -5.558950
  H      1.801030   -1.304300   -6.289130
  H      3.716120   -2.628800   -3.829530
  H      0.395830   -3.627750   -4.185020
  H      0.039200   -2.454380   -5.371370
  C      2.191200   -1.619500   -1.715490
  H      2.872780   -3.666370   -1.828010
  H      1.246190   -3.447440   -2.407840
  H      1.563870   -0.960460   -2.278530
  H      3.180330   -1.214490   -1.665680
  H      1.799160   -1.726080   -0.725620

 Total Charge           Charge          ....    1
 Multiplicity           Mult            ....    1
 Number of Electrons    NEL             ....   48
 Basis Dimension        Dim             ....  200

ORBITAL ENERGIES
----------------

  NO   OCC          E(Eh)            E(eV)
   0   2.0000     -14.994637      -408.0248
   1   2.0000     -14.990028      -407.8994
   2   2.0000     -14.987389      -407.8276
   3   2.0000     -10.898547      -296.5646
   4   2.0000     -10.762440      -292.8609
   5   2.0000     -10.693363      -290.9812
   6   2.0000      -1.325620       -36.0719
   7   2.0000      -1.203084       -32.7376
   8   2.0000      -1.197685       -32.5907
   9   2.0000      -1.018445       -27.7133
  10   2.0000      -0.926109       -25.2007
  11   2.0000      -0.886793       -24.1309
  12   2.0000      -0.865646       -23.5554
  13   2.0000      -0.817664       -22.2498
  14   2.0000      -0.776849       -21.1391
  15   2.0000      -0.757054       -20.6005
  16   2.0000      -0.722913       -19.6715
  17   2.0000      -0.695239       -18.9184
  18   2.0000      -0.672607       -18.3026
  19   2.0000      -0.637486       -17.3469
  20   2.0000      -0.600742       -16.3470
  21   2.0000      -0.580538       -15.7972
  22   2.0000      -0.555585       -15.1182
  23   2.0000      -0.513739       -13.9796
  24   0.0000      -0.159024        -4.3273
  25   0.0000      -0.133659        -3.6370
  26   0.0000      -0.102012        -2.7759
  27   0.0000      -0.089461        -2.4344
  28   0.0000      -0.068213        -1.8562

MULLIKEN ATOMIC CHARGES
-----------------------
   0 C :    0.295758
   1 N :   -0.486418
   2 C :    1.114065
   3 N :   -0.011690
   4 N :   -0.082663
   5 H :    0.024867
   6 H :    0.058991
   7 H :   -0.173442
   8 H :    0.005625
   9 H :   -0.014460
  10 C :    0.641233
  11 H :   -0.213123
  12 H :   -0.116856
  13 H :   -0.085837
  14 H :    0.003252
  15 H :    0.040698
Sum of atomic charges:    1.0000000

LOEWDIN ATOMIC CHARGES
----------------------
   0 C :    0.040789
   1 N :    0.040993
   2 C :   -0.036037
   3 N :    0.279013
   4 N :    0.265295
   5 H :    0.037311
   6 H :    0.037067
   7 H :    0.051431
   8 H :    0.027233
   9 H :    0.050157
  10 C :    0.165309
  11 H :    0.040537
  12 H :    0.015832
  13 H :   -0.014065
  14 H :   -0.005832
  15 H :    0.004967

  Mayer bond orders larger than 0.100000
B(  0-C ,  1-N ) :   0.8607 B(  0-C ,  7-H ) :  -0.1057 B(  0-C , 10-C ) :   1.2709
B(  0-C , 11-H ) :   0.9141 B(  0-C , 12-H ) :   0.8715 B(  0-C , 13-H ) :   0.2242
B(  0-C , 14-H ) :   0.1919 B(  0-C , 15-H ) :   0.1811 B(  1-N ,  2-C ) :   1.0294
B(  1-N ,  3-N ) :   0.1044 B(  1-N ,  4-N ) :   0.1403 B(  1-N ,  7-H ) :   1.2415
B(  1-N , 11-H ) :   0.1939 B(  1-N , 12-H ) :   0.1236 B(  2-C ,  3-N ) :   1.0034
B(  2-C ,  4-N ) :   1.0064 B(  2-C ,  7-H ) :  -0.1948 B(  2-C ,  9-H ) :  -0.1053
B(  3-N ,  4-N ) :   0.1326 B(  3-N ,  8-H ) :   0.9880 B(  3-N ,  9-H ) :   1.2072
B(  4-N ,  5-H ) :   1.0040 B(  4-N ,  6-H ) :   0.9888 B(  8-H ,  9-H ) :  -0.1677
B( 10-C , 13-H ) :   0.8424 B( 10-C , 14-H ) :   0.8144 B( 10-C , 15-H ) :   0.8088

Dispersion correction           -0.000319792
FINAL SINGLE POINT ENERGY      -284.053941238854

DIPOLE MOMENT
-------------
                                X             Y             Z
Electronic contribution:      0.17830      -1.67938      -5.17901
Nuclear contribution   :     -0.59121       2.30298       4.63196
                        -----------------------------------------
Total Dipole Moment    :     -0.41290       0.62360      -0.54705
                        -----------------------------------------
Magnitude (a.u.)       :      0.92662
Magnitude (Debye)      :      2.35529

Rotational constants in cm-1:     0.205874     0.074757     0.066901
Rotational constants in MHz :  6171.937773  2241.151057  2005.629823

                             ****ORCA TERMINATED NORMALLY****
TOTAL RUN TIME: 0 days 0 hours 0 minutes 32 seconds 154 msec
