                         Program Version 5.0.0 -  RELEASE  -
|  1> !M062X D3Zero RIJCOSX def2-SVPD def2/J TightSCF
|  2> *xyz 0 1
|  3> C         -1.10433        0.25137       -2.86006
|  4> C         -0.71189        0.84252       -4.21834
|  5> H          0.15463        1.49980       -4.13091
|  6> H         -1.53813        1.45922       -4.58267
|  7> C         -0.39762       -0.20587       -5.28802
|  8> F          0.61717       -0.00535       -5.99827
|  9> O         -1.13317       -1.22138       -5.34147
| 10> H         -1.95489       -0.38644       -2.98099
| 11> H         -1.34603        1.04362       -2.18269
| 12> H         -0.28606       -0.31581       -2.46809
| 13> *
| 14>
| 15> %MaxCore 64000
| 16>
| 17> %pal nprocs 4
| 18> end
| 19>
| 20> %scf
| 21>   MaxIter 150
| 22> end
| 23>
| 24>
| 25>                          ****END OF INPUT****

CARTESIAN COORDINATES (ANGSTROEM)
---------------------------------
  C     -1.104330    0.251370   -2.860060
  C     -0.711890    0.842520   -4.218340
  H      0.154630    1.499800   -4.130910
  H     -1.538130    1.459220   -4.582670
  C     -0.397620   -0.205870   -5.288020
  F      0.617170   -0.005350   -5.998270
  O     -1.133170   -1.221380   -5.341470
  H     -1.954890   -0.386440   -2.980990
  H     -1.346030    1.043620   -2.182690
  H     -0.286060   -0.315810   -2.468090

 Total Charge           Charge          ....    0
 Multiplicity           Mult            ....    1
 Number of Electrons    NEL             ....   40
 Basis Dimension        Dim             ....  146

ORBITAL ENERGIES
----------------

  NO   OCC          E(Eh)            E(eV)
   0   2.0000     -25.330084      -689.2666
   1   2.0000     -19.650063      -534.7054
   2   2.0000     -10.739939      -292.2486
   3   2.0000     -10.585428      -288.0441
   4   2.0000     -10.555759      -287.2368
   5   2.0000      -1.447179       -39.3797
   6   2.0000      -1.145375       -31.1672
   7   2.0000      -0.891961       -24.2715
   8   2.0000      -0.784166       -21.3382
   9   2.0000      -0.728347       -19.8193
  10   2.0000      -0.646336       -17.5877
  11   2.0000      -0.631402       -17.1813
  12   2.0000      -0.592658       -16.1270
  13   2.0000      -0.539032       -14.6678
  14   2.0000      -0.511954       -13.9310
  15   2.0000      -0.465585       -12.6692
  16   2.0000      -0.447770       -12.1844
  17   2.0000      -0.441473       -12.0131
  18   2.0000      -0.416790       -11.3414
  19   2.0000      -0.373277       -10.1574
  20   0.0000       0.010669         0.2903
  21   0.0000       0.029673         0.8074
  22   0.0000       0.058249         1.5850
  23   0.0000       0.069749         1.8980
  24   0.0000       0.090703         2.4681

MULLIKEN ATOMIC CHARGES
-----------------------
   0 C :    0.556568
   1 C :   -0.432849
   2 H :    0.002070
   3 H :    0.072943
   4 C :    0.819272
   5 F :   -0.401319
   6 O :   -0.549209
   7 H :   -0.006333
   8 H :   -0.032100
   9 H :   -0.029042
Sum of atomic charges:   -0.0000000

LOEWDIN ATOMIC CHARGES
----------------------
   0 C :    0.142590
   1 C :    0.003668
   2 H :    0.023926
   3 H :    0.041036
   4 C :    0.011318
   5 F :   -0.050598
   6 O :   -0.141994
   7 H :   -0.009919
   8 H :   -0.012510
   9 H :   -0.007517

  Mayer bond orders larger than 0.100000
B(  0-C ,  1-C ) :   1.3382 B(  0-C ,  7-H ) :   0.8321 B(  0-C ,  8-H ) :   0.8355
B(  0-C ,  9-H ) :   0.8570 B(  1-C ,  2-H ) :   0.9593 B(  1-C ,  3-H ) :   0.8859
B(  1-C ,  4-C ) :   1.0889 B(  1-C ,  7-H ) :   0.1867 B(  1-C ,  8-H ) :   0.1755
B(  1-C ,  9-H ) :   0.1584 B(  2-H ,  4-C ) :   0.1099 B(  4-C ,  5-F ) :   0.6880
B(  4-C ,  6-O ) :   1.7848

Dispersion correction           -0.000089542
FINAL SINGLE POINT ENERGY      -292.065636568666

DIPOLE MOMENT
-------------
                                X             Y             Z
Electronic contribution:      3.59102      -2.33941      -7.68152
Nuclear contribution   :     -3.36368       3.36392       8.24820
                        -----------------------------------------
Total Dipole Moment    :      0.22733       1.02451       0.56668
                        -----------------------------------------
Magnitude (a.u.)       :      1.19265
Magnitude (Debye)      :      3.03148

Rotational constants in cm-1:     0.315013     0.126712     0.098430
Rotational constants in MHz :  9443.861322  3798.734540  2950.846388

                             ****ORCA TERMINATED NORMALLY****
TOTAL RUN TIME: 0 days 0 hours 0 minutes 18 seconds 113 msec
