                         Program Version 5.0.0 -  RELEASE  -
|  1> !M062X D3Zero RIJCOSX def2-SVPD def2/J TightSCF
|  2> *xyz 0 1
|  3> C          2.23447       -2.98975       -2.39762
|  4> C          2.75680       -2.94555       -3.76503
|  5> C          1.98721       -2.59045       -4.81898
|  6> N          0.74322       -3.01749       -4.91352
|  7> N          2.49964       -1.84860       -5.80324
|  8> H          3.30978       -1.29282       -5.55895
|  9> H          1.80103       -1.30430       -6.28913
| 10> H          3.71612       -2.62880       -3.82953
| 11> H          0.39583       -3.62775       -4.18502
| 12> H          0.03920       -2.45438       -5.37137
| 13> C          2.19120       -1.61950       -1.71549
| 14> H          2.87278       -3.66637       -1.82801
| 15> H          1.24619       -3.44744       -2.40784
| 16> H          1.56387       -0.96046       -2.27853
| 17> H          3.18033       -1.21449       -1.66568
| 18> H          1.79916       -1.72608       -0.72562
| 19> *
| 20>
| 21> %MaxCore 64000
| 22>
| 23> %pal nprocs 4
| 24> end
| 25>
| 26> %scf
| 27>   MaxIter 150
| 28> end
| 29>
| 30>
| 31>                          ****END OF INPUT****

CARTESIAN COORDINATES (ANGSTROEM)
---------------------------------
  C      2.234470   -2.989750   -2.397620
  C      2.756800   -2.945550   -3.765030
  C      1.987210   -2.590450   -4.818980
  N      0.743220   -3.017490   -4.913520
  N      2.499640   -1.848600   -5.803240
  H      3.309780   -1.292820   -5.558950
  H      1.801030   -1.304300   -6.289130
  H      3.716120   -2.628800   -3.829530
  H      0.395830   -3.627750   -4.185020
  H      0.039200   -2.454380   -5.371370
  C      2.191200   -1.619500   -1.715490
  H      2.872780   -3.666370   -1.828010
  H      1.246190   -3.447440   -2.407840
  H      1.563870   -0.960460   -2.278530
  H      3.180330   -1.214490   -1.665680
  H      1.799160   -1.726080   -0.725620

 Total Charge           Charge          ....    0
 Multiplicity           Mult            ....    1
 Number of Electrons    NEL             ....   48
 Basis Dimension        Dim             ....  200

ORBITAL ENERGIES
----------------

  NO   OCC          E(Eh)            E(eV)
   0   2.0000     -14.769256      -401.8919
   1   2.0000     -14.764352      -401.7584
   2   2.0000     -10.602507      -288.5089
   3   2.0000     -10.528865      -286.5050
   4   2.0000     -10.520598      -286.2800
   5   2.0000     -10.478049      -285.1222
   6   2.0000      -1.072623       -29.1876
   7   2.0000      -0.972967       -26.4758
   8   2.0000      -0.865412       -23.5491
   9   2.0000      -0.778057       -21.1720
  10   2.0000      -0.699501       -19.0344
  11   2.0000      -0.658240       -17.9116
  12   2.0000      -0.619396       -16.8546
  13   2.0000      -0.581135       -15.8135
  14   2.0000      -0.539920       -14.6920
  15   2.0000      -0.523191       -14.2367
  16   2.0000      -0.481960       -13.1148
  17   2.0000      -0.465212       -12.6591
  18   2.0000      -0.440773       -11.9940
  19   2.0000      -0.423766       -11.5312
  20   2.0000      -0.390385       -10.6229
  21   2.0000      -0.382952       -10.4207
  22   2.0000      -0.342531        -9.3207
  23   2.0000      -0.213267        -5.8033
  24   0.0000       0.029796         0.8108
  25   0.0000       0.061838         1.6827
  26   0.0000       0.064325         1.7504
  27   0.0000       0.072341         1.9685
  28   0.0000       0.093558         2.5458

MULLIKEN ATOMIC CHARGES
-----------------------
   0 C :   -0.290552
   1 C :   -0.120375
   2 C :    0.361002
   3 N :   -0.060191
   4 N :   -0.075711
   5 H :    0.061851
   6 H :    0.004629
   7 H :   -0.136155
   8 H :    0.003836
   9 H :   -0.102207
  10 C :    0.739092
  11 H :   -0.039951
  12 H :   -0.197012
  13 H :   -0.097449
  14 H :   -0.028682
  15 H :   -0.022125
Sum of atomic charges:   -0.0000000

LOEWDIN ATOMIC CHARGES
----------------------
   0 C :   -0.109830
   1 C :   -0.018445
   2 C :   -0.236956
   3 N :    0.189550
   4 N :    0.180304
   5 H :    0.005018
   6 H :   -0.008920
   7 H :   -0.058324
   8 H :   -0.002590
   9 H :    0.000703
  10 C :    0.123898
  11 H :    0.010666
  12 H :   -0.007799
  13 H :   -0.023308
  14 H :   -0.019298
  15 H :   -0.024668

  Mayer bond orders larger than 0.100000
B(  0-C ,  1-C ) :   1.2589 B(  0-C ,  2-C ) :   0.1231 B(  0-C ,  7-H ) :   0.3098
B(  0-C , 10-C ) :   1.2422 B(  0-C , 11-H ) :   0.8429 B(  0-C , 12-H ) :   0.8967
B(  0-C , 13-H ) :   0.2351 B(  0-C , 14-H ) :   0.2297 B(  0-C , 15-H ) :   0.2181
B(  1-C ,  2-C ) :   1.7861 B(  1-C ,  3-N ) :   0.1362 B(  1-C ,  4-N ) :   0.1882
B(  1-C ,  7-H ) :   0.5956 B(  1-C , 11-H ) :   0.1934 B(  1-C , 12-H ) :   0.2114
B(  2-C ,  3-N ) :   1.0277 B(  2-C ,  4-N ) :   1.0152 B(  2-C ,  7-H ) :   0.2873
B(  3-N ,  4-N ) :   0.1132 B(  3-N ,  8-H ) :   0.9991 B(  3-N ,  9-H ) :   1.2227
B(  4-N ,  5-H ) :   0.9500 B(  4-N ,  6-H ) :   0.9114 B(  8-H ,  9-H ) :  -0.1534
B( 10-C , 13-H ) :   0.8357 B( 10-C , 14-H ) :   0.7919 B( 10-C , 15-H ) :   0.7920

Dispersion correction           -0.000318004
FINAL SINGLE POINT ENERGY      -267.591349161208

DIPOLE MOMENT
-------------
                                X             Y             Z
Electronic contribution:     -0.32058      -1.37851      -4.96909
Nuclear contribution   :     -0.44240       2.20379       4.66256
                        -----------------------------------------
Total Dipole Moment    :     -0.76298       0.82528      -0.30652
                        -----------------------------------------
Magnitude (a.u.)       :      1.16498
Magnitude (Debye)      :      2.96115

Rotational constants in cm-1:     0.209447     0.075194     0.066975
Rotational constants in MHz :  6279.068019  2254.272519  2007.845458

                             ****ORCA TERMINATED NORMALLY****
TOTAL RUN TIME: 0 days 0 hours 0 minutes 31 seconds 254 msec
