                         Program Version 5.0.0 -  RELEASE  -
|  1> !M062X D3Zero RIJCOSX def2-SVPD def2/J TightSCF
|  2> *xyz 0 1
|  3> C         -1.10433        0.25137       -2.86006
|  4> C         -0.71189        0.84252       -4.21834
|  5> H          0.15463        1.49980       -4.13091
|  6> H         -1.53813        1.45922       -4.58267
|  7> C         -0.39762       -0.20587       -5.28802
|  8> O          0.61717       -0.00535       -5.99827
|  9> F         -1.13317       -1.22138       -5.34147
| 10> H         -1.95489       -0.38644       -2.98099
| 11> H         -1.34603        1.04362       -2.18269
| 12> H         -0.28606       -0.31581       -2.46809
| 13> *
| 14>
| 15> %MaxCore 64000
| 16>
| 17> %pal nprocs 4
| 18> end
| 19>
| 20> %scf
| 21>   MaxIter 150
| 22> end
| 23>
| 24>
| 25>                          ****END OF INPUT****

CARTESIAN COORDINATES (ANGSTROEM)
---------------------------------
  C     -1.104330    0.251370   -2.860060
  C     -0.711890    0.842520   -4.218340
  H      0.154630    1.499800   -4.130910
  H     -1.538130    1.459220   -4.582670
  C     -0.397620   -0.205870   -5.288020
  O      0.617170   -0.005350   -5.998270
  F     -1.133170   -1.221380   -5.341470
  H     -1.954890   -0.386440   -2.980990
  H     -1.346030    1.043620   -2.182690
  H     -0.286060   -0.315810   -2.468090

 Total Charge           Charge          ....    0
 Multiplicity           Mult            ....    1
 Number of Electrons    NEL             ....   40
 Basis Dimension        Dim             ....  146

ORBITAL ENERGIES
----------------

  NO   OCC          E(Eh)            E(eV)
   0   2.0000     -25.330836      -689.2871
   1   2.0000     -19.648826      -534.6717
   2   2.0000     -10.739177      -292.2279
   3   2.0000     -10.584768      -288.0262
   4   2.0000     -10.561590      -287.3955
   5   2.0000      -1.447492       -39.3882
   6   2.0000      -1.144482       -31.1429
   7   2.0000      -0.896314       -24.3899
   8   2.0000      -0.778866       -21.1940
   9   2.0000      -0.735319       -20.0090
  10   2.0000      -0.647984       -17.6325
  11   2.0000      -0.639720       -17.4077
  12   2.0000      -0.581935       -15.8352
  13   2.0000      -0.540795       -14.7158
  14   2.0000      -0.510179       -13.8827
  15   2.0000      -0.474226       -12.9044
  16   2.0000      -0.456653       -12.4262
  17   2.0000      -0.444666       -12.1000
  18   2.0000      -0.417374       -11.3573
  19   2.0000      -0.367970       -10.0130
  20   0.0000       0.012895         0.3509
  21   0.0000       0.027729         0.7546
  22   0.0000       0.060550         1.6477
  23   0.0000       0.066575         1.8116
  24   0.0000       0.090896         2.4734

MULLIKEN ATOMIC CHARGES
-----------------------
   0 C :    0.551757
   1 C :   -0.414922
   2 H :   -0.018392
   3 H :    0.065199
   4 C :    0.833439
   5 O :   -0.525959
   6 F :   -0.423650
   7 H :   -0.010020
   8 H :   -0.029680
   9 H :   -0.027771
Sum of atomic charges:   -0.0000000

LOEWDIN ATOMIC CHARGES
----------------------
   0 C :    0.134249
   1 C :    0.010415
   2 H :    0.034955
   3 H :    0.039258
   4 C :    0.008737
   5 O :   -0.146517
   6 F :   -0.046300
   7 H :   -0.014407
   8 H :   -0.012143
   9 H :   -0.008247

  Mayer bond orders larger than 0.100000
B(  0-C ,  1-C ) :   1.3042 B(  0-C ,  7-H ) :   0.8255 B(  0-C ,  8-H ) :   0.8435
B(  0-C ,  9-H ) :   0.8653 B(  1-C ,  2-H ) :   1.0027 B(  1-C ,  3-H ) :   0.8833
B(  1-C ,  4-C ) :   1.0504 B(  1-C ,  7-H ) :   0.1732 B(  1-C ,  8-H ) :   0.1769
B(  1-C ,  9-H ) :   0.1508 B(  2-H ,  4-C ) :   0.1308 B(  4-C ,  5-O ) :   1.7743
B(  4-C ,  6-F ) :   0.6776

Dispersion correction           -0.000094616
FINAL SINGLE POINT ENERGY      -292.064601406434

DIPOLE MOMENT
-------------
                                X             Y             Z
Electronic contribution:      0.67436      -4.34579      -6.56380
Nuclear contribution   :     -1.45527       4.68977       7.53208
                        -----------------------------------------
Total Dipole Moment    :     -0.78090       0.34398       0.96827
                        -----------------------------------------
Magnitude (a.u.)       :      1.29061
Magnitude (Debye)      :      3.28048

Rotational constants in cm-1:     0.298240     0.132464     0.099915
Rotational constants in MHz :  8940.998095  3971.171647  2995.369122

                             ****ORCA TERMINATED NORMALLY****
TOTAL RUN TIME: 0 days 0 hours 0 minutes 18 seconds 423 msec
