                         Program Version 5.0.0 -  RELEASE  -
|  1> !M062X D3Zero RIJCOSX def2-SVPD def2/J TightSCF
|  2> *xyz 0 1
|  3> C          2.23447       -2.98975       -2.39762
|  4> N          2.75680       -2.94555       -3.76503
|  5> C          1.98721       -2.59045       -4.81898
|  6> C          0.74322       -3.01749       -4.91352
|  7> N          2.49964       -1.84860       -5.80324
|  8> H          3.30978       -1.29282       -5.55895
|  9> H          1.80103       -1.30430       -6.28913
| 10> H          3.71612       -2.62880       -3.82953
| 11> H          0.39583       -3.62775       -4.18502
| 12> H          0.03920       -2.45438       -5.37137
| 13> C          2.19120       -1.61950       -1.71549
| 14> H          2.87278       -3.66637       -1.82801
| 15> H          1.24619       -3.44744       -2.40784
| 16> H          1.56387       -0.96046       -2.27853
| 17> H          3.18033       -1.21449       -1.66568
| 18> H          1.79916       -1.72608       -0.72562
| 19> *
| 20>
| 21> %MaxCore 64000
| 22>
| 23> %pal nprocs 4
| 24> end
| 25>
| 26> %scf
| 27>   MaxIter 150
| 28> end
| 29>
| 30>
| 31>                          ****END OF INPUT****

CARTESIAN COORDINATES (ANGSTROEM)
---------------------------------
  C      2.234470   -2.989750   -2.397620
  N      2.756800   -2.945550   -3.765030
  C      1.987210   -2.590450   -4.818980
  C      0.743220   -3.017490   -4.913520
  N      2.499640   -1.848600   -5.803240
  H      3.309780   -1.292820   -5.558950
  H      1.801030   -1.304300   -6.289130
  H      3.716120   -2.628800   -3.829530
  H      0.395830   -3.627750   -4.185020
  H      0.039200   -2.454380   -5.371370
  C      2.191200   -1.619500   -1.715490
  H      2.872780   -3.666370   -1.828010
  H      1.246190   -3.447440   -2.407840
  H      1.563870   -0.960460   -2.278530
  H      3.180330   -1.214490   -1.665680
  H      1.799160   -1.726080   -0.725620

 Total Charge           Charge          ....    0
 Multiplicity           Mult            ....    1
 Number of Electrons    NEL             ....   48
 Basis Dimension        Dim             ....  200

ORBITAL ENERGIES
----------------

  NO   OCC          E(Eh)            E(eV)
   0   2.0000     -14.764017      -401.7493
   1   2.0000     -14.762621      -401.7113
   2   2.0000     -10.599272      -288.4208
   3   2.0000     -10.584676      -288.0237
   4   2.0000     -10.540551      -286.8230
   5   2.0000     -10.470711      -284.9225
   6   2.0000      -1.068868       -29.0854
   7   2.0000      -0.982738       -26.7417
   8   2.0000      -0.844309       -22.9748
   9   2.0000      -0.802158       -21.8278
  10   2.0000      -0.721353       -19.6290
  11   2.0000      -0.638760       -17.3815
  12   2.0000      -0.619667       -16.8620
  13   2.0000      -0.585860       -15.9421
  14   2.0000      -0.532507       -14.4903
  15   2.0000      -0.516227       -14.0472
  16   2.0000      -0.486243       -13.2314
  17   2.0000      -0.463705       -12.6180
  18   2.0000      -0.460804       -12.5391
  19   2.0000      -0.435191       -11.8422
  20   2.0000      -0.426151       -11.5962
  21   2.0000      -0.411487       -11.1971
  22   2.0000      -0.316849        -8.6219
  23   2.0000      -0.230601        -6.2750
  24   0.0000       0.031521         0.8577
  25   0.0000       0.058867         1.6018
  26   0.0000       0.066909         1.8207
  27   0.0000       0.069396         1.8884
  28   0.0000       0.091213         2.4820

MULLIKEN ATOMIC CHARGES
-----------------------
   0 C :    0.244517
   1 N :   -0.377693
   2 C :    0.455360
   3 C :    0.313249
   4 N :   -0.041527
   5 H :   -0.058158
   6 H :    0.054944
   7 H :   -0.287934
   8 H :   -0.080735
   9 H :   -0.380258
  10 C :    0.659997
  11 H :   -0.256212
  12 H :   -0.102638
  13 H :   -0.084574
  14 H :   -0.044021
  15 H :   -0.014317
Sum of atomic charges:    0.0000000

LOEWDIN ATOMIC CHARGES
----------------------
   0 C :    0.016629
   1 N :   -0.022515
   2 C :   -0.246426
   3 C :    0.165688
   4 N :    0.177649
   5 H :   -0.011991
   6 H :    0.003083
   7 H :    0.012950
   8 H :   -0.103327
   9 H :   -0.091401
  10 C :    0.136693
  11 H :    0.017089
  12 H :    0.006667
  13 H :   -0.019910
  14 H :   -0.022841
  15 H :   -0.018037

  Mayer bond orders larger than 0.100000
B(  0-C ,  1-N ) :   0.8768 B(  0-C , 10-C ) :   1.2458 B(  0-C , 11-H ) :   0.9133
B(  0-C , 12-H ) :   0.8723 B(  0-C , 13-H ) :   0.2467 B(  0-C , 14-H ) :   0.2067
B(  0-C , 15-H ) :   0.1948 B(  1-N ,  2-C ) :   0.9835 B(  1-N ,  3-C ) :   0.2347
B(  1-N ,  4-N ) :   0.1081 B(  1-N ,  7-H ) :   1.1741 B(  1-N , 11-H ) :   0.1771
B(  1-N , 12-H ) :   0.1156 B(  2-C ,  3-C ) :   1.8167 B(  2-C ,  4-N ) :   0.9335
B(  2-C ,  7-H ) :  -0.1456 B(  2-C ,  8-H ) :   0.2961 B(  2-C ,  9-H ) :   0.1222
B(  3-C ,  4-N ) :   0.1996 B(  3-C ,  8-H ) :   0.5046 B(  3-C ,  9-H ) :   0.9283
B(  4-N ,  5-H ) :   0.9569 B(  4-N ,  6-H ) :   0.9524 B(  8-H ,  9-H ) :   0.1545
B( 10-C , 13-H ) :   0.8251 B( 10-C , 14-H ) :   0.8134 B( 10-C , 15-H ) :   0.8143

Dispersion correction           -0.000316330
FINAL SINGLE POINT ENERGY      -267.586122989931

DIPOLE MOMENT
-------------
                                X             Y             Z
Electronic contribution:      1.47861      -1.25864      -3.83711
Nuclear contribution   :     -0.86957       2.18853       4.41892
                        -----------------------------------------
Total Dipole Moment    :      0.60904       0.92989       0.58181
                        -----------------------------------------
Magnitude (a.u.)       :      1.25464
Magnitude (Debye)      :      3.18904

Rotational constants in cm-1:     0.214718     0.075736     0.068547
Rotational constants in MHz :  6437.075121  2270.519635  2054.974198

                             ****ORCA TERMINATED NORMALLY****
TOTAL RUN TIME: 0 days 0 hours 0 minutes 36 seconds 357 msec
