                         Program Version 5.0.0 -  RELEASE  -
|  1> !M062X D3Zero RIJCOSX def2-SVPD def2/J TightSCF
|  2> *xyz 0 1
|  3> C          2.23447       -2.98975       -2.39762
|  4> N          2.75680       -2.94555       -3.76503
|  5> C          1.98721       -2.59045       -4.81898
|  6> N          0.74322       -3.01749       -4.91352
|  7> C          2.49964       -1.84860       -5.80324
|  8> H          3.30978       -1.29282       -5.55895
|  9> H          1.80103       -1.30430       -6.28913
| 10> H          3.71612       -2.62880       -3.82953
| 11> H          0.39583       -3.62775       -4.18502
| 12> H          0.03920       -2.45438       -5.37137
| 13> C          2.19120       -1.61950       -1.71549
| 14> H          2.87278       -3.66637       -1.82801
| 15> H          1.24619       -3.44744       -2.40784
| 16> H          1.56387       -0.96046       -2.27853
| 17> H          3.18033       -1.21449       -1.66568
| 18> H          1.79916       -1.72608       -0.72562
| 19> *
| 20>
| 21> %MaxCore 64000
| 22>
| 23> %pal nprocs 4
| 24> end
| 25>
| 26> %scf
| 27>   MaxIter 150
| 28> end
| 29>
| 30>
| 31>                          ****END OF INPUT****

CARTESIAN COORDINATES (ANGSTROEM)
---------------------------------
  C      2.234470   -2.989750   -2.397620
  N      2.756800   -2.945550   -3.765030
  C      1.987210   -2.590450   -4.818980
  N      0.743220   -3.017490   -4.913520
  C      2.499640   -1.848600   -5.803240
  H      3.309780   -1.292820   -5.558950
  H      1.801030   -1.304300   -6.289130
  H      3.716120   -2.628800   -3.829530
  H      0.395830   -3.627750   -4.185020
  H      0.039200   -2.454380   -5.371370
  C      2.191200   -1.619500   -1.715490
  H      2.872780   -3.666370   -1.828010
  H      1.246190   -3.447440   -2.407840
  H      1.563870   -0.960460   -2.278530
  H      3.180330   -1.214490   -1.665680
  H      1.799160   -1.726080   -0.725620

 Total Charge           Charge          ....    0
 Multiplicity           Mult            ....    1
 Number of Electrons    NEL             ....   48
 Basis Dimension        Dim             ....  200

ORBITAL ENERGIES
----------------

  NO   OCC          E(Eh)            E(eV)
   0   2.0000     -14.765988      -401.8030
   1   2.0000     -14.762873      -401.7182
   2   2.0000     -10.602915      -288.5200
   3   2.0000     -10.593089      -288.2526
   4   2.0000     -10.544452      -286.9291
   5   2.0000     -10.465115      -284.7703
   6   2.0000      -1.071077       -29.1455
   7   2.0000      -0.982689       -26.7403
   8   2.0000      -0.857339       -23.3294
   9   2.0000      -0.794549       -21.6208
  10   2.0000      -0.710483       -19.3332
  11   2.0000      -0.679805       -18.4984
  12   2.0000      -0.615103       -16.7378
  13   2.0000      -0.563581       -15.3358
  14   2.0000      -0.561923       -15.2907
  15   2.0000      -0.506832       -13.7916
  16   2.0000      -0.497613       -13.5407
  17   2.0000      -0.470128       -12.7928
  18   2.0000      -0.442366       -12.0374
  19   2.0000      -0.432887       -11.7795
  20   2.0000      -0.430354       -11.7105
  21   2.0000      -0.419345       -11.4110
  22   2.0000      -0.319019        -8.6809
  23   2.0000      -0.225113        -6.1256
  24   0.0000       0.029528         0.8035
  25   0.0000       0.056360         1.5336
  26   0.0000       0.064874         1.7653
  27   0.0000       0.069600         1.8939
  28   0.0000       0.090247         2.4557

MULLIKEN ATOMIC CHARGES
-----------------------
   0 C :    0.280085
   1 N :   -0.516684
   2 C :    0.398399
   3 N :    0.104213
   4 C :    0.477018
   5 H :   -0.125007
   6 H :   -0.389562
   7 H :   -0.175740
   8 H :   -0.099859
   9 H :   -0.073722
  10 C :    0.634710
  11 H :   -0.256540
  12 H :   -0.142600
  13 H :   -0.092786
  14 H :   -0.038847
  15 H :    0.016921
Sum of atomic charges:    0.0000000

LOEWDIN ATOMIC CHARGES
----------------------
   0 C :    0.009679
   1 N :   -0.019778
   2 C :   -0.242402
   3 N :    0.190122
   4 C :    0.146600
   5 H :   -0.104154
   6 H :   -0.104590
   7 H :    0.026042
   8 H :   -0.016969
   9 H :    0.015477
  10 C :    0.137711
  11 H :    0.016121
  12 H :    0.000734
  13 H :   -0.018323
  14 H :   -0.017932
  15 H :   -0.018338

  Mayer bond orders larger than 0.100000
B(  0-C ,  1-N ) :   0.9005 B(  0-C ,  7-H ) :  -0.1083 B(  0-C , 10-C ) :   1.2530
B(  0-C , 11-H ) :   0.9123 B(  0-C , 12-H ) :   0.8637 B(  0-C , 13-H ) :   0.2285
B(  0-C , 14-H ) :   0.2104 B(  0-C , 15-H ) :   0.1834 B(  1-N ,  2-C ) :   0.9511
B(  1-N ,  4-C ) :   0.1971 B(  1-N ,  7-H ) :   1.1898 B(  1-N , 11-H ) :   0.1964
B(  1-N , 12-H ) :   0.1290 B(  2-C ,  3-N ) :   1.0316 B(  2-C ,  4-C ) :   1.9779
B(  2-C ,  5-H ) :   0.2373 B(  2-C ,  6-H ) :   0.2500 B(  2-C ,  7-H ) :  -0.1498
B(  3-N ,  4-C ) :   0.2083 B(  3-N ,  8-H ) :   0.9972 B(  3-N ,  9-H ) :   1.1494
B(  4-C ,  5-H ) :   0.6952 B(  4-C ,  6-H ) :   0.7257 B(  5-H ,  6-H ) :   0.2506
B(  8-H ,  9-H ) :  -0.1655 B( 10-C , 13-H ) :   0.8426 B( 10-C , 14-H ) :   0.8045
B( 10-C , 15-H ) :   0.8039

Dispersion correction           -0.000314679
FINAL SINGLE POINT ENERGY      -267.580828069165

DIPOLE MOMENT
-------------
                                X             Y             Z
Electronic contribution:     -0.11741      -2.38473      -2.96665
Nuclear contribution   :     -0.49695       2.43650       4.23017
                        -----------------------------------------
Total Dipole Moment    :     -0.61436       0.05177       1.26352
                        -----------------------------------------
Magnitude (a.u.)       :      1.40591
Magnitude (Debye)      :      3.57355

Rotational constants in cm-1:     0.211102     0.077011     0.069221
Rotational constants in MHz :  6328.667765  2308.731604  2075.192956

                             ****ORCA TERMINATED NORMALLY****
TOTAL RUN TIME: 0 days 0 hours 0 minutes 36 seconds 675 msec
