                         Program Version 5.0.0 -  RELEASE  -
|  1> !M062X D3Zero RIJCOSX def2-SVPD def2/J TightSCF xyzfile
|  2>
|  3> *xyzfile 0 1 D2.xyz
|  4>
|  5> %MaxCore 64000
|  6>
|  7> %pal nprocs 4
|  8> end
|  9>
| 10> %scf
| 11>   MaxIter 150
| 12> end
| 13>
| 14>
| 15>                          ****END OF INPUT****

CARTESIAN COORDINATES (ANGSTROEM)
---------------------------------
  C      2.234473   -2.989754   -2.397622
  N      2.756799   -2.945553   -3.765029
  C     -1.104325    0.251374   -2.860056
  C     -0.711893    0.842517   -4.218344
  H      0.154626    1.499800   -4.130909
  H     -1.538134    1.459222   -4.582671
  C     -0.397624   -0.205875   -5.288018
  C      1.987208   -2.590451   -4.818975
  C      0.743221   -3.017493   -4.913524
  N      2.499636   -1.848598   -5.803241
  H      3.309780   -1.292818   -5.558947
  H      1.801025   -1.304298   -6.289129
  H      3.716116   -2.628797   -3.829533
  H      0.395828   -3.627747   -4.185024
  H      0.039201   -2.454383   -5.371367
  F      0.617165   -0.005348   -5.998273
  O     -1.133173   -1.221380   -5.341465
  C      2.191199   -1.619503   -1.715492
  H      2.872783   -3.666368   -1.828014
  H      1.246188   -3.447444   -2.407842
  C      1.298729   -0.554314   -2.359773
  H      1.872917   -1.787955   -0.681310
  H      3.216809   -1.238432   -1.654428
  C     -0.196255   -0.863365   -2.325763
  H      1.612531   -0.371346   -3.393065
  H      1.480944    0.388638   -1.834444
  H     -0.404105   -1.761825   -2.909448
  H     -0.490439   -1.087880   -1.294131
  H     -1.143842    1.066711   -2.129680
  H     -2.114401   -0.156834   -2.930323

 Total Charge           Charge          ....    0
 Multiplicity           Mult            ....    1
 Number of Electrons    NEL             ....  102
 Basis Dimension        Dim             ....  402

ORBITAL ENERGIES
----------------

  NO   OCC          E(Eh)            E(eV)
   0   2.0000     -25.348315      -689.7627
   1   2.0000     -19.656863      -534.8904
   2   2.0000     -14.755528      -401.5183
   3   2.0000     -14.747974      -401.3128
   4   2.0000     -10.748088      -292.4703
   5   2.0000     -10.586911      -288.0845
   6   2.0000     -10.585552      -288.0475
   7   2.0000     -10.580158      -287.9007
   8   2.0000     -10.565392      -287.4989
   9   2.0000     -10.553986      -287.1886
  10   2.0000     -10.552806      -287.1565
  11   2.0000     -10.547154      -287.0027
  12   2.0000     -10.449710      -284.3511
  13   2.0000      -1.466424       -39.9034
  14   2.0000      -1.157755       -31.5041
  15   2.0000      -1.059298       -28.8250
  16   2.0000      -0.975213       -26.5369
  17   2.0000      -0.917316       -24.9614
  18   2.0000      -0.876775       -23.8583
  19   2.0000      -0.824413       -22.4334
  20   2.0000      -0.799182       -21.7468
  21   2.0000      -0.780442       -21.2369
  22   2.0000      -0.751285       -20.4435
  23   2.0000      -0.701211       -19.0809
  24   2.0000      -0.676402       -18.4058
  25   2.0000      -0.660200       -17.9649
  26   2.0000      -0.636104       -17.3093
  27   2.0000      -0.626650       -17.0520
  28   2.0000      -0.608042       -16.5457
  29   2.0000      -0.602716       -16.4007
  30   2.0000      -0.570335       -15.5196
  31   2.0000      -0.556552       -15.1445
  32   2.0000      -0.542359       -14.7583
  33   2.0000      -0.522662       -14.2224
  34   2.0000      -0.515935       -14.0393
  35   2.0000      -0.495203       -13.4752
  36   2.0000      -0.486108       -13.2277
  37   2.0000      -0.477993       -13.0068
  38   2.0000      -0.469110       -12.7651
  39   2.0000      -0.451299       -12.2805
  40   2.0000      -0.442516       -12.0415
  41   2.0000      -0.430770       -11.7219
  42   2.0000      -0.428144       -11.6504
  43   2.0000      -0.419758       -11.4222
  44   2.0000      -0.413292       -11.2462
  45   2.0000      -0.392462       -10.6794
  46   2.0000      -0.384123       -10.4525
  47   2.0000      -0.379785       -10.3345
  48   2.0000      -0.359805        -9.7908
  49   2.0000      -0.307373        -8.3640
  50   2.0000      -0.216881        -5.9016
  51   0.0000      -0.000764        -0.0208
  52   0.0000       0.023681         0.6444
  53   0.0000       0.040006         1.0886
  54   0.0000       0.045249         1.2313
  55   0.0000       0.054640         1.4868

MULLIKEN ATOMIC CHARGES
-----------------------
   0 C :    0.791423
   1 N :   -0.419143
   2 C :    0.576654
   3 C :    0.146892
   4 H :    0.193831
   5 H :   -0.262387
   6 C :    0.687745
   7 C :    0.427280
   8 C :    0.885192
   9 N :    0.090542
  10 H :    0.062152
  11 H :   -0.166004
  12 H :   -0.197952
  13 H :   -0.036664
  14 H :   -0.862704
  15 F :   -0.434446
  16 O :   -0.689057
  17 C :    0.399811
  18 H :   -0.382827
  19 H :    0.022621
  20 C :   -0.002507
  21 H :    0.024590
  22 H :   -0.094884
  23 C :   -0.053412
  24 H :   -0.203198
  25 H :   -0.179591
  26 H :   -0.153952
  27 H :   -0.162912
  28 H :   -0.089808
  29 H :    0.082716
Sum of atomic charges:   -0.0000000

LOEWDIN ATOMIC CHARGES
----------------------
   0 C :    0.061498
   1 N :   -0.011468
   2 C :   -0.009326
   3 C :    0.057232
   4 H :    0.025095
   5 H :    0.040977
   6 C :    0.044867
   7 C :   -0.236198
   8 C :    0.192967
   9 N :    0.195540
  10 H :   -0.007562
  11 H :   -0.052914
  12 H :    0.012932
  13 H :   -0.084335
  14 H :   -0.160252
  15 F :   -0.049455
  16 O :   -0.130072
  17 C :   -0.017227
  18 H :    0.018850
  19 H :    0.006547
  20 C :   -0.026632
  21 H :    0.023021
  22 H :    0.018630
  23 C :   -0.019536
  24 H :   -0.000848
  25 H :    0.025052
  26 H :   -0.003605
  27 H :    0.029215
  28 H :    0.026843
  29 H :    0.030164

  Mayer bond orders larger than 0.100000
B(  0-C ,  1-N ) :   0.9376 B(  0-C ,  8-C ) :   0.1030 B(  0-C , 17-C ) :   1.0646
B(  0-C , 18-H ) :   0.8357 B(  0-C , 19-H ) :   0.7443 B(  0-C , 21-H ) :   0.1547
B(  0-C , 22-H ) :   0.1204 B(  1-N ,  7-C ) :   0.9647 B(  1-N ,  8-C ) :   0.2992
B(  1-N ,  9-N ) :   0.1388 B(  1-N , 12-H ) :   1.0936 B(  1-N , 18-H ) :   0.2063
B(  1-N , 19-H ) :   0.1185 B(  2-C ,  3-C ) :   1.1763 B(  2-C ,  4-H ) :   0.1001
B(  2-C ,  5-H ) :   0.1539 B(  2-C , 23-C ) :   1.2690 B(  2-C , 28-H ) :   0.7758
B(  2-C , 29-H ) :   0.6362 B(  3-C ,  4-H ) :   0.8073 B(  3-C ,  5-H ) :   0.8061
B(  3-C ,  6-C ) :   1.1856 B(  3-C , 23-C ) :   0.1047 B(  3-C , 28-H ) :   0.1503
B(  4-H ,  5-H ) :  -0.1229 B(  4-H ,  6-C ) :   0.1636 B(  5-H ,  6-C ) :   0.2118
B(  6-C , 14-H ) :   0.1355 B(  6-C , 15-F ) :   0.5159 B(  6-C , 16-O ) :   1.6991
B(  7-C ,  8-C ) :   1.8536 B(  7-C ,  9-N ) :   0.7706 B(  7-C , 13-H ) :   0.3940
B(  7-C , 14-H ) :   0.1301 B(  8-C ,  9-N ) :   0.2172 B(  8-C , 13-H ) :   0.3187
B(  8-C , 14-H ) :   0.2114 B(  9-N , 10-H ) :   0.8480 B(  9-N , 11-H ) :   0.9450
B( 13-H , 14-H ) :  -0.1992 B( 14-H , 16-O ) :   0.2465 B( 17-C , 19-H ) :   0.1260
B( 17-C , 20-C ) :   1.2323 B( 17-C , 21-H ) :   0.7919 B( 17-C , 22-H ) :   0.7254
B( 18-H , 19-H ) :  -0.1891 B( 20-C , 21-H ) :   0.1604 B( 20-C , 22-H ) :   0.2459
B( 20-C , 23-C ) :   1.2814 B( 20-C , 24-H ) :   0.9465 B( 20-C , 25-H ) :   0.8316
B( 20-C , 26-H ) :   0.1533 B( 20-C , 27-H ) :   0.2405 B( 21-H , 22-H ) :  -0.1423
B( 23-C , 24-H ) :   0.1625 B( 23-C , 25-H ) :   0.2216 B( 23-C , 26-H ) :   0.9771
B( 23-C , 27-H ) :   0.7658 B( 23-C , 28-H ) :   0.1652 B( 23-C , 29-H ) :   0.2538
B( 25-H , 27-H ) :   0.1043 B( 28-H , 29-H ) :  -0.1554

Dispersion correction           -0.001681020
FINAL SINGLE POINT ENERGY      -636.981912900255

DIPOLE MOMENT
-------------
                                X             Y             Z
Electronic contribution:     -1.50451       2.17202     -13.50717
Nuclear contribution   :      2.00823      -0.28769      14.57028
                        -----------------------------------------
Total Dipole Moment    :      0.50371       1.88433       1.06311
                        -----------------------------------------
Magnitude (a.u.)       :      2.22141
Magnitude (Debye)      :      5.64637

Rotational constants in cm-1:     0.033070     0.023715     0.016943
Rotational constants in MHz :   991.423248   710.957140   507.940500

                             ****ORCA TERMINATED NORMALLY****
TOTAL RUN TIME: 0 days 0 hours 2 minutes 37 seconds 13 msec
