                         Program Version 5.0.0 -  RELEASE  -
|  1> !wB97X-D3 RIJCOSX def2-SVPD def2/J TightSCF
|  2> *xyz -1 1
|  3> C          4.26524        2.50052       -0.79589
|  4> C          4.98224        1.65026        0.24742
|  5> O          4.36806        1.38927        1.31371
|  6> O          6.12892        1.23351       -0.04562
|  7> H          4.90412        2.63966       -1.64287
|  8> H          4.02079        3.45265       -0.37328
|  9> H          3.36773        2.00584       -1.10356
| 10> *
| 11> %MaxCore 64000
| 12> %pal nprocs 8
| 13> end
| 14> %scf
| 15>   MaxIter 150
| 16> end
| 17>
| 18>
| 19>                          ****END OF INPUT****

CARTESIAN COORDINATES (ANGSTROEM)
---------------------------------
  C      4.265240    2.500520   -0.795890
  C      4.982240    1.650260    0.247420
  O      4.368060    1.389270    1.313710
  O      6.128920    1.233510   -0.045620
  H      4.904120    2.639660   -1.642870
  H      4.020790    3.452650   -0.373280
  H      3.367730    2.005840   -1.103560

 Total Charge           Charge          ....   -1
 Multiplicity           Mult            ....    1
 Number of Electrons    NEL             ....   32
 Basis Dimension        Dim             ....  110

ORBITAL ENERGIES
----------------

  NO   OCC          E(Eh)            E(eV)
   0   2.0000     -18.978333      -516.4267
   1   2.0000     -18.977295      -516.3985
   2   2.0000     -10.175471      -276.8886
   3   2.0000     -10.102006      -274.8896
   4   2.0000      -0.924292       -25.1513
   5   2.0000      -0.827878       -22.5277
   6   2.0000      -0.653767       -17.7899
   7   2.0000      -0.406250       -11.0546
   8   2.0000      -0.361937        -9.8488
   9   2.0000      -0.346434        -9.4269
  10   2.0000      -0.326599        -8.8872
  11   2.0000      -0.282715        -7.6931
  12   2.0000      -0.263947        -7.1824
  13   2.0000      -0.140067        -3.8114
  14   2.0000      -0.136108        -3.7037
  15   2.0000      -0.121026        -3.2933
  16   0.0000       0.239463         6.5161
  17   0.0000       0.273843         7.4517
  18   0.0000       0.297204         8.0873
  19   0.0000       0.309567         8.4237
  20   0.0000       0.334969         9.1150

MULLIKEN ATOMIC CHARGES
-----------------------
   0 C :    0.429818
   1 C :    0.045854
   2 O :   -0.677264
   3 O :   -0.652066
   4 H :   -0.064104
   5 H :   -0.040875
   6 H :   -0.041362
Sum of atomic charges:   -1.0000000

LOEWDIN ATOMIC CHARGES
----------------------
   0 C :    0.136351
   1 C :   -0.335140
   2 O :   -0.349114
   3 O :   -0.344725
   4 H :   -0.040690
   5 H :   -0.033968
   6 H :   -0.032714

  Mayer bond orders larger than 0.100000
B(  0-C ,  1-C ) :   1.2056 B(  0-C ,  4-H ) :   0.8773 B(  0-C ,  5-H ) :   0.8233
B(  0-C ,  6-H ) :   0.8286 B(  1-C ,  2-O ) :   1.5229 B(  1-C ,  3-O ) :   1.5278
B(  1-C ,  4-H ) :   0.2346 B(  1-C ,  5-H ) :   0.1585 B(  1-C ,  6-H ) :   0.1538

Dispersion correction           -0.000903673
FINAL SINGLE POINT ENERGY      -228.305507722848

DIPOLE MOMENT
-------------
                                X             Y             Z
Electronic contribution:      1.67381      -1.98148       2.40703
Nuclear contribution   :     -2.34880       2.82033      -3.41655
                        -----------------------------------------
Total Dipole Moment    :     -0.67499       0.83884      -1.00952
                        -----------------------------------------
Magnitude (a.u.)       :      1.47594
Magnitude (Debye)      :      3.75154

Rotational constants in cm-1:     0.393413     0.334516     0.186969
Rotational constants in MHz : 11794.232386 10028.538646  5605.197050

                             ****ORCA TERMINATED NORMALLY****
TOTAL RUN TIME: 0 days 0 hours 0 minutes 6 seconds 303 msec
