                         Program Version 5.0.0 -  RELEASE  -
|  1> !wB97X-D3 RIJCOSX def2-SVPD def2/J TightSCF
|  2> *xyz 1 1
|  3> C          3.91385       -1.65829        3.01513
|  4> N          5.03927       -0.90115        2.49282
|  5> C          6.21038       -1.41726        2.17824
|  6> N          6.53591       -2.67712        2.55608
|  7> N          7.07675       -0.70082        1.47891
|  8> H          7.95464       -1.12155        1.20755
|  9> H          6.75616        0.10664        0.96028
| 10> H          4.84217        0.01761        2.11519
| 11> H          5.99388       -3.12692        3.28278
| 12> H          7.49844       -2.97548        2.46878
| 13> H          3.08844       -0.99893        3.18495
| 14> H          4.19412       -2.12366        3.93697
| 15> H          3.63051       -2.40965        2.30798
| 16> *
| 17> %MaxCore 64000
| 18> %pal nprocs 8
| 19> end
| 20> %scf
| 21>   MaxIter 150
| 22> end
| 23>
| 24>
| 25>                          ****END OF INPUT****

CARTESIAN COORDINATES (ANGSTROEM)
---------------------------------
  C      3.913850   -1.658290    3.015130
  N      5.039270   -0.901150    2.492820
  C      6.210380   -1.417260    2.178240
  N      6.535910   -2.677120    2.556080
  N      7.076750   -0.700820    1.478910
  H      7.954640   -1.121550    1.207550
  H      6.756160    0.106640    0.960280
  H      4.842170    0.017610    2.115190
  H      5.993880   -3.126920    3.282780
  H      7.498440   -2.975480    2.468780
  H      3.088440   -0.998930    3.184950
  H      4.194120   -2.123660    3.936970
  H      3.630510   -2.409650    2.307980

 Total Charge           Charge          ....    1
 Multiplicity           Mult            ....    1
 Number of Electrons    NEL             ....   40
 Basis Dimension        Dim             ....  164

ORBITAL ENERGIES
----------------

  NO   OCC          E(Eh)            E(eV)
   0   2.0000     -14.670777      -399.2121
   1   2.0000     -14.666262      -399.0893
   2   2.0000     -14.665245      -399.0616
   3   2.0000     -10.634915      -289.3907
   4   2.0000     -10.496487      -285.6239
   5   2.0000      -1.333956       -36.2988
   6   2.0000      -1.221263       -33.2322
   7   2.0000      -1.204270       -32.7699
   8   2.0000      -1.020094       -27.7582
   9   2.0000      -0.936862       -25.4933
  10   2.0000      -0.897149       -24.4127
  11   2.0000      -0.862579       -23.4720
  12   2.0000      -0.798412       -21.7259
  13   2.0000      -0.792403       -21.5624
  14   2.0000      -0.762531       -20.7495
  15   2.0000      -0.746821       -20.3220
  16   2.0000      -0.695073       -18.9139
  17   2.0000      -0.679410       -18.4877
  18   2.0000      -0.579640       -15.7728
  19   2.0000      -0.554254       -15.0820
  20   0.0000      -0.094556        -2.5730
  21   0.0000      -0.080389        -2.1875
  22   0.0000      -0.040553        -1.1035
  23   0.0000      -0.038651        -1.0517
  24   0.0000      -0.010769        -0.2930

MULLIKEN ATOMIC CHARGES
-----------------------
   0 C :    0.959551
   1 N :   -0.558308
   2 C :    1.330368
   3 N :   -0.110654
   4 N :   -0.115364
   5 H :   -0.001958
   6 H :   -0.009628
   7 H :   -0.180788
   8 H :   -0.024621
   9 H :   -0.058598
  10 H :   -0.218691
  11 H :   -0.023141
  12 H :    0.011831
Sum of atomic charges:    1.0000000

LOEWDIN ATOMIC CHARGES
----------------------
   0 C :    0.252123
   1 N :    0.008471
   2 C :   -0.025595
   3 N :    0.273799
   4 N :    0.254295
   5 H :    0.042786
   6 H :    0.044700
   7 H :    0.061528
   8 H :    0.020746
   9 H :    0.038101
  10 H :    0.016153
  11 H :    0.000905
  12 H :    0.011986

  Mayer bond orders larger than 0.100000
B(  0-C ,  1-N ) :   0.9003 B(  0-C ,  7-H ) :  -0.1021 B(  0-C , 10-H ) :   0.8753
B(  0-C , 11-H ) :   0.8398 B(  0-C , 12-H ) :   0.8490 B(  1-N ,  2-C ) :   1.0660
B(  1-N ,  3-N ) :   0.2093 B(  1-N ,  4-N ) :   0.2158 B(  1-N ,  7-H ) :   1.2769
B(  1-N , 10-H ) :   0.1617 B(  1-N , 11-H ) :   0.1490 B(  1-N , 12-H ) :   0.1141
B(  2-C ,  3-N ) :   0.9396 B(  2-C ,  4-N ) :   0.8613 B(  2-C ,  6-H ) :  -0.1246
B(  2-C ,  7-H ) :  -0.2037 B(  2-C ,  8-H ) :  -0.1149 B(  3-N ,  4-N ) :   0.1374
B(  3-N ,  8-H ) :   1.0813 B(  3-N ,  9-H ) :   1.1880 B(  4-N ,  5-H ) :   1.1432
B(  4-N ,  6-H ) :   1.1579 B(  5-H ,  6-H ) :  -0.1455 B(  8-H ,  9-H ) :  -0.1571

Dispersion correction           -0.002371491
FINAL SINGLE POINT ENERGY      -244.856143331114

DIPOLE MOMENT
-------------
                                X             Y             Z
Electronic contribution:      2.43138       0.85340      -0.96593
Nuclear contribution   :     -2.01473      -0.74897       0.69347
                        -----------------------------------------
Total Dipole Moment    :      0.41665       0.10444      -0.27246
                        -----------------------------------------
Magnitude (a.u.)       :      0.50866
Magnitude (Debye)      :      1.29291

Rotational constants in cm-1:     0.313249     0.134439     0.096258
Rotational constants in MHz :  9390.961986  4030.377472  2885.728233

                             ****ORCA TERMINATED NORMALLY****
TOTAL RUN TIME: 0 days 0 hours 0 minutes 13 seconds 688 msec
