                         Program Version 5.0.0 -  RELEASE  -
|  1> !wB97X-D3 RIJCOSX def2-SVPD def2/J TightSCF xyzfile
|  2>
|  3> *xyzfile 0 1 B.xyz
|  4>
|  5> %MaxCore 64000
|  6>
|  7> %pal nprocs 18
|  8> end
|  9>
| 10> %scf
| 11>   MaxIter 150
| 12> end
| 13>
| 14>
| 15>                          ****END OF INPUT****

CARTESIAN COORDINATES (ANGSTROEM)
---------------------------------
  C      3.913853   -1.658291    3.015134
  N      5.039266   -0.901154    2.492821
  C      4.084215    1.742081   -2.114724
  C      4.265245    2.500518   -0.795890
  H      4.868534    3.392674   -0.981134
  H      3.307640    2.824571   -0.387809
  C      4.982240    1.650257    0.247422
  C      6.210384   -1.417261    2.178244
  N      6.535913   -2.677122    2.556078
  N      7.076754   -0.700820    1.478906
  H      7.954643   -1.121554    1.207554
  H      6.756161    0.106637    0.960278
  H      4.842168    0.017609    2.115191
  H      5.993876   -3.126918    3.282784
  H      7.498441   -2.975482    2.468776
  O      4.368065    1.389270    1.313706
  O      6.128919    1.233512   -0.045620
  C      3.139159   -2.376572    1.910609
  H      3.267235   -0.939401    3.520693
  H      4.247195   -2.355095    3.790065
  C      1.997274    0.430918   -1.399218
  C      3.412746    0.376886   -1.965497
  H      4.047407   -0.246590   -1.326706
  H      3.390774   -0.118719   -2.942839
  H      5.068475    1.598504   -2.565728
  H      3.503356    2.363939   -2.804565
  C      2.399946   -1.389579    1.009490
  H      2.440750   -3.087118    2.362976
  H      3.844475   -2.970462    1.318677
  C      2.070177   -1.936705   -0.372401
  H      1.481611   -1.061542    1.509912
  H      3.008628   -0.490001    0.897451
  C      1.322238   -0.935775   -1.256413
  H      1.472747   -2.850902   -0.283997
  H      3.003539   -2.234041   -0.862535
  H      1.376444    1.058920   -2.047420
  H      2.015341    0.929780   -0.426535
  H      0.316648   -0.787213   -0.848278
  H      1.185611   -1.379252   -2.248613

 Total Charge           Charge          ....    0
 Multiplicity           Mult            ....    1
 Number of Electrons    NEL             ....  126
 Basis Dimension        Dim             ....  510

ORBITAL ENERGIES
----------------

  NO   OCC          E(Eh)            E(eV)
   0   2.0000     -19.166606      -521.5499
   1   2.0000     -19.165330      -521.5151
   2   2.0000     -14.505990      -394.7281
   3   2.0000     -14.469924      -393.7467
   4   2.0000     -14.464306      -393.5938
   5   2.0000     -10.454359      -284.4776
   6   2.0000     -10.353758      -281.7401
   7   2.0000     -10.348532      -281.5979
   8   2.0000     -10.297959      -280.2217
   9   2.0000     -10.275796      -279.6186
  10   2.0000     -10.275180      -279.6019
  11   2.0000     -10.271511      -279.5020
  12   2.0000     -10.262512      -279.2572
  13   2.0000     -10.261071      -279.2179
  14   2.0000     -10.260285      -279.1965
  15   2.0000     -10.250790      -278.9382
  16   2.0000      -1.154846       -31.4250
  17   2.0000      -1.116779       -30.3891
  18   2.0000      -1.044918       -28.4337
  19   2.0000      -1.029567       -28.0159
  20   2.0000      -1.017134       -27.6776
  21   2.0000      -0.923678       -25.1346
  22   2.0000      -0.898676       -24.4542
  23   2.0000      -0.869234       -23.6531
  24   2.0000      -0.828201       -22.5365
  25   2.0000      -0.788953       -21.4685
  26   2.0000      -0.770524       -20.9670
  27   2.0000      -0.739991       -20.1362
  28   2.0000      -0.723626       -19.6909
  29   2.0000      -0.710208       -19.3257
  30   2.0000      -0.681082       -18.5332
  31   2.0000      -0.674888       -18.3646
  32   2.0000      -0.643278       -17.5045
  33   2.0000      -0.627399       -17.0724
  34   2.0000      -0.622514       -16.9395
  35   2.0000      -0.602494       -16.3947
  36   2.0000      -0.574149       -15.6234
  37   2.0000      -0.569030       -15.4841
  38   2.0000      -0.562441       -15.3048
  39   2.0000      -0.556983       -15.1563
  40   2.0000      -0.542915       -14.7735
  41   2.0000      -0.524474       -14.2717
  42   2.0000      -0.522432       -14.2161
  43   2.0000      -0.517147       -14.0723
  44   2.0000      -0.507453       -13.8085
  45   2.0000      -0.500090       -13.6081
  46   2.0000      -0.483434       -13.1549
  47   2.0000      -0.470119       -12.7926
  48   2.0000      -0.463372       -12.6090
  49   2.0000      -0.451761       -12.2931
  50   2.0000      -0.444166       -12.0864
  51   2.0000      -0.436220       -11.8701
  52   2.0000      -0.422007       -11.4834
  53   2.0000      -0.413950       -11.2641
  54   2.0000      -0.409648       -11.1471
  55   2.0000      -0.403413       -10.9774
  56   2.0000      -0.392106       -10.6697
  57   2.0000      -0.387352       -10.5404
  58   2.0000      -0.380212       -10.3461
  59   2.0000      -0.369017       -10.0415
  60   2.0000      -0.328646        -8.9429
  61   2.0000      -0.317966        -8.6523
  62   2.0000      -0.314268        -8.5517
  63   0.0000       0.059153         1.6096
  64   0.0000       0.075753         2.0613
  65   0.0000       0.088967         2.4209
  66   0.0000       0.103463         2.8154
  67   0.0000       0.110261         3.0004

MULLIKEN ATOMIC CHARGES
-----------------------
   0 C :    1.187923
   1 N :    0.046216
   2 C :    0.374274
   3 C :    0.282533
   4 H :   -0.090372
   5 H :    0.138676
   6 C :    0.238421
   7 C :    1.267059
   8 N :    0.019361
   9 N :    0.318274
  10 H :   -0.067937
  11 H :   -0.383699
  12 H :   -0.959238
  13 H :   -0.021380
  14 H :   -0.155165
  15 O :   -0.685204
  16 O :   -0.608246
  17 C :    0.293965
  18 H :   -0.242125
  19 H :   -0.250365
  20 C :   -0.126700
  21 C :   -0.149218
  22 H :   -0.012241
  23 H :   -0.159653
  24 H :    0.021019
  25 H :   -0.115779
  26 C :    0.599715
  27 H :   -0.095734
  28 H :   -0.037557
  29 C :   -0.012495
  30 H :   -0.014004
  31 H :   -0.870823
  32 C :    0.672040
  33 H :   -0.375069
  34 H :    0.129491
  35 H :   -0.371585
  36 H :    0.193356
  37 H :    0.021812
  38 H :    0.000456
Sum of atomic charges:    0.0000000

LOEWDIN ATOMIC CHARGES
----------------------
   0 C :    0.075608
   1 N :    0.074499
   2 C :   -0.024069
   3 C :    0.032568
   4 H :    0.029913
   5 H :    0.015474
   6 C :   -0.185070
   7 C :   -0.023184
   8 N :    0.241242
   9 N :    0.279354
  10 H :    0.025603
  11 H :   -0.108978
  12 H :   -0.080787
  13 H :   -0.005318
  14 H :    0.015417
  15 O :   -0.249102
  16 O :   -0.238303
  17 C :   -0.016246
  18 H :    0.041585
  19 H :    0.007463
  20 C :   -0.032605
  21 C :   -0.031704
  22 H :    0.011722
  23 H :    0.025751
  24 H :    0.022463
  25 H :    0.020156
  26 C :   -0.027130
  27 H :    0.026337
  28 H :    0.017960
  29 C :   -0.041573
  30 H :    0.039728
  31 H :   -0.021190
  32 C :   -0.034050
  33 H :    0.021706
  34 H :    0.017608
  35 H :    0.024903
  36 H :    0.009706
  37 H :    0.021705
  38 H :    0.020837

  Mayer bond orders larger than 0.100000
B(  0-C ,  1-N ) :   0.8490 B(  0-C , 12-H ) :  -0.4588 B(  0-C , 17-C ) :   1.0627
B(  0-C , 18-H ) :   0.6754 B(  0-C , 19-H ) :   0.7980 B(  0-C , 26-C ) :   0.1168
B(  1-N ,  7-C ) :   1.1519 B(  1-N ,  8-N ) :   0.1969 B(  1-N , 12-H ) :   1.2396
B(  1-N , 18-H ) :   0.2232 B(  1-N , 19-H ) :   0.1059 B(  2-C ,  3-C ) :   1.1630
B(  2-C ,  4-H ) :   0.1543 B(  2-C , 21-C ) :   1.2335 B(  2-C , 24-H ) :   0.6941
B(  2-C , 25-H ) :   0.8324 B(  3-C ,  4-H ) :   0.6944 B(  3-C ,  5-H ) :   0.7572
B(  3-C ,  6-C ) :   1.1565 B(  3-C , 24-H ) :   0.1161 B(  3-C , 25-H ) :   0.1420
B(  4-H ,  6-C ) :   0.2580 B(  5-H ,  6-C ) :   0.2314 B(  6-C , 15-O ) :   1.4180
B(  6-C , 16-O ) :   1.3446 B(  7-C ,  8-N ) :   0.8711 B(  7-C ,  9-N ) :   0.9521
B(  7-C , 11-H ) :  -0.2245 B(  7-C , 12-H ) :  -0.5914 B(  8-N ,  9-N ) :   0.1246
B(  8-N , 13-H ) :   1.0531 B(  8-N , 14-H ) :   1.2123 B(  9-N , 10-H ) :   1.1486
B(  9-N , 11-H ) :   1.1400 B( 10-H , 11-H ) :  -0.2326 B( 11-H , 16-O ) :   0.1523
B( 12-H , 15-O ) :   0.2702 B( 12-H , 18-H ) :   0.1523 B( 13-H , 14-H ) :  -0.1874
B( 15-O , 31-H ) :   0.1010 B( 17-C , 19-H ) :   0.1617 B( 17-C , 26-C ) :   1.1047
B( 17-C , 27-H ) :   0.9048 B( 17-C , 28-H ) :   0.9007 B( 17-C , 30-H ) :   0.1243
B( 18-H , 19-H ) :  -0.2049 B( 20-C , 21-C ) :   1.2044 B( 20-C , 22-H ) :   0.1021
B( 20-C , 23-H ) :   0.1473 B( 20-C , 32-C ) :   1.1423 B( 20-C , 35-H ) :   1.0433
B( 20-C , 36-H ) :   0.8204 B( 20-C , 37-H ) :   0.2582 B( 20-C , 38-H ) :   0.1382
B( 21-C , 22-H ) :   0.9418 B( 21-C , 23-H ) :   0.8939 B( 21-C , 24-H ) :   0.2276
B( 21-C , 25-H ) :   0.1765 B( 21-C , 35-H ) :   0.1204 B( 21-C , 36-H ) :   0.1020
B( 24-H , 25-H ) :  -0.1092 B( 26-C , 27-H ) :   0.1439 B( 26-C , 29-C ) :   1.2395
B( 26-C , 30-H ) :   0.6466 B( 26-C , 31-H ) :   0.2968 B( 26-C , 33-H ) :   0.1011
B( 26-C , 34-H ) :   0.1543 B( 27-H , 31-H ) :   0.1180 B( 29-C , 31-H ) :   0.1234
B( 29-C , 32-C ) :   1.1083 B( 29-C , 33-H ) :   1.0471 B( 29-C , 34-H ) :   0.8247
B( 29-C , 37-H ) :   0.1093 B( 29-C , 38-H ) :   0.2134 B( 30-H , 31-H ) :   0.2874
B( 31-H , 36-H ) :   0.1111 B( 32-C , 37-H ) :   0.6851 B( 32-C , 38-H ) :   0.7077
B( 37-H , 38-H ) :  -0.1010

Dispersion correction           -0.020324763
FINAL SINGLE POINT ENERGY      -747.120984570319

DIPOLE MOMENT
-------------
                                X             Y             Z
Electronic contribution:     12.28287       3.27365       7.68619
Nuclear contribution   :    -11.44764      -6.21818      -6.18483
                        -----------------------------------------
Total Dipole Moment    :      0.83523      -2.94453       1.50136
                        -----------------------------------------
Magnitude (a.u.)       :      3.40910
Magnitude (Debye)      :      8.66524

Rotational constants in cm-1:     0.020281     0.013510     0.009451
Rotational constants in MHz :   608.005987   405.034308   283.324538

                             ****ORCA TERMINATED NORMALLY****
TOTAL RUN TIME: 0 days 0 hours 1 minutes 50 seconds 187 msec
