                         Program Version 5.0.0 -  RELEASE  -
|  1> !wB97X-D3 RIJCOSX def2-SVPD def2/J TightSCF
|  2> *xyz 0 1
|  3> C          4.26524        2.50052       -0.79589
|  4> C          4.98224        1.65026        0.24742
|  5> F          4.36806        1.38927        1.31371
|  6> O          6.12892        1.23351       -0.04562
|  7> H          4.90412        2.63966       -1.64287
|  8> H          4.02079        3.45265       -0.37328
|  9> H          3.36773        2.00584       -1.10356
| 10> *
| 11> %MaxCore 64000
| 12> %pal nprocs 8
| 13> end
| 14> %scf
| 15>   MaxIter 150
| 16> end
| 17>
| 18>
| 19>                          ****END OF INPUT****

CARTESIAN COORDINATES (ANGSTROEM)
---------------------------------
  C      4.265240    2.500520   -0.795890
  C      4.982240    1.650260    0.247420
  F      4.368060    1.389270    1.313710
  O      6.128920    1.233510   -0.045620
  H      4.904120    2.639660   -1.642870
  H      4.020790    3.452650   -0.373280
  H      3.367730    2.005840   -1.103560

 Total Charge           Charge          ....    0
 Multiplicity           Mult            ....    1
 Number of Electrons    NEL             ....   32
 Basis Dimension        Dim             ....  110

ORBITAL ENERGIES
----------------

  NO   OCC          E(Eh)            E(eV)
   0   2.0000     -24.877371      -676.9477
   1   2.0000     -19.257415      -524.0209
   2   2.0000     -10.480860      -285.1987
   3   2.0000     -10.318558      -280.7822
   4   2.0000      -1.426499       -38.8170
   5   2.0000      -1.145115       -31.1602
   6   2.0000      -0.885826       -24.1046
   7   2.0000      -0.769463       -20.9382
   8   2.0000      -0.660477       -17.9725
   9   2.0000      -0.654906       -17.8209
  10   2.0000      -0.609772       -16.5927
  11   2.0000      -0.547593       -14.9008
  12   2.0000      -0.535604       -14.5745
  13   2.0000      -0.506459       -13.7815
  14   2.0000      -0.457380       -12.4459
  15   2.0000      -0.395456       -10.7609
  16   0.0000       0.053471         1.4550
  17   0.0000       0.082300         2.2395
  18   0.0000       0.123395         3.3578
  19   0.0000       0.156561         4.2602
  20   0.0000       0.164200         4.4681

MULLIKEN ATOMIC CHARGES
-----------------------
   0 C :    0.294156
   1 C :    0.441603
   2 F :   -0.373895
   3 O :   -0.465603
   4 H :   -0.013486
   5 H :    0.057598
   6 H :    0.059627
Sum of atomic charges:    0.0000000

LOEWDIN ATOMIC CHARGES
----------------------
   0 C :    0.207782
   1 C :   -0.024615
   2 F :   -0.041880
   3 O :   -0.145581
   4 H :    0.001785
   5 H :    0.000545
   6 H :    0.001964

  Mayer bond orders larger than 0.100000
B(  0-C ,  1-C ) :   1.2323 B(  0-C ,  4-H ) :   0.9122 B(  0-C ,  5-H ) :   0.8216
B(  0-C ,  6-H ) :   0.8241 B(  1-C ,  2-F ) :   0.7678 B(  1-C ,  3-O ) :   1.8559
B(  1-C ,  4-H ) :   0.1918 B(  1-C ,  5-H ) :   0.1135 B(  1-C ,  6-H ) :   0.1110

Dispersion correction           -0.000896073
FINAL SINGLE POINT ENERGY      -252.839109379019

DIPOLE MOMENT
-------------
                                X             Y             Z
Electronic contribution:      0.75305      -2.50561       4.31394
Nuclear contribution   :     -1.76261       3.13449      -4.58927
                        -----------------------------------------
Total Dipole Moment    :     -1.00955       0.62888      -0.27534
                        -----------------------------------------
Magnitude (a.u.)       :      1.22086
Magnitude (Debye)      :      3.10318

Rotational constants in cm-1:     0.370628     0.320375     0.177409
Rotational constants in MHz : 11111.155899  9604.607061  5318.597912

                             ****ORCA TERMINATED NORMALLY****
TOTAL RUN TIME: 0 days 0 hours 0 minutes 7 seconds 355 msec
