                         Program Version 5.0.0 -  RELEASE  -
|  1> !wB97X-D3 RIJCOSX def2-SVPD def2/J TightSCF
|  2> *xyz 0 1
|  3> C          3.91385       -1.65829        3.01513
|  4> C          5.03927       -0.90115        2.49282
|  5> C          6.21038       -1.41726        2.17824
|  6> N          6.53591       -2.67712        2.55608
|  7> N          7.07675       -0.70082        1.47891
|  8> H          7.95464       -1.12155        1.20755
|  9> H          6.75616        0.10664        0.96028
| 10> H          4.84217        0.01761        2.11519
| 11> H          5.99388       -3.12692        3.28278
| 12> H          7.49844       -2.97548        2.46878
| 13> H          3.08844       -0.99893        3.18495
| 14> H          4.19412       -2.12366        3.93697
| 15> H          3.63051       -2.40965        2.30798
| 16> *
| 17> %MaxCore 64000
| 18> %pal nprocs 8
| 19> end
| 20> %scf
| 21>   MaxIter 150
| 22> end
| 23>
| 24>
| 25>                          ****END OF INPUT****

CARTESIAN COORDINATES (ANGSTROEM)
---------------------------------
  C      3.913850   -1.658290    3.015130
  C      5.039270   -0.901150    2.492820
  C      6.210380   -1.417260    2.178240
  N      6.535910   -2.677120    2.556080
  N      7.076750   -0.700820    1.478910
  H      7.954640   -1.121550    1.207550
  H      6.756160    0.106640    0.960280
  H      4.842170    0.017610    2.115190
  H      5.993880   -3.126920    3.282780
  H      7.498440   -2.975480    2.468780
  H      3.088440   -0.998930    3.184950
  H      4.194120   -2.123660    3.936970
  H      3.630510   -2.409650    2.307980

 Total Charge           Charge          ....    0
 Multiplicity           Mult            ....    1
 Number of Electrons    NEL             ....   40
 Basis Dimension        Dim             ....  164

ORBITAL ENERGIES
----------------

  NO   OCC          E(Eh)            E(eV)
   0   2.0000     -14.439021      -392.9057
   1   2.0000     -14.434912      -392.7939
   2   2.0000     -10.330926      -281.1188
   3   2.0000     -10.253048      -278.9996
   4   2.0000     -10.210112      -277.8313
   5   2.0000      -1.069316       -29.0976
   6   2.0000      -0.976267       -26.5656
   7   2.0000      -0.863788       -23.5049
   8   2.0000      -0.764028       -20.7903
   9   2.0000      -0.687847       -18.7173
  10   2.0000      -0.642570       -17.4852
  11   2.0000      -0.611525       -16.6404
  12   2.0000      -0.571810       -15.5597
  13   2.0000      -0.524620       -14.2756
  14   2.0000      -0.513701       -13.9785
  15   2.0000      -0.474077       -12.9003
  16   2.0000      -0.457406       -12.4466
  17   2.0000      -0.434651       -11.8274
  18   2.0000      -0.362450        -9.8628
  19   2.0000      -0.246453        -6.7063
  20   0.0000       0.089363         2.4317
  21   0.0000       0.115817         3.1515
  22   0.0000       0.128257         3.4901
  23   0.0000       0.149784         4.0758
  24   0.0000       0.156837         4.2678

MULLIKEN ATOMIC CHARGES
-----------------------
   0 C :    0.749252
   1 C :   -0.656209
   2 C :    0.879584
   3 N :   -0.098822
   4 N :   -0.002063
   5 H :   -0.132220
   6 H :   -0.039187
   7 H :   -0.319930
   8 H :   -0.039583
   9 H :   -0.211273
  10 H :   -0.060635
  11 H :   -0.020263
  12 H :   -0.048651
Sum of atomic charges:   -0.0000000

LOEWDIN ATOMIC CHARGES
----------------------
   0 C :    0.080785
   1 C :   -0.075438
   2 C :   -0.228411
   3 N :    0.194796
   4 N :    0.166531
   5 H :   -0.007964
   6 H :    0.009242
   7 H :   -0.052348
   8 H :   -0.011552
   9 H :   -0.011440
  10 H :   -0.017169
  11 H :   -0.029469
  12 H :   -0.017564

  Mayer bond orders larger than 0.100000
B(  0-C ,  1-C ) :   1.1848 B(  0-C ,  7-H ) :   0.1773 B(  0-C , 10-H ) :   0.7804
B(  0-C , 11-H ) :   0.7171 B(  0-C , 12-H ) :   0.7652 B(  1-C ,  2-C ) :   1.6241
B(  1-C ,  3-N ) :   0.2472 B(  1-C ,  4-N ) :   0.3069 B(  1-C ,  7-H ) :   1.0151
B(  1-C , 10-H ) :   0.2693 B(  1-C , 11-H ) :   0.2669 B(  1-C , 12-H ) :   0.1501
B(  2-C ,  3-N ) :   0.8701 B(  2-C ,  4-N ) :   0.8619 B(  2-C ,  7-H ) :   0.1259
B(  2-C ,  9-H ) :  -0.1222 B(  3-N ,  8-H ) :   1.0466 B(  3-N ,  9-H ) :   1.2667
B(  4-N ,  5-H ) :   1.1253 B(  4-N ,  6-H ) :   1.1477 B(  5-H ,  6-H ) :  -0.1400
B(  8-H ,  9-H ) :  -0.1508

Dispersion correction           -0.002373163
FINAL SINGLE POINT ENERGY      -228.390826897991

DIPOLE MOMENT
-------------
                                X             Y             Z
Electronic contribution:      2.96690       0.36080      -1.01198
Nuclear contribution   :     -2.16157      -0.63191       0.72436
                        -----------------------------------------
Total Dipole Moment    :      0.80533      -0.27111      -0.28762
                        -----------------------------------------
Magnitude (a.u.)       :      0.89710
Magnitude (Debye)      :      2.28024

Rotational constants in cm-1:     0.318470     0.135474     0.097247
Rotational constants in MHz :  9547.495553  4061.405016  2915.385882

                             ****ORCA TERMINATED NORMALLY****
TOTAL RUN TIME: 0 days 0 hours 0 minutes 14 seconds 308 msec
