                         Program Version 5.0.0 -  RELEASE  -
|  1> !wB97X-D3 RIJCOSX def2-SVPD def2/J TightSCF
|  2> *xyz 0 1
|  3> C          4.26524        2.50052       -0.79589
|  4> C          4.98224        1.65026        0.24742
|  5> O          4.36806        1.38927        1.31371
|  6> F          6.12892        1.23351       -0.04562
|  7> H          4.90412        2.63966       -1.64287
|  8> H          4.02079        3.45265       -0.37328
|  9> H          3.36773        2.00584       -1.10356
| 10> *
| 11> %MaxCore 64000
| 12> %pal nprocs 8
| 13> end
| 14> %scf
| 15>   MaxIter 150
| 16> end
| 17>
| 18>
| 19>                          ****END OF INPUT****

CARTESIAN COORDINATES (ANGSTROEM)
---------------------------------
  C      4.265240    2.500520   -0.795890
  C      4.982240    1.650260    0.247420
  O      4.368060    1.389270    1.313710
  F      6.128920    1.233510   -0.045620
  H      4.904120    2.639660   -1.642870
  H      4.020790    3.452650   -0.373280
  H      3.367730    2.005840   -1.103560

 Total Charge           Charge          ....    0
 Multiplicity           Mult            ....    1
 Number of Electrons    NEL             ....   32
 Basis Dimension        Dim             ....  110

ORBITAL ENERGIES
----------------

  NO   OCC          E(Eh)            E(eV)
   0   2.0000     -24.877887      -676.9617
   1   2.0000     -19.257177      -524.0144
   2   2.0000     -10.481421      -285.2140
   3   2.0000     -10.318862      -280.7905
   4   2.0000      -1.428720       -38.8775
   5   2.0000      -1.142952       -31.1013
   6   2.0000      -0.886411       -24.1205
   7   2.0000      -0.770621       -20.9697
   8   2.0000      -0.661084       -17.9890
   9   2.0000      -0.656328       -17.8596
  10   2.0000      -0.610245       -16.6056
  11   2.0000      -0.548498       -14.9254
  12   2.0000      -0.534859       -14.5543
  13   2.0000      -0.506145       -13.7729
  14   2.0000      -0.453754       -12.3473
  15   2.0000      -0.396907       -10.8004
  16   0.0000       0.049952         1.3593
  17   0.0000       0.082286         2.2391
  18   0.0000       0.123538         3.3617
  19   0.0000       0.159360         4.3364
  20   0.0000       0.161437         4.3929

MULLIKEN ATOMIC CHARGES
-----------------------
   0 C :    0.278555
   1 C :    0.431896
   2 O :   -0.488292
   3 F :   -0.349972
   4 H :    0.007318
   5 H :    0.058937
   6 H :    0.061559
Sum of atomic charges:    0.0000000

LOEWDIN ATOMIC CHARGES
----------------------
   0 C :    0.208501
   1 C :   -0.023476
   2 O :   -0.147433
   3 F :   -0.041907
   4 H :   -0.010420
   5 H :    0.007014
   6 H :    0.007721

  Mayer bond orders larger than 0.100000
B(  0-C ,  1-C ) :   1.2515 B(  0-C ,  4-H ) :   0.8984 B(  0-C ,  5-H ) :   0.8235
B(  0-C ,  6-H ) :   0.8277 B(  1-C ,  2-O ) :   1.8244 B(  1-C ,  3-F ) :   0.8067
B(  1-C ,  4-H ) :   0.1374 B(  1-C ,  5-H ) :   0.1322 B(  1-C ,  6-H ) :   0.1261

Dispersion correction           -0.000908897
FINAL SINGLE POINT ENERGY      -252.838232432854

DIPOLE MOMENT
-------------
                                X             Y             Z
Electronic contribution:      3.64172      -2.76110       2.08468
Nuclear contribution   :     -3.58210       3.29544      -3.18468
                        -----------------------------------------
Total Dipole Moment    :      0.05962       0.53433      -1.10000
                        -----------------------------------------
Magnitude (a.u.)       :      1.22436
Magnitude (Debye)      :      3.11208

Rotational constants in cm-1:     0.368075     0.322590     0.177495
Rotational constants in MHz : 11034.605942  9670.991558  5321.154504

                             ****ORCA TERMINATED NORMALLY****
TOTAL RUN TIME: 0 days 0 hours 0 minutes 6 seconds 913 msec
