                         Program Version 5.0.0 -  RELEASE  -
|  1> !wB97X-D3 RIJCOSX def2-SVPD def2/J TightSCF
|  2> *xyz 0 1
|  3> C          3.91385       -1.65829        3.01513
|  4> N          5.03927       -0.90115        2.49282
|  5> C          6.21038       -1.41726        2.17824
|  6> C          6.53591       -2.67712        2.55608
|  7> N          7.07675       -0.70082        1.47891
|  8> H          7.95464       -1.12155        1.20755
|  9> H          6.75616        0.10664        0.96028
| 10> H          4.84217        0.01761        2.11519
| 11> H          5.99388       -3.12692        3.28278
| 12> H          7.49844       -2.97548        2.46878
| 13> H          3.08844       -0.99893        3.18495
| 14> H          4.19412       -2.12366        3.93697
| 15> H          3.63051       -2.40965        2.30798
| 16> *
| 17> %MaxCore 64000
| 18> %pal nprocs 8
| 19> end
| 20> %scf
| 21>   MaxIter 150
| 22> end
| 23>
| 24>
| 25>                          ****END OF INPUT****

CARTESIAN COORDINATES (ANGSTROEM)
---------------------------------
  C      3.913850   -1.658290    3.015130
  N      5.039270   -0.901150    2.492820
  C      6.210380   -1.417260    2.178240
  C      6.535910   -2.677120    2.556080
  N      7.076750   -0.700820    1.478910
  H      7.954640   -1.121550    1.207550
  H      6.756160    0.106640    0.960280
  H      4.842170    0.017610    2.115190
  H      5.993880   -3.126920    3.282780
  H      7.498440   -2.975480    2.468780
  H      3.088440   -0.998930    3.184950
  H      4.194120   -2.123660    3.936970
  H      3.630510   -2.409650    2.307980

 Total Charge           Charge          ....    0
 Multiplicity           Mult            ....    1
 Number of Electrons    NEL             ....   40
 Basis Dimension        Dim             ....  164

ORBITAL ENERGIES
----------------

  NO   OCC          E(Eh)            E(eV)
   0   2.0000     -14.444408      -393.0523
   1   2.0000     -14.439744      -392.9254
   2   2.0000     -10.340085      -281.3680
   3   2.0000     -10.314715      -280.6777
   4   2.0000     -10.201133      -277.5869
   5   2.0000      -1.084157       -29.5014
   6   2.0000      -0.996492       -27.1159
   7   2.0000      -0.828207       -22.5367
   8   2.0000      -0.804701       -21.8970
   9   2.0000      -0.675681       -18.3862
  10   2.0000      -0.655959       -17.8496
  11   2.0000      -0.623888       -16.9769
  12   2.0000      -0.555068       -15.1042
  13   2.0000      -0.547242       -14.8912
  14   2.0000      -0.514546       -14.0015
  15   2.0000      -0.483447       -13.1553
  16   2.0000      -0.470661       -12.8073
  17   2.0000      -0.461856       -12.5677
  18   2.0000      -0.346869        -9.4388
  19   2.0000      -0.253725        -6.9042
  20   0.0000       0.087932         2.3927
  21   0.0000       0.108904         2.9634
  22   0.0000       0.125233         3.4078
  23   0.0000       0.148777         4.0484
  24   0.0000       0.157245         4.2789

MULLIKEN ATOMIC CHARGES
-----------------------
   0 C :    0.978405
   1 N :   -0.508885
   2 C :    0.588407
   3 C :    0.428446
   4 N :   -0.038473
   5 H :   -0.017035
   6 H :   -0.138577
   7 H :   -0.331477
   8 H :   -0.152698
   9 H :   -0.527134
  10 H :   -0.309527
  11 H :    0.051398
  12 H :   -0.022851
Sum of atomic charges:   -0.0000000

LOEWDIN ATOMIC CHARGES
----------------------
   0 C :    0.205870
   1 N :   -0.059352
   2 C :   -0.239993
   3 C :    0.151324
   4 N :    0.173088
   5 H :    0.010803
   6 H :   -0.004084
   7 H :    0.020792
   8 H :   -0.118235
   9 H :   -0.106530
  10 H :   -0.011529
  11 H :   -0.014184
  12 H :   -0.007969

  Mayer bond orders larger than 0.100000
B(  0-C ,  1-N ) :   0.9040 B(  0-C ,  7-H ) :  -0.1218 B(  0-C , 10-H ) :   0.8871
B(  0-C , 11-H ) :   0.8260 B(  0-C , 12-H ) :   0.8432 B(  1-N ,  2-C ) :   1.0251
B(  1-N ,  3-C ) :   0.3228 B(  1-N ,  4-N ) :   0.1319 B(  1-N ,  7-H ) :   1.3520
B(  1-N , 10-H ) :   0.1547 B(  1-N , 11-H ) :   0.1038 B(  1-N , 12-H ) :   0.1321
B(  2-C ,  3-C ) :   1.7704 B(  2-C ,  4-N ) :   0.8858 B(  2-C ,  7-H ) :  -0.2166
B(  2-C ,  8-H ) :   0.2606 B(  2-C ,  9-H ) :   0.1714 B(  3-C ,  4-N ) :   0.2177
B(  3-C ,  8-H ) :   0.7303 B(  3-C ,  9-H ) :   0.8509 B(  4-N ,  5-H ) :   1.1180
B(  4-N ,  6-H ) :   1.1911 B(  5-H ,  6-H ) :  -0.1415

Dispersion correction           -0.002368308
FINAL SINGLE POINT ENERGY      -228.380360346181

DIPOLE MOMENT
-------------
                                X             Y             Z
Electronic contribution:      1.47563       2.00799      -1.15615
Nuclear contribution   :     -1.85843      -0.99162       0.73717
                        -----------------------------------------
Total Dipole Moment    :     -0.38280       1.01636      -0.41898
                        -----------------------------------------
Magnitude (a.u.)       :      1.16408
Magnitude (Debye)      :      2.95885

Rotational constants in cm-1:     0.336495     0.135025     0.098658
Rotational constants in MHz : 10087.870488  4047.943278  2957.678786

                             ****ORCA TERMINATED NORMALLY****
TOTAL RUN TIME: 0 days 0 hours 0 minutes 13 seconds 646 msec
