                         Program Version 5.0.0 -  RELEASE  -
|  1> !LC-BLYP RIJCOSX def2-TZVPD def2/J TightSCF
|  2> *xyz -1 1
|  3> C          4.08422        1.74208       -2.11472
|  4> C          4.26524        2.50052       -0.79589
|  5> H          4.86853        3.39267       -0.98113
|  6> H          3.30764        2.82457       -0.38781
|  7> C          4.98224        1.65026        0.24742
|  8> O          4.36806        1.38927        1.31371
|  9> O          6.12892        1.23351       -0.04562
| 10> H          3.57911        2.36849       -2.81997
| 11> H          3.50424        0.85965       -1.94198
| 12> H          5.04288        1.46841       -2.50327
| 13> *
| 14> %MaxCore 64000
| 15> %pal nprocs 8
| 16> end
| 17> %scf
| 18>   MaxIter 150
| 19> end
| 20>
| 21>
| 22>                          ****END OF INPUT****

CARTESIAN COORDINATES (ANGSTROEM)
---------------------------------
  C      4.084220    1.742080   -2.114720
  C      4.265240    2.500520   -0.795890
  H      4.868530    3.392670   -0.981130
  H      3.307640    2.824570   -0.387810
  C      4.982240    1.650260    0.247420
  O      4.368060    1.389270    1.313710
  O      6.128920    1.233510   -0.045620
  H      3.579110    2.368490   -2.819970
  H      3.504240    0.859650   -1.941980
  H      5.042880    1.468410   -2.503270

 Total Charge           Charge          ....   -1
 Multiplicity           Mult            ....    1
 Number of Electrons    NEL             ....   40
 Basis Dimension        Dim             ....  236

ORBITAL ENERGIES
----------------

  NO   OCC          E(Eh)            E(eV)
   0   2.0000     -18.675094      -508.1751
   1   2.0000     -18.675030      -508.1734
   2   2.0000      -9.954577      -270.8778
   3   2.0000      -9.905614      -269.5455
   4   2.0000      -9.895556      -269.2718
   5   2.0000      -0.915242       -24.9050
   6   2.0000      -0.820489       -22.3266
   7   2.0000      -0.717287       -19.5184
   8   2.0000      -0.584219       -15.8974
   9   2.0000      -0.429333       -11.6827
  10   2.0000      -0.400357       -10.8943
  11   2.0000      -0.364505        -9.9187
  12   2.0000      -0.337207        -9.1759
  13   2.0000      -0.317493        -8.6394
  14   2.0000      -0.310868        -8.4592
  15   2.0000      -0.279185        -7.5970
  16   2.0000      -0.266619        -7.2551
  17   2.0000      -0.149014        -4.0549
  18   2.0000      -0.142177        -3.8688
  19   2.0000      -0.128383        -3.4935
  20   0.0000       0.176565         4.8046
  21   0.0000       0.198805         5.4097
  22   0.0000       0.206172         5.6102
  23   0.0000       0.220089         5.9889
  24   0.0000       0.246680         6.7125

MULLIKEN ATOMIC CHARGES
-----------------------
   0 C :   -1.247581
   1 C :   -0.408514
   2 H :    0.291757
   3 H :    0.312327
   4 C :    0.311975
   5 O :   -0.674927
   6 O :   -0.661280
   7 H :    0.372520
   8 H :    0.369959
   9 H :    0.333764
Sum of atomic charges:   -1.0000000

LOEWDIN ATOMIC CHARGES
----------------------
   0 C :   -0.141679
   1 C :   -0.227742
   2 H :    0.100114
   3 H :    0.093289
   4 C :   -0.808446
   5 O :   -0.099067
   6 O :   -0.091171
   7 H :    0.047911
   8 H :    0.067216
   9 H :    0.059575

  Mayer bond orders larger than 0.100000
B(  0-C ,  1-C ) :   0.4426 B(  0-C ,  7-H ) :   0.8848 B(  0-C ,  8-H ) :   0.9188
B(  0-C ,  9-H ) :   0.9925 B(  1-C ,  2-H ) :   0.9583 B(  1-C ,  3-H ) :   0.9771
B(  1-C ,  4-C ) :   0.8944 B(  4-C ,  5-O ) :   1.5028 B(  4-C ,  6-O ) :   1.5116

FINAL SINGLE POINT ENERGY      -267.354785779318

DIPOLE MOMENT
-------------
                                X             Y             Z
Electronic contribution:      2.40979      -1.43641       5.06411
Nuclear contribution   :     -3.31311       2.28398      -6.76358
                        -----------------------------------------
Total Dipole Moment    :     -0.90332       0.84757      -1.69947
                        -----------------------------------------
Magnitude (a.u.)       :      2.10299
Magnitude (Debye)      :      5.34538

Rotational constants in cm-1:     0.309287     0.135287     0.107346
Rotational constants in MHz :  9272.201029  4055.789113  3218.155789

                             ****ORCA TERMINATED NORMALLY****
TOTAL RUN TIME: 0 days 0 hours 0 minutes 15 seconds 79 msec
