                         Program Version 5.0.0 -  RELEASE  -
|  1> !LC-BLYP RIJCOSX def2-TZVPD def2/J TightSCF
|  2> *xyz 1 1
|  3> C          3.91385       -1.65829        3.01513
|  4> N          5.03927       -0.90115        2.49282
|  5> C          6.21038       -1.41726        2.17824
|  6> N          6.53591       -2.67712        2.55608
|  7> N          7.07675       -0.70082        1.47891
|  8> H          7.95464       -1.12155        1.20755
|  9> H          6.75616        0.10664        0.96028
| 10> H          4.84217        0.01761        2.11519
| 11> H          5.99388       -3.12692        3.28278
| 12> C          3.13916       -2.37657        1.91061
| 13> H          3.26723       -0.93940        3.52069
| 14> H          4.24720       -2.35509        3.79006
| 15> H          7.49844       -2.97548        2.46878
| 16> H          2.82969       -1.66654        1.17238
| 17> H          2.27790       -2.85264        2.33072
| 18> H          3.76754       -3.11338        1.45548
| 19> *
| 20> %MaxCore 64000
| 21> %pal nprocs 8
| 22> end
| 23> %scf
| 24>   MaxIter 150
| 25> end
| 26>
| 27>
| 28>                          ****END OF INPUT****

CARTESIAN COORDINATES (ANGSTROEM)
---------------------------------
  C      3.913850   -1.658290    3.015130
  N      5.039270   -0.901150    2.492820
  C      6.210380   -1.417260    2.178240
  N      6.535910   -2.677120    2.556080
  N      7.076750   -0.700820    1.478910
  H      7.954640   -1.121550    1.207550
  H      6.756160    0.106640    0.960280
  H      4.842170    0.017610    2.115190
  H      5.993880   -3.126920    3.282780
  C      3.139160   -2.376570    1.910610
  H      3.267230   -0.939400    3.520690
  H      4.247200   -2.355090    3.790060
  H      7.498440   -2.975480    2.468780
  H      2.829690   -1.666540    1.172380
  H      2.277900   -2.852640    2.330720
  H      3.767540   -3.113380    1.455480

 Total Charge           Charge          ....    1
 Multiplicity           Mult            ....    1
 Number of Electrons    NEL             ....   48
 Basis Dimension        Dim             ....  312

ORBITAL ENERGIES
----------------

  NO   OCC          E(Eh)            E(eV)
   0   2.0000     -14.396131      -391.7386
   1   2.0000     -14.393702      -391.6725
   2   2.0000     -14.391536      -391.6136
   3   2.0000     -10.407720      -283.2085
   4   2.0000     -10.276961      -279.6503
   5   2.0000     -10.202454      -277.6229
   6   2.0000      -1.319119       -35.8950
   7   2.0000      -1.210056       -32.9273
   8   2.0000      -1.192907       -32.4607
   9   2.0000      -1.040769       -28.3208
  10   2.0000      -0.948666       -25.8145
  11   2.0000      -0.910335       -24.7715
  12   2.0000      -0.893388       -24.3103
  13   2.0000      -0.849483       -23.1156
  14   2.0000      -0.795199       -21.6385
  15   2.0000      -0.787085       -21.4177
  16   2.0000      -0.762736       -20.7551
  17   2.0000      -0.737051       -20.0562
  18   2.0000      -0.706279       -19.2188
  19   2.0000      -0.666226       -18.1289
  20   2.0000      -0.632452       -17.2099
  21   2.0000      -0.611504       -16.6399
  22   2.0000      -0.578686       -15.7468
  23   2.0000      -0.548466       -14.9245
  24   0.0000      -0.108189        -2.9440
  25   0.0000      -0.095287        -2.5929
  26   0.0000      -0.076370        -2.0781
  27   0.0000      -0.069143        -1.8815
  28   0.0000      -0.042511        -1.1568

MULLIKEN ATOMIC CHARGES
-----------------------
   0 C :   -0.716450
   1 N :   -0.200589
   2 C :    0.683593
   3 N :   -0.336864
   4 N :   -0.337311
   5 H :    0.213298
   6 H :    0.227082
   7 H :    0.181178
   8 H :    0.199698
   9 C :   -1.208375
  10 H :    0.411471
  11 H :    0.426547
  12 H :    0.220659
  13 H :    0.392016
  14 H :    0.457830
  15 H :    0.386218
Sum of atomic charges:    1.0000000

LOEWDIN ATOMIC CHARGES
----------------------
   0 C :   -0.219273
   1 N :    0.088307
   2 C :   -0.447008
   3 N :    0.217417
   4 N :    0.212542
   5 H :    0.139269
   6 H :    0.142025
   7 H :    0.172418
   8 H :    0.121095
   9 C :   -0.068480
  10 H :    0.136945
  11 H :    0.122462
  12 H :    0.136233
  13 H :    0.082836
  14 H :    0.087741
  15 H :    0.075472

  Mayer bond orders larger than 0.100000
B(  0-C ,  1-N ) :   0.7618 B(  0-C ,  2-C ) :  -0.1342 B(  0-C ,  9-C ) :   0.5286
B(  0-C , 10-H ) :   0.8783 B(  0-C , 11-H ) :   0.8471 B(  1-N ,  2-C ) :   1.2433
B(  1-N ,  7-H ) :   1.0488 B(  2-C ,  3-N ) :   1.1170 B(  2-C ,  4-N ) :   1.0816
B(  3-N ,  8-H ) :   0.9532 B(  3-N , 12-H ) :   0.9885 B(  4-N ,  5-H ) :   0.9895
B(  4-N ,  6-H ) :   0.9658 B(  9-C , 13-H ) :   0.9288 B(  9-C , 14-H ) :   0.8788
B(  9-C , 15-H ) :   0.8987

FINAL SINGLE POINT ENERGY      -283.781612611232

DIPOLE MOMENT
-------------
                                X             Y             Z
Electronic contribution:      4.69023       1.90565       0.07963
Nuclear contribution   :     -3.67981      -1.62355      -0.28562
                        -----------------------------------------
Total Dipole Moment    :      1.01042       0.28211      -0.20599
                        -----------------------------------------
Magnitude (a.u.)       :      1.06909
Magnitude (Debye)      :      2.71742

Rotational constants in cm-1:     0.222027     0.074735     0.065694
Rotational constants in MHz :  6656.200457  2240.503315  1969.451902

                             ****ORCA TERMINATED NORMALLY****
TOTAL RUN TIME: 0 days 0 hours 0 minutes 28 seconds 543 msec
