                         Program Version 5.0.0 -  RELEASE  -
|  1> !LC-BLYP RIJCOSX def2-TZVPD def2/J TightSCF xyzfile
|  2>
|  3> *xyzfile 0 1 B.xyz
|  4>
|  5> %MaxCore 64000
|  6>
|  7> %pal nprocs 4
|  8> end
|  9>
| 10> %scf
| 11>   MaxIter 150
| 12> end
| 13>
| 14>
| 15>                          ****END OF INPUT****

CARTESIAN COORDINATES (ANGSTROEM)
---------------------------------
  C      3.913853   -1.658291    3.015134
  N      5.039266   -0.901154    2.492821
  C      4.084215    1.742081   -2.114724
  C      4.265245    2.500518   -0.795890
  H      4.868534    3.392674   -0.981134
  H      3.307640    2.824571   -0.387809
  C      4.982240    1.650257    0.247422
  C      6.210384   -1.417261    2.178244
  N      6.535913   -2.677122    2.556078
  N      7.076754   -0.700820    1.478906
  H      7.954643   -1.121554    1.207554
  H      6.756161    0.106637    0.960278
  H      4.842168    0.017609    2.115191
  H      5.993876   -3.126918    3.282784
  H      7.498441   -2.975482    2.468776
  O      4.368065    1.389270    1.313706
  O      6.128919    1.233512   -0.045620
  C      3.139159   -2.376572    1.910609
  H      3.267235   -0.939401    3.520693
  H      4.247195   -2.355095    3.790065
  C      1.997274    0.430918   -1.399218
  C      3.412746    0.376886   -1.965497
  H      4.047407   -0.246590   -1.326706
  H      3.390774   -0.118719   -2.942839
  H      5.068475    1.598504   -2.565728
  H      3.503356    2.363939   -2.804565
  C      2.399946   -1.389579    1.009490
  H      2.440750   -3.087118    2.362976
  H      3.844475   -2.970462    1.318677
  C      2.070177   -1.936705   -0.372401
  H      1.481611   -1.061542    1.509912
  H      3.008628   -0.490001    0.897451
  C      1.322238   -0.935775   -1.256413
  H      1.472747   -2.850902   -0.283997
  H      3.003539   -2.234041   -0.862535
  H      1.376444    1.058920   -2.047420
  H      2.015341    0.929780   -0.426535
  H      0.316648   -0.787213   -0.848278
  H      1.185611   -1.379252   -2.248613

 Total Charge           Charge          ....    0
 Multiplicity           Mult            ....    1
 Number of Electrons    NEL             ....  126
 Basis Dimension        Dim             ....  805

ORBITAL ENERGIES
----------------

  NO   OCC          E(Eh)            E(eV)
   0   2.0000     -18.859568      -513.1949
   1   2.0000     -18.858538      -513.1669
   2   2.0000     -14.236592      -387.3974
   3   2.0000     -14.202430      -386.4678
   4   2.0000     -14.195838      -386.2884
   5   2.0000     -10.231530      -278.4141
   6   2.0000     -10.132056      -275.7072
   7   2.0000     -10.126144      -275.5464
   8   2.0000     -10.076012      -274.1822
   9   2.0000     -10.053643      -273.5735
  10   2.0000     -10.053181      -273.5610
  11   2.0000     -10.049485      -273.4604
  12   2.0000     -10.040394      -273.2130
  13   2.0000     -10.039012      -273.1754
  14   2.0000     -10.038388      -273.1584
  15   2.0000     -10.030431      -272.9419
  16   2.0000      -1.144298       -31.1379
  17   2.0000      -1.103776       -30.0353
  18   2.0000      -1.037127       -28.2217
  19   2.0000      -1.021529       -27.7972
  20   2.0000      -1.006659       -27.3926
  21   2.0000      -0.922149       -25.0930
  22   2.0000      -0.897430       -24.4203
  23   2.0000      -0.868504       -23.6332
  24   2.0000      -0.827869       -22.5275
  25   2.0000      -0.789273       -21.4772
  26   2.0000      -0.770690       -20.9716
  27   2.0000      -0.741010       -20.1639
  28   2.0000      -0.724405       -19.7121
  29   2.0000      -0.711579       -19.3630
  30   2.0000      -0.683265       -18.5926
  31   2.0000      -0.676839       -18.4177
  32   2.0000      -0.646856       -17.6018
  33   2.0000      -0.627532       -17.0760
  34   2.0000      -0.623799       -16.9744
  35   2.0000      -0.606167       -16.4946
  36   2.0000      -0.578254       -15.7351
  37   2.0000      -0.573726       -15.6119
  38   2.0000      -0.567003       -15.4289
  39   2.0000      -0.560740       -15.2585
  40   2.0000      -0.547339       -14.8939
  41   2.0000      -0.527928       -14.3656
  42   2.0000      -0.526951       -14.3391
  43   2.0000      -0.521106       -14.1800
  44   2.0000      -0.510866       -13.9014
  45   2.0000      -0.503072       -13.6893
  46   2.0000      -0.486747       -13.2451
  47   2.0000      -0.474696       -12.9171
  48   2.0000      -0.466631       -12.6977
  49   2.0000      -0.456456       -12.4208
  50   2.0000      -0.447436       -12.1753
  51   2.0000      -0.439935       -11.9712
  52   2.0000      -0.425988       -11.5917
  53   2.0000      -0.417568       -11.3626
  54   2.0000      -0.413137       -11.2420
  55   2.0000      -0.407143       -11.0789
  56   2.0000      -0.395885       -10.7726
  57   2.0000      -0.391246       -10.6463
  58   2.0000      -0.383626       -10.4390
  59   2.0000      -0.373071       -10.1518
  60   2.0000      -0.333651        -9.0791
  61   2.0000      -0.321867        -8.7584
  62   2.0000      -0.317531        -8.6405
  63   0.0000       0.021486         0.5847
  64   0.0000       0.047730         1.2988
  65   0.0000       0.057007         1.5513
  66   0.0000       0.064075         1.7436
  67   0.0000       0.072442         1.9712

MULLIKEN ATOMIC CHARGES
-----------------------
   0 C :   -1.250175
   1 N :   -0.153385
   2 C :   -0.946859
   3 C :   -0.633499
   4 H :    0.430906
   5 H :    0.365178
   6 C :    0.526198
   7 C :    0.537403
   8 N :   -0.344891
   9 N :   -0.281962
  10 H :    0.180042
  11 H :    0.266086
  12 H :    0.270219
  13 H :    0.187045
  14 H :    0.196251
  15 O :   -0.833769
  16 O :   -0.828350
  17 C :   -0.623159
  18 H :    0.452639
  19 H :    0.488900
  20 C :   -0.729759
  21 C :   -0.597664
  22 H :    0.324137
  23 H :    0.381096
  24 H :    0.354603
  25 H :    0.437075
  26 C :   -0.038442
  27 H :    0.479395
  28 H :    0.418994
  29 C :   -0.926225
  30 H :    0.335077
  31 H :    0.062129
  32 C :   -0.945915
  33 H :    0.400501
  34 H :    0.447952
  35 H :    0.391329
  36 H :    0.376993
  37 H :    0.409002
  38 H :    0.414906
Sum of atomic charges:   -0.0000000

LOEWDIN ATOMIC CHARGES
----------------------
   0 C :   -0.180992
   1 N :    0.105040
   2 C :   -0.215363
   3 C :   -0.137034
   4 H :    0.121813
   5 H :    0.111199
   6 C :   -0.674564
   7 C :   -0.452540
   8 N :    0.181335
   9 N :    0.212040
  10 H :    0.124932
  11 H :    0.034531
  12 H :    0.068966
  13 H :    0.102694
  14 H :    0.116847
  15 O :   -0.035610
  16 O :   -0.022583
  17 C :   -0.195032
  18 H :    0.138590
  19 H :    0.111630
  20 C :   -0.226776
  21 C :   -0.222115
  22 H :    0.109926
  23 H :    0.122608
  24 H :    0.113621
  25 H :    0.114974
  26 C :   -0.223470
  27 H :    0.121183
  28 H :    0.116987
  29 C :   -0.231474
  30 H :    0.134838
  31 H :    0.087576
  32 C :   -0.224222
  33 H :    0.118010
  34 H :    0.114110
  35 H :    0.121887
  36 H :    0.107695
  37 H :    0.114614
  38 H :    0.114130

  Mayer bond orders larger than 0.100000
B(  0-C ,  1-N ) :   0.8231 B(  0-C ,  7-C ) :  -0.1449 B(  0-C , 17-C ) :   0.4976
B(  0-C , 18-H ) :   0.7564 B(  0-C , 19-H ) :   0.8502 B(  0-C , 27-H ) :  -0.1631
B(  1-N ,  7-C ) :   1.3342 B(  1-N , 12-H ) :   0.7372 B(  1-N , 15-O ) :  -0.1511
B(  2-C ,  3-C ) :   0.6122 B(  2-C , 21-C ) :   0.6869 B(  2-C , 24-H ) :   0.9881
B(  2-C , 25-H ) :   0.8629 B(  3-C ,  4-H ) :   0.8618 B(  3-C ,  5-H ) :   1.0126
B(  3-C ,  6-C ) :   0.7881 B(  3-C , 21-C ) :  -0.1438 B(  6-C , 15-O ) :   1.3487
B(  6-C , 16-O ) :   1.1710 B(  7-C ,  8-N ) :   1.0125 B(  7-C ,  9-N ) :   1.1172
B(  8-N , 13-H ) :   0.9684 B(  8-N , 14-H ) :   0.9995 B(  9-N , 10-H ) :   1.0186
B(  9-N , 11-H ) :   0.8216 B(  9-N , 16-O ) :  -0.1177 B( 12-H , 15-O ) :   0.1512
B( 12-H , 16-O ) :   0.1054 B( 15-O , 16-O ) :   0.1363 B( 17-C , 19-H ) :  -0.1183
B( 17-C , 26-C ) :   0.4947 B( 17-C , 27-H ) :   0.9128 B( 17-C , 28-H ) :   0.8108
B( 17-C , 29-C ) :   0.1788 B( 20-C , 21-C ) :   0.1491 B( 20-C , 22-H ) :  -0.1316
B( 20-C , 29-C ) :  -0.1157 B( 20-C , 32-C ) :   0.6223 B( 20-C , 35-H ) :   0.9260
B( 20-C , 36-H ) :   0.9928 B( 21-C , 22-H ) :   1.0272 B( 21-C , 23-H ) :   0.9434
B( 21-C , 36-H ) :  -0.1166 B( 26-C , 29-C ) :   0.2747 B( 26-C , 30-H ) :   0.9973
B( 26-C , 31-H ) :   1.0884 B( 29-C , 31-H ) :  -0.1314 B( 29-C , 32-C ) :   0.6540
B( 29-C , 33-H ) :   0.9011 B( 29-C , 34-H ) :   0.9341 B( 30-H , 31-H ) :   0.1562
B( 32-C , 37-H ) :   0.9467 B( 32-C , 38-H ) :   0.9415

FINAL SINGLE POINT ENERGY      -746.199390982812

DIPOLE MOMENT
-------------
                                X             Y             Z
Electronic contribution:     12.26356       3.31215       7.66897
Nuclear contribution   :    -11.44764      -6.21818      -6.18483
                        -----------------------------------------
Total Dipole Moment    :      0.81592      -2.90603       1.48414
                        -----------------------------------------
Magnitude (a.u.)       :      3.36354
Magnitude (Debye)      :      8.54945

Rotational constants in cm-1:     0.020281     0.013510     0.009451
Rotational constants in MHz :   608.005987   405.034308   283.324538

                             ****ORCA TERMINATED NORMALLY****
TOTAL RUN TIME: 0 days 0 hours 10 minutes 48 seconds 908 msec
