                         Program Version 5.0.0 -  RELEASE  -
|  1> !LC-BLYP RIJCOSX def2-TZVPD def2/J TightSCF
|  2> *xyz 0 1
|  3> C          4.08422        1.74208       -2.11472
|  4> C          4.26524        2.50052       -0.79589
|  5> H          4.86853        3.39267       -0.98113
|  6> H          3.30764        2.82457       -0.38781
|  7> C          4.98224        1.65026        0.24742
|  8> F          4.36806        1.38927        1.31371
|  9> O          6.12892        1.23351       -0.04562
| 10> H          3.57911        2.36849       -2.81997
| 11> H          3.50424        0.85965       -1.94198
| 12> H          5.04288        1.46841       -2.50327
| 13> *
| 14> %MaxCore 64000
| 15> %pal nprocs 8
| 16> end
| 17> %scf
| 18>   MaxIter 150
| 19> end
| 20>
| 21>
| 22>                          ****END OF INPUT****

CARTESIAN COORDINATES (ANGSTROEM)
---------------------------------
  C      4.084220    1.742080   -2.114720
  C      4.265240    2.500520   -0.795890
  H      4.868530    3.392670   -0.981130
  H      3.307640    2.824570   -0.387810
  C      4.982240    1.650260    0.247420
  F      4.368060    1.389270    1.313710
  O      6.128920    1.233510   -0.045620
  H      3.579110    2.368490   -2.819970
  H      3.504240    0.859650   -1.941980
  H      5.042880    1.468410   -2.503270

 Total Charge           Charge          ....    0
 Multiplicity           Mult            ....    1
 Number of Electrons    NEL             ....   40
 Basis Dimension        Dim             ....  236

ORBITAL ENERGIES
----------------

  NO   OCC          E(Eh)            E(eV)
   0   2.0000     -24.525778      -667.3803
   1   2.0000     -18.947064      -515.5758
   2   2.0000     -10.251115      -278.9470
   3   2.0000     -10.102337      -274.8986
   4   2.0000     -10.073497      -274.1138
   5   2.0000      -1.399129       -38.0722
   6   2.0000      -1.128983       -30.7212
   7   2.0000      -0.913083       -24.8462
   8   2.0000      -0.797663       -21.7055
   9   2.0000      -0.745524       -20.2867
  10   2.0000      -0.658110       -17.9081
  11   2.0000      -0.640906       -17.4399
  12   2.0000      -0.614726       -16.7275
  13   2.0000      -0.572228       -15.5711
  14   2.0000      -0.539294       -14.6749
  15   2.0000      -0.503140       -13.6911
  16   2.0000      -0.480814       -13.0836
  17   2.0000      -0.475011       -12.9257
  18   2.0000      -0.450264       -12.2523
  19   2.0000      -0.396080       -10.7779
  20   0.0000       0.040511         1.1024
  21   0.0000       0.053444         1.4543
  22   0.0000       0.071829         1.9546
  23   0.0000       0.078756         2.1431
  24   0.0000       0.088533         2.4091

MULLIKEN ATOMIC CHARGES
-----------------------
   0 C :   -1.269713
   1 C :   -0.461505
   2 H :    0.329755
   3 H :    0.361669
   4 C :    0.477517
   5 F :   -0.171749
   6 O :   -0.434430
   7 H :    0.391031
   8 H :    0.401858
   9 H :    0.375567
Sum of atomic charges:   -0.0000000

LOEWDIN ATOMIC CHARGES
----------------------
   0 C :   -0.098930
   1 C :   -0.171721
   2 H :    0.127185
   3 H :    0.114480
   4 C :   -0.519371
   5 F :    0.222244
   6 O :    0.094621
   7 H :    0.074211
   8 H :    0.079999
   9 H :    0.077282

  Mayer bond orders larger than 0.100000
B(  0-C ,  1-C ) :   0.5063 B(  0-C ,  7-H ) :   0.8916 B(  0-C ,  8-H ) :   0.8805
B(  0-C ,  9-H ) :   0.9591 B(  1-C ,  2-H ) :   0.9451 B(  1-C ,  3-H ) :   0.9115
B(  1-C ,  4-C ) :   0.8908 B(  4-C ,  5-F ) :   1.0541 B(  4-C ,  6-O ) :   1.7843

FINAL SINGLE POINT ENERGY      -291.905795627611

DIPOLE MOMENT
-------------
                                X             Y             Z
Electronic contribution:      1.90325      -2.02415       8.12312
Nuclear contribution   :     -2.87511       2.61564      -8.50037
                        -----------------------------------------
Total Dipole Moment    :     -0.97186       0.59149      -0.37725
                        -----------------------------------------
Magnitude (a.u.)       :      1.19861
Magnitude (Debye)      :      3.04664

Rotational constants in cm-1:     0.297822     0.128965     0.102219
Rotational constants in MHz :  8928.481997  3866.271686  3064.463504

                             ****ORCA TERMINATED NORMALLY****
TOTAL RUN TIME: 0 days 0 hours 0 minutes 15 seconds 924 msec
