                         Program Version 5.0.0 -  RELEASE  -
|  1> !LC-BLYP RIJCOSX def2-TZVPD def2/J TightSCF
|  2> *xyz 0 1
|  3> C          3.91385       -1.65829        3.01513
|  4> C          5.03927       -0.90115        2.49282
|  5> C          6.21038       -1.41726        2.17824
|  6> N          6.53591       -2.67712        2.55608
|  7> N          7.07675       -0.70082        1.47891
|  8> H          7.95464       -1.12155        1.20755
|  9> H          6.75616        0.10664        0.96028
| 10> H          4.84217        0.01761        2.11519
| 11> H          5.99388       -3.12692        3.28278
| 12> C          3.13916       -2.37657        1.91061
| 13> H          3.26723       -0.93940        3.52069
| 14> H          4.24720       -2.35509        3.79006
| 15> H          7.49844       -2.97548        2.46878
| 16> H          2.82969       -1.66654        1.17238
| 17> H          2.27790       -2.85264        2.33072
| 18> H          3.76754       -3.11338        1.45548
| 19> *
| 20> %MaxCore 64000
| 21> %pal nprocs 8
| 22> end
| 23> %scf
| 24>   MaxIter 150
| 25> end
| 26>
| 27>
| 28>                          ****END OF INPUT****

CARTESIAN COORDINATES (ANGSTROEM)
---------------------------------
  C      3.913850   -1.658290    3.015130
  C      5.039270   -0.901150    2.492820
  C      6.210380   -1.417260    2.178240
  N      6.535910   -2.677120    2.556080
  N      7.076750   -0.700820    1.478910
  H      7.954640   -1.121550    1.207550
  H      6.756160    0.106640    0.960280
  H      4.842170    0.017610    2.115190
  H      5.993880   -3.126920    3.282780
  C      3.139160   -2.376570    1.910610
  H      3.267230   -0.939400    3.520690
  H      4.247200   -2.355090    3.790060
  H      7.498440   -2.975480    2.468780
  H      2.829690   -1.666540    1.172380
  H      2.277900   -2.852640    2.330720
  H      3.767540   -3.113380    1.455480

 Total Charge           Charge          ....    0
 Multiplicity           Mult            ....    1
 Number of Electrons    NEL             ....   48
 Basis Dimension        Dim             ....  312

ORBITAL ENERGIES
----------------

  NO   OCC          E(Eh)            E(eV)
   0   2.0000     -14.170919      -385.6103
   1   2.0000     -14.168767      -385.5517
   2   2.0000     -10.113099      -275.1914
   3   2.0000     -10.043348      -273.2934
   4   2.0000     -10.030776      -272.9513
   5   2.0000      -9.991289      -271.8768
   6   2.0000      -1.062500       -28.9121
   7   2.0000      -0.971542       -26.4370
   8   2.0000      -0.883967       -24.0540
   9   2.0000      -0.801918       -21.8213
  10   2.0000      -0.724328       -19.7100
  11   2.0000      -0.683578       -18.6011
  12   2.0000      -0.646048       -17.5799
  13   2.0000      -0.615465       -16.7476
  14   2.0000      -0.573614       -15.6088
  15   2.0000      -0.542304       -14.7568
  16   2.0000      -0.526216       -14.3191
  17   2.0000      -0.494759       -13.4631
  18   2.0000      -0.484467       -13.1830
  19   2.0000      -0.456543       -12.4232
  20   2.0000      -0.426958       -11.6181
  21   2.0000      -0.416818       -11.3422
  22   2.0000      -0.367664       -10.0047
  23   2.0000      -0.255599        -6.9552
  24   0.0000       0.047336         1.2881
  25   0.0000       0.072537         1.9738
  26   0.0000       0.075807         2.0628
  27   0.0000       0.086820         2.3625
  28   0.0000       0.102703         2.7947

MULLIKEN ATOMIC CHARGES
-----------------------
   0 C :   -0.922706
   1 C :   -0.295132
   2 C :    0.328851
   3 N :   -0.391047
   4 N :   -0.390100
   5 H :    0.156232
   6 H :    0.184639
   7 H :    0.294698
   8 H :    0.158675
   9 C :   -1.212895
  10 H :    0.343482
  11 H :    0.446912
  12 H :    0.155273
  13 H :    0.380374
  14 H :    0.402898
  15 H :    0.359847
Sum of atomic charges:    0.0000000

LOEWDIN ATOMIC CHARGES
----------------------
   0 C :   -0.297078
   1 C :   -0.157990
   2 C :   -0.555787
   3 N :    0.131354
   4 N :    0.113703
   5 H :    0.097385
   6 H :    0.111101
   7 H :    0.074500
   8 H :    0.093524
   9 C :   -0.114707
  10 H :    0.108678
  11 H :    0.099297
  12 H :    0.095478
  13 H :    0.071066
  14 H :    0.062713
  15 H :    0.066762

  Mayer bond orders larger than 0.100000
B(  0-C ,  1-C ) :   0.4702 B(  0-C ,  2-C ) :   0.1258 B(  0-C ,  9-C ) :   0.4754
B(  0-C , 10-H ) :   1.0987 B(  0-C , 11-H ) :   0.8595 B(  1-C ,  2-C ) :   1.1917
B(  1-C ,  7-H ) :   1.1359 B(  1-C , 10-H ) :  -0.1253 B(  2-C ,  3-N ) :   0.9064
B(  2-C ,  4-N ) :   0.9768 B(  2-C ,  7-H ) :  -0.2261 B(  3-N ,  8-H ) :   0.9842
B(  3-N , 12-H ) :   1.0512 B(  4-N ,  5-H ) :   1.0416 B(  4-N ,  6-H ) :   0.9917
B(  9-C , 13-H ) :   0.9575 B(  9-C , 14-H ) :   0.9080 B(  9-C , 15-H ) :   0.9299
B( 10-H , 11-H ) :   0.1232

FINAL SINGLE POINT ENERGY      -267.303979246543

DIPOLE MOMENT
-------------
                                X             Y             Z
Electronic contribution:      4.57629       1.23507      -0.02376
Nuclear contribution   :     -3.74303      -1.46908      -0.23637
                        -----------------------------------------
Total Dipole Moment    :      0.83326      -0.23401      -0.26013
                        -----------------------------------------
Magnitude (a.u.)       :      0.90375
Magnitude (Debye)      :      2.29714

Rotational constants in cm-1:     0.225937     0.074877     0.065953
Rotational constants in MHz :  6773.424301  2244.750632  1977.214101

                             ****ORCA TERMINATED NORMALLY****
TOTAL RUN TIME: 0 days 0 hours 0 minutes 31 seconds 228 msec
