                         Program Version 5.0.0 -  RELEASE  -
|  1> !LC-BLYP RIJCOSX def2-TZVPD def2/J TightSCF
|  2> *xyz 0 1
|  3> C          4.08422        1.74208       -2.11472
|  4> C          4.26524        2.50052       -0.79589
|  5> H          4.86853        3.39267       -0.98113
|  6> H          3.30764        2.82457       -0.38781
|  7> C          4.98224        1.65026        0.24742
|  8> O          4.36806        1.38927        1.31371
|  9> F          6.12892        1.23351       -0.04562
| 10> H          3.57911        2.36849       -2.81997
| 11> H          3.50424        0.85965       -1.94198
| 12> H          5.04288        1.46841       -2.50327
| 13> *
| 14> %MaxCore 64000
| 15> %pal nprocs 8
| 16> end
| 17> %scf
| 18>   MaxIter 150
| 19> end
| 20>
| 21>
| 22>                          ****END OF INPUT****

CARTESIAN COORDINATES (ANGSTROEM)
---------------------------------
  C      4.084220    1.742080   -2.114720
  C      4.265240    2.500520   -0.795890
  H      4.868530    3.392670   -0.981130
  H      3.307640    2.824570   -0.387810
  C      4.982240    1.650260    0.247420
  O      4.368060    1.389270    1.313710
  F      6.128920    1.233510   -0.045620
  H      3.579110    2.368490   -2.819970
  H      3.504240    0.859650   -1.941980
  H      5.042880    1.468410   -2.503270

 Total Charge           Charge          ....    0
 Multiplicity           Mult            ....    1
 Number of Electrons    NEL             ....   40
 Basis Dimension        Dim             ....  236

ORBITAL ENERGIES
----------------

  NO   OCC          E(Eh)            E(eV)
   0   2.0000     -24.527028      -667.4144
   1   2.0000     -18.946443      -515.5589
   2   2.0000     -10.250800      -278.9384
   3   2.0000     -10.102004      -274.8895
   4   2.0000     -10.078186      -274.2414
   5   2.0000      -1.401768       -38.1441
   6   2.0000      -1.125947       -30.6386
   7   2.0000      -0.917163       -24.9573
   8   2.0000      -0.795184       -21.6381
   9   2.0000      -0.751091       -20.4382
  10   2.0000      -0.661116       -17.9899
  11   2.0000      -0.646994       -17.6056
  12   2.0000      -0.607885       -16.5414
  13   2.0000      -0.572196       -15.5703
  14   2.0000      -0.539669       -14.6851
  15   2.0000      -0.507076       -13.7982
  16   2.0000      -0.485690       -13.2163
  17   2.0000      -0.477580       -12.9956
  18   2.0000      -0.454111       -12.3570
  19   2.0000      -0.390830       -10.6350
  20   0.0000       0.040900         1.1130
  21   0.0000       0.055442         1.5086
  22   0.0000       0.070628         1.9219
  23   0.0000       0.078086         2.1248
  24   0.0000       0.088640         2.4120

MULLIKEN ATOMIC CHARGES
-----------------------
   0 C :   -1.285898
   1 C :   -0.445960
   2 H :    0.352369
   3 H :    0.328224
   4 C :    0.494320
   5 O :   -0.449931
   6 F :   -0.171461
   7 H :    0.383573
   8 H :    0.411362
   9 H :    0.383403
Sum of atomic charges:    0.0000000

LOEWDIN ATOMIC CHARGES
----------------------
   0 C :   -0.101150
   1 C :   -0.168462
   2 H :    0.123852
   3 H :    0.122857
   4 C :   -0.525220
   5 O :    0.090626
   6 F :    0.227069
   7 H :    0.074739
   8 H :    0.081605
   9 H :    0.074085

  Mayer bond orders larger than 0.100000
B(  0-C ,  1-C ) :   0.4517 B(  0-C ,  7-H ) :   0.9094 B(  0-C ,  8-H ) :   0.9000
B(  0-C ,  9-H ) :   0.9207 B(  1-C ,  2-H ) :   0.9243 B(  1-C ,  3-H ) :   0.9555
B(  1-C ,  4-C ) :   0.8825 B(  4-C ,  5-O ) :   1.7722 B(  4-C ,  6-F ) :   1.0417

FINAL SINGLE POINT ENERGY      -291.904974802176

DIPOLE MOMENT
-------------
                                X             Y             Z
Electronic contribution:      4.83426      -2.27385       5.82824
Nuclear contribution   :     -4.79499       2.78546      -7.01827
                        -----------------------------------------
Total Dipole Moment    :      0.03926       0.51161      -1.19003
                        -----------------------------------------
Magnitude (a.u.)       :      1.29594
Magnitude (Debye)      :      3.29402

Rotational constants in cm-1:     0.286098     0.133492     0.103343
Rotational constants in MHz :  8577.003657  4001.981591  3098.148068

                             ****ORCA TERMINATED NORMALLY****
TOTAL RUN TIME: 0 days 0 hours 0 minutes 15 seconds 979 msec
