                         Program Version 5.0.0 -  RELEASE  -
|  1> !LC-BLYP RIJCOSX def2-TZVPD def2/J TightSCF
|  2> *xyz 0 1
|  3> C          3.91385       -1.65829        3.01513
|  4> N          5.03927       -0.90115        2.49282
|  5> C          6.21038       -1.41726        2.17824
|  6> C          6.53591       -2.67712        2.55608
|  7> N          7.07675       -0.70082        1.47891
|  8> H          7.95464       -1.12155        1.20755
|  9> H          6.75616        0.10664        0.96028
| 10> H          4.84217        0.01761        2.11519
| 11> H          5.99388       -3.12692        3.28278
| 12> C          3.13916       -2.37657        1.91061
| 13> H          3.26723       -0.93940        3.52069
| 14> H          4.24720       -2.35509        3.79006
| 15> H          7.49844       -2.97548        2.46878
| 16> H          2.82969       -1.66654        1.17238
| 17> H          2.27790       -2.85264        2.33072
| 18> H          3.76754       -3.11338        1.45548
| 19> *
| 20> %MaxCore 64000
| 21> %pal nprocs 8
| 22> end
| 23> %scf
| 24>   MaxIter 150
| 25> end
| 26>
| 27>
| 28>                          ****END OF INPUT****

CARTESIAN COORDINATES (ANGSTROEM)
---------------------------------
  C      3.913850   -1.658290    3.015130
  N      5.039270   -0.901150    2.492820
  C      6.210380   -1.417260    2.178240
  C      6.535910   -2.677120    2.556080
  N      7.076750   -0.700820    1.478910
  H      7.954640   -1.121550    1.207550
  H      6.756160    0.106640    0.960280
  H      4.842170    0.017610    2.115190
  H      5.993880   -3.126920    3.282780
  C      3.139160   -2.376570    1.910610
  H      3.267230   -0.939400    3.520690
  H      4.247200   -2.355090    3.790060
  H      7.498440   -2.975480    2.468780
  H      2.829690   -1.666540    1.172380
  H      2.277900   -2.852640    2.330720
  H      3.767540   -3.113380    1.455480

 Total Charge           Charge          ....    0
 Multiplicity           Mult            ....    1
 Number of Electrons    NEL             ....   48
 Basis Dimension        Dim             ....  312

ORBITAL ENERGIES
----------------

  NO   OCC          E(Eh)            E(eV)
   0   2.0000     -14.175459      -385.7338
   1   2.0000     -14.172499      -385.6533
   2   2.0000     -10.120324      -275.3880
   3   2.0000     -10.101531      -274.8766
   4   2.0000     -10.048341      -273.4293
   5   2.0000      -9.980327      -271.5785
   6   2.0000      -1.076324       -29.2883
   7   2.0000      -0.992641       -27.0111
   8   2.0000      -0.863006       -23.4836
   9   2.0000      -0.814624       -22.1670
  10   2.0000      -0.750614       -20.4252
  11   2.0000      -0.670581       -18.2474
  12   2.0000      -0.657869       -17.9015
  13   2.0000      -0.625540       -17.0218
  14   2.0000      -0.571849       -15.5608
  15   2.0000      -0.544846       -14.8260
  16   2.0000      -0.524973       -14.2852
  17   2.0000      -0.500698       -13.6247
  18   2.0000      -0.479966       -13.0605
  19   2.0000      -0.468702       -12.7540
  20   2.0000      -0.465585       -12.6692
  21   2.0000      -0.443064       -12.0564
  22   2.0000      -0.351255        -9.5581
  23   2.0000      -0.259902        -7.0723
  24   0.0000       0.047338         1.2881
  25   0.0000       0.067990         1.8501
  26   0.0000       0.077111         2.0983
  27   0.0000       0.079531         2.1642
  28   0.0000       0.105597         2.8734

MULLIKEN ATOMIC CHARGES
-----------------------
   0 C :   -0.654811
   1 N :   -0.276903
   2 C :    0.694345
   3 C :   -1.214477
   4 N :   -0.385083
   5 H :    0.176590
   6 H :    0.178185
   7 H :    0.145499
   8 H :    0.259566
   9 C :   -1.231063
  10 H :    0.395673
  11 H :    0.383459
  12 H :    0.348670
  13 H :    0.361506
  14 H :    0.441900
  15 H :    0.376943
Sum of atomic charges:    0.0000000

LOEWDIN ATOMIC CHARGES
----------------------
   0 C :   -0.253790
   1 N :    0.014168
   2 C :   -0.576944
   3 C :   -0.002662
   4 N :    0.120278
   5 H :    0.110549
   6 H :    0.101613
   7 H :    0.140896
   8 H :   -0.001177
   9 C :   -0.095191
  10 H :    0.116999
  11 H :    0.111917
  12 H :    0.007857
  13 H :    0.068851
  14 H :    0.069001
  15 H :    0.067635

  Mayer bond orders larger than 0.100000
B(  0-C ,  1-N ) :   0.7078 B(  0-C ,  3-C ) :   0.1284 B(  0-C ,  9-C ) :   0.5050
B(  0-C , 10-H ) :   0.8643 B(  0-C , 11-H ) :   0.9016 B(  1-N ,  2-C ) :   1.0012
B(  1-N ,  7-H ) :   1.0871 B(  2-C ,  3-C ) :   1.0474 B(  2-C ,  4-N ) :   0.8992
B(  2-C ,  8-H ) :  -0.1039 B(  2-C , 12-H ) :  -0.1321 B(  3-C ,  8-H ) :   1.0664
B(  3-C , 12-H ) :   1.0261 B(  4-N ,  5-H ) :   0.9990 B(  4-N ,  6-H ) :   1.0202
B(  9-C , 13-H ) :   0.9388 B(  9-C , 14-H ) :   0.8769 B(  9-C , 15-H ) :   0.9451

FINAL SINGLE POINT ENERGY      -267.294787253017

DIPOLE MOMENT
-------------
                                X             Y             Z
Electronic contribution:      3.04839       2.79982      -0.20404
Nuclear contribution   :     -3.42552      -1.84584      -0.22295
                        -----------------------------------------
Total Dipole Moment    :     -0.37714       0.95398      -0.42700
                        -----------------------------------------
Magnitude (a.u.)       :      1.11114
Magnitude (Debye)      :      2.82430

Rotational constants in cm-1:     0.233526     0.075277     0.067092
Rotational constants in MHz :  7000.931279  2256.752901  2011.361214

                             ****ORCA TERMINATED NORMALLY****
TOTAL RUN TIME: 0 days 0 hours 0 minutes 28 seconds 638 msec
