                         Program Version 5.0.0 -  RELEASE  -
|  1> !LC-BLYP RIJCOSX def2-TZVPD def2/J TightSCF
|  2> *xyz 0 1
|  3> C          3.91385       -1.65829        3.01513
|  4> N          5.03927       -0.90115        2.49282
|  5> C          6.21038       -1.41726        2.17824
|  6> N          6.53591       -2.67712        2.55608
|  7> C          7.07675       -0.70082        1.47891
|  8> H          7.95464       -1.12155        1.20755
|  9> H          6.75616        0.10664        0.96028
| 10> H          4.84217        0.01761        2.11519
| 11> H          5.99388       -3.12692        3.28278
| 12> C          3.13916       -2.37657        1.91061
| 13> H          3.26723       -0.93940        3.52069
| 14> H          4.24720       -2.35509        3.79006
| 15> H          7.49844       -2.97548        2.46878
| 16> H          2.82969       -1.66654        1.17238
| 17> H          2.27790       -2.85264        2.33072
| 18> H          3.76754       -3.11338        1.45548
| 19> *
| 20> %MaxCore 64000
| 21> %pal nprocs 8
| 22> end
| 23> %scf
| 24>   MaxIter 150
| 25> end
| 26>
| 27>
| 28>                          ****END OF INPUT****

CARTESIAN COORDINATES (ANGSTROEM)
---------------------------------
  C      3.913850   -1.658290    3.015130
  N      5.039270   -0.901150    2.492820
  C      6.210380   -1.417260    2.178240
  N      6.535910   -2.677120    2.556080
  C      7.076750   -0.700820    1.478910
  H      7.954640   -1.121550    1.207550
  H      6.756160    0.106640    0.960280
  H      4.842170    0.017610    2.115190
  H      5.993880   -3.126920    3.282780
  C      3.139160   -2.376570    1.910610
  H      3.267230   -0.939400    3.520690
  H      4.247200   -2.355090    3.790060
  H      7.498440   -2.975480    2.468780
  H      2.829690   -1.666540    1.172380
  H      2.277900   -2.852640    2.330720
  H      3.767540   -3.113380    1.455480

 Total Charge           Charge          ....    0
 Multiplicity           Mult            ....    1
 Number of Electrons    NEL             ....   48
 Basis Dimension        Dim             ....  312

ORBITAL ENERGIES
----------------

  NO   OCC          E(Eh)            E(eV)
   0   2.0000     -14.171274      -385.6200
   1   2.0000     -14.170283      -385.5930
   2   2.0000     -10.117070      -275.2995
   3   2.0000     -10.109874      -275.1037
   4   2.0000     -10.056042      -273.6388
   5   2.0000      -9.978458      -271.5276
   6   2.0000      -1.071577       -29.1591
   7   2.0000      -0.984956       -26.8020
   8   2.0000      -0.880997       -23.9731
   9   2.0000      -0.810144       -22.0451
  10   2.0000      -0.738134       -20.0857
  11   2.0000      -0.706897       -19.2356
  12   2.0000      -0.642312       -17.4782
  13   2.0000      -0.603699       -16.4275
  14   2.0000      -0.579836       -15.7782
  15   2.0000      -0.543737       -14.7958
  16   2.0000      -0.538698       -14.6587
  17   2.0000      -0.508203       -13.8289
  18   2.0000      -0.482081       -13.1181
  19   2.0000      -0.471771       -12.8376
  20   2.0000      -0.462984       -12.5984
  21   2.0000      -0.455526       -12.3955
  22   2.0000      -0.355320        -9.6688
  23   2.0000      -0.258464        -7.0332
  24   0.0000       0.047079         1.2811
  25   0.0000       0.070574         1.9204
  26   0.0000       0.074639         2.0310
  27   0.0000       0.076733         2.0880
  28   0.0000       0.104944         2.8557

MULLIKEN ATOMIC CHARGES
-----------------------
   0 C :   -0.705937
   1 N :   -0.253305
   2 C :    0.638145
   3 N :   -0.404053
   4 C :   -1.090756
   5 H :    0.301161
   6 H :    0.288381
   7 H :    0.138638
   8 H :    0.154979
   9 C :   -1.195061
  10 H :    0.399543
  11 H :    0.396175
  12 H :    0.172004
  13 H :    0.347854
  14 H :    0.441477
  15 H :    0.370755
Sum of atomic charges:    0.0000000

LOEWDIN ATOMIC CHARGES
----------------------
   0 C :   -0.257544
   1 N :    0.017532
   2 C :   -0.574218
   3 N :    0.127054
   4 C :   -0.012767
   5 H :    0.009351
   6 H :    0.012226
   7 H :    0.148527
   8 H :    0.084267
   9 C :   -0.096012
  10 H :    0.117677
  11 H :    0.107638
  12 H :    0.107389
  13 H :    0.072127
  14 H :    0.067919
  15 H :    0.068832

  Mayer bond orders larger than 0.100000
B(  0-C ,  1-N ) :   0.7635 B(  0-C ,  2-C ) :  -0.1511 B(  0-C ,  9-C ) :   0.5289
B(  0-C , 10-H ) :   0.8914 B(  0-C , 11-H ) :   0.8841 B(  1-N ,  2-C ) :   1.0154
B(  1-N ,  4-C ) :   0.1274 B(  1-N ,  7-H ) :   1.0485 B(  2-C ,  3-N ) :   0.8945
B(  2-C ,  4-C ) :   1.0080 B(  2-C ,  5-H ) :  -0.1593 B(  3-N ,  8-H ) :   1.0163
B(  3-N , 12-H ) :   1.0004 B(  4-C ,  5-H ) :   1.1255 B(  4-C ,  6-H ) :   0.9888
B(  9-C , 13-H ) :   0.9604 B(  9-C , 14-H ) :   0.8940 B(  9-C , 15-H ) :   0.9247

FINAL SINGLE POINT ENERGY      -267.294559716076

DIPOLE MOMENT
-------------
                                X             Y             Z
Electronic contribution:      2.50285       0.91650       0.96396
Nuclear contribution   :     -3.31079      -1.42658      -0.45147
                        -----------------------------------------
Total Dipole Moment    :     -0.80794      -0.51008       0.51250
                        -----------------------------------------
Magnitude (a.u.)       :      1.08425
Magnitude (Debye)      :      2.75595

Rotational constants in cm-1:     0.225507     0.077571     0.068070
Rotational constants in MHz :  6760.542142  2325.533779  2040.680522

                             ****ORCA TERMINATED NORMALLY****
TOTAL RUN TIME: 0 days 0 hours 0 minutes 30 seconds 62 msec
