                         Program Version 5.0.0 -  RELEASE  -
|  1> !LC-BLYP RIJCOSX def2-TZVPD def2/J TightSCF xyzfile
|  2>
|  3> *xyzfile 0 1 D1.xyz
|  4>
|  5> %MaxCore 64000
|  6>
|  7> %pal nprocs 4
|  8> end
|  9>
| 10> %scf
| 11>   MaxIter 150
| 12> end
| 13>
| 14>
| 15>                          ****END OF INPUT****

CARTESIAN COORDINATES (ANGSTROEM)
---------------------------------
  C      3.913853   -1.658291    3.015134
  C      5.039266   -0.901154    2.492821
  C      4.084215    1.742081   -2.114724
  C      4.265245    2.500518   -0.795890
  H      4.868534    3.392674   -0.981134
  H      3.307640    2.824571   -0.387809
  C      4.982240    1.650257    0.247422
  C      6.210384   -1.417261    2.178244
  N      6.535913   -2.677122    2.556078
  N      7.076754   -0.700820    1.478906
  H      7.954643   -1.121554    1.207554
  H      6.756161    0.106637    0.960278
  H      4.842168    0.017609    2.115191
  H      5.993876   -3.126918    3.282784
  H      7.498441   -2.975482    2.468776
  F      4.368065    1.389270    1.313706
  O      6.128919    1.233512   -0.045620
  C      3.139159   -2.376572    1.910609
  H      3.267235   -0.939401    3.520693
  H      4.247195   -2.355095    3.790065
  C      1.997274    0.430918   -1.399218
  C      3.412746    0.376886   -1.965497
  H      4.047407   -0.246590   -1.326706
  H      3.390774   -0.118719   -2.942839
  H      5.068475    1.598504   -2.565728
  H      3.503356    2.363939   -2.804565
  C      2.399946   -1.389579    1.009490
  H      2.440750   -3.087118    2.362976
  H      3.844475   -2.970462    1.318677
  C      2.070177   -1.936705   -0.372401
  H      1.481611   -1.061542    1.509912
  H      3.008628   -0.490001    0.897451
  C      1.322238   -0.935775   -1.256413
  H      1.472747   -2.850902   -0.283997
  H      3.003539   -2.234041   -0.862535
  H      1.376444    1.058920   -2.047420
  H      2.015341    0.929780   -0.426535
  H      0.316648   -0.787213   -0.848278
  H      1.185611   -1.379252   -2.248613

 Total Charge           Charge          ....    0
 Multiplicity           Mult            ....    1
 Number of Electrons    NEL             ....  126
 Basis Dimension        Dim             ....  805

ORBITAL ENERGIES
----------------

  NO   OCC          E(Eh)            E(eV)
   0   2.0000     -24.539013      -667.7405
   1   2.0000     -18.968394      -516.1562
   2   2.0000     -14.154818      -385.1722
   3   2.0000     -14.128887      -384.4666
   4   2.0000     -10.271714      -279.5076
   5   2.0000     -10.107429      -275.0371
   6   2.0000     -10.094035      -274.6726
   7   2.0000     -10.086945      -274.4797
   8   2.0000     -10.071025      -274.0465
   9   2.0000     -10.065946      -273.9083
  10   2.0000     -10.059915      -273.7442
  11   2.0000     -10.052150      -273.5329
  12   2.0000     -10.045894      -273.3627
  13   2.0000     -10.037577      -273.1364
  14   2.0000     -10.032517      -272.9987
  15   2.0000      -9.966717      -271.2081
  16   2.0000      -1.417680       -38.5770
  17   2.0000      -1.156125       -31.4598
  18   2.0000      -1.039643       -28.2901
  19   2.0000      -0.948885       -25.8205
  20   2.0000      -0.943246       -25.6670
  21   2.0000      -0.914819       -24.8935
  22   2.0000      -0.885594       -24.0982
  23   2.0000      -0.855869       -23.2894
  24   2.0000      -0.817792       -22.2533
  25   2.0000      -0.795410       -21.6442
  26   2.0000      -0.769229       -20.9318
  27   2.0000      -0.745023       -20.2731
  28   2.0000      -0.713523       -19.4159
  29   2.0000      -0.696489       -18.9524
  30   2.0000      -0.678112       -18.4524
  31   2.0000      -0.668878       -18.2011
  32   2.0000      -0.662720       -18.0335
  33   2.0000      -0.659682       -17.9509
  34   2.0000      -0.631676       -17.1888
  35   2.0000      -0.619853       -16.8670
  36   2.0000      -0.595328       -16.1997
  37   2.0000      -0.588255       -16.0072
  38   2.0000      -0.584924       -15.9166
  39   2.0000      -0.566371       -15.4117
  40   2.0000      -0.551642       -15.0109
  41   2.0000      -0.539826       -14.6894
  42   2.0000      -0.531818       -14.4715
  43   2.0000      -0.522532       -14.2188
  44   2.0000      -0.517386       -14.0788
  45   2.0000      -0.512689       -13.9510
  46   2.0000      -0.495140       -13.4735
  47   2.0000      -0.492317       -13.3966
  48   2.0000      -0.474035       -12.8991
  49   2.0000      -0.466458       -12.6930
  50   2.0000      -0.465628       -12.6704
  51   2.0000      -0.460780       -12.5385
  52   2.0000      -0.448938       -12.2162
  53   2.0000      -0.436870       -11.8878
  54   2.0000      -0.433931       -11.8079
  55   2.0000      -0.420937       -11.4543
  56   2.0000      -0.408920       -11.1273
  57   2.0000      -0.404654       -11.0112
  58   2.0000      -0.401526       -10.9261
  59   2.0000      -0.395759       -10.7692
  60   2.0000      -0.388971       -10.5844
  61   2.0000      -0.343886        -9.3576
  62   2.0000      -0.237232        -6.4554
  63   0.0000       0.028321         0.7706
  64   0.0000       0.047647         1.2965
  65   0.0000       0.055336         1.5058
  66   0.0000       0.060176         1.6375
  67   0.0000       0.062975         1.7136

MULLIKEN ATOMIC CHARGES
-----------------------
   0 C :   -1.329162
   1 C :   -0.749677
   2 C :   -0.905276
   3 C :   -0.713357
   4 H :    0.438411
   5 H :    0.414604
   6 C :    0.648422
   7 C :    0.084624
   8 N :   -0.372215
   9 N :   -0.354159
  10 H :    0.136267
  11 H :    0.249700
  12 H :    0.762360
  13 H :    0.168955
  14 H :    0.140548
  15 F :   -0.231216
  16 O :   -0.613241
  17 C :   -0.706422
  18 H :    0.333092
  19 H :    0.604571
  20 C :   -0.704009
  21 C :   -0.666036
  22 H :    0.375045
  23 H :    0.386703
  24 H :    0.390039
  25 H :    0.443292
  26 C :    0.062116
  27 H :    0.442203
  28 H :    0.454812
  29 C :   -0.910956
  30 H :    0.334040
  31 H :   -0.081363
  32 C :   -0.957945
  33 H :    0.403121
  34 H :    0.427946
  35 H :    0.378876
  36 H :    0.389398
  37 H :    0.409144
  38 H :    0.416743
Sum of atomic charges:   -0.0000000

LOEWDIN ATOMIC CHARGES
----------------------
   0 C :   -0.237478
   1 C :   -0.144044
   2 C :   -0.202804
   3 C :   -0.106104
   4 H :    0.134790
   5 H :    0.120212
   6 C :   -0.455968
   7 C :   -0.532678
   8 N :    0.132250
   9 N :    0.128020
  10 H :    0.099566
  11 H :    0.024309
  12 H :    0.032945
  13 H :    0.090536
  14 H :    0.093697
  15 F :    0.205886
  16 O :    0.106164
  17 C :   -0.212713
  18 H :    0.117075
  19 H :    0.102132
  20 C :   -0.229351
  21 C :   -0.217486
  22 H :    0.114335
  23 H :    0.129305
  24 H :    0.120753
  25 H :    0.123801
  26 C :   -0.228155
  27 H :    0.114113
  28 H :    0.118306
  29 C :   -0.229193
  30 H :    0.131686
  31 H :    0.084968
  32 C :   -0.223122
  33 H :    0.120909
  34 H :    0.115394
  35 H :    0.122743
  36 H :    0.103822
  37 H :    0.116157
  38 H :    0.115224

  Mayer bond orders larger than 0.100000
B(  0-C ,  1-C ) :   0.2393 B(  0-C , 12-H ) :  -0.2057 B(  0-C , 17-C ) :   0.4932
B(  0-C , 18-H ) :   1.1313 B(  0-C , 19-H ) :   0.7873 B(  0-C , 26-C ) :   0.1300
B(  0-C , 27-H ) :  -0.1015 B(  1-C ,  7-C ) :   1.5215 B(  1-C , 12-H ) :   0.1446
B(  1-C , 17-C ) :  -0.3018 B(  1-C , 19-H ) :  -0.2447 B(  1-C , 26-C ) :   0.1132
B(  1-C , 31-H ) :  -0.1441 B(  2-C ,  3-C ) :   0.6254 B(  2-C , 21-C ) :   0.6780
B(  2-C , 24-H ) :   0.9613 B(  2-C , 25-H ) :   0.8691 B(  3-C ,  4-H ) :   0.8520
B(  3-C ,  5-H ) :   0.9813 B(  3-C ,  6-C ) :   0.7386 B(  3-C , 21-C ) :  -0.1451
B(  6-C , 15-F ) :   1.0157 B(  6-C , 16-O ) :   1.5107 B(  7-C ,  8-N ) :   0.9233
B(  7-C ,  9-N ) :   0.9773 B(  7-C , 12-H ) :   0.2395 B(  8-N , 13-H ) :   0.9771
B(  8-N , 14-H ) :   1.0608 B(  9-N , 10-H ) :   1.0556 B(  9-N , 11-H ) :   0.8650
B( 12-H , 15-F ) :  -0.3255 B( 12-H , 16-O ) :   0.1273 B( 12-H , 17-C ) :   0.1268
B( 12-H , 26-C ) :  -0.1301 B( 17-C , 26-C ) :   0.4977 B( 17-C , 27-H ) :   0.9110
B( 17-C , 28-H ) :   0.8047 B( 17-C , 29-C ) :   0.1882 B( 20-C , 21-C ) :   0.1148
B( 20-C , 22-H ) :  -0.1382 B( 20-C , 29-C ) :  -0.1124 B( 20-C , 32-C ) :   0.6714
B( 20-C , 35-H ) :   0.9384 B( 20-C , 36-H ) :   1.0078 B( 21-C , 22-H ) :   1.0149
B( 21-C , 23-H ) :   0.9283 B( 21-C , 36-H ) :  -0.1344 B( 26-C , 29-C ) :   0.2839
B( 26-C , 30-H ) :   0.9633 B( 26-C , 31-H ) :   1.0599 B( 29-C , 31-H ) :  -0.1105
B( 29-C , 32-C ) :   0.6271 B( 29-C , 33-H ) :   0.9026 B( 29-C , 34-H ) :   0.9457
B( 30-H , 31-H ) :   0.1372 B( 32-C , 37-H ) :   0.9525 B( 32-C , 38-H ) :   0.9419

FINAL SINGLE POINT ENERGY      -754.064287761756

DIPOLE MOMENT
-------------
                                X             Y             Z
Electronic contribution:     11.25246       8.97802       5.90176
Nuclear contribution   :    -11.48003      -8.36271      -6.78621
                        -----------------------------------------
Total Dipole Moment    :     -0.22757       0.61530      -0.88445
                        -----------------------------------------
Magnitude (a.u.)       :      1.10120
Magnitude (Debye)      :      2.79903

Rotational constants in cm-1:     0.020055     0.013548     0.009477
Rotational constants in MHz :   601.234832   406.162779   284.104317

                             ****ORCA TERMINATED NORMALLY****
TOTAL RUN TIME: 0 days 0 hours 15 minutes 6 seconds 969 msec
