                         Program Version 5.0.0 -  RELEASE  -
|  1> !LC-BLYP RIJCOSX def2-TZVPD def2/J TightSCF xyzfile
|  2>
|  3> *xyzfile 0 1 D2.xyz
|  4>
|  5> %MaxCore 64000
|  6>
|  7> %pal nprocs 4
|  8> end
|  9>
| 10> %scf
| 11>   MaxIter 150
| 12> end
| 13>
| 14>
| 15>                          ****END OF INPUT****

CARTESIAN COORDINATES (ANGSTROEM)
---------------------------------
  C      3.913853   -1.658291    3.015134
  N      5.039266   -0.901154    2.492821
  C      4.084215    1.742081   -2.114724
  C      4.265245    2.500518   -0.795890
  H      4.868534    3.392674   -0.981134
  H      3.307640    2.824571   -0.387809
  C      4.982240    1.650257    0.247422
  C      6.210384   -1.417261    2.178244
  C      6.535913   -2.677122    2.556078
  N      7.076754   -0.700820    1.478906
  H      7.954643   -1.121554    1.207554
  H      6.756161    0.106637    0.960278
  H      4.842168    0.017609    2.115191
  H      5.993876   -3.126918    3.282784
  H      7.498441   -2.975482    2.468776
  F      4.368065    1.389270    1.313706
  O      6.128919    1.233512   -0.045620
  C      3.139159   -2.376572    1.910609
  H      3.267235   -0.939401    3.520693
  H      4.247195   -2.355095    3.790065
  C      1.997274    0.430918   -1.399218
  C      3.412746    0.376886   -1.965497
  H      4.047407   -0.246590   -1.326706
  H      3.390774   -0.118719   -2.942839
  H      5.068475    1.598504   -2.565728
  H      3.503356    2.363939   -2.804565
  C      2.399946   -1.389579    1.009490
  H      2.440750   -3.087118    2.362976
  H      3.844475   -2.970462    1.318677
  C      2.070177   -1.936705   -0.372401
  H      1.481611   -1.061542    1.509912
  H      3.008628   -0.490001    0.897451
  C      1.322238   -0.935775   -1.256413
  H      1.472747   -2.850902   -0.283997
  H      3.003539   -2.234041   -0.862535
  H      1.376444    1.058920   -2.047420
  H      2.015341    0.929780   -0.426535
  H      0.316648   -0.787213   -0.848278
  H      1.185611   -1.379252   -2.248613

 Total Charge           Charge          ....    0
 Multiplicity           Mult            ....    1
 Number of Electrons    NEL             ....  126
 Basis Dimension        Dim             ....  805

ORBITAL ENERGIES
----------------

  NO   OCC          E(Eh)            E(eV)
   0   2.0000     -24.566960      -668.5010
   1   2.0000     -18.983834      -516.5764
   2   2.0000     -14.151914      -385.0932
   3   2.0000     -14.129777      -384.4908
   4   2.0000     -10.287604      -279.9399
   5   2.0000     -10.119532      -275.3665
   6   2.0000     -10.097277      -274.7609
   7   2.0000     -10.096539      -274.7408
   8   2.0000     -10.088565      -274.5238
   9   2.0000     -10.080515      -274.3048
  10   2.0000     -10.075592      -274.1708
  11   2.0000     -10.069134      -273.9951
  12   2.0000     -10.062865      -273.8245
  13   2.0000     -10.061557      -273.7889
  14   2.0000     -10.052869      -273.5525
  15   2.0000      -9.959434      -271.0100
  16   2.0000      -1.443897       -39.2904
  17   2.0000      -1.171517       -31.8786
  18   2.0000      -1.053305       -28.6619
  19   2.0000      -0.968128       -26.3441
  20   2.0000      -0.954792       -25.9812
  21   2.0000      -0.923291       -25.1240
  22   2.0000      -0.887624       -24.1535
  23   2.0000      -0.853757       -23.2319
  24   2.0000      -0.824072       -22.4241
  25   2.0000      -0.801534       -21.8108
  26   2.0000      -0.787384       -21.4258
  27   2.0000      -0.765412       -20.8279
  28   2.0000      -0.729903       -19.8617
  29   2.0000      -0.709275       -19.3003
  30   2.0000      -0.699021       -19.0213
  31   2.0000      -0.685836       -18.6625
  32   2.0000      -0.677455       -18.4345
  33   2.0000      -0.658331       -17.9141
  34   2.0000      -0.640352       -17.4249
  35   2.0000      -0.619033       -16.8447
  36   2.0000      -0.604997       -16.4628
  37   2.0000      -0.597427       -16.2568
  38   2.0000      -0.594887       -16.1877
  39   2.0000      -0.574917       -15.6443
  40   2.0000      -0.559819       -15.2334
  41   2.0000      -0.553629       -15.0650
  42   2.0000      -0.537796       -14.6342
  43   2.0000      -0.534586       -14.5468
  44   2.0000      -0.523216       -14.2374
  45   2.0000      -0.513618       -13.9763
  46   2.0000      -0.506260       -13.7760
  47   2.0000      -0.494155       -13.4466
  48   2.0000      -0.484005       -13.1704
  49   2.0000      -0.478293       -13.0150
  50   2.0000      -0.472768       -12.8647
  51   2.0000      -0.463394       -12.6096
  52   2.0000      -0.460390       -12.5278
  53   2.0000      -0.450481       -12.2582
  54   2.0000      -0.444867       -12.1054
  55   2.0000      -0.436869       -11.8878
  56   2.0000      -0.427098       -11.6219
  57   2.0000      -0.416108       -11.3229
  58   2.0000      -0.415312       -11.3012
  59   2.0000      -0.412964       -11.2373
  60   2.0000      -0.408114       -11.1053
  61   2.0000      -0.325954        -8.8697
  62   2.0000      -0.238916        -6.5012
  63   0.0000       0.013959         0.3798
  64   0.0000       0.037881         1.0308
  65   0.0000       0.051828         1.4103
  66   0.0000       0.053924         1.4673
  67   0.0000       0.060854         1.6559

MULLIKEN ATOMIC CHARGES
-----------------------
   0 C :   -1.249864
   1 N :   -0.354376
   2 C :   -0.916720
   3 C :   -0.708854
   4 H :    0.439451
   5 H :    0.419442
   6 C :    0.598725
   7 C :    0.648706
   8 C :   -1.256132
   9 N :   -0.388612
  10 H :    0.151620
  11 H :    0.290575
  12 H :    0.383669
  13 H :    0.274846
  14 H :    0.390871
  15 F :   -0.361309
  16 O :   -0.608812
  17 C :   -0.672580
  18 H :    0.413755
  19 H :    0.481565
  20 C :   -0.702388
  21 C :   -0.656571
  22 H :    0.364797
  23 H :    0.395182
  24 H :    0.392027
  25 H :    0.443503
  26 C :    0.044418
  27 H :    0.482127
  28 H :    0.468468
  29 C :   -0.918621
  30 H :    0.344971
  31 H :   -0.122234
  32 C :   -0.954118
  33 H :    0.416824
  34 H :    0.418008
  35 H :    0.389501
  36 H :    0.383164
  37 H :    0.416821
  38 H :    0.418152
Sum of atomic charges:    0.0000000

LOEWDIN ATOMIC CHARGES
----------------------
   0 C :   -0.198965
   1 N :    0.036553
   2 C :   -0.200611
   3 C :   -0.105187
   4 H :    0.136462
   5 H :    0.120674
   6 C :   -0.456455
   7 C :   -0.561051
   8 C :   -0.008293
   9 N :    0.134972
  10 H :    0.112454
  11 H :    0.019046
  12 H :    0.084683
  13 H :   -0.006931
  14 H :    0.004277
  15 F :    0.211264
  16 O :    0.111017
  17 C :   -0.193465
  18 H :    0.125207
  19 H :    0.114568
  20 C :   -0.229335
  21 C :   -0.216715
  22 H :    0.114023
  23 H :    0.130793
  24 H :    0.122166
  25 H :    0.125228
  26 C :   -0.230988
  27 H :    0.120861
  28 H :    0.118759
  29 C :   -0.226959
  30 H :    0.131080
  31 H :    0.081463
  32 C :   -0.221398
  33 H :    0.122944
  34 H :    0.117601
  35 H :    0.123783
  36 H :    0.102773
  37 H :    0.116920
  38 H :    0.116781

  Mayer bond orders larger than 0.100000
B(  0-C ,  1-N ) :   0.8494 B(  0-C , 17-C ) :   0.5390 B(  0-C , 18-H ) :   0.8257
B(  0-C , 19-H ) :   0.8351 B(  0-C , 27-H ) :  -0.1101 B(  1-N ,  7-C ) :   1.0143
B(  1-N ,  8-C ) :   0.1036 B(  1-N , 12-H ) :   0.7321 B(  2-C ,  3-C ) :   0.6356
B(  2-C , 21-C ) :   0.6870 B(  2-C , 24-H ) :   0.9570 B(  2-C , 25-H ) :   0.8673
B(  3-C ,  4-H ) :   0.8573 B(  3-C ,  5-H ) :   0.9707 B(  3-C ,  6-C ) :   0.7538
B(  3-C , 21-C ) :  -0.1481 B(  6-C , 15-F ) :   0.9308 B(  6-C , 16-O ) :   1.5372
B(  7-C ,  8-C ) :   0.8688 B(  7-C ,  9-N ) :   0.8514 B(  7-C , 11-H ) :  -0.1178
B(  7-C , 12-H ) :  -0.1171 B(  7-C , 13-H ) :  -0.1206 B(  7-C , 14-H ) :  -0.1214
B(  8-C ,  9-N ) :   0.1006 B(  8-C , 13-H ) :   1.1233 B(  8-C , 14-H ) :   1.0006
B(  9-N , 10-H ) :   1.0249 B(  9-N , 11-H ) :   0.8326 B( 17-C , 26-C ) :   0.4657
B( 17-C , 27-H ) :   0.8959 B( 17-C , 28-H ) :   0.7924 B( 17-C , 29-C ) :   0.1821
B( 20-C , 22-H ) :  -0.1508 B( 20-C , 29-C ) :  -0.1047 B( 20-C , 32-C ) :   0.6822
B( 20-C , 35-H ) :   0.9320 B( 20-C , 36-H ) :   1.0134 B( 21-C , 22-H ) :   1.0272
B( 21-C , 23-H ) :   0.9226 B( 21-C , 36-H ) :  -0.1424 B( 26-C , 29-C ) :   0.2866
B( 26-C , 30-H ) :   0.9578 B( 26-C , 31-H ) :   1.1004 B( 29-C , 31-H ) :  -0.1009
B( 29-C , 32-C ) :   0.6402 B( 29-C , 33-H ) :   0.8807 B( 29-C , 34-H ) :   0.9627
B( 30-H , 31-H ) :   0.1497 B( 32-C , 37-H ) :   0.9408 B( 32-C , 38-H ) :   0.9403

FINAL SINGLE POINT ENERGY      -754.060508480052

DIPOLE MOMENT
-------------
                                X             Y             Z
Electronic contribution:      9.71728      10.56236       5.50616
Nuclear contribution   :    -11.22009      -8.67117      -6.77523
                        -----------------------------------------
Total Dipole Moment    :     -1.50281       1.89119      -1.26907
                        -----------------------------------------
Magnitude (a.u.)       :      2.72866
Magnitude (Debye)      :      6.93570

Rotational constants in cm-1:     0.020086     0.013778     0.009581
Rotational constants in MHz :   602.172053   413.051122   287.243919

                             ****ORCA TERMINATED NORMALLY****
TOTAL RUN TIME: 0 days 0 hours 11 minutes 55 seconds 352 msec
