                         Program Version 5.0.0 -  RELEASE  -
|  1> !LC-BLYP RIJCOSX def2-TZVPD def2/J TightSCF xyzfile
|  2>
|  3> *xyzfile 0 1 D3.xyz
|  4>
|  5> %MaxCore 64000
|  6>
|  7> %pal nprocs 4
|  8> end
|  9>
| 10> %scf
| 11>   MaxIter 150
| 12> end
| 13>
| 14>
| 15>                          ****END OF INPUT****

CARTESIAN COORDINATES (ANGSTROEM)
---------------------------------
  C      3.913853   -1.658291    3.015134
  N      5.039266   -0.901154    2.492821
  C      4.084215    1.742081   -2.114724
  C      4.265245    2.500518   -0.795890
  H      4.868534    3.392674   -0.981134
  H      3.307640    2.824571   -0.387809
  C      4.982240    1.650257    0.247422
  C      6.210384   -1.417261    2.178244
  N      6.535913   -2.677122    2.556078
  C      7.076754   -0.700820    1.478906
  H      7.954643   -1.121554    1.207554
  H      6.756161    0.106637    0.960278
  H      4.842168    0.017609    2.115191
  H      5.993876   -3.126918    3.282784
  H      7.498441   -2.975482    2.468776
  F      4.368065    1.389270    1.313706
  O      6.128919    1.233512   -0.045620
  C      3.139159   -2.376572    1.910609
  H      3.267235   -0.939401    3.520693
  H      4.247195   -2.355095    3.790065
  C      1.997274    0.430918   -1.399218
  C      3.412746    0.376886   -1.965497
  H      4.047407   -0.246590   -1.326706
  H      3.390774   -0.118719   -2.942839
  H      5.068475    1.598504   -2.565728
  H      3.503356    2.363939   -2.804565
  C      2.399946   -1.389579    1.009490
  H      2.440750   -3.087118    2.362976
  H      3.844475   -2.970462    1.318677
  C      2.070177   -1.936705   -0.372401
  H      1.481611   -1.061542    1.509912
  H      3.008628   -0.490001    0.897451
  C      1.322238   -0.935775   -1.256413
  H      1.472747   -2.850902   -0.283997
  H      3.003539   -2.234041   -0.862535
  H      1.376444    1.058920   -2.047420
  H      2.015341    0.929780   -0.426535
  H      0.316648   -0.787213   -0.848278
  H      1.185611   -1.379252   -2.248613

 Total Charge           Charge          ....    0
 Multiplicity           Mult            ....    1
 Number of Electrons    NEL             ....  126
 Basis Dimension        Dim             ....  805

ORBITAL ENERGIES
----------------

  NO   OCC          E(Eh)            E(eV)
   0   2.0000     -24.548753      -668.0055
   1   2.0000     -18.954236      -515.7710
   2   2.0000     -14.151390      -385.0789
   3   2.0000     -14.147649      -384.9771
   4   2.0000     -10.263378      -279.2807
   5   2.0000     -10.105121      -274.9743
   6   2.0000     -10.096329      -274.7351
   7   2.0000     -10.092955      -274.6433
   8   2.0000     -10.085494      -274.4402
   9   2.0000     -10.072334      -274.0822
  10   2.0000     -10.070243      -274.0253
  11   2.0000     -10.066726      -273.9296
  12   2.0000     -10.063102      -273.8309
  13   2.0000     -10.062740      -273.8211
  14   2.0000     -10.059345      -273.7287
  15   2.0000      -9.942335      -270.5447
  16   2.0000      -1.425730       -38.7961
  17   2.0000      -1.143745       -31.1229
  18   2.0000      -1.052765       -28.6472
  19   2.0000      -0.968679       -26.3591
  20   2.0000      -0.945377       -25.7250
  21   2.0000      -0.918836       -25.0028
  22   2.0000      -0.888861       -24.1871
  23   2.0000      -0.850829       -23.1522
  24   2.0000      -0.824858       -22.4455
  25   2.0000      -0.798055       -21.7162
  26   2.0000      -0.774923       -21.0867
  27   2.0000      -0.753474       -20.5031
  28   2.0000      -0.718656       -19.5556
  29   2.0000      -0.709480       -19.3059
  30   2.0000      -0.690439       -18.7878
  31   2.0000      -0.679999       -18.5037
  32   2.0000      -0.671152       -18.2630
  33   2.0000      -0.651634       -17.7319
  34   2.0000      -0.637269       -17.3410
  35   2.0000      -0.615430       -16.7467
  36   2.0000      -0.599373       -16.3098
  37   2.0000      -0.590551       -16.0697
  38   2.0000      -0.579121       -15.7587
  39   2.0000      -0.567942       -15.4545
  40   2.0000      -0.561106       -15.2685
  41   2.0000      -0.547260       -14.8917
  42   2.0000      -0.536942       -14.6109
  43   2.0000      -0.533390       -14.5143
  44   2.0000      -0.521186       -14.1822
  45   2.0000      -0.504547       -13.7294
  46   2.0000      -0.500266       -13.6129
  47   2.0000      -0.489930       -13.3317
  48   2.0000      -0.478361       -13.0169
  49   2.0000      -0.471988       -12.8434
  50   2.0000      -0.467936       -12.7332
  51   2.0000      -0.464745       -12.6464
  52   2.0000      -0.456520       -12.4225
  53   2.0000      -0.448872       -12.2144
  54   2.0000      -0.443131       -12.0582
  55   2.0000      -0.433962       -11.8087
  56   2.0000      -0.426978       -11.6187
  57   2.0000      -0.415443       -11.3048
  58   2.0000      -0.412755       -11.2316
  59   2.0000      -0.409592       -11.1456
  60   2.0000      -0.368199       -10.0192
  61   2.0000      -0.337893        -9.1945
  62   2.0000      -0.234562        -6.3828
  63   0.0000       0.033053         0.8994
  64   0.0000       0.045974         1.2510
  65   0.0000       0.056279         1.5314
  66   0.0000       0.057236         1.5575
  67   0.0000       0.060079         1.6348

MULLIKEN ATOMIC CHARGES
-----------------------
   0 C :   -1.290398
   1 N :   -0.244040
   2 C :   -0.907769
   3 C :   -0.741228
   4 H :    0.442964
   5 H :    0.412224
   6 C :    0.581892
   7 C :    0.701243
   8 N :   -0.403719
   9 C :   -1.195542
  10 H :    0.232439
  11 H :    0.297564
  12 H :    0.360981
  13 H :    0.150166
  14 H :    0.191743
  15 F :   -0.356961
  16 O :   -0.523507
  17 C :   -0.608404
  18 H :    0.421684
  19 H :    0.480027
  20 C :   -0.703309
  21 C :   -0.700378
  22 H :    0.410533
  23 H :    0.389045
  24 H :    0.392100
  25 H :    0.441326
  26 C :    0.058117
  27 H :    0.491579
  28 H :    0.453895
  29 C :   -0.944119
  30 H :    0.361148
  31 H :   -0.152451
  32 C :   -0.944804
  33 H :    0.407767
  34 H :    0.438725
  35 H :    0.384714
  36 H :    0.382006
  37 H :    0.415916
  38 H :    0.416831
Sum of atomic charges:    0.0000000

LOEWDIN ATOMIC CHARGES
----------------------
   0 C :   -0.203396
   1 N :    0.035560
   2 C :   -0.201889
   3 C :   -0.108999
   4 H :    0.134571
   5 H :    0.117916
   6 C :   -0.462564
   7 C :   -0.552867
   8 N :    0.122554
   9 C :    0.006208
  10 H :    0.018113
  11 H :   -0.047587
  12 H :    0.089449
  13 H :    0.080097
  14 H :    0.104394
  15 F :    0.206487
  16 O :    0.104557
  17 C :   -0.198294
  18 H :    0.125805
  19 H :    0.110439
  20 C :   -0.229502
  21 C :   -0.216816
  22 H :    0.114908
  23 H :    0.129721
  24 H :    0.122109
  25 H :    0.123520
  26 C :   -0.228867
  27 H :    0.118629
  28 H :    0.120245
  29 C :   -0.227667
  30 H :    0.131910
  31 H :    0.084100
  32 C :   -0.221759
  33 H :    0.121907
  34 H :    0.117572
  35 H :    0.123472
  36 H :    0.102939
  37 H :    0.116409
  38 H :    0.116613

  Mayer bond orders larger than 0.100000
B(  0-C ,  1-N ) :   0.8716 B(  0-C ,  7-C ) :  -0.2070 B(  0-C ,  8-N ) :   0.1083
B(  0-C , 17-C ) :   0.4569 B(  0-C , 18-H ) :   0.8340 B(  0-C , 19-H ) :   0.8491
B(  0-C , 27-H ) :  -0.1449 B(  1-N ,  7-C ) :   1.0770 B(  1-N , 12-H ) :   0.7670
B(  2-C ,  3-C ) :   0.6532 B(  2-C , 21-C ) :   0.7116 B(  2-C , 24-H ) :   0.9483
B(  2-C , 25-H ) :   0.8659 B(  3-C ,  4-H ) :   0.8472 B(  3-C ,  5-H ) :   0.9803
B(  3-C ,  6-C ) :   0.7456 B(  3-C , 21-C ) :  -0.1432 B(  6-C , 15-F ) :   0.9111
B(  6-C , 16-O ) :   1.6128 B(  7-C ,  8-N ) :   0.8515 B(  7-C ,  9-C ) :   0.8236
B(  7-C , 10-H ) :  -0.2647 B(  7-C , 11-H ) :  -0.1214 B(  7-C , 12-H ) :  -0.1064
B(  8-N , 13-H ) :   1.0359 B(  8-N , 14-H ) :   0.9866 B(  9-C , 10-H ) :   1.3446
B(  9-C , 11-H ) :   1.1024 B(  9-C , 16-O ) :   0.1673 B( 11-H , 16-O ) :  -0.3396
B( 12-H , 15-F ) :  -0.1048 B( 17-C , 19-H ) :  -0.1081 B( 17-C , 26-C ) :   0.5089
B( 17-C , 27-H ) :   0.9155 B( 17-C , 28-H ) :   0.7783 B( 17-C , 29-C ) :   0.1923
B( 20-C , 22-H ) :  -0.1446 B( 20-C , 29-C ) :  -0.1024 B( 20-C , 32-C ) :   0.6732
B( 20-C , 35-H ) :   0.9363 B( 20-C , 36-H ) :   1.0152 B( 21-C , 22-H ) :   0.9921
B( 21-C , 23-H ) :   0.9322 B( 21-C , 36-H ) :  -0.1384 B( 26-C , 29-C ) :   0.2754
B( 26-C , 30-H ) :   0.9575 B( 26-C , 31-H ) :   1.0978 B( 29-C , 31-H ) :  -0.1066
B( 29-C , 32-C ) :   0.6317 B( 29-C , 33-H ) :   0.8976 B( 29-C , 34-H ) :   0.9410
B( 30-H , 31-H ) :   0.1405 B( 32-C , 37-H ) :   0.9417 B( 32-C , 38-H ) :   0.9410

FINAL SINGLE POINT ENERGY      -754.040148275834

DIPOLE MOMENT
-------------
                                X             Y             Z
Electronic contribution:      9.43144       8.69156       6.67877
Nuclear contribution   :    -11.12616      -8.32792      -6.96231
                        -----------------------------------------
Total Dipole Moment    :     -1.69471       0.36364      -0.28354
                        -----------------------------------------
Magnitude (a.u.)       :      1.75633
Magnitude (Debye)      :      4.46423

Rotational constants in cm-1:     0.020226     0.013574     0.009520
Rotational constants in MHz :   606.360011   406.923773   285.390769

                             ****ORCA TERMINATED NORMALLY****
TOTAL RUN TIME: 0 days 0 hours 12 minutes 51 seconds 583 msec
