                         Program Version 5.0.0 -  RELEASE  -
|  1> !LC-BLYP RIJCOSX def2-TZVPD def2/J TightSCF xyzfile
|  2>
|  3> *xyzfile 0 1 D4.xyz
|  4>
|  5> %MaxCore 64000
|  6>
|  7> %pal nprocs 4
|  8> end
|  9>
| 10> %scf
| 11>   MaxIter 150
| 12> end
| 13>
| 14>
| 15>                          ****END OF INPUT****

CARTESIAN COORDINATES (ANGSTROEM)
---------------------------------
  C      3.913853   -1.658291    3.015134
  C      5.039266   -0.901154    2.492821
  C      4.084215    1.742081   -2.114724
  C      4.265245    2.500518   -0.795890
  H      4.868534    3.392674   -0.981134
  H      3.307640    2.824571   -0.387809
  C      4.982240    1.650257    0.247422
  C      6.210384   -1.417261    2.178244
  N      6.535913   -2.677122    2.556078
  N      7.076754   -0.700820    1.478906
  H      7.954643   -1.121554    1.207554
  H      6.756161    0.106637    0.960278
  H      4.842168    0.017609    2.115191
  H      5.993876   -3.126918    3.282784
  H      7.498441   -2.975482    2.468776
  O      4.368065    1.389270    1.313706
  F      6.128919    1.233512   -0.045620
  C      3.139159   -2.376572    1.910609
  H      3.267235   -0.939401    3.520693
  H      4.247195   -2.355095    3.790065
  C      1.997274    0.430918   -1.399218
  C      3.412746    0.376886   -1.965497
  H      4.047407   -0.246590   -1.326706
  H      3.390774   -0.118719   -2.942839
  H      5.068475    1.598504   -2.565728
  H      3.503356    2.363939   -2.804565
  C      2.399946   -1.389579    1.009490
  H      2.440750   -3.087118    2.362976
  H      3.844475   -2.970462    1.318677
  C      2.070177   -1.936705   -0.372401
  H      1.481611   -1.061542    1.509912
  H      3.008628   -0.490001    0.897451
  C      1.322238   -0.935775   -1.256413
  H      1.472747   -2.850902   -0.283997
  H      3.003539   -2.234041   -0.862535
  H      1.376444    1.058920   -2.047420
  H      2.015341    0.929780   -0.426535
  H      0.316648   -0.787213   -0.848278
  H      1.185611   -1.379252   -2.248613

 Total Charge           Charge          ....    0
 Multiplicity           Mult            ....    1
 Number of Electrons    NEL             ....  126
 Basis Dimension        Dim             ....  805

ORBITAL ENERGIES
----------------

  NO   OCC          E(Eh)            E(eV)
   0   2.0000     -24.552867      -668.1175
   1   2.0000     -18.958386      -515.8839
   2   2.0000     -14.153811      -385.1448
   3   2.0000     -14.145077      -384.9071
   4   2.0000     -10.266488      -279.3653
   5   2.0000     -10.106025      -274.9989
   6   2.0000     -10.091222      -274.5961
   7   2.0000     -10.089588      -274.5516
   8   2.0000     -10.072514      -274.0870
   9   2.0000     -10.062091      -273.8034
  10   2.0000     -10.056272      -273.6451
  11   2.0000     -10.047505      -273.4065
  12   2.0000     -10.036664      -273.1115
  13   2.0000     -10.032315      -272.9932
  14   2.0000     -10.025888      -272.8183
  15   2.0000      -9.957051      -270.9451
  16   2.0000      -1.430894       -38.9366
  17   2.0000      -1.145535       -31.1716
  18   2.0000      -1.043626       -28.3985
  19   2.0000      -0.954913       -25.9845
  20   2.0000      -0.944740       -25.7077
  21   2.0000      -0.911140       -24.7934
  22   2.0000      -0.881413       -23.9845
  23   2.0000      -0.851974       -23.1834
  24   2.0000      -0.817927       -22.2569
  25   2.0000      -0.793038       -21.5797
  26   2.0000      -0.776956       -21.1421
  27   2.0000      -0.741567       -20.1791
  28   2.0000      -0.714179       -19.4338
  29   2.0000      -0.697956       -18.9924
  30   2.0000      -0.684815       -18.6348
  31   2.0000      -0.678754       -18.4698
  32   2.0000      -0.659163       -17.9367
  33   2.0000      -0.647876       -17.6296
  34   2.0000      -0.637862       -17.3571
  35   2.0000      -0.616014       -16.7626
  36   2.0000      -0.591244       -16.0886
  37   2.0000      -0.589033       -16.0284
  38   2.0000      -0.585548       -15.9336
  39   2.0000      -0.563862       -15.3435
  40   2.0000      -0.552916       -15.0456
  41   2.0000      -0.540935       -14.7196
  42   2.0000      -0.531239       -14.4557
  43   2.0000      -0.515690       -14.0326
  44   2.0000      -0.511800       -13.9268
  45   2.0000      -0.504298       -13.7227
  46   2.0000      -0.496259       -13.5039
  47   2.0000      -0.489174       -13.3111
  48   2.0000      -0.481976       -13.1152
  49   2.0000      -0.474747       -12.9185
  50   2.0000      -0.465385       -12.6638
  51   2.0000      -0.460614       -12.5340
  52   2.0000      -0.441109       -12.0032
  53   2.0000      -0.431834       -11.7508
  54   2.0000      -0.430544       -11.7157
  55   2.0000      -0.425405       -11.5759
  56   2.0000      -0.404657       -11.0113
  57   2.0000      -0.399801       -10.8791
  58   2.0000      -0.394187       -10.7264
  59   2.0000      -0.389710       -10.6046
  60   2.0000      -0.360098        -9.7988
  61   2.0000      -0.349914        -9.5217
  62   2.0000      -0.234555        -6.3826
  63   0.0000       0.031969         0.8699
  64   0.0000       0.044956         1.2233
  65   0.0000       0.055638         1.5140
  66   0.0000       0.060364         1.6426
  67   0.0000       0.063018         1.7148

MULLIKEN ATOMIC CHARGES
-----------------------
   0 C :   -1.376352
   1 C :   -0.731390
   2 C :   -0.958206
   3 C :   -0.652034
   4 H :    0.455681
   5 H :    0.388261
   6 C :    0.571310
   7 C :    0.053641
   8 N :   -0.377729
   9 N :   -0.373974
  10 H :    0.140243
  11 H :    0.285748
  12 H :    0.843360
  13 H :    0.172608
  14 H :    0.132455
  15 O :   -0.502346
  16 F :   -0.365220
  17 C :   -0.736190
  18 H :    0.325317
  19 H :    0.610064
  20 C :   -0.749408
  21 C :   -0.558286
  22 H :    0.333669
  23 H :    0.376878
  24 H :    0.396348
  25 H :    0.448765
  26 C :    0.091579
  27 H :    0.437764
  28 H :    0.445670
  29 C :   -0.901155
  30 H :    0.325317
  31 H :   -0.031129
  32 C :   -0.949979
  33 H :    0.398790
  34 H :    0.421549
  35 H :    0.385148
  36 H :    0.400923
  37 H :    0.408012
  38 H :    0.414304
Sum of atomic charges:   -0.0000000

LOEWDIN ATOMIC CHARGES
----------------------
   0 C :   -0.232120
   1 C :   -0.141449
   2 C :   -0.208166
   3 C :   -0.104323
   4 H :    0.131112
   5 H :    0.127154
   6 C :   -0.463460
   7 C :   -0.535789
   8 N :    0.129362
   9 N :    0.127864
  10 H :    0.099295
  11 H :    0.053804
  12 H :    0.011082
  13 H :    0.090691
  14 H :    0.091246
  15 O :    0.095000
  16 F :    0.219778
  17 C :   -0.212288
  18 H :    0.119374
  19 H :    0.101118
  20 C :   -0.225983
  21 C :   -0.218410
  22 H :    0.113725
  23 H :    0.128354
  24 H :    0.117328
  25 H :    0.123568
  26 C :   -0.225743
  27 H :    0.113309
  28 H :    0.116910
  29 C :   -0.230601
  30 H :    0.132482
  31 H :    0.084781
  32 C :   -0.223270
  33 H :    0.119966
  34 H :    0.113703
  35 H :    0.122626
  36 H :    0.107436
  37 H :    0.116363
  38 H :    0.114170

  Mayer bond orders larger than 0.100000
B(  0-C ,  1-C ) :   0.3709 B(  0-C , 12-H ) :  -0.2106 B(  0-C , 17-C ) :   0.5105
B(  0-C , 18-H ) :   1.1221 B(  0-C , 19-H ) :   0.7815 B(  0-C , 26-C ) :   0.1098
B(  0-C , 27-H ) :  -0.1040 B(  1-C ,  7-C ) :   1.6180 B(  1-C , 12-H ) :   0.2804
B(  1-C , 15-O ) :   0.1460 B(  1-C , 17-C ) :  -0.2543 B(  1-C , 19-H ) :  -0.2674
B(  1-C , 31-H ) :  -0.1191 B(  2-C ,  3-C ) :   0.5718 B(  2-C , 21-C ) :   0.6128
B(  2-C , 24-H ) :   0.9740 B(  2-C , 25-H ) :   0.8550 B(  3-C ,  4-H ) :   0.8640
B(  3-C ,  5-H ) :   0.9926 B(  3-C ,  6-C ) :   0.7213 B(  3-C , 21-C ) :  -0.1951
B(  6-C , 15-O ) :   1.8245 B(  6-C , 16-F ) :   0.7312 B(  7-C ,  8-N ) :   0.9060
B(  7-C ,  9-N ) :   1.0044 B(  7-C , 12-H ) :   0.1515 B(  8-N , 13-H ) :   0.9742
B(  8-N , 14-H ) :   1.0714 B(  9-N , 10-H ) :   1.0596 B(  9-N , 11-H ) :   0.8512
B( 12-H , 15-O ) :  -0.5019 B( 12-H , 16-F ) :   0.1071 B( 12-H , 26-C ) :  -0.1001
B( 15-O , 16-F ) :   0.1348 B( 17-C , 26-C ) :   0.5059 B( 17-C , 27-H ) :   0.9127
B( 17-C , 28-H ) :   0.8115 B( 17-C , 29-C ) :   0.1891 B( 20-C , 21-C ) :   0.1826
B( 20-C , 22-H ) :  -0.1071 B( 20-C , 26-C ) :   0.1030 B( 20-C , 29-C ) :  -0.1149
B( 20-C , 32-C ) :   0.6589 B( 20-C , 35-H ) :   0.9342 B( 20-C , 36-H ) :   0.9813
B( 21-C , 22-H ) :   0.9799 B( 21-C , 23-H ) :   0.9615 B( 21-C , 36-H ) :  -0.1187
B( 26-C , 29-C ) :   0.2750 B( 26-C , 30-H ) :   0.9893 B( 26-C , 31-H ) :   1.0395
B( 29-C , 31-H ) :  -0.1368 B( 29-C , 32-C ) :   0.6268 B( 29-C , 33-H ) :   0.9043
B( 29-C , 34-H ) :   0.9534 B( 30-H , 31-H ) :   0.1404 B( 32-C , 37-H ) :   0.9502
B( 32-C , 38-H ) :   0.9452

FINAL SINGLE POINT ENERGY      -754.051448232141

DIPOLE MOMENT
-------------
                                X             Y             Z
Electronic contribution:     14.23103       8.79165       3.67598
Nuclear contribution   :    -13.61164      -8.17416      -5.14068
                        -----------------------------------------
Total Dipole Moment    :      0.61939       0.61749      -1.46469
                        -----------------------------------------
Magnitude (a.u.)       :      1.70595
Magnitude (Debye)      :      4.33619

Rotational constants in cm-1:     0.019858     0.013613     0.009401
Rotational constants in MHz :   595.331791   408.100423   281.843625

                             ****ORCA TERMINATED NORMALLY****
TOTAL RUN TIME: 0 days 0 hours 13 minutes 1 seconds 815 msec
