                         Program Version 5.0.0 -  RELEASE  -
|  1> !LC-BLYP RIJCOSX def2-TZVPD def2/J TightSCF xyzfile
|  2>
|  3> *xyzfile 0 1 D5.xyz
|  4>
|  5> %MaxCore 64000
|  6>
|  7> %pal nprocs 4
|  8> end
|  9>
| 10> %scf
| 11>   MaxIter 150
| 12> end
| 13>
| 14>
| 15>                          ****END OF INPUT****

CARTESIAN COORDINATES (ANGSTROEM)
---------------------------------
  C      3.913853   -1.658291    3.015134
  N      5.039266   -0.901154    2.492821
  C      4.084215    1.742081   -2.114724
  C      4.265245    2.500518   -0.795890
  H      4.868534    3.392674   -0.981134
  H      3.307640    2.824571   -0.387809
  C      4.982240    1.650257    0.247422
  C      6.210384   -1.417261    2.178244
  C      6.535913   -2.677122    2.556078
  N      7.076754   -0.700820    1.478906
  H      7.954643   -1.121554    1.207554
  H      6.756161    0.106637    0.960278
  H      4.842168    0.017609    2.115191
  H      5.993876   -3.126918    3.282784
  H      7.498441   -2.975482    2.468776
  O      4.368065    1.389270    1.313706
  F      6.128919    1.233512   -0.045620
  C      3.139159   -2.376572    1.910609
  H      3.267235   -0.939401    3.520693
  H      4.247195   -2.355095    3.790065
  C      1.997274    0.430918   -1.399218
  C      3.412746    0.376886   -1.965497
  H      4.047407   -0.246590   -1.326706
  H      3.390774   -0.118719   -2.942839
  H      5.068475    1.598504   -2.565728
  H      3.503356    2.363939   -2.804565
  C      2.399946   -1.389579    1.009490
  H      2.440750   -3.087118    2.362976
  H      3.844475   -2.970462    1.318677
  C      2.070177   -1.936705   -0.372401
  H      1.481611   -1.061542    1.509912
  H      3.008628   -0.490001    0.897451
  C      1.322238   -0.935775   -1.256413
  H      1.472747   -2.850902   -0.283997
  H      3.003539   -2.234041   -0.862535
  H      1.376444    1.058920   -2.047420
  H      2.015341    0.929780   -0.426535
  H      0.316648   -0.787213   -0.848278
  H      1.185611   -1.379252   -2.248613

 Total Charge           Charge          ....    0
 Multiplicity           Mult            ....    1
 Number of Electrons    NEL             ....  126
 Basis Dimension        Dim             ....  805

ORBITAL ENERGIES
----------------

  NO   OCC          E(Eh)            E(eV)
   0   2.0000     -24.569252      -668.5633
   1   2.0000     -18.985050      -516.6095
   2   2.0000     -14.147371      -384.9695
   3   2.0000     -14.136983      -384.6869
   4   2.0000     -10.288728      -279.9705
   5   2.0000     -10.119981      -275.3787
   6   2.0000     -10.100589      -274.8510
   7   2.0000     -10.097935      -274.7788
   8   2.0000     -10.082542      -274.3599
   9   2.0000     -10.079420      -274.2750
  10   2.0000     -10.071890      -274.0701
  11   2.0000     -10.065226      -273.8887
  12   2.0000     -10.057498      -273.6784
  13   2.0000     -10.050835      -273.4971
  14   2.0000     -10.045755      -273.3589
  15   2.0000      -9.960008      -271.0256
  16   2.0000      -1.447407       -39.3860
  17   2.0000      -1.170631       -31.8545
  18   2.0000      -1.051395       -28.6099
  19   2.0000      -0.970751       -26.4155
  20   2.0000      -0.957245       -26.0480
  21   2.0000      -0.920332       -25.0435
  22   2.0000      -0.882885       -24.0245
  23   2.0000      -0.852724       -23.2038
  24   2.0000      -0.816139       -22.2083
  25   2.0000      -0.803657       -21.8686
  26   2.0000      -0.789121       -21.4731
  27   2.0000      -0.760551       -20.6957
  28   2.0000      -0.729304       -19.8454
  29   2.0000      -0.703127       -19.1331
  30   2.0000      -0.701281       -19.0828
  31   2.0000      -0.698200       -18.9990
  32   2.0000      -0.664888       -18.0925
  33   2.0000      -0.659582       -17.9481
  34   2.0000      -0.640760       -17.4360
  35   2.0000      -0.613095       -16.6832
  36   2.0000      -0.607534       -16.5318
  37   2.0000      -0.598767       -16.2933
  38   2.0000      -0.595414       -16.2020
  39   2.0000      -0.574043       -15.6205
  40   2.0000      -0.555388       -15.1129
  41   2.0000      -0.551199       -14.9989
  42   2.0000      -0.535994       -14.5851
  43   2.0000      -0.527471       -14.3532
  44   2.0000      -0.518734       -14.1155
  45   2.0000      -0.517771       -14.0893
  46   2.0000      -0.505181       -13.7467
  47   2.0000      -0.493276       -13.4227
  48   2.0000      -0.490779       -13.3548
  49   2.0000      -0.478496       -13.0205
  50   2.0000      -0.471565       -12.8319
  51   2.0000      -0.460476       -12.5302
  52   2.0000      -0.456942       -12.4340
  53   2.0000      -0.448303       -12.1990
  54   2.0000      -0.441869       -12.0239
  55   2.0000      -0.438536       -11.9332
  56   2.0000      -0.421924       -11.4811
  57   2.0000      -0.414333       -11.2746
  58   2.0000      -0.409224       -11.1356
  59   2.0000      -0.405470       -11.0334
  60   2.0000      -0.400126       -10.8880
  61   2.0000      -0.326213        -8.8767
  62   2.0000      -0.239063        -6.5052
  63   0.0000       0.015029         0.4089
  64   0.0000       0.036527         0.9940
  65   0.0000       0.050717         1.3801
  66   0.0000       0.054924         1.4945
  67   0.0000       0.061658         1.6778

MULLIKEN ATOMIC CHARGES
-----------------------
   0 C :   -1.224774
   1 N :   -0.319239
   2 C :   -0.973196
   3 C :   -0.631807
   4 H :    0.461131
   5 H :    0.382348
   6 C :    0.538733
   7 C :    0.650870
   8 C :   -1.256904
   9 N :   -0.408875
  10 H :    0.156210
  11 H :    0.334405
  12 H :    0.297671
  13 H :    0.273551
  14 H :    0.389025
  15 O :   -0.627023
  16 F :   -0.375561
  17 C :   -0.693840
  18 H :    0.426695
  19 H :    0.474653
  20 C :   -0.740580
  21 C :   -0.556384
  22 H :    0.322188
  23 H :    0.385830
  24 H :    0.396103
  25 H :    0.449894
  26 C :    0.054580
  27 H :    0.479077
  28 H :    0.458753
  29 C :   -0.906078
  30 H :    0.331484
  31 H :   -0.042749
  32 C :   -0.946786
  33 H :    0.412506
  34 H :    0.409682
  35 H :    0.393704
  36 H :    0.394446
  37 H :    0.415057
  38 H :    0.415200
Sum of atomic charges:   -0.0000000

LOEWDIN ATOMIC CHARGES
----------------------
   0 C :   -0.197393
   1 N :    0.034688
   2 C :   -0.205184
   3 C :   -0.101339
   4 H :    0.133529
   5 H :    0.128359
   6 C :   -0.458009
   7 C :   -0.561301
   8 C :   -0.007633
   9 N :    0.136858
  10 H :    0.112757
  11 H :    0.048289
  12 H :    0.057433
  13 H :   -0.005461
  14 H :    0.002602
  15 O :    0.098193
  16 F :    0.223355
  17 C :   -0.194156
  18 H :    0.126799
  19 H :    0.112873
  20 C :   -0.225941
  21 C :   -0.217470
  22 H :    0.113537
  23 H :    0.129998
  24 H :    0.118910
  25 H :    0.125374
  26 C :   -0.229135
  27 H :    0.119563
  28 H :    0.117102
  29 C :   -0.228661
  30 H :    0.131679
  31 H :    0.080835
  32 C :   -0.221610
  33 H :    0.121873
  34 H :    0.115758
  35 H :    0.123611
  36 H :    0.106527
  37 H :    0.117142
  38 H :    0.115650

  Mayer bond orders larger than 0.100000
B(  0-C ,  1-N ) :   0.8235 B(  0-C , 12-H ) :  -0.1365 B(  0-C , 17-C ) :   0.5425
B(  0-C , 18-H ) :   0.8046 B(  0-C , 19-H ) :   0.8426 B(  0-C , 27-H ) :  -0.1129
B(  1-N ,  7-C ) :   0.9837 B(  1-N , 12-H ) :   0.7969 B(  2-C ,  3-C ) :   0.5795
B(  2-C , 21-C ) :   0.6230 B(  2-C , 24-H ) :   0.9735 B(  2-C , 25-H ) :   0.8536
B(  3-C ,  4-H ) :   0.8592 B(  3-C ,  5-H ) :   0.9924 B(  3-C ,  6-C ) :   0.7425
B(  3-C , 15-O ) :  -0.1086 B(  3-C , 21-C ) :  -0.1948 B(  6-C , 15-O ) :   1.7342
B(  6-C , 16-F ) :   0.7499 B(  7-C ,  8-C ) :   0.8695 B(  7-C ,  9-N ) :   0.8618
B(  7-C , 12-H ) :  -0.1633 B(  7-C , 13-H ) :  -0.1125 B(  7-C , 14-H ) :  -0.1279
B(  8-C , 13-H ) :   1.1210 B(  8-C , 14-H ) :   1.0109 B(  9-N , 10-H ) :   1.0225
B(  9-N , 11-H ) :   0.8053 B( 15-O , 16-F ) :   0.1377 B( 17-C , 26-C ) :   0.4648
B( 17-C , 27-H ) :   0.8963 B( 17-C , 28-H ) :   0.7995 B( 17-C , 29-C ) :   0.1801
B( 20-C , 21-C ) :   0.1657 B( 20-C , 22-H ) :  -0.1163 B( 20-C , 29-C ) :  -0.1056
B( 20-C , 32-C ) :   0.6725 B( 20-C , 35-H ) :   0.9288 B( 20-C , 36-H ) :   0.9891
B( 21-C , 22-H ) :   0.9921 B( 21-C , 23-H ) :   0.9542 B( 21-C , 36-H ) :  -0.1266
B( 26-C , 29-C ) :   0.2798 B( 26-C , 30-H ) :   0.9719 B( 26-C , 31-H ) :   1.0979
B( 29-C , 31-H ) :  -0.1269 B( 29-C , 32-C ) :   0.6364 B( 29-C , 33-H ) :   0.8826
B( 29-C , 34-H ) :   0.9721 B( 30-H , 31-H ) :   0.1625 B( 32-C , 37-H ) :   0.9393
B( 32-C , 38-H ) :   0.9434

FINAL SINGLE POINT ENERGY      -754.060136616314

DIPOLE MOMENT
-------------
                                X             Y             Z
Electronic contribution:     12.74054      10.39881       3.22543
Nuclear contribution   :    -13.35170      -8.48261      -5.12969
                        -----------------------------------------
Total Dipole Moment    :     -0.61116       1.91620      -1.90426
                        -----------------------------------------
Magnitude (a.u.)       :      2.76975
Magnitude (Debye)      :      7.04015

Rotational constants in cm-1:     0.019886     0.013843     0.009504
Rotational constants in MHz :   596.157485   415.004628   284.931121

                             ****ORCA TERMINATED NORMALLY****
TOTAL RUN TIME: 0 days 0 hours 13 minutes 10 seconds 824 msec
