                         Program Version 5.0.0 -  RELEASE  -
|  1> !LC-BLYP RIJCOSX def2-TZVPD def2/J TightSCF xyzfile
|  2>
|  3> *xyzfile 0 1 D6.xyz
|  4>
|  5> %MaxCore 64000
|  6>
|  7> %pal nprocs 4
|  8> end
|  9>
| 10> %scf
| 11>   MaxIter 150
| 12> end
| 13>
| 14>
| 15>                          ****END OF INPUT****

CARTESIAN COORDINATES (ANGSTROEM)
---------------------------------
  C      3.913853   -1.658291    3.015134
  N      5.039266   -0.901154    2.492821
  C      4.084215    1.742081   -2.114724
  C      4.265245    2.500518   -0.795890
  H      4.868534    3.392674   -0.981134
  H      3.307640    2.824571   -0.387809
  C      4.982240    1.650257    0.247422
  C      6.210384   -1.417261    2.178244
  N      6.535913   -2.677122    2.556078
  C      7.076754   -0.700820    1.478906
  H      7.954643   -1.121554    1.207554
  H      6.756161    0.106637    0.960278
  H      4.842168    0.017609    2.115191
  H      5.993876   -3.126918    3.282784
  H      7.498441   -2.975482    2.468776
  O      4.368065    1.389270    1.313706
  F      6.128919    1.233512   -0.045620
  C      3.139159   -2.376572    1.910609
  H      3.267235   -0.939401    3.520693
  H      4.247195   -2.355095    3.790065
  C      1.997274    0.430918   -1.399218
  C      3.412746    0.376886   -1.965497
  H      4.047407   -0.246590   -1.326706
  H      3.390774   -0.118719   -2.942839
  H      5.068475    1.598504   -2.565728
  H      3.503356    2.363939   -2.804565
  C      2.399946   -1.389579    1.009490
  H      2.440750   -3.087118    2.362976
  H      3.844475   -2.970462    1.318677
  C      2.070177   -1.936705   -0.372401
  H      1.481611   -1.061542    1.509912
  H      3.008628   -0.490001    0.897451
  C      1.322238   -0.935775   -1.256413
  H      1.472747   -2.850902   -0.283997
  H      3.003539   -2.234041   -0.862535
  H      1.376444    1.058920   -2.047420
  H      2.015341    0.929780   -0.426535
  H      0.316648   -0.787213   -0.848278
  H      1.185611   -1.379252   -2.248613

 Total Charge           Charge          ....    0
 Multiplicity           Mult            ....    1
 Number of Electrons    NEL             ....  126
 Basis Dimension        Dim             ....  805

ORBITAL ENERGIES
----------------

  NO   OCC          E(Eh)            E(eV)
   0   2.0000     -24.537933      -667.7111
   1   2.0000     -18.967771      -516.1393
   2   2.0000     -14.152958      -385.1216
   3   2.0000     -14.134138      -384.6094
   4   2.0000     -10.271408      -279.4992
   5   2.0000     -10.107490      -275.0388
   6   2.0000     -10.096808      -274.7481
   7   2.0000     -10.091025      -274.5907
   8   2.0000     -10.087857      -274.5046
   9   2.0000     -10.075126      -274.1581
  10   2.0000     -10.067160      -273.9414
  11   2.0000     -10.063293      -273.8361
  12   2.0000     -10.057766      -273.6857
  13   2.0000     -10.052807      -273.5508
  14   2.0000     -10.052700      -273.5479
  15   2.0000      -9.953685      -270.8535
  16   2.0000      -1.417954       -38.5845
  17   2.0000      -1.153635       -31.3920
  18   2.0000      -1.048072       -28.5195
  19   2.0000      -0.965003       -26.2591
  20   2.0000      -0.947976       -25.7957
  21   2.0000      -0.916432       -24.9374
  22   2.0000      -0.885129       -24.0856
  23   2.0000      -0.848481       -23.0883
  24   2.0000      -0.822965       -22.3940
  25   2.0000      -0.785682       -21.3795
  26   2.0000      -0.780491       -21.2383
  27   2.0000      -0.747971       -20.3533
  28   2.0000      -0.719962       -19.5912
  29   2.0000      -0.704367       -19.1668
  30   2.0000      -0.682572       -18.5737
  31   2.0000      -0.676485       -18.4081
  32   2.0000      -0.672387       -18.2966
  33   2.0000      -0.658257       -17.9121
  34   2.0000      -0.629203       -17.1215
  35   2.0000      -0.614744       -16.7280
  36   2.0000      -0.596234       -16.2243
  37   2.0000      -0.591877       -16.1058
  38   2.0000      -0.580099       -15.7853
  39   2.0000      -0.568110       -15.4590
  40   2.0000      -0.559814       -15.2333
  41   2.0000      -0.538502       -14.6534
  42   2.0000      -0.536569       -14.6008
  43   2.0000      -0.528666       -14.3857
  44   2.0000      -0.520328       -14.1589
  45   2.0000      -0.514373       -13.9968
  46   2.0000      -0.497180       -13.5289
  47   2.0000      -0.487315       -13.2605
  48   2.0000      -0.484142       -13.1742
  49   2.0000      -0.476874       -12.9764
  50   2.0000      -0.470669       -12.8076
  51   2.0000      -0.455192       -12.3864
  52   2.0000      -0.452504       -12.3133
  53   2.0000      -0.441899       -12.0247
  54   2.0000      -0.439539       -11.9605
  55   2.0000      -0.434412       -11.8210
  56   2.0000      -0.422509       -11.4971
  57   2.0000      -0.410769       -11.1776
  58   2.0000      -0.408888       -11.1264
  59   2.0000      -0.404700       -11.0125
  60   2.0000      -0.396848       -10.7988
  61   2.0000      -0.333214        -9.0672
  62   2.0000      -0.238225        -6.4824
  63   0.0000       0.030161         0.8207
  64   0.0000       0.048562         1.3214
  65   0.0000       0.056829         1.5464
  66   0.0000       0.059027         1.6062
  67   0.0000       0.059802         1.6273

MULLIKEN ATOMIC CHARGES
-----------------------
   0 C :   -1.277141
   1 N :   -0.217848
   2 C :   -0.960874
   3 C :   -0.654536
   4 H :    0.462724
   5 H :    0.376367
   6 C :    0.528541
   7 C :    0.693008
   8 N :   -0.401430
   9 C :   -1.042456
  10 H :    0.241624
  11 H :    0.173008
  12 H :    0.291055
  13 H :    0.153456
  14 H :    0.189487
  15 O :   -0.629782
  16 F :   -0.305637
  17 C :   -0.626586
  18 H :    0.434447
  19 H :    0.474306
  20 C :   -0.734206
  21 C :   -0.603802
  22 H :    0.372140
  23 H :    0.380680
  24 H :    0.390572
  25 H :    0.453061
  26 C :    0.054730
  27 H :    0.489062
  28 H :    0.444194
  29 C :   -0.928823
  30 H :    0.348947
  31 H :   -0.067767
  32 C :   -0.943037
  33 H :    0.405081
  34 H :    0.429191
  35 H :    0.389904
  36 H :    0.391016
  37 H :    0.414031
  38 H :    0.413292
Sum of atomic charges:   -0.0000000

LOEWDIN ATOMIC CHARGES
----------------------
   0 C :   -0.201433
   1 N :    0.036046
   2 C :   -0.205324
   3 C :   -0.102644
   4 H :    0.132705
   5 H :    0.126315
   6 C :   -0.458167
   7 C :   -0.551783
   8 N :    0.126508
   9 C :    0.001691
  10 H :    0.013869
  11 H :   -0.026352
  12 H :    0.061858
  13 H :    0.082217
  14 H :    0.104008
  15 O :    0.092005
  16 F :    0.214740
  17 C :   -0.198854
  18 H :    0.127552
  19 H :    0.108725
  20 C :   -0.226159
  21 C :   -0.217277
  22 H :    0.114661
  23 H :    0.129141
  24 H :    0.119425
  25 H :    0.124011
  26 C :   -0.227000
  27 H :    0.117421
  28 H :    0.118558
  29 C :   -0.229229
  30 H :    0.132558
  31 H :    0.083181
  32 C :   -0.221841
  33 H :    0.120891
  34 H :    0.115837
  35 H :    0.123303
  36 H :    0.106605
  37 H :    0.116690
  38 H :    0.115547

  Mayer bond orders larger than 0.100000
B(  0-C ,  1-N ) :   0.8645 B(  0-C ,  7-C ) :  -0.1988 B(  0-C ,  8-N ) :   0.1028
B(  0-C , 17-C ) :   0.4596 B(  0-C , 18-H ) :   0.8158 B(  0-C , 19-H ) :   0.8573
B(  0-C , 27-H ) :  -0.1479 B(  1-N ,  7-C ) :   1.0468 B(  1-N , 12-H ) :   0.8067
B(  1-N , 15-O ) :  -0.1199 B(  2-C ,  3-C ) :   0.5914 B(  2-C , 21-C ) :   0.6426
B(  2-C , 24-H ) :   0.9732 B(  2-C , 25-H ) :   0.8465 B(  3-C ,  4-H ) :   0.8549
B(  3-C ,  5-H ) :   0.9989 B(  3-C ,  6-C ) :   0.7386 B(  3-C , 15-O ) :  -0.1155
B(  3-C , 21-C ) :  -0.1878 B(  6-C , 15-O ) :   1.7142 B(  6-C , 16-F ) :   0.8253
B(  7-C ,  8-N ) :   0.8523 B(  7-C ,  9-C ) :   0.8735 B(  7-C , 10-H ) :  -0.2415
B(  7-C , 12-H ) :  -0.1315 B(  8-N , 13-H ) :   1.0306 B(  8-N , 14-H ) :   0.9893
B(  9-C , 10-H ) :   1.2876 B(  9-C , 11-H ) :   1.0463 B(  9-C , 16-F ) :   0.1385
B( 11-H , 16-F ) :  -0.1625 B( 15-O , 16-F ) :   0.1378 B( 17-C , 19-H ) :  -0.1102
B( 17-C , 26-C ) :   0.5040 B( 17-C , 27-H ) :   0.9163 B( 17-C , 28-H ) :   0.7850
B( 17-C , 29-C ) :   0.1933 B( 20-C , 21-C ) :   0.1443 B( 20-C , 22-H ) :  -0.1129
B( 20-C , 29-C ) :  -0.1052 B( 20-C , 32-C ) :   0.6630 B( 20-C , 35-H ) :   0.9326
B( 20-C , 36-H ) :   0.9920 B( 21-C , 22-H ) :   0.9497 B( 21-C , 23-H ) :   0.9637
B( 21-C , 36-H ) :  -0.1240 B( 26-C , 29-C ) :   0.2676 B( 26-C , 30-H ) :   0.9734
B( 26-C , 31-H ) :   1.1027 B( 29-C , 31-H ) :  -0.1294 B( 29-C , 32-C ) :   0.6299
B( 29-C , 33-H ) :   0.8970 B( 29-C , 34-H ) :   0.9532 B( 30-H , 31-H ) :   0.1525
B( 32-C , 37-H ) :   0.9417 B( 32-C , 38-H ) :   0.9449

FINAL SINGLE POINT ENERGY      -754.053697138911

DIPOLE MOMENT
-------------
                                X             Y             Z
Electronic contribution:     12.36972       8.53627       4.38405
Nuclear contribution   :    -13.25777      -8.13937      -5.31678
                        -----------------------------------------
Total Dipole Moment    :     -0.88805       0.39691      -0.93273
                        -----------------------------------------
Magnitude (a.u.)       :      1.34764
Magnitude (Debye)      :      3.42544

Rotational constants in cm-1:     0.020021     0.013636     0.009443
Rotational constants in MHz :   600.208195   408.782966   283.102361

                             ****ORCA TERMINATED NORMALLY****
TOTAL RUN TIME: 0 days 0 hours 11 minutes 51 seconds 285 msec
