                         Program Version 5.0.0 -  RELEASE  -
|  1> !wB97X-D3 RIJCOSX def2-SVPD def2/J TightSCF CPCM(Water)
|  2> *xyz -1 1
|  3> C         -1.10433        0.25137       -2.86006
|  4> C         -0.71189        0.84252       -4.21834
|  5> H          0.15463        1.49980       -4.13091
|  6> H         -1.53813        1.45922       -4.58267
|  7> C         -0.39762       -0.20587       -5.28802
|  8> O          0.61717       -0.00535       -5.99827
|  9> O         -1.13317       -1.22138       -5.34147
| 10> H         -1.95489       -0.38644       -2.98099
| 11> H         -1.34603        1.04362       -2.18269
| 12> H         -0.28606       -0.31581       -2.46809
| 13> *
| 14>
| 15> %MaxCore 64000
| 16>
| 17> %pal nprocs 18
| 18> end
| 19>
| 20> %scf
| 21>   MaxIter 150
| 22> end
| 23>
| 24>
| 25>                          ****END OF INPUT****

CARTESIAN COORDINATES (ANGSTROEM)
---------------------------------
  C     -1.104330    0.251370   -2.860060
  C     -0.711890    0.842520   -4.218340
  H      0.154630    1.499800   -4.130910
  H     -1.538130    1.459220   -4.582670
  C     -0.397620   -0.205870   -5.288020
  O      0.617170   -0.005350   -5.998270
  O     -1.133170   -1.221380   -5.341470
  H     -1.954890   -0.386440   -2.980990
  H     -1.346030    1.043620   -2.182690
  H     -0.286060   -0.315810   -2.468090

 Total Charge           Charge          ....   -1
 Multiplicity           Mult            ....    1
 Number of Electrons    NEL             ....   40
 Basis Dimension        Dim             ....  146

ORBITAL ENERGIES
----------------

  NO   OCC          E(Eh)            E(eV)
   0   2.0000     -19.177332      -521.8417
   1   2.0000     -19.177008      -521.8329
   2   2.0000     -10.365600      -282.0623
   3   2.0000     -10.269765      -279.4545
   4   2.0000     -10.263611      -279.2870
   5   2.0000      -1.123922       -30.5835
   6   2.0000      -1.028570       -27.9888
   7   2.0000      -0.863406       -23.4945
   8   2.0000      -0.731858       -19.9149
   9   2.0000      -0.588814       -16.0224
  10   2.0000      -0.546858       -14.8808
  11   2.0000      -0.537490       -14.6259
  12   2.0000      -0.508262       -13.8305
  13   2.0000      -0.488874       -13.3029
  14   2.0000      -0.467710       -12.7270
  15   2.0000      -0.438751       -11.9390
  16   2.0000      -0.422574       -11.4988
  17   2.0000      -0.343609        -9.3501
  18   2.0000      -0.328969        -8.9517
  19   2.0000      -0.323086        -8.7916
  20   0.0000       0.095028         2.5858
  21   0.0000       0.120716         3.2848
  22   0.0000       0.130698         3.5565
  23   0.0000       0.139054         3.7839
  24   0.0000       0.156289         4.2528

MULLIKEN ATOMIC CHARGES
-----------------------
   0 C :    0.546264
   1 C :   -0.342705
   2 H :   -0.045912
   3 H :    0.031807
   4 C :    0.406043
   5 O :   -0.718784
   6 O :   -0.745080
   7 H :   -0.052213
   8 H :   -0.034394
   9 H :   -0.045026
Sum of atomic charges:   -1.0000000

LOEWDIN ATOMIC CHARGES
----------------------
   0 C :    0.111422
   1 C :   -0.034395
   2 H :    0.009954
   3 H :    0.026924
   4 C :   -0.324111
   5 O :   -0.368899
   6 O :   -0.358089
   7 H :   -0.027754
   8 H :   -0.020473
   9 H :   -0.014579

  Mayer bond orders larger than 0.100000
B(  0-C ,  1-C ) :   1.2797 B(  0-C ,  7-H ) :   0.8326 B(  0-C ,  8-H ) :   0.8404
B(  0-C ,  9-H ) :   0.8605 B(  1-C ,  2-H ) :   0.9637 B(  1-C ,  3-H ) :   0.8891
B(  1-C ,  4-C ) :   1.0441 B(  1-C ,  7-H ) :   0.1881 B(  1-C ,  8-H ) :   0.1680
B(  1-C ,  9-H ) :   0.1507 B(  2-H ,  4-C ) :   0.1604 B(  4-C ,  5-O ) :   1.4769
B(  4-C ,  6-O ) :   1.4877 B(  5-O ,  6-O ) :   0.1484

Dispersion correction           -0.001932078
FINAL SINGLE POINT ENERGY      -267.692626259310

DIPOLE MOMENT
-------------
                                X             Y             Z
Electronic contribution:      1.35000      -1.89948      -4.60525
Nuclear contribution   :     -2.09607       3.44215       6.87744
                        -----------------------------------------
Total Dipole Moment    :     -0.74607       1.54266       2.27218
                        -----------------------------------------
Magnitude (a.u.)       :      2.84592
Magnitude (Debye)      :      7.23375

Rotational constants in cm-1:     0.324698     0.133739     0.103466
Rotational constants in MHz :  9734.203431  4009.406827  3101.846422

                             ****ORCA TERMINATED NORMALLY****
TOTAL RUN TIME: 0 days 0 hours 0 minutes 8 seconds 140 msec
