                         Program Version 5.0.0 -  RELEASE  -
|  1> !wB97X-D3 RIJCOSX def2-SVPD def2/J TightSCF CPCM(Water)
|  2> *xyz 1 1
|  3> C          2.23447       -2.98975       -2.39762
|  4> N          2.75680       -2.94555       -3.76503
|  5> C          1.98721       -2.59045       -4.81898
|  6> N          0.74322       -3.01749       -4.91352
|  7> N          2.49964       -1.84860       -5.80324
|  8> H          3.30978       -1.29282       -5.55895
|  9> H          1.80103       -1.30430       -6.28913
| 10> H          3.71612       -2.62880       -3.82953
| 11> H          0.39583       -3.62775       -4.18502
| 12> H          0.03920       -2.45438       -5.37137
| 13> C          2.19120       -1.61950       -1.71549
| 14> H          2.87278       -3.66637       -1.82801
| 15> H          1.24619       -3.44744       -2.40784
| 16> H          1.56387       -0.96046       -2.27853
| 17> H          3.18033       -1.21449       -1.66568
| 18> H          1.79916       -1.72608       -0.72562
| 19> *
| 20>
| 21> %MaxCore 64000
| 22>
| 23> %pal nprocs 18
| 24> end
| 25>
| 26> %scf
| 27>   MaxIter 150
| 28> end
| 29>
| 30>
| 31>                          ****END OF INPUT****

CARTESIAN COORDINATES (ANGSTROEM)
---------------------------------
  C      2.234470   -2.989750   -2.397620
  N      2.756800   -2.945550   -3.765030
  C      1.987210   -2.590450   -4.818980
  N      0.743220   -3.017490   -4.913520
  N      2.499640   -1.848600   -5.803240
  H      3.309780   -1.292820   -5.558950
  H      1.801030   -1.304300   -6.289130
  H      3.716120   -2.628800   -3.829530
  H      0.395830   -3.627750   -4.185020
  H      0.039200   -2.454380   -5.371370
  C      2.191200   -1.619500   -1.715490
  H      2.872780   -3.666370   -1.828010
  H      1.246190   -3.447440   -2.407840
  H      1.563870   -0.960460   -2.278530
  H      3.180330   -1.214490   -1.665680
  H      1.799160   -1.726080   -0.725620

 Total Charge           Charge          ....    1
 Multiplicity           Mult            ....    1
 Number of Electrons    NEL             ....   48
 Basis Dimension        Dim             ....  200

ORBITAL ENERGIES
----------------

  NO   OCC          E(Eh)            E(eV)
   0   2.0000     -14.490590      -394.3090
   1   2.0000     -14.490459      -394.3054
   2   2.0000     -14.485954      -394.1829
   3   2.0000     -10.461113      -284.6614
   4   2.0000     -10.340529      -281.3801
   5   2.0000     -10.281221      -279.7662
   6   2.0000      -1.158078       -31.5129
   7   2.0000      -1.044314       -28.4172
   8   2.0000      -1.033199       -28.1148
   9   2.0000      -0.880031       -23.9469
  10   2.0000      -0.781303       -21.2603
  11   2.0000      -0.745620       -20.2893
  12   2.0000      -0.715503       -19.4698
  13   2.0000      -0.672814       -18.3082
  14   2.0000      -0.629988       -17.1429
  15   2.0000      -0.606853       -16.5133
  16   2.0000      -0.585134       -15.9223
  17   2.0000      -0.554742       -15.0953
  18   2.0000      -0.545304       -14.8385
  19   2.0000      -0.511656       -13.9229
  20   2.0000      -0.479987       -13.0611
  21   2.0000      -0.456786       -12.4298
  22   2.0000      -0.410967       -11.1830
  23   2.0000      -0.379139       -10.3169
  24   0.0000       0.057048         1.5524
  25   0.0000       0.086630         2.3573
  26   0.0000       0.119424         3.2497
  27   0.0000       0.120952         3.2913
  28   0.0000       0.133429         3.6308

MULLIKEN ATOMIC CHARGES
-----------------------
   0 C :    0.275347
   1 N :   -0.522450
   2 C :    0.986168
   3 N :   -0.045110
   4 N :   -0.132732
   5 H :    0.076805
   6 H :    0.112391
   7 H :   -0.098463
   8 H :    0.055692
   9 H :    0.041875
  10 C :    0.529028
  11 H :   -0.180505
  12 H :   -0.070752
  13 H :   -0.069289
  14 H :    0.003409
  15 H :    0.038586
Sum of atomic charges:    1.0000000

LOEWDIN ATOMIC CHARGES
----------------------
   0 C :    0.039173
   1 N :    0.044515
   2 C :   -0.039104
   3 N :    0.282089
   4 N :    0.264054
   5 H :    0.043480
   6 H :    0.043695
   7 H :    0.059319
   8 H :    0.030809
   9 H :    0.058648
  10 C :    0.147129
  11 H :    0.034353
  12 H :    0.020458
  13 H :   -0.012922
  14 H :   -0.009514
  15 H :   -0.006182

  Mayer bond orders larger than 0.100000
B(  0-C ,  1-N ) :   0.8214 B(  0-C , 10-C ) :   1.2641 B(  0-C , 11-H ) :   0.9205
B(  0-C , 12-H ) :   0.8975 B(  0-C , 13-H ) :   0.2095 B(  0-C , 14-H ) :   0.1731
B(  0-C , 15-H ) :   0.1725 B(  1-N ,  2-C ) :   1.0267 B(  1-N ,  3-N ) :   0.1077
B(  1-N ,  4-N ) :   0.1498 B(  1-N ,  7-H ) :   1.2273 B(  1-N , 11-H ) :   0.1803
B(  1-N , 12-H ) :   0.1215 B(  2-C ,  3-N ) :   1.0415 B(  2-C ,  4-N ) :   1.0544
B(  2-C ,  7-H ) :  -0.1605 B(  3-N ,  4-N ) :   0.1358 B(  3-N ,  8-H ) :   0.9568
B(  3-N ,  9-H ) :   1.1806 B(  4-N ,  5-H ) :   0.9735 B(  4-N ,  6-H ) :   0.9566
B(  8-H ,  9-H ) :  -0.1502 B( 10-C , 13-H ) :   0.8553 B( 10-C , 14-H ) :   0.8381
B( 10-C , 15-H ) :   0.8169

Dispersion correction           -0.003912956
FINAL SINGLE POINT ENERGY      -284.226212929912

DIPOLE MOMENT
-------------
                                X             Y             Z
Electronic contribution:      0.08250      -1.52480      -5.40519
Nuclear contribution   :     -0.59121       2.30298       4.63196
                        -----------------------------------------
Total Dipole Moment    :     -0.50871       0.77818      -0.77323
                        -----------------------------------------
Magnitude (a.u.)       :      1.20923
Magnitude (Debye)      :      3.07362

Rotational constants in cm-1:     0.205874     0.074757     0.066901
Rotational constants in MHz :  6171.937773  2241.151057  2005.629823

                             ****ORCA TERMINATED NORMALLY****
TOTAL RUN TIME: 0 days 0 hours 0 minutes 13 seconds 422 msec
