                         Program Version 5.0.0 -  RELEASE  -
|  1> !wB97X-D3 RIJCOSX def2-SVPD def2/J TightSCF CPCM(Water)
|  2> *xyz 0 1
|  3> C         -1.10433        0.25137       -2.86006
|  4> C         -0.71189        0.84252       -4.21834
|  5> H          0.15463        1.49980       -4.13091
|  6> H         -1.53813        1.45922       -4.58267
|  7> C         -0.39762       -0.20587       -5.28802
|  8> F          0.61717       -0.00535       -5.99827
|  9> O         -1.13317       -1.22138       -5.34147
| 10> H         -1.95489       -0.38644       -2.98099
| 11> H         -1.34603        1.04362       -2.18269
| 12> H         -0.28606       -0.31581       -2.46809
| 13> *
| 14>
| 15> %MaxCore 64000
| 16>
| 17> %pal nprocs 18
| 18> end
| 19>
| 20> %scf
| 21>   MaxIter 150
| 22> end
| 23>
| 24>
| 25>                          ****END OF INPUT****

CARTESIAN COORDINATES (ANGSTROEM)
---------------------------------
  C     -1.104330    0.251370   -2.860060
  C     -0.711890    0.842520   -4.218340
  H      0.154630    1.499800   -4.130910
  H     -1.538130    1.459220   -4.582670
  C     -0.397620   -0.205870   -5.288020
  F      0.617170   -0.005350   -5.998270
  O     -1.133170   -1.221380   -5.341470
  H     -1.954890   -0.386440   -2.980990
  H     -1.346030    1.043620   -2.182690
  H     -0.286060   -0.315810   -2.468090

 Total Charge           Charge          ....    0
 Multiplicity           Mult            ....    1
 Number of Electrons    NEL             ....   40
 Basis Dimension        Dim             ....  146

ORBITAL ENERGIES
----------------

  NO   OCC          E(Eh)            E(eV)
   0   2.0000     -24.876731      -676.9303
   1   2.0000     -19.262988      -524.1725
   2   2.0000     -10.480800      -285.1971
   3   2.0000     -10.311278      -280.5841
   4   2.0000     -10.281601      -279.7766
   5   2.0000      -1.426662       -38.8215
   6   2.0000      -1.151090       -31.3228
   7   2.0000      -0.901115       -24.5206
   8   2.0000      -0.795656       -21.6509
   9   2.0000      -0.742028       -20.1916
  10   2.0000      -0.658743       -17.9253
  11   2.0000      -0.641377       -17.4527
  12   2.0000      -0.616292       -16.7702
  13   2.0000      -0.556800       -15.1513
  14   2.0000      -0.535524       -14.5723
  15   2.0000      -0.489656       -13.3242
  16   2.0000      -0.468758       -12.7555
  17   2.0000      -0.465363       -12.6632
  18   2.0000      -0.444677       -12.1003
  19   2.0000      -0.401994       -10.9388
  20   0.0000       0.050637         1.3779
  21   0.0000       0.090730         2.4689
  22   0.0000       0.121995         3.3197
  23   0.0000       0.133423         3.6306
  24   0.0000       0.149559         4.0697

MULLIKEN ATOMIC CHARGES
-----------------------
   0 C :    0.496877
   1 C :   -0.493872
   2 H :    0.052567
   3 H :    0.128201
   4 C :    0.776433
   5 F :   -0.375719
   6 O :   -0.551548
   7 H :   -0.017743
   8 H :   -0.002014
   9 H :   -0.013182
Sum of atomic charges:   -0.0000000

LOEWDIN ATOMIC CHARGES
----------------------
   0 C :    0.137456
   1 C :    0.011485
   2 H :    0.033082
   3 H :    0.050759
   4 C :    0.007433
   5 F :   -0.033179
   6 O :   -0.180195
   7 H :   -0.014951
   8 H :   -0.006783
   9 H :   -0.005107

  Mayer bond orders larger than 0.100000
B(  0-C ,  1-C ) :   1.3094 B(  0-C ,  7-H ) :   0.8430 B(  0-C ,  8-H ) :   0.8486
B(  0-C ,  9-H ) :   0.8710 B(  1-C ,  2-H ) :   0.9558 B(  1-C ,  3-H ) :   0.8817
B(  1-C ,  4-C ) :   1.1062 B(  1-C ,  7-H ) :   0.1710 B(  1-C ,  8-H ) :   0.1610
B(  1-C ,  9-H ) :   0.1465 B(  2-H ,  4-C ) :   0.1031 B(  4-C ,  5-F ) :   0.7564
B(  4-C ,  6-O ) :   1.8028

Dispersion correction           -0.001898312
FINAL SINGLE POINT ENERGY      -292.124765246840

DIPOLE MOMENT
-------------
                                X             Y             Z
Electronic contribution:      3.72813      -2.01239      -7.59629
Nuclear contribution   :     -3.36368       3.36392       8.24820
                        -----------------------------------------
Total Dipole Moment    :      0.36445       1.35152       0.65191
                        -----------------------------------------
Magnitude (a.u.)       :      1.54416
Magnitude (Debye)      :      3.92494

Rotational constants in cm-1:     0.315013     0.126712     0.098430
Rotational constants in MHz :  9443.861322  3798.734540  2950.846388

                             ****ORCA TERMINATED NORMALLY****
TOTAL RUN TIME: 0 days 0 hours 0 minutes 8 seconds 154 msec
