                         Program Version 5.0.0 -  RELEASE  -
|  1> !wB97X-D3 RIJCOSX def2-SVPD def2/J TightSCF CPCM(Water)
|  2> *xyz 0 1
|  3> C          2.23447       -2.98975       -2.39762
|  4> C          2.75680       -2.94555       -3.76503
|  5> C          1.98721       -2.59045       -4.81898
|  6> N          0.74322       -3.01749       -4.91352
|  7> N          2.49964       -1.84860       -5.80324
|  8> H          3.30978       -1.29282       -5.55895
|  9> H          1.80103       -1.30430       -6.28913
| 10> H          3.71612       -2.62880       -3.82953
| 11> H          0.39583       -3.62775       -4.18502
| 12> H          0.03920       -2.45438       -5.37137
| 13> C          2.19120       -1.61950       -1.71549
| 14> H          2.87278       -3.66637       -1.82801
| 15> H          1.24619       -3.44744       -2.40784
| 16> H          1.56387       -0.96046       -2.27853
| 17> H          3.18033       -1.21449       -1.66568
| 18> H          1.79916       -1.72608       -0.72562
| 19> *
| 20>
| 21> %MaxCore 64000
| 22>
| 23> %pal nprocs 18
| 24> end
| 25>
| 26> %scf
| 27>   MaxIter 150
| 28> end
| 29>
| 30>
| 31>                          ****END OF INPUT****

CARTESIAN COORDINATES (ANGSTROEM)
---------------------------------
  C      2.234470   -2.989750   -2.397620
  C      2.756800   -2.945550   -3.765030
  C      1.987210   -2.590450   -4.818980
  N      0.743220   -3.017490   -4.913520
  N      2.499640   -1.848600   -5.803240
  H      3.309780   -1.292820   -5.558950
  H      1.801030   -1.304300   -6.289130
  H      3.716120   -2.628800   -3.829530
  H      0.395830   -3.627750   -4.185020
  H      0.039200   -2.454380   -5.371370
  C      2.191200   -1.619500   -1.715490
  H      2.872780   -3.666370   -1.828010
  H      1.246190   -3.447440   -2.407840
  H      1.563870   -0.960460   -2.278530
  H      3.180330   -1.214490   -1.665680
  H      1.799160   -1.726080   -0.725620

 Total Charge           Charge          ....    0
 Multiplicity           Mult            ....    1
 Number of Electrons    NEL             ....   48
 Basis Dimension        Dim             ....  200

ORBITAL ENERGIES
----------------

  NO   OCC          E(Eh)            E(eV)
   0   2.0000     -14.436609      -392.8401
   1   2.0000     -14.433579      -392.7576
   2   2.0000     -10.343928      -281.4726
   3   2.0000     -10.269761      -279.4544
   4   2.0000     -10.260245      -279.1955
   5   2.0000     -10.216447      -278.0036
   6   2.0000      -1.078160       -29.3382
   7   2.0000      -0.980927       -26.6924
   8   2.0000      -0.887263       -24.1437
   9   2.0000      -0.801567       -21.8117
  10   2.0000      -0.723695       -19.6927
  11   2.0000      -0.682341       -18.5675
  12   2.0000      -0.640976       -17.4419
  13   2.0000      -0.606923       -16.5152
  14   2.0000      -0.561955       -15.2916
  15   2.0000      -0.554217       -15.0810
  16   2.0000      -0.515023       -14.0145
  17   2.0000      -0.496126       -13.5003
  18   2.0000      -0.472749       -12.8642
  19   2.0000      -0.459724       -12.5097
  20   2.0000      -0.425589       -11.5809
  21   2.0000      -0.416474       -11.3328
  22   2.0000      -0.369368       -10.0510
  23   2.0000      -0.252889        -6.8814
  24   0.0000       0.095913         2.6099
  25   0.0000       0.109599         2.9823
  26   0.0000       0.124976         3.4008
  27   0.0000       0.129634         3.5275
  28   0.0000       0.148768         4.0482

MULLIKEN ATOMIC CHARGES
-----------------------
   0 C :   -0.273689
   1 C :   -0.139988
   2 C :    0.184602
   3 N :   -0.062558
   4 N :   -0.098761
   5 H :    0.104466
   6 H :    0.069480
   7 H :   -0.142063
   8 H :    0.053480
   9 H :   -0.031957
  10 C :    0.669326
  11 H :   -0.036905
  12 H :   -0.161028
  13 H :   -0.089376
  14 H :   -0.031996
  15 H :   -0.013035
Sum of atomic charges:   -0.0000000

LOEWDIN ATOMIC CHARGES
----------------------
   0 C :   -0.116334
   1 C :   -0.057246
   2 C :   -0.248107
   3 N :    0.199429
   4 N :    0.183888
   5 H :    0.013520
   6 H :    0.007963
   7 H :   -0.065462
   8 H :    0.005004
   9 H :    0.019866
  10 C :    0.116496
  11 H :    0.005880
  12 H :   -0.002743
  13 H :   -0.020376
  14 H :   -0.018554
  15 H :   -0.023223

  Mayer bond orders larger than 0.100000
B(  0-C ,  1-C ) :   1.2587 B(  0-C ,  2-C ) :   0.1302 B(  0-C ,  7-H ) :   0.3120
B(  0-C , 10-C ) :   1.2286 B(  0-C , 11-H ) :   0.8291 B(  0-C , 12-H ) :   0.9064
B(  0-C , 13-H ) :   0.2132 B(  0-C , 14-H ) :   0.2068 B(  0-C , 15-H ) :   0.2047
B(  1-C ,  2-C ) :   1.8002 B(  1-C ,  3-N ) :   0.1432 B(  1-C ,  4-N ) :   0.1871
B(  1-C ,  7-H ) :   0.6665 B(  1-C , 11-H ) :   0.1854 B(  1-C , 12-H ) :   0.2003
B(  2-C ,  3-N ) :   1.1112 B(  2-C ,  4-N ) :   1.1129 B(  2-C ,  6-H ) :   0.1025
B(  2-C ,  7-H ) :   0.2755 B(  3-N ,  4-N ) :   0.1144 B(  3-N ,  8-H ) :   0.9636
B(  3-N ,  9-H ) :   1.1758 B(  4-N ,  5-H ) :   0.9186 B(  4-N ,  6-H ) :   0.8728
B(  8-H ,  9-H ) :  -0.1346 B( 10-C , 13-H ) :   0.8444 B( 10-C , 14-H ) :   0.8084
B( 10-C , 15-H ) :   0.8040 B( 11-H , 12-H ) :   0.1120

Dispersion correction           -0.003907135
FINAL SINGLE POINT ENERGY      -267.674698995292

DIPOLE MOMENT
-------------
                                X             Y             Z
Electronic contribution:     -0.69309      -0.97982      -5.06622
Nuclear contribution   :     -0.44240       2.20379       4.66256
                        -----------------------------------------
Total Dipole Moment    :     -1.13549       1.22397      -0.40366
                        -----------------------------------------
Magnitude (a.u.)       :      1.71767
Magnitude (Debye)      :      4.36596

Rotational constants in cm-1:     0.209447     0.075194     0.066975
Rotational constants in MHz :  6279.068019  2254.272519  2007.845458

                             ****ORCA TERMINATED NORMALLY****
TOTAL RUN TIME: 0 days 0 hours 0 minutes 14 seconds 241 msec
