                         Program Version 5.0.0 -  RELEASE  -
|  1> !wB97X-D3 RIJCOSX def2-SVPD def2/J TightSCF CPCM(Water)
|  2> *xyz 0 1
|  3> C         -1.10433        0.25137       -2.86006
|  4> C         -0.71189        0.84252       -4.21834
|  5> H          0.15463        1.49980       -4.13091
|  6> H         -1.53813        1.45922       -4.58267
|  7> C         -0.39762       -0.20587       -5.28802
|  8> O          0.61717       -0.00535       -5.99827
|  9> F         -1.13317       -1.22138       -5.34147
| 10> H         -1.95489       -0.38644       -2.98099
| 11> H         -1.34603        1.04362       -2.18269
| 12> H         -0.28606       -0.31581       -2.46809
| 13> *
| 14>
| 15> %MaxCore 64000
| 16>
| 17> %pal nprocs 18
| 18> end
| 19>
| 20> %scf
| 21>   MaxIter 150
| 22> end
| 23>
| 24>
| 25>                          ****END OF INPUT****

CARTESIAN COORDINATES (ANGSTROEM)
---------------------------------
  C     -1.104330    0.251370   -2.860060
  C     -0.711890    0.842520   -4.218340
  H      0.154630    1.499800   -4.130910
  H     -1.538130    1.459220   -4.582670
  C     -0.397620   -0.205870   -5.288020
  O      0.617170   -0.005350   -5.998270
  F     -1.133170   -1.221380   -5.341470
  H     -1.954890   -0.386440   -2.980990
  H     -1.346030    1.043620   -2.182690
  H     -0.286060   -0.315810   -2.468090

 Total Charge           Charge          ....    0
 Multiplicity           Mult            ....    1
 Number of Electrons    NEL             ....   40
 Basis Dimension        Dim             ....  146

ORBITAL ENERGIES
----------------

  NO   OCC          E(Eh)            E(eV)
   0   2.0000     -24.877782      -676.9589
   1   2.0000     -19.262936      -524.1711
   2   2.0000     -10.481005      -285.2026
   3   2.0000     -10.311170      -280.5812
   4   2.0000     -10.282262      -279.7946
   5   2.0000      -1.427419       -38.8420
   6   2.0000      -1.151288       -31.3281
   7   2.0000      -0.903771       -24.5929
   8   2.0000      -0.789123       -21.4731
   9   2.0000      -0.748210       -20.3598
  10   2.0000      -0.660280       -17.9671
  11   2.0000      -0.650146       -17.6914
  12   2.0000      -0.606621       -16.5070
  13   2.0000      -0.557332       -15.1658
  14   2.0000      -0.527513       -14.3544
  15   2.0000      -0.498446       -13.5634
  16   2.0000      -0.479419       -13.0457
  17   2.0000      -0.463141       -12.6027
  18   2.0000      -0.445976       -12.1356
  19   2.0000      -0.396911       -10.8005
  20   0.0000       0.051724         1.4075
  21   0.0000       0.089665         2.4399
  22   0.0000       0.121801         3.3144
  23   0.0000       0.133065         3.6209
  24   0.0000       0.150622         4.0986

MULLIKEN ATOMIC CHARGES
-----------------------
   0 C :    0.482261
   1 C :   -0.485495
   2 H :    0.020078
   3 H :    0.122161
   4 C :    0.794253
   5 O :   -0.528265
   6 F :   -0.400110
   7 H :    0.001708
   8 H :    0.001378
   9 H :   -0.007968
Sum of atomic charges:   -0.0000000

LOEWDIN ATOMIC CHARGES
----------------------
   0 C :    0.134025
   1 C :    0.014219
   2 H :    0.036758
   3 H :    0.050101
   4 C :    0.003977
   5 O :   -0.186366
   6 F :   -0.028471
   7 H :   -0.011535
   8 H :   -0.007051
   9 H :   -0.005655

  Mayer bond orders larger than 0.100000
B(  0-C ,  1-C ) :   1.2879 B(  0-C ,  7-H ) :   0.8386 B(  0-C ,  8-H ) :   0.8509
B(  0-C ,  9-H ) :   0.8759 B(  1-C ,  2-H ) :   0.9999 B(  1-C ,  3-H ) :   0.8776
B(  1-C ,  4-C ) :   1.0694 B(  1-C ,  7-H ) :   0.1606 B(  1-C ,  8-H ) :   0.1641
B(  1-C ,  9-H ) :   0.1399 B(  2-H ,  4-C ) :   0.1157 B(  4-C ,  5-O ) :   1.8000
B(  4-C ,  6-F ) :   0.7419

Dispersion correction           -0.001893142
FINAL SINGLE POINT ENERGY      -292.124271234580

DIPOLE MOMENT
-------------
                                X             Y             Z
Electronic contribution:      0.42485      -4.29451      -6.34508
Nuclear contribution   :     -1.45527       4.68977       7.53208
                        -----------------------------------------
Total Dipole Moment    :     -1.03041       0.39526       1.18699
                        -----------------------------------------
Magnitude (a.u.)       :      1.62078
Magnitude (Debye)      :      4.11970

Rotational constants in cm-1:     0.298240     0.132464     0.099915
Rotational constants in MHz :  8940.998095  3971.171647  2995.369122

                             ****ORCA TERMINATED NORMALLY****
TOTAL RUN TIME: 0 days 0 hours 0 minutes 8 seconds 34 msec
