                         Program Version 5.0.0 -  RELEASE  -
|  1> !wB97X-D3 RIJCOSX def2-SVPD def2/J TightSCF CPCM(Water)
|  2> *xyz 0 1
|  3> C          2.23447       -2.98975       -2.39762
|  4> N          2.75680       -2.94555       -3.76503
|  5> C          1.98721       -2.59045       -4.81898
|  6> C          0.74322       -3.01749       -4.91352
|  7> N          2.49964       -1.84860       -5.80324
|  8> H          3.30978       -1.29282       -5.55895
|  9> H          1.80103       -1.30430       -6.28913
| 10> H          3.71612       -2.62880       -3.82953
| 11> H          0.39583       -3.62775       -4.18502
| 12> H          0.03920       -2.45438       -5.37137
| 13> C          2.19120       -1.61950       -1.71549
| 14> H          2.87278       -3.66637       -1.82801
| 15> H          1.24619       -3.44744       -2.40784
| 16> H          1.56387       -0.96046       -2.27853
| 17> H          3.18033       -1.21449       -1.66568
| 18> H          1.79916       -1.72608       -0.72562
| 19> *
| 20>
| 21> %MaxCore 64000
| 22>
| 23> %pal nprocs 18
| 24> end
| 25>
| 26> %scf
| 27>   MaxIter 150
| 28> end
| 29>
| 30>
| 31>                          ****END OF INPUT****

CARTESIAN COORDINATES (ANGSTROEM)
---------------------------------
  C      2.234470   -2.989750   -2.397620
  N      2.756800   -2.945550   -3.765030
  C      1.987210   -2.590450   -4.818980
  C      0.743220   -3.017490   -4.913520
  N      2.499640   -1.848600   -5.803240
  H      3.309780   -1.292820   -5.558950
  H      1.801030   -1.304300   -6.289130
  H      3.716120   -2.628800   -3.829530
  H      0.395830   -3.627750   -4.185020
  H      0.039200   -2.454380   -5.371370
  C      2.191200   -1.619500   -1.715490
  H      2.872780   -3.666370   -1.828010
  H      1.246190   -3.447440   -2.407840
  H      1.563870   -0.960460   -2.278530
  H      3.180330   -1.214490   -1.665680
  H      1.799160   -1.726080   -0.725620

 Total Charge           Charge          ....    0
 Multiplicity           Mult            ....    1
 Number of Electrons    NEL             ....   48
 Basis Dimension        Dim             ....  200

ORBITAL ENERGIES
----------------

  NO   OCC          E(Eh)            E(eV)
   0   2.0000     -14.437424      -392.8623
   1   2.0000     -14.433969      -392.7683
   2   2.0000     -10.345077      -281.5039
   3   2.0000     -10.316322      -280.7214
   4   2.0000     -10.269403      -279.4447
   5   2.0000     -10.212958      -277.9087
   6   2.0000      -1.078108       -29.3368
   7   2.0000      -0.993813       -27.0430
   8   2.0000      -0.859577       -23.3903
   9   2.0000      -0.827211       -22.5096
  10   2.0000      -0.741618       -20.1804
  11   2.0000      -0.664016       -18.0688
  12   2.0000      -0.645909       -17.5761
  13   2.0000      -0.611369       -16.6362
  14   2.0000      -0.559093       -15.2137
  15   2.0000      -0.541583       -14.7372
  16   2.0000      -0.515032       -14.0147
  17   2.0000      -0.496446       -13.5090
  18   2.0000      -0.489929       -13.3316
  19   2.0000      -0.463588       -12.6149
  20   2.0000      -0.457753       -12.4561
  21   2.0000      -0.436661       -11.8822
  22   2.0000      -0.347102        -9.4451
  23   2.0000      -0.274081        -7.4581
  24   0.0000       0.096386         2.6228
  25   0.0000       0.112496         3.0612
  26   0.0000       0.125511         3.4153
  27   0.0000       0.128396         3.4938
  28   0.0000       0.139031         3.7832

MULLIKEN ATOMIC CHARGES
-----------------------
   0 C :    0.242999
   1 N :   -0.412781
   2 C :    0.322559
   3 C :    0.316892
   4 N :   -0.064916
   5 H :    0.002407
   6 H :    0.100984
   7 H :   -0.208288
   8 H :   -0.120456
   9 H :   -0.356429
  10 C :    0.563747
  11 H :   -0.210892
  12 H :   -0.074512
  13 H :   -0.082257
  14 H :   -0.026325
  15 H :    0.007266
Sum of atomic charges:    0.0000000

LOEWDIN ATOMIC CHARGES
----------------------
   0 C :    0.016735
   1 N :   -0.015123
   2 C :   -0.256511
   3 C :    0.122632
   4 N :    0.183197
   5 H :    0.006675
   6 H :    0.012939
   7 H :    0.029196
   8 H :   -0.112400
   9 H :   -0.097314
  10 C :    0.133339
  11 H :    0.021248
  12 H :    0.006773
  13 H :   -0.020435
  14 H :   -0.016457
  15 H :   -0.014493

  Mayer bond orders larger than 0.100000
B(  0-C ,  1-N ) :   0.8337 B(  0-C , 10-C ) :   1.2561 B(  0-C , 11-H ) :   0.9220
B(  0-C , 12-H ) :   0.8808 B(  0-C , 13-H ) :   0.2212 B(  0-C , 14-H ) :   0.1831
B(  0-C , 15-H ) :   0.1822 B(  1-N ,  2-C ) :   1.0291 B(  1-N ,  3-C ) :   0.2410
B(  1-N ,  4-N ) :   0.1106 B(  1-N ,  7-H ) :   1.1636 B(  1-N , 11-H ) :   0.1633
B(  1-N , 12-H ) :   0.1113 B(  2-C ,  3-C ) :   1.8315 B(  2-C ,  4-N ) :   1.0220
B(  2-C ,  7-H ) :  -0.1200 B(  2-C ,  8-H ) :   0.2718 B(  2-C ,  9-H ) :   0.1486
B(  3-C ,  4-N ) :   0.1984 B(  3-C ,  8-H ) :   0.5567 B(  3-C ,  9-H ) :   0.8857
B(  4-N ,  5-H ) :   0.9279 B(  4-N ,  6-H ) :   0.9245 B(  8-H ,  9-H ) :   0.1992
B( 10-C , 13-H ) :   0.8373 B( 10-C , 14-H ) :   0.8366 B( 10-C , 15-H ) :   0.8241

Dispersion correction           -0.003916130
FINAL SINGLE POINT ENERGY      -267.667741527630

DIPOLE MOMENT
-------------
                                X             Y             Z
Electronic contribution:      1.82294      -0.84123      -3.60854
Nuclear contribution   :     -0.86957       2.18853       4.41892
                        -----------------------------------------
Total Dipole Moment    :      0.95337       1.34729       0.81038
                        -----------------------------------------
Magnitude (a.u.)       :      1.83871
Magnitude (Debye)      :      4.67362

Rotational constants in cm-1:     0.214718     0.075736     0.068547
Rotational constants in MHz :  6437.075121  2270.519635  2054.974198

                             ****ORCA TERMINATED NORMALLY****
TOTAL RUN TIME: 0 days 0 hours 0 minutes 15 seconds 511 msec
