                         Program Version 5.0.0 -  RELEASE  -
|  1> !wB97X-D3 RIJCOSX def2-SVPD def2/J TightSCF CPCM(Water)
|  2> *xyz 0 1
|  3> C          2.23447       -2.98975       -2.39762
|  4> N          2.75680       -2.94555       -3.76503
|  5> C          1.98721       -2.59045       -4.81898
|  6> N          0.74322       -3.01749       -4.91352
|  7> C          2.49964       -1.84860       -5.80324
|  8> H          3.30978       -1.29282       -5.55895
|  9> H          1.80103       -1.30430       -6.28913
| 10> H          3.71612       -2.62880       -3.82953
| 11> H          0.39583       -3.62775       -4.18502
| 12> H          0.03920       -2.45438       -5.37137
| 13> C          2.19120       -1.61950       -1.71549
| 14> H          2.87278       -3.66637       -1.82801
| 15> H          1.24619       -3.44744       -2.40784
| 16> H          1.56387       -0.96046       -2.27853
| 17> H          3.18033       -1.21449       -1.66568
| 18> H          1.79916       -1.72608       -0.72562
| 19> *
| 20>
| 21> %MaxCore 64000
| 22>
| 23> %pal nprocs 18
| 24> end
| 25>
| 26> %scf
| 27>   MaxIter 150
| 28> end
| 29>
| 30>
| 31>                          ****END OF INPUT****

CARTESIAN COORDINATES (ANGSTROEM)
---------------------------------
  C      2.234470   -2.989750   -2.397620
  N      2.756800   -2.945550   -3.765030
  C      1.987210   -2.590450   -4.818980
  N      0.743220   -3.017490   -4.913520
  C      2.499640   -1.848600   -5.803240
  H      3.309780   -1.292820   -5.558950
  H      1.801030   -1.304300   -6.289130
  H      3.716120   -2.628800   -3.829530
  H      0.395830   -3.627750   -4.185020
  H      0.039200   -2.454380   -5.371370
  C      2.191200   -1.619500   -1.715490
  H      2.872780   -3.666370   -1.828010
  H      1.246190   -3.447440   -2.407840
  H      1.563870   -0.960460   -2.278530
  H      3.180330   -1.214490   -1.665680
  H      1.799160   -1.726080   -0.725620

 Total Charge           Charge          ....    0
 Multiplicity           Mult            ....    1
 Number of Electrons    NEL             ....   48
 Basis Dimension        Dim             ....  200

ORBITAL ENERGIES
----------------

  NO   OCC          E(Eh)            E(eV)
   0   2.0000     -14.438637      -392.8953
   1   2.0000     -14.437956      -392.8768
   2   2.0000     -10.351339      -281.6743
   3   2.0000     -10.319668      -280.8125
   4   2.0000     -10.270508      -279.4747
   5   2.0000     -10.210047      -277.8295
   6   2.0000      -1.081631       -29.4327
   7   2.0000      -0.994269       -27.0554
   8   2.0000      -0.872080       -23.7305
   9   2.0000      -0.818562       -22.2742
  10   2.0000      -0.730588       -19.8803
  11   2.0000      -0.702756       -19.1230
  12   2.0000      -0.641824       -17.4649
  13   2.0000      -0.589581       -16.0433
  14   2.0000      -0.587512       -15.9870
  15   2.0000      -0.528131       -14.3712
  16   2.0000      -0.523834       -14.2543
  17   2.0000      -0.501594       -13.6491
  18   2.0000      -0.474697       -12.9172
  19   2.0000      -0.465923       -12.6784
  20   2.0000      -0.457673       -12.4539
  21   2.0000      -0.441725       -12.0199
  22   2.0000      -0.349522        -9.5110
  23   2.0000      -0.272120        -7.4048
  24   0.0000       0.094422         2.5693
  25   0.0000       0.110254         3.0002
  26   0.0000       0.122475         3.3327
  27   0.0000       0.130126         3.5409
  28   0.0000       0.142556         3.8791

MULLIKEN ATOMIC CHARGES
-----------------------
   0 C :    0.256867
   1 N :   -0.531538
   2 C :    0.262540
   3 N :    0.100440
   4 C :    0.454439
   5 H :   -0.155513
   6 H :   -0.388077
   7 H :   -0.099182
   8 H :   -0.044233
   9 H :   -0.014572
  10 C :    0.546826
  11 H :   -0.206961
  12 H :   -0.095943
  13 H :   -0.091329
  14 H :   -0.028405
  15 H :    0.034642
Sum of atomic charges:    0.0000000

LOEWDIN ATOMIC CHARGES
----------------------
   0 C :    0.016325
   1 N :   -0.012556
   2 C :   -0.252528
   3 N :    0.202729
   4 C :    0.093964
   5 H :   -0.113887
   6 H :   -0.113551
   7 H :    0.034389
   8 H :   -0.001668
   9 H :    0.029024
  10 C :    0.133718
  11 H :    0.021172
  12 H :    0.010236
  13 H :   -0.018672
  14 H :   -0.014936
  15 H :   -0.013759

  Mayer bond orders larger than 0.100000
B(  0-C ,  1-N ) :   0.8644 B(  0-C , 10-C ) :   1.2584 B(  0-C , 11-H ) :   0.9120
B(  0-C , 12-H ) :   0.8884 B(  0-C , 13-H ) :   0.2109 B(  0-C , 14-H ) :   0.1888
B(  0-C , 15-H ) :   0.1712 B(  1-N ,  2-C ) :   1.0143 B(  1-N ,  4-C ) :   0.1876
B(  1-N ,  7-H ) :   1.1619 B(  1-N , 11-H ) :   0.1844 B(  1-N , 12-H ) :   0.1293
B(  2-C ,  3-N ) :   1.1206 B(  2-C ,  4-C ) :   1.9423 B(  2-C ,  5-H ) :   0.2368
B(  2-C ,  6-H ) :   0.2516 B(  2-C ,  7-H ) :  -0.1167 B(  3-N ,  4-C ) :   0.1972
B(  3-N ,  8-H ) :   0.9645 B(  3-N ,  9-H ) :   1.1195 B(  4-C ,  5-H ) :   0.7453
B(  4-C ,  6-H ) :   0.7250 B(  5-H ,  6-H ) :   0.2592 B(  8-H ,  9-H ) :  -0.1482
B( 10-C , 13-H ) :   0.8527 B( 10-C , 14-H ) :   0.8268 B( 10-C , 15-H ) :   0.8157

Dispersion correction           -0.003936280
FINAL SINGLE POINT ENERGY      -267.663898070201

DIPOLE MOMENT
-------------
                                X             Y             Z
Electronic contribution:     -0.40502      -2.39417      -2.40929
Nuclear contribution   :     -0.49695       2.43650       4.23017
                        -----------------------------------------
Total Dipole Moment    :     -0.90198       0.04233       1.82088
                        -----------------------------------------
Magnitude (a.u.)       :      2.03248
Magnitude (Debye)      :      5.16615

Rotational constants in cm-1:     0.211102     0.077011     0.069221
Rotational constants in MHz :  6328.667765  2308.731604  2075.192956

                             ****ORCA TERMINATED NORMALLY****
TOTAL RUN TIME: 0 days 0 hours 0 minutes 14 seconds 395 msec
