                         Program Version 5.0.0 -  RELEASE  -
|  1> !wB97X-D3 RIJCOSX def2-SVPD def2/J TightSCF CPCM(Water) xyzfile
|  2>
|  3> *xyzfile 0 1 D1.xyz
|  4>
|  5> %MaxCore 64000
|  6>
|  7> %pal nprocs 18
|  8> end
|  9>
| 10> %scf
| 11>   MaxIter 150
| 12> end
| 13>
| 14>
| 15>                          ****END OF INPUT****

CARTESIAN COORDINATES (ANGSTROEM)
---------------------------------
  C      2.234473   -2.989754   -2.397622
  C      2.756799   -2.945553   -3.765029
  C     -1.104325    0.251374   -2.860056
  C     -0.711893    0.842517   -4.218344
  H      0.154626    1.499800   -4.130909
  H     -1.538134    1.459222   -4.582671
  C     -0.397624   -0.205875   -5.288018
  C      1.987208   -2.590451   -4.818975
  N      0.743221   -3.017493   -4.913524
  N      2.499636   -1.848598   -5.803241
  H      3.309780   -1.292818   -5.558947
  H      1.801025   -1.304298   -6.289129
  H      3.716116   -2.628797   -3.829533
  H      0.395828   -3.627747   -4.185024
  H      0.039201   -2.454383   -5.371367
  F      0.617165   -0.005348   -5.998273
  O     -1.133173   -1.221380   -5.341465
  C      2.191199   -1.619503   -1.715492
  H      2.872783   -3.666368   -1.828014
  H      1.246188   -3.447444   -2.407842
  C      1.298729   -0.554314   -2.359773
  H      1.872917   -1.787955   -0.681310
  H      3.216809   -1.238432   -1.654428
  C     -0.196255   -0.863365   -2.325763
  H      1.612531   -0.371346   -3.393065
  H      1.480944    0.388638   -1.834444
  H     -0.404105   -1.761825   -2.909448
  H     -0.490439   -1.087880   -1.294131
  H     -1.143842    1.066711   -2.129680
  H     -2.114401   -0.156834   -2.930323

 Total Charge           Charge          ....    0
 Multiplicity           Mult            ....    1
 Number of Electrons    NEL             ....  102
 Basis Dimension        Dim             ....  402

ORBITAL ENERGIES
----------------

  NO   OCC          E(Eh)            E(eV)
   0   2.0000     -24.895998      -677.4546
   1   2.0000     -19.277967      -524.5802
   2   2.0000     -14.428789      -392.6273
   3   2.0000     -14.422360      -392.4524
   4   2.0000     -10.494824      -285.5787
   5   2.0000     -10.340125      -281.3691
   6   2.0000     -10.314378      -280.6685
   7   2.0000     -10.293419      -280.0982
   8   2.0000     -10.278553      -279.6936
   9   2.0000     -10.277496      -279.6649
  10   2.0000     -10.271833      -279.5108
  11   2.0000     -10.267029      -279.3801
  12   2.0000     -10.212275      -277.8901
  13   2.0000      -1.447170       -39.3795
  14   2.0000      -1.171564       -31.8799
  15   2.0000      -1.074553       -29.2401
  16   2.0000      -0.976807       -26.5803
  17   2.0000      -0.929624       -25.2964
  18   2.0000      -0.897672       -24.4269
  19   2.0000      -0.859263       -23.3817
  20   2.0000      -0.812183       -22.1006
  21   2.0000      -0.791480       -21.5373
  22   2.0000      -0.756615       -20.5886
  23   2.0000      -0.714917       -19.4539
  24   2.0000      -0.690337       -18.7850
  25   2.0000      -0.684375       -18.6228
  26   2.0000      -0.669238       -18.2109
  27   2.0000      -0.653658       -17.7869
  28   2.0000      -0.640225       -17.4214
  29   2.0000      -0.616697       -16.7812
  30   2.0000      -0.598800       -16.2942
  31   2.0000      -0.577881       -15.7250
  32   2.0000      -0.565188       -15.3795
  33   2.0000      -0.557427       -15.1684
  34   2.0000      -0.542625       -14.7656
  35   2.0000      -0.534689       -14.5496
  36   2.0000      -0.515991       -14.0408
  37   2.0000      -0.502441       -13.6721
  38   2.0000      -0.490755       -13.3541
  39   2.0000      -0.481134       -13.0923
  40   2.0000      -0.470089       -12.7918
  41   2.0000      -0.466563       -12.6958
  42   2.0000      -0.447419       -12.1749
  43   2.0000      -0.435476       -11.8499
  44   2.0000      -0.429485       -11.6869
  45   2.0000      -0.417568       -11.3626
  46   2.0000      -0.405438       -11.0325
  47   2.0000      -0.401809       -10.9338
  48   2.0000      -0.394747       -10.7416
  49   2.0000      -0.360677        -9.8145
  50   2.0000      -0.248984        -6.7752
  51   0.0000       0.033343         0.9073
  52   0.0000       0.090536         2.4636
  53   0.0000       0.105509         2.8711
  54   0.0000       0.108144         2.9427
  55   0.0000       0.111368         3.0305

MULLIKEN ATOMIC CHARGES
-----------------------
   0 C :    0.249503
   1 C :   -0.104083
   2 C :    0.466321
   3 C :    0.019382
   4 H :    0.248274
   5 H :   -0.134735
   6 C :    0.740351
   7 C :    0.250425
   8 N :    0.177912
   9 N :    0.011152
  10 H :    0.191508
  11 H :   -0.114582
  12 H :   -0.178189
  13 H :    0.139474
  14 H :   -0.444955
  15 F :   -0.406291
  16 O :   -0.639004
  17 C :    0.417823
  18 H :   -0.145888
  19 H :   -0.128317
  20 C :   -0.059569
  21 H :   -0.002664
  22 H :   -0.073891
  23 C :   -0.057594
  24 H :   -0.120300
  25 H :   -0.094308
  26 H :   -0.153071
  27 H :   -0.112610
  28 H :   -0.034748
  29 H :    0.092675
Sum of atomic charges:    0.0000000

LOEWDIN ATOMIC CHARGES
----------------------
   0 C :   -0.071320
   1 C :   -0.049052
   2 C :   -0.010065
   3 C :    0.065912
   4 H :    0.036623
   5 H :    0.053835
   6 C :    0.051264
   7 C :   -0.239651
   8 N :    0.228335
   9 N :    0.204817
  10 H :    0.021141
  11 H :   -0.056293
  12 H :   -0.065882
  13 H :    0.012387
  14 H :   -0.098886
  15 F :   -0.021953
  16 O :   -0.145391
  17 C :   -0.026960
  18 H :    0.006802
  19 H :   -0.004029
  20 C :   -0.025123
  21 H :    0.019063
  22 H :    0.022442
  23 C :   -0.025686
  24 H :    0.003578
  25 H :    0.028636
  26 H :   -0.007937
  27 H :    0.031276
  28 H :    0.033845
  29 H :    0.028275

  Mayer bond orders larger than 0.100000
B(  0-C ,  1-C ) :   1.1864 B(  0-C ,  7-C ) :   0.1351 B(  0-C , 12-H ) :   0.3564
B(  0-C , 17-C ) :   1.1306 B(  0-C , 18-H ) :   0.7432 B(  0-C , 19-H ) :   0.7919
B(  0-C , 21-H ) :   0.1966 B(  0-C , 22-H ) :   0.1825 B(  1-C ,  7-C ) :   1.7208
B(  1-C ,  8-N ) :   0.1317 B(  1-C ,  9-N ) :   0.3001 B(  1-C , 12-H ) :   0.5432
B(  1-C , 18-H ) :   0.1996 B(  1-C , 19-H ) :   0.1989 B(  2-C ,  3-C ) :   1.2000
B(  2-C ,  5-H ) :   0.1719 B(  2-C , 23-C ) :   1.2547 B(  2-C , 28-H ) :   0.8049
B(  2-C , 29-H ) :   0.6618 B(  3-C ,  4-H ) :   0.7992 B(  3-C ,  5-H ) :   0.8369
B(  3-C ,  6-C ) :   1.2079 B(  3-C , 28-H ) :   0.1354 B(  4-H ,  6-C ) :   0.1476
B(  5-H ,  6-C ) :   0.1791 B(  6-C , 15-F ) :   0.6270 B(  6-C , 16-O ) :   1.6291
B(  7-C ,  8-N ) :   1.0072 B(  7-C ,  9-N ) :   0.9077 B(  7-C , 11-H ) :   0.1352
B(  7-C , 12-H ) :   0.3795 B(  8-N ,  9-N ) :   0.1090 B(  8-N , 13-H ) :   0.8510
B(  8-N , 14-H ) :   1.1540 B(  9-N , 10-H ) :   0.8177 B(  9-N , 11-H ) :   0.7855
B( 13-H , 14-H ) :  -0.2214 B( 14-H , 16-O ) :   0.1731 B( 17-C , 19-H ) :   0.1060
B( 17-C , 20-C ) :   1.2239 B( 17-C , 21-H ) :   0.7752 B( 17-C , 22-H ) :   0.7044
B( 20-C , 21-H ) :   0.1518 B( 20-C , 22-H ) :   0.2624 B( 20-C , 23-C ) :   1.2683
B( 20-C , 24-H ) :   0.9305 B( 20-C , 25-H ) :   0.8039 B( 20-C , 26-H ) :   0.1330
B( 20-C , 27-H ) :   0.1995 B( 21-H , 22-H ) :  -0.1233 B( 23-C , 24-H ) :   0.1347
B( 23-C , 25-H ) :   0.2047 B( 23-C , 26-H ) :   0.9438 B( 23-C , 27-H ) :   0.8112
B( 23-C , 28-H ) :   0.1605 B( 23-C , 29-H ) :   0.2439

Dispersion correction           -0.015947558
FINAL SINGLE POINT ENERGY      -637.152602261116

DIPOLE MOMENT
-------------
                                X             Y             Z
Electronic contribution:     -3.34796       3.07186     -14.45222
Nuclear contribution   :      2.31842      -0.27661      14.74721
                        -----------------------------------------
Total Dipole Moment    :     -1.02954       2.79526       0.29498
                        -----------------------------------------
Magnitude (a.u.)       :      2.99340
Magnitude (Debye)      :      7.60862

Rotational constants in cm-1:     0.032691     0.023990     0.017099
Rotational constants in MHz :   980.050971   719.190545   512.606858

                             ****ORCA TERMINATED NORMALLY****
TOTAL RUN TIME: 0 days 0 hours 1 minutes 8 seconds 388 msec
