                         Program Version 5.0.0 -  RELEASE  -
|  1> !B3LYP D3BJ RIJCOSX def2-SVPD def2/J TightSCF
|  2> *xyz -1 1
|  3> C         -7.33044       -2.67899       -3.20681
|  4> S         -6.01966       -2.92697       -4.41913
|  5> O         -5.64583       -1.58838       -4.91931
|  6> O         -4.88196       -3.50370       -3.66724
|  7> O         -6.54927       -3.80515       -5.42507
|  8> H         -8.18867       -2.26077       -3.68996
|  9> H         -6.98921       -2.01038       -2.44430
| 10> H         -7.59151       -3.61862       -2.76655
| 11> *
| 12> %MaxCore 64000
| 13>
| 14> %pal nprocs 8
| 15> end
| 16>
| 17> %scf
| 18>   MaxIter 150
| 19> end
| 20>
| 21>
| 22>                          ****END OF INPUT****

CARTESIAN COORDINATES (ANGSTROEM)
---------------------------------
  C     -7.330440   -2.678990   -3.206810
  S     -6.019660   -2.926970   -4.419130
  O     -5.645830   -1.588380   -4.919310
  O     -4.881960   -3.503700   -3.667240
  O     -6.549270   -3.805150   -5.425070
  H     -8.188670   -2.260770   -3.689960
  H     -6.989210   -2.010380   -2.444300
  H     -7.591510   -3.618620   -2.766550

 Total Charge           Charge          ....   -1
 Multiplicity           Mult            ....    1
 Number of Electrons    NEL             ....   50
 Basis Dimension        Dim             ....  140

ORBITAL ENERGIES
----------------

  NO   OCC          E(Eh)            E(eV)
   0   2.0000     -88.882570     -2418.6177
   1   2.0000     -18.922053      -514.8953
   2   2.0000     -18.910841      -514.5901
   3   2.0000     -18.908372      -514.5230
   4   2.0000     -10.041830      -273.2521
   5   2.0000      -7.935934      -215.9477
   6   2.0000      -5.904848      -160.6791
   7   2.0000      -5.904691      -160.6748
   8   2.0000      -5.904404      -160.6670
   9   2.0000      -0.925793       -25.1921
  10   2.0000      -0.785907       -21.3856
  11   2.0000      -0.762711       -20.7544
  12   2.0000      -0.582691       -15.8558
  13   2.0000      -0.389619       -10.6021
  14   2.0000      -0.300335        -8.1725
  15   2.0000      -0.292502        -7.9594
  16   2.0000      -0.291454        -7.9309
  17   2.0000      -0.248526        -6.7627
  18   2.0000      -0.246573        -6.7096
  19   2.0000      -0.149185        -4.0595
  20   2.0000      -0.148706        -4.0465
  21   2.0000      -0.116262        -3.1637
  22   2.0000      -0.108882        -2.9628
  23   2.0000      -0.099761        -2.7146
  24   2.0000      -0.062443        -1.6992
  25   0.0000       0.148778         4.0485
  26   0.0000       0.185729         5.0539
  27   0.0000       0.185944         5.0598
  28   0.0000       0.190189         5.1753
  29   0.0000       0.211893         5.7659

MULLIKEN ATOMIC CHARGES
-----------------------
   0 C :    0.719328
   1 S :    1.100069
   2 O :   -0.793689
   3 O :   -0.798617
   4 O :   -0.751207
   5 H :   -0.161236
   6 H :   -0.157354
   7 H :   -0.157294
Sum of atomic charges:   -1.0000000

LOEWDIN ATOMIC CHARGES
----------------------
   0 C :    0.066754
   1 S :    0.841113
   2 O :   -0.599362
   3 O :   -0.602905
   4 O :   -0.580154
   5 H :   -0.042786
   6 H :   -0.040754
   7 H :   -0.041907

  Mayer bond orders larger than 0.100000
B(  0-C ,  1-S ) :   0.9212 B(  0-C ,  5-H ) :   0.8804 B(  0-C ,  6-H ) :   0.8840
B(  0-C ,  7-H ) :   0.8804 B(  1-S ,  2-O ) :   1.2989 B(  1-S ,  3-O ) :   1.2968
B(  1-S ,  4-O ) :   1.3380 B(  1-S ,  5-H ) :   0.1250 B(  1-S ,  6-H ) :   0.1341
B(  1-S ,  7-H ) :   0.1262

Dispersion correction           -0.011045435
FINAL SINGLE POINT ENERGY      -663.325023490354

DIPOLE MOMENT
-------------
                                X             Y             Z
Electronic contribution:      2.99552      -0.64533      -2.92332
Nuclear contribution   :     -4.26236       0.77434       3.87117
                        -----------------------------------------
Total Dipole Moment    :     -1.26684       0.12901       0.94784
                        -----------------------------------------
Magnitude (a.u.)       :      1.58743
Magnitude (Debye)      :      4.03493

Rotational constants in cm-1:     0.172427     0.155038     0.152780
Rotational constants in MHz :  5169.225473  4647.928623  4580.233540

                             ****ORCA TERMINATED NORMALLY****
TOTAL RUN TIME: 0 days 0 hours 0 minutes 6 seconds 773 msec
