                         Program Version 5.0.0 -  RELEASE  -
|  1> !B3LYP D3BJ RIJCOSX def2-SVPD def2/J TightSCF
|  2> *xyz 1 1
|  3> C         -2.16038       -1.36949       -3.46710
|  4> N         -3.03011       -1.91086       -4.54107
|  5> H         -3.47744       -2.79151       -4.25710
|  6> H         -2.53801       -2.01786       -5.43808
|  7> H         -3.89159       -1.37604       -4.71437
|  8> H         -1.71294       -0.45536       -3.79734
|  9> H         -1.39344       -2.07939       -3.23742
| 10> H         -2.74775       -1.18344       -2.59230
| 11> *
| 12> %MaxCore 64000
| 13>
| 14> %pal nprocs 8
| 15> end
| 16>
| 17> %scf
| 18>   MaxIter 150
| 19> end
| 20>
| 21>
| 22>                          ****END OF INPUT****

CARTESIAN COORDINATES (ANGSTROEM)
---------------------------------
  C     -2.160380   -1.369490   -3.467100
  N     -3.030110   -1.910860   -4.541070
  H     -3.477440   -2.791510   -4.257100
  H     -2.538010   -2.017860   -5.438080
  H     -3.891590   -1.376040   -4.714370
  H     -1.712940   -0.455360   -3.797340
  H     -1.393440   -2.079390   -3.237420
  H     -2.747750   -1.183440   -2.592300

 Total Charge           Charge          ....    1
 Multiplicity           Mult            ....    1
 Number of Electrons    NEL             ....   18
 Basis Dimension        Dim             ....   88

ORBITAL ENERGIES
----------------

  NO   OCC          E(Eh)            E(eV)
   0   2.0000     -14.680297      -399.4712
   1   2.0000     -10.443686      -284.1872
   2   2.0000      -1.219103       -33.1735
   3   2.0000      -0.938701       -25.5434
   4   2.0000      -0.820610       -22.3299
   5   2.0000      -0.792299       -21.5595
   6   2.0000      -0.721252       -19.6263
   7   2.0000      -0.629944       -17.1416
   8   2.0000      -0.625849       -17.0302
   9   0.0000      -0.208282        -5.6676
  10   0.0000      -0.141762        -3.8575
  11   0.0000      -0.137674        -3.7463
  12   0.0000      -0.133949        -3.6449
  13   0.0000      -0.086968        -2.3665

MULLIKEN ATOMIC CHARGES
-----------------------
   0 C :    1.183326
   1 N :   -0.777832
   2 H :    0.332808
   3 H :    0.344849
   4 H :    0.316998
   5 H :   -0.141451
   6 H :   -0.123188
   7 H :   -0.135510
Sum of atomic charges:    1.0000000

LOEWDIN ATOMIC CHARGES
----------------------
   0 C :    0.293721
   1 N :    0.310357
   2 H :    0.106192
   3 H :    0.112169
   4 H :    0.107401
   5 H :    0.022750
   6 H :    0.023956
   7 H :    0.023454

  Mayer bond orders larger than 0.100000
B(  0-C ,  1-N ) :   0.7564 B(  0-C ,  5-H ) :   0.8595 B(  0-C ,  6-H ) :   0.8479
B(  0-C ,  7-H ) :   0.8539 B(  1-N ,  2-H ) :   0.8187 B(  1-N ,  3-H ) :   0.7855
B(  1-N ,  4-H ) :   0.8361 B(  1-N ,  5-H ) :   0.1075 B(  1-N ,  6-H ) :   0.1131
B(  1-N ,  7-H ) :   0.1115

Dispersion correction           -0.005442155
FINAL SINGLE POINT ENERGY       -96.088368611084

DIPOLE MOMENT
-------------
                                X             Y             Z
Electronic contribution:     -0.57518      -0.37598      -0.78656
Nuclear contribution   :      0.00575       0.04584       0.17617
                        -----------------------------------------
Total Dipole Moment    :     -0.56942      -0.33013      -0.61038
                        -----------------------------------------
Magnitude (a.u.)       :      0.89766
Magnitude (Debye)      :      2.28168

Rotational constants in cm-1:     2.917716     0.684997     0.676552
Rotational constants in MHz : 87470.913131 20535.702929 20282.512120

                             ****ORCA TERMINATED NORMALLY****
TOTAL RUN TIME: 0 days 0 hours 0 minutes 3 seconds 471 msec
