                         Program Version 5.0.0 -  RELEASE  -
|  1> !B3LYP D3BJ RIJCOSX def2-SVPD def2/J TightSCF xyzfile
|  2>
|  3> *xyzfile 0 1 B.xyz
|  4>
|  5> %MaxCore 64000
|  6>
|  7> %pal nprocs 4
|  8> end
|  9>
| 10> %scf
| 11>   MaxIter 150
| 12> end
| 13>
| 14>
| 15>                          ****END OF INPUT****

CARTESIAN COORDINATES (ANGSTROEM)
---------------------------------
  C     -2.160376   -1.369486   -3.467104
  N     -3.030108   -1.910857   -4.541074
  C     -2.047717    0.146583   -3.511774
  C     -7.330440   -2.678991   -3.206811
  S     -6.019659   -2.926965   -4.419128
  H     -3.477443   -2.791513   -4.257096
  H     -2.538013   -2.017860   -5.438075
  H     -3.891589   -1.376039   -4.714365
  O     -5.645830   -1.588384   -4.919307
  O     -4.881961   -3.503697   -3.667235
  H     -1.184438   -1.843997   -3.566393
  H     -2.598195   -1.708376   -2.528477
  O     -6.549267   -3.805150   -5.425071
  C     -3.328755    0.875037   -3.103669
  H     -1.740034    0.452343   -4.517126
  H     -1.232611    0.434938   -2.842208
  C     -3.628487    0.771601   -1.609363
  H     -4.175106    0.490791   -3.682203
  H     -3.237812    1.928663   -3.381480
  C     -4.975718    1.361432   -1.190644
  H     -2.830700    1.276234   -1.054766
  H     -3.594312   -0.275838   -1.294603
  C     -6.184720    0.784347   -1.926464
  H     -4.956292    2.445725   -1.342200
  H     -5.097256    1.205252   -0.114136
  C     -6.286921   -0.735882   -1.893531
  H     -6.163994    1.100199   -2.974250
  H     -7.094530    1.223459   -1.504509
  C     -7.468999   -1.246153   -2.713833
  H     -6.360641   -1.090347   -0.859176
  H     -5.369848   -1.171853   -2.295982
  H     -7.601914   -0.601349   -3.585329
  H     -8.389791   -1.173436   -2.126922
  H     -7.118254   -3.379818   -2.398055
  H     -8.241838   -3.004745   -3.706513

 Total Charge           Charge          ....    0
 Multiplicity           Mult            ....    1
 Number of Electrons    NEL             ....  122
 Basis Dimension        Dim             ....  464

ORBITAL ENERGIES
----------------

  NO   OCC          E(Eh)            E(eV)
   0   2.0000     -89.049295     -2423.1545
   1   2.0000     -19.092647      -519.5373
   2   2.0000     -19.092198      -519.5251
   3   2.0000     -19.077786      -519.1329
   4   2.0000     -14.432736      -392.7347
   5   2.0000     -10.266641      -279.3695
   6   2.0000     -10.219275      -278.0806
   7   2.0000     -10.199316      -277.5375
   8   2.0000     -10.191110      -277.3142
   9   2.0000     -10.186171      -277.1798
  10   2.0000     -10.183210      -277.0992
  11   2.0000     -10.176141      -276.9069
  12   2.0000     -10.175869      -276.8995
  13   2.0000     -10.172644      -276.8117
  14   2.0000      -8.102583      -220.4825
  15   2.0000      -6.072369      -165.2376
  16   2.0000      -6.071454      -165.2127
  17   2.0000      -6.069888      -165.1700
  18   2.0000      -1.100627       -29.9496
  19   2.0000      -0.997464       -27.1424
  20   2.0000      -0.953612       -25.9491
  21   2.0000      -0.950015       -25.8512
  22   2.0000      -0.830536       -22.6000
  23   2.0000      -0.802281       -21.8312
  24   2.0000      -0.777205       -21.1488
  25   2.0000      -0.733861       -19.9694
  26   2.0000      -0.701916       -19.1001
  27   2.0000      -0.658529       -17.9195
  28   2.0000      -0.621724       -16.9180
  29   2.0000      -0.608489       -16.5578
  30   2.0000      -0.593146       -16.1403
  31   2.0000      -0.570666       -15.5286
  32   2.0000      -0.558551       -15.1990
  33   2.0000      -0.536493       -14.5987
  34   2.0000      -0.515521       -14.0280
  35   2.0000      -0.489592       -13.3225
  36   2.0000      -0.489207       -13.3120
  37   2.0000      -0.475839       -12.9482
  38   2.0000      -0.460057       -12.5188
  39   2.0000      -0.449595       -12.2341
  40   2.0000      -0.441387       -12.0108
  41   2.0000      -0.437118       -11.8946
  42   2.0000      -0.431481       -11.7412
  43   2.0000      -0.416553       -11.3350
  44   2.0000      -0.412841       -11.2340
  45   2.0000      -0.402489       -10.9523
  46   2.0000      -0.390072       -10.6144
  47   2.0000      -0.377719       -10.2783
  48   2.0000      -0.371324       -10.1042
  49   2.0000      -0.357031        -9.7153
  50   2.0000      -0.348890        -9.4938
  51   2.0000      -0.340017        -9.2523
  52   2.0000      -0.327451        -8.9104
  53   2.0000      -0.324596        -8.8327
  54   2.0000      -0.319739        -8.7005
  55   2.0000      -0.317912        -8.6508
  56   2.0000      -0.314457        -8.5568
  57   2.0000      -0.283683        -7.7194
  58   2.0000      -0.277699        -7.5566
  59   2.0000      -0.267647        -7.2830
  60   2.0000      -0.242780        -6.6064
  61   0.0000      -0.017157        -0.4669
  62   0.0000       0.012367         0.3365
  63   0.0000       0.018357         0.4995
  64   0.0000       0.024900         0.6776
  65   0.0000       0.035377         0.9626

MULLIKEN ATOMIC CHARGES
-----------------------
   0 C :    1.156651
   1 N :   -0.938966
   2 C :    0.607888
   3 C :    0.612310
   4 S :    1.324086
   5 H :    0.261714
   6 H :    0.484129
   7 H :    0.307626
   8 O :   -0.861078
   9 O :   -0.858976
  10 H :   -0.419853
  11 H :   -0.132558
  12 O :   -0.817074
  13 C :    0.701173
  14 H :   -0.168753
  15 H :   -0.119274
  16 C :    0.009304
  17 H :   -0.690787
  18 H :   -0.162733
  19 C :    0.878831
  20 H :   -0.468670
  21 H :    0.033957
  22 C :    0.074632
  23 H :   -0.132304
  24 H :   -0.083888
  25 C :    0.498741
  26 H :    0.110900
  27 H :   -0.510849
  28 C :    0.470936
  29 H :   -0.131170
  30 H :   -0.467325
  31 H :    0.031591
  32 H :   -0.336831
  33 H :   -0.121194
  34 H :   -0.142185
Sum of atomic charges:    0.0000000

LOEWDIN ATOMIC CHARGES
----------------------
   0 C :    0.104497
   1 N :    0.334728
   2 C :   -0.004698
   3 C :   -0.041714
   4 S :    0.966630
   5 H :   -0.045210
   6 H :    0.102128
   7 H :   -0.034971
   8 O :   -0.533897
   9 O :   -0.537136
  10 H :    0.033483
  11 H :    0.030995
  12 O :   -0.509208
  13 C :   -0.009339
  14 H :    0.024001
  15 H :    0.027957
  16 C :   -0.028622
  17 H :   -0.001503
  18 H :    0.030687
  19 C :   -0.021581
  20 H :    0.021502
  21 H :    0.002842
  22 C :   -0.029421
  23 H :    0.019789
  24 H :    0.020927
  25 C :   -0.021323
  26 H :    0.016942
  27 H :    0.023842
  28 C :   -0.037537
  29 H :    0.033001
  30 H :   -0.011271
  31 H :    0.018416
  32 H :    0.025704
  33 H :    0.017341
  34 H :    0.012018

  Mayer bond orders larger than 0.100000
B(  0-C ,  1-N ) :   0.5762 B(  0-C ,  2-C ) :   1.1871 B(  0-C , 10-H ) :   0.6995
B(  0-C , 11-H ) :   0.6933 B(  0-C , 13-C ) :   0.1323 B(  0-C , 15-H ) :   0.1859
B(  1-N ,  5-H ) :   0.7837 B(  1-N ,  6-H ) :   0.5238 B(  1-N ,  7-H ) :   0.7592
B(  1-N , 10-H ) :   0.1001 B(  1-N , 11-H ) :   0.2337 B(  2-C , 10-H ) :   0.1335
B(  2-C , 13-C ) :   1.1531 B(  2-C , 14-H ) :   0.6448 B(  2-C , 15-H ) :   0.7105
B(  2-C , 17-H ) :   0.1442 B(  3-C ,  4-S ) :   0.8728 B(  3-C , 12-O ) :   0.1387
B(  3-C , 25-C ) :   0.1177 B(  3-C , 28-C ) :   1.2088 B(  3-C , 31-H ) :   0.1028
B(  3-C , 33-H ) :   0.8302 B(  3-C , 34-H ) :   0.6965 B(  4-S ,  8-O ) :   1.1053
B(  4-S ,  9-O ) :   1.1126 B(  4-S , 12-O ) :   1.3696 B(  4-S , 33-H ) :   0.1145
B(  5-H ,  9-O ) :   0.1890 B(  7-H ,  8-O ) :   0.1693 B(  7-H , 17-H ) :   0.1080
B( 10-H , 11-H ) :  -0.1641 B( 11-H , 21-H ) :   0.1026 B( 13-C , 14-H ) :   0.2020
B( 13-C , 15-H ) :   0.1123 B( 13-C , 16-C ) :   1.1399 B( 13-C , 17-H ) :   0.5142
B( 13-C , 18-H ) :   0.6997 B( 13-C , 20-H ) :   0.2038 B( 13-C , 21-H ) :   0.1077
B( 14-H , 15-H ) :  -0.1178 B( 16-C , 17-H ) :   0.2591 B( 16-C , 18-H ) :   0.1950
B( 16-C , 19-C ) :   1.1502 B( 16-C , 20-H ) :   0.9070 B( 16-C , 21-H ) :   0.8265
B( 16-C , 22-C ) :   0.1711 B( 16-C , 23-H ) :   0.1686 B( 16-C , 24-H ) :   0.3131
B( 17-H , 26-H ) :   0.1266 B( 19-C , 22-C ) :   1.1156 B( 19-C , 23-H ) :   0.5945
B( 19-C , 24-H ) :   0.5961 B( 22-C , 23-H ) :   0.2727 B( 22-C , 24-H ) :   0.1332
B( 22-C , 25-C ) :   1.2295 B( 22-C , 26-H ) :   0.7849 B( 22-C , 27-H ) :   0.8986
B( 22-C , 28-C ) :   0.1449 B( 22-C , 29-H ) :   0.1222 B( 22-C , 30-H ) :   0.1534
B( 23-H , 24-H ) :  -0.1406 B( 25-C , 26-H ) :   0.1238 B( 25-C , 27-H ) :   0.1940
B( 25-C , 28-C ) :   1.1513 B( 25-C , 29-H ) :   0.6251 B( 25-C , 30-H ) :   0.7242
B( 25-C , 32-H ) :   0.2084 B( 28-C , 29-H ) :   0.1451 B( 28-C , 31-H ) :   0.8011
B( 28-C , 32-H ) :   0.7103 B( 28-C , 34-H ) :   0.2520 B( 29-H , 30-H ) :   0.2568

Dispersion correction           -0.068374650
FINAL SINGLE POINT ENERGY     -1033.270191414411

DIPOLE MOMENT
-------------
                                X             Y             Z
Electronic contribution:     -6.00105     -15.18976     -11.38243
Nuclear contribution   :      8.59301      16.99497      12.41069
                        -----------------------------------------
Total Dipole Moment    :      2.59196       1.80521       1.02825
                        -----------------------------------------
Magnitude (a.u.)       :      3.32180
Magnitude (Debye)      :      8.44335

Rotational constants in cm-1:     0.025617     0.015295     0.010641
Rotational constants in MHz :   767.991150   458.522408   319.013093

                             ****ORCA TERMINATED NORMALLY****
TOTAL RUN TIME: 0 days 0 hours 3 minutes 10 seconds 619 msec
