                         Program Version 5.0.0 -  RELEASE  -
|  1> !B3LYP D3BJ RIJCOSX def2-SVPD def2/J TightSCF
|  2> *xyz 0 1
|  3> C         -7.33044       -2.67899       -3.20681
|  4> S         -6.01966       -2.92697       -4.41913
|  5> F         -5.64583       -1.58838       -4.91931
|  6> O         -4.88196       -3.50370       -3.66724
|  7> O         -6.54927       -3.80515       -5.42507
|  8> H         -8.18867       -2.26077       -3.68996
|  9> H         -6.98921       -2.01038       -2.44430
| 10> H         -7.59151       -3.61862       -2.76655
| 11> *
| 12> %MaxCore 64000
| 13>
| 14> %pal nprocs 8
| 15> end
| 16>
| 17> %scf
| 18>   MaxIter 150
| 19> end
| 20>
| 21>
| 22>                          ****END OF INPUT****

CARTESIAN COORDINATES (ANGSTROEM)
---------------------------------
  C     -7.330440   -2.678990   -3.206810
  S     -6.019660   -2.926970   -4.419130
  F     -5.645830   -1.588380   -4.919310
  O     -4.881960   -3.503700   -3.667240
  O     -6.549270   -3.805150   -5.425070
  H     -8.188670   -2.260770   -3.689960
  H     -6.989210   -2.010380   -2.444300
  H     -7.591510   -3.618620   -2.766550

 Total Charge           Charge          ....    0
 Multiplicity           Mult            ....    1
 Number of Electrons    NEL             ....   50
 Basis Dimension        Dim             ....  140

ORBITAL ENERGIES
----------------

  NO   OCC          E(Eh)            E(eV)
   0   2.0000     -89.145991     -2425.7857
   1   2.0000     -24.805779      -674.9996
   2   2.0000     -19.160932      -521.3955
   3   2.0000     -19.146655      -521.0070
   4   2.0000     -10.251208      -278.9495
   5   2.0000      -8.200008      -223.1336
   6   2.0000      -6.172854      -167.9719
   7   2.0000      -6.166656      -167.8033
   8   2.0000      -6.165693      -167.7770
   9   2.0000      -1.354434       -36.8560
  10   2.0000      -1.116259       -30.3749
  11   2.0000      -1.012513       -27.5519
  12   2.0000      -0.803813       -21.8729
  13   2.0000      -0.711519       -19.3614
  14   2.0000      -0.598876       -16.2963
  15   2.0000      -0.575895       -15.6709
  16   2.0000      -0.558454       -15.1963
  17   2.0000      -0.485456       -13.2099
  18   2.0000      -0.482176       -13.1207
  19   2.0000      -0.474118       -12.9014
  20   2.0000      -0.446395       -12.1470
  21   2.0000      -0.393305       -10.7024
  22   2.0000      -0.349052        -9.4982
  23   2.0000      -0.334312        -9.0971
  24   2.0000      -0.316750        -8.6192
  25   0.0000      -0.013643        -0.3713
  26   0.0000       0.021843         0.5944
  27   0.0000       0.031729         0.8634
  28   0.0000       0.044663         1.2154
  29   0.0000       0.045494         1.2380

MULLIKEN ATOMIC CHARGES
-----------------------
   0 C :    0.683125
   1 S :    1.259639
   2 F :   -0.391739
   3 O :   -0.658541
   4 O :   -0.614924
   5 H :   -0.091366
   6 H :   -0.090758
   7 H :   -0.095436
Sum of atomic charges:    0.0000000

LOEWDIN ATOMIC CHARGES
----------------------
   0 C :    0.136017
   1 S :    1.112028
   2 F :   -0.272330
   3 O :   -0.482976
   4 O :   -0.461898
   5 H :   -0.015459
   6 H :   -0.014273
   7 H :   -0.001109

  Mayer bond orders larger than 0.100000
B(  0-C ,  1-S ) :   0.9776 B(  0-C ,  5-H ) :   0.8823 B(  0-C ,  6-H ) :   0.8850
B(  0-C ,  7-H ) :   0.8801 B(  1-S ,  2-F ) :   0.6683 B(  1-S ,  3-O ) :   1.5054
B(  1-S ,  4-O ) :   1.5464 B(  1-S ,  6-H ) :   0.1069 B(  1-S ,  7-H ) :   0.1271

Dispersion correction           -0.010346617
FINAL SINGLE POINT ENERGY      -687.820250023712

DIPOLE MOMENT
-------------
                                X             Y             Z
Electronic contribution:      3.53837       1.58649      -3.72452
Nuclear contribution   :     -4.68608      -0.54182       4.44322
                        -----------------------------------------
Total Dipole Moment    :     -1.14771       1.04467       0.71870
                        -----------------------------------------
Magnitude (a.u.)       :      1.71029
Magnitude (Debye)      :      4.34721

Rotational constants in cm-1:     0.164393     0.151201     0.145518
Rotational constants in MHz :  4928.381777  4532.884356  4362.527209

                             ****ORCA TERMINATED NORMALLY****
TOTAL RUN TIME: 0 days 0 hours 0 minutes 7 seconds 19 msec
