                         Program Version 5.0.0 -  RELEASE  -
|  1> !B3LYP D3BJ RIJCOSX def2-SVPD def2/J TightSCF
|  2> *xyz 0 1
|  3> C         -2.16038       -1.36949       -3.46710
|  4> C         -3.03011       -1.91086       -4.54107
|  5> H         -3.47744       -2.79151       -4.25710
|  6> H         -2.53801       -2.01786       -5.43808
|  7> H         -3.89159       -1.37604       -4.71437
|  8> H         -1.71294       -0.45536       -3.79734
|  9> H         -1.39344       -2.07939       -3.23742
| 10> H         -2.74775       -1.18344       -2.59230
| 11> *
| 12> %MaxCore 64000
| 13>
| 14> %pal nprocs 8
| 15> end
| 16>
| 17> %scf
| 18>   MaxIter 150
| 19> end
| 20>
| 21>
| 22>                          ****END OF INPUT****

CARTESIAN COORDINATES (ANGSTROEM)
---------------------------------
  C     -2.160380   -1.369490   -3.467100
  C     -3.030110   -1.910860   -4.541070
  H     -3.477440   -2.791510   -4.257100
  H     -2.538010   -2.017860   -5.438080
  H     -3.891590   -1.376040   -4.714370
  H     -1.712940   -0.455360   -3.797340
  H     -1.393440   -2.079390   -3.237420
  H     -2.747750   -1.183440   -2.592300

 Total Charge           Charge          ....    0
 Multiplicity           Mult            ....    1
 Number of Electrons    NEL             ....   18
 Basis Dimension        Dim             ....   88

ORBITAL ENERGIES
----------------

  NO   OCC          E(Eh)            E(eV)
   0   2.0000     -10.162211      -276.5278
   1   2.0000     -10.148200      -276.1466
   2   2.0000      -0.761746       -20.7282
   3   2.0000      -0.619968       -16.8702
   4   2.0000      -0.453454       -12.3391
   5   2.0000      -0.437925       -11.9165
   6   2.0000      -0.375463       -10.2169
   7   2.0000      -0.352224        -9.5845
   8   2.0000      -0.335679        -9.1343
   9   0.0000       0.026833         0.7302
  10   0.0000       0.057365         1.5610
  11   0.0000       0.098769         2.6876
  12   0.0000       0.102558         2.7907
  13   0.0000       0.122020         3.3203

MULLIKEN ATOMIC CHARGES
-----------------------
   0 C :    0.508190
   1 C :    0.743944
   2 H :   -0.281224
   3 H :   -0.271104
   4 H :   -0.296661
   5 H :   -0.143531
   6 H :   -0.134539
   7 H :   -0.125074
Sum of atomic charges:   -0.0000000

LOEWDIN ATOMIC CHARGES
----------------------
   0 C :    0.090874
   1 C :    0.082901
   2 H :   -0.040278
   3 H :   -0.033881
   4 H :   -0.040680
   5 H :   -0.020707
   6 H :   -0.019189
   7 H :   -0.019040

  Mayer bond orders larger than 0.100000
B(  0-C ,  1-C ) :   1.4242 B(  0-C ,  2-H ) :   0.1787 B(  0-C ,  3-H ) :   0.1771
B(  0-C ,  4-H ) :   0.1545 B(  0-C ,  5-H ) :   0.8212 B(  0-C ,  6-H ) :   0.7984
B(  0-C ,  7-H ) :   0.8226 B(  1-C ,  2-H ) :   0.6702 B(  1-C ,  3-H ) :   0.7295
B(  1-C ,  4-H ) :   0.6718 B(  1-C ,  5-H ) :   0.1739 B(  1-C ,  6-H ) :   0.1798
B(  1-C ,  7-H ) :   0.1803 B(  2-H ,  4-H ) :   0.2598

Dispersion correction           -0.005487105
FINAL SINGLE POINT ENERGY       -79.700071457951

DIPOLE MOMENT
-------------
                                X             Y             Z
Electronic contribution:      0.10389       0.03370      -0.00135
Nuclear contribution   :     -0.14218      -0.04688      -0.00907
                        -----------------------------------------
Total Dipole Moment    :     -0.03829      -0.01318      -0.01042
                        -----------------------------------------
Magnitude (a.u.)       :      0.04181
Magnitude (Debye)      :      0.10628

Rotational constants in cm-1:     2.917838     0.714537     0.705359
Rotational constants in MHz : 87474.579540 21421.280941 21146.123231

                             ****ORCA TERMINATED NORMALLY****
TOTAL RUN TIME: 0 days 0 hours 0 minutes 3 seconds 634 msec
