                         Program Version 5.0.0 -  RELEASE  -
|  1> !B3LYP D3BJ RIJCOSX def2-SVPD def2/J TightSCF
|  2> *xyz 0 1
|  3> C         -7.33044       -2.67899       -3.20681
|  4> S         -6.01966       -2.92697       -4.41913
|  5> O         -5.64583       -1.58838       -4.91931
|  6> F         -4.88196       -3.50370       -3.66724
|  7> O         -6.54927       -3.80515       -5.42507
|  8> H         -8.18867       -2.26077       -3.68996
|  9> H         -6.98921       -2.01038       -2.44430
| 10> H         -7.59151       -3.61862       -2.76655
| 11> *
| 12> %MaxCore 64000
| 13>
| 14> %pal nprocs 8
| 15> end
| 16>
| 17> %scf
| 18>   MaxIter 150
| 19> end
| 20>
| 21>
| 22>                          ****END OF INPUT****

CARTESIAN COORDINATES (ANGSTROEM)
---------------------------------
  C     -7.330440   -2.678990   -3.206810
  S     -6.019660   -2.926970   -4.419130
  O     -5.645830   -1.588380   -4.919310
  F     -4.881960   -3.503700   -3.667240
  O     -6.549270   -3.805150   -5.425070
  H     -8.188670   -2.260770   -3.689960
  H     -6.989210   -2.010380   -2.444300
  H     -7.591510   -3.618620   -2.766550

 Total Charge           Charge          ....    0
 Multiplicity           Mult            ....    1
 Number of Electrons    NEL             ....   50
 Basis Dimension        Dim             ....  140

ORBITAL ENERGIES
----------------

  NO   OCC          E(Eh)            E(eV)
   0   2.0000     -89.145892     -2425.7830
   1   2.0000     -24.803047      -674.9252
   2   2.0000     -19.160753      -521.3906
   3   2.0000     -19.149078      -521.0729
   4   2.0000     -10.251088      -278.9463
   5   2.0000      -8.199869      -223.1298
   6   2.0000      -6.172705      -167.9678
   7   2.0000      -6.166555      -167.8005
   8   2.0000      -6.165564      -167.7735
   9   2.0000      -1.350905       -36.7600
  10   2.0000      -1.116806       -30.3898
  11   2.0000      -1.015097       -27.6222
  12   2.0000      -0.804063       -21.8797
  13   2.0000      -0.709324       -19.3017
  14   2.0000      -0.597360       -16.2550
  15   2.0000      -0.573429       -15.6038
  16   2.0000      -0.557933       -15.1821
  17   2.0000      -0.485340       -13.2068
  18   2.0000      -0.482663       -13.1339
  19   2.0000      -0.473297       -12.8791
  20   2.0000      -0.447245       -12.1701
  21   2.0000      -0.393803       -10.7159
  22   2.0000      -0.349351        -9.5063
  23   2.0000      -0.336981        -9.1697
  24   2.0000      -0.318782        -8.6745
  25   0.0000      -0.012172        -0.3312
  26   0.0000       0.023323         0.6347
  27   0.0000       0.031894         0.8679
  28   0.0000       0.044931         1.2226
  29   0.0000       0.045474         1.2374

MULLIKEN ATOMIC CHARGES
-----------------------
   0 C :    0.682128
   1 S :    1.260766
   2 O :   -0.655671
   3 F :   -0.392698
   4 O :   -0.616585
   5 H :   -0.099596
   6 H :   -0.089812
   7 H :   -0.088532
Sum of atomic charges:   -0.0000000

LOEWDIN ATOMIC CHARGES
----------------------
   0 C :    0.136006
   1 S :    1.111479
   2 O :   -0.479567
   3 F :   -0.274925
   4 O :   -0.462222
   5 H :   -0.001734
   6 H :   -0.014012
   7 H :   -0.015024

  Mayer bond orders larger than 0.100000
B(  0-C ,  1-S ) :   0.9773 B(  0-C ,  5-H ) :   0.8801 B(  0-C ,  6-H ) :   0.8862
B(  0-C ,  7-H ) :   0.8815 B(  1-S ,  2-O ) :   1.5072 B(  1-S ,  3-F ) :   0.6654
B(  1-S ,  4-O ) :   1.5463 B(  1-S ,  5-H ) :   0.1267 B(  1-S ,  6-H ) :   0.1077
B(  1-S ,  7-H ) :   0.1006

Dispersion correction           -0.010344628
FINAL SINGLE POINT ENERGY      -687.822881700795

DIPOLE MOMENT
-------------
                                X             Y             Z
Electronic contribution:      4.81819      -1.61238      -1.63217
Nuclear contribution   :     -5.44924       1.37171       3.19232
                        -----------------------------------------
Total Dipole Moment    :     -0.63105      -0.24067       1.56015
                        -----------------------------------------
Magnitude (a.u.)       :      1.70006
Magnitude (Debye)      :      4.32121

Rotational constants in cm-1:     0.163884     0.151426     0.145804
Rotational constants in MHz :  4913.124213  4539.628058  4371.086672

                             ****ORCA TERMINATED NORMALLY****
TOTAL RUN TIME: 0 days 0 hours 0 minutes 7 seconds 185 msec
