                         Program Version 5.0.0 -  RELEASE  -
|  1> !B3LYP D3BJ RIJCOSX def2-SVPD def2/J TightSCF
|  2> *xyz 0 1
|  3> C         -7.33044       -2.67899       -3.20681
|  4> S         -6.01966       -2.92697       -4.41913
|  5> O         -5.64583       -1.58838       -4.91931
|  6> O         -4.88196       -3.50370       -3.66724
|  7> F         -6.54927       -3.80515       -5.42507
|  8> H         -8.18867       -2.26077       -3.68996
|  9> H         -6.98921       -2.01038       -2.44430
| 10> H         -7.59151       -3.61862       -2.76655
| 11> *
| 12> %MaxCore 64000
| 13>
| 14> %pal nprocs 8
| 15> end
| 16>
| 17> %scf
| 18>   MaxIter 150
| 19> end
| 20>
| 21>
| 22>                          ****END OF INPUT****

CARTESIAN COORDINATES (ANGSTROEM)
---------------------------------
  C     -7.330440   -2.678990   -3.206810
  S     -6.019660   -2.926970   -4.419130
  O     -5.645830   -1.588380   -4.919310
  O     -4.881960   -3.503700   -3.667240
  F     -6.549270   -3.805150   -5.425070
  H     -8.188670   -2.260770   -3.689960
  H     -6.989210   -2.010380   -2.444300
  H     -7.591510   -3.618620   -2.766550

 Total Charge           Charge          ....    0
 Multiplicity           Mult            ....    1
 Number of Electrons    NEL             ....   50
 Basis Dimension        Dim             ....  140

ORBITAL ENERGIES
----------------

  NO   OCC          E(Eh)            E(eV)
   0   2.0000     -89.148087     -2425.8428
   1   2.0000     -24.824472      -675.5082
   2   2.0000     -19.149616      -521.0876
   3   2.0000     -19.147041      -521.0175
   4   2.0000     -10.251953      -278.9698
   5   2.0000      -8.202126      -223.1912
   6   2.0000      -6.175232      -168.0366
   7   2.0000      -6.168536      -167.8544
   8   2.0000      -6.167604      -167.8290
   9   2.0000      -1.388348       -37.7789
  10   2.0000      -1.100990       -29.9595
  11   2.0000      -0.997959       -27.1559
  12   2.0000      -0.806842       -21.9553
  13   2.0000      -0.727579       -19.7984
  14   2.0000      -0.614616       -16.7246
  15   2.0000      -0.599423       -16.3111
  16   2.0000      -0.562855       -15.3161
  17   2.0000      -0.485438       -13.2094
  18   2.0000      -0.479550       -13.0492
  19   2.0000      -0.473922       -12.8961
  20   2.0000      -0.440268       -11.9803
  21   2.0000      -0.385004       -10.4765
  22   2.0000      -0.338688        -9.2162
  23   2.0000      -0.330802        -9.0016
  24   2.0000      -0.305620        -8.3163
  25   0.0000      -0.013764        -0.3745
  26   0.0000       0.025613         0.6970
  27   0.0000       0.030352         0.8259
  28   0.0000       0.042975         1.1694
  29   0.0000       0.045661         1.2425

MULLIKEN ATOMIC CHARGES
-----------------------
   0 C :    0.683291
   1 S :    1.253773
   2 O :   -0.643213
   3 O :   -0.648234
   4 F :   -0.369915
   5 H :   -0.091997
   6 H :   -0.096703
   7 H :   -0.087000
Sum of atomic charges:   -0.0000000

LOEWDIN ATOMIC CHARGES
----------------------
   0 C :    0.135357
   1 S :    1.113653
   2 O :   -0.478961
   3 O :   -0.482566
   4 F :   -0.256706
   5 H :   -0.015780
   6 H :   -0.000351
   7 H :   -0.014647

  Mayer bond orders larger than 0.100000
B(  0-C ,  1-S ) :   0.9774 B(  0-C ,  5-H ) :   0.8808 B(  0-C ,  6-H ) :   0.8849
B(  0-C ,  7-H ) :   0.8815 B(  1-S ,  2-O ) :   1.5107 B(  1-S ,  3-O ) :   1.5087
B(  1-S ,  4-F ) :   0.7166 B(  1-S ,  6-H ) :   0.1335

Dispersion correction           -0.010343658
FINAL SINGLE POINT ENERGY      -687.804517573339

DIPOLE MOMENT
-------------
                                X             Y             Z
Electronic contribution:      2.04759      -2.09827      -4.55677
Nuclear contribution   :     -3.78348       1.67287       4.94851
                        -----------------------------------------
Total Dipole Moment    :     -1.73589      -0.42540       0.39174
                        -----------------------------------------
Magnitude (a.u.)       :      1.82968
Magnitude (Debye)      :      4.65069

Rotational constants in cm-1:     0.163108     0.153882     0.144407
Rotational constants in MHz :  4889.859464  4613.257659  4329.207840

                             ****ORCA TERMINATED NORMALLY****
TOTAL RUN TIME: 0 days 0 hours 0 minutes 6 seconds 896 msec
