                         Program Version 5.0.0 -  RELEASE  -
|  1> !B3LYP D3BJ RIJCOSX def2-SVPD def2/J TightSCF xyzfile
|  2>
|  3> *xyzfile 0 1 D1.xyz
|  4>
|  5> %MaxCore 64000
|  6>
|  7> %pal nprocs 4
|  8> end
|  9>
| 10> %scf
| 11>   MaxIter 150
| 12> end
| 13>
| 14>
| 15>                          ****END OF INPUT****

CARTESIAN COORDINATES (ANGSTROEM)
---------------------------------
  C     -2.160376   -1.369486   -3.467104
  C     -3.030108   -1.910857   -4.541074
  C     -2.047717    0.146583   -3.511774
  C     -7.330440   -2.678991   -3.206811
  S     -6.019659   -2.926965   -4.419128
  H     -3.477443   -2.791513   -4.257096
  H     -2.538013   -2.017860   -5.438075
  H     -3.891589   -1.376039   -4.714365
  F     -5.645830   -1.588384   -4.919307
  O     -4.881961   -3.503697   -3.667235
  H     -1.184438   -1.843997   -3.566393
  H     -2.598195   -1.708376   -2.528477
  O     -6.549267   -3.805150   -5.425071
  C     -3.328755    0.875037   -3.103669
  H     -1.740034    0.452343   -4.517126
  H     -1.232611    0.434938   -2.842208
  C     -3.628487    0.771601   -1.609363
  H     -4.175106    0.490791   -3.682203
  H     -3.237812    1.928663   -3.381480
  C     -4.975718    1.361432   -1.190644
  H     -2.830700    1.276234   -1.054766
  H     -3.594312   -0.275838   -1.294603
  C     -6.184720    0.784347   -1.926464
  H     -4.956292    2.445725   -1.342200
  H     -5.097256    1.205252   -0.114136
  C     -6.286921   -0.735882   -1.893531
  H     -6.163994    1.100199   -2.974250
  H     -7.094530    1.223459   -1.504509
  C     -7.468999   -1.246153   -2.713833
  H     -6.360641   -1.090347   -0.859176
  H     -5.369848   -1.171853   -2.295982
  H     -7.601914   -0.601349   -3.585329
  H     -8.389791   -1.173436   -2.126922
  H     -7.118254   -3.379818   -2.398055
  H     -8.241838   -3.004745   -3.706513

 Total Charge           Charge          ....    0
 Multiplicity           Mult            ....    1
 Number of Electrons    NEL             ....  122
 Basis Dimension        Dim             ....  464

ORBITAL ENERGIES
----------------

  NO   OCC          E(Eh)            E(eV)
   0   2.0000     -89.143257     -2425.7113
   1   2.0000     -24.805420      -674.9898
   2   2.0000     -19.161190      -521.4025
   3   2.0000     -19.145085      -520.9642
   4   2.0000     -10.249259      -278.8965
   5   2.0000     -10.217935      -278.0442
   6   2.0000     -10.196204      -277.4528
   7   2.0000     -10.188000      -277.2296
   8   2.0000     -10.180818      -277.0341
   9   2.0000     -10.173906      -276.8460
  10   2.0000     -10.171385      -276.7775
  11   2.0000     -10.163638      -276.5667
  12   2.0000     -10.153909      -276.3019
  13   2.0000     -10.108248      -275.0594
  14   2.0000      -8.196713      -223.0439
  15   2.0000      -6.169716      -167.8865
  16   2.0000      -6.163618      -167.7206
  17   2.0000      -6.161952      -167.6752
  18   2.0000      -1.357022       -36.9264
  19   2.0000      -1.117191       -30.4003
  20   2.0000      -1.016582       -27.6626
  21   2.0000      -0.843506       -22.9530
  22   2.0000      -0.810254       -22.0481
  23   2.0000      -0.781928       -21.2774
  24   2.0000      -0.756564       -20.5871
  25   2.0000      -0.720118       -19.5954
  26   2.0000      -0.703860       -19.1530
  27   2.0000      -0.668475       -18.1901
  28   2.0000      -0.633795       -17.2464
  29   2.0000      -0.617841       -16.8123
  30   2.0000      -0.592969       -16.1355
  31   2.0000      -0.584222       -15.8975
  32   2.0000      -0.565551       -15.3894
  33   2.0000      -0.553837       -15.0707
  34   2.0000      -0.542144       -14.7525
  35   2.0000      -0.499317       -13.5871
  36   2.0000      -0.493041       -13.4163
  37   2.0000      -0.480432       -13.0732
  38   2.0000      -0.469687       -12.7808
  39   2.0000      -0.465081       -12.6555
  40   2.0000      -0.452956       -12.3255
  41   2.0000      -0.440257       -11.9800
  42   2.0000      -0.434332       -11.8188
  43   2.0000      -0.428081       -11.6487
  44   2.0000      -0.411822       -11.2062
  45   2.0000      -0.398147       -10.8341
  46   2.0000      -0.392780       -10.6881
  47   2.0000      -0.389879       -10.6091
  48   2.0000      -0.378171       -10.2906
  49   2.0000      -0.368368       -10.0238
  50   2.0000      -0.358259        -9.7487
  51   2.0000      -0.354853        -9.6560
  52   2.0000      -0.342313        -9.3148
  53   2.0000      -0.338105        -9.2003
  54   2.0000      -0.331955        -9.0330
  55   2.0000      -0.325589        -8.8597
  56   2.0000      -0.318119        -8.6565
  57   2.0000      -0.316379        -8.6091
  58   2.0000      -0.305942        -8.3251
  59   2.0000      -0.303596        -8.2613
  60   2.0000      -0.278757        -7.5854
  61   0.0000      -0.012953        -0.3525
  62   0.0000       0.018706         0.5090
  63   0.0000       0.020594         0.5604
  64   0.0000       0.026591         0.7236
  65   0.0000       0.033750         0.9184

MULLIKEN ATOMIC CHARGES
-----------------------
   0 C :    0.247062
   1 C :    2.282501
   2 C :    0.754669
   3 C :    0.623330
   4 S :    1.440877
   5 H :   -0.626523
   6 H :   -0.362144
   7 H :   -1.097763
   8 F :   -0.489873
   9 O :   -0.752508
  10 H :   -0.384181
  11 H :   -0.116544
  12 O :   -0.712410
  13 C :    0.613168
  14 H :   -0.189019
  15 H :   -0.202571
  16 C :    0.032867
  17 H :   -0.692088
  18 H :   -0.149041
  19 C :    0.877711
  20 H :   -0.448878
  21 H :    0.034721
  22 C :    0.067150
  23 H :   -0.121908
  24 H :   -0.086319
  25 C :    0.574889
  26 H :    0.130500
  27 H :   -0.536306
  28 C :    0.477283
  29 H :   -0.125471
  30 H :   -0.526173
  31 H :   -0.008449
  32 H :   -0.297256
  33 H :   -0.110013
  34 H :   -0.121292
Sum of atomic charges:    0.0000000

LOEWDIN ATOMIC CHARGES
----------------------
   0 C :   -0.030947
   1 C :    0.131995
   2 C :   -0.021790
   3 C :   -0.018037
   4 S :    1.167782
   5 H :   -0.122554
   6 H :   -0.015586
   7 H :   -0.097071
   8 F :   -0.270016
   9 O :   -0.456502
  10 H :    0.021369
  11 H :    0.009200
  12 O :   -0.442940
  13 C :   -0.016833
  14 H :    0.022258
  15 H :    0.014461
  16 C :   -0.028083
  17 H :   -0.009405
  18 H :    0.023501
  19 C :   -0.022743
  20 H :    0.022414
  21 H :    0.002848
  22 C :   -0.031492
  23 H :    0.020411
  24 H :    0.019511
  25 C :   -0.016711
  26 H :    0.013773
  27 H :    0.023025
  28 C :   -0.036300
  29 H :    0.038724
  30 H :   -0.003898
  31 H :    0.020717
  32 H :    0.034357
  33 H :    0.034227
  34 H :    0.020336

  Mayer bond orders larger than 0.100000
B(  0-C ,  1-C ) :   0.8834 B(  0-C ,  2-C ) :   1.1912 B(  0-C ,  5-H ) :   0.4760
B(  0-C ,  6-H ) :   0.1319 B(  0-C ,  7-H ) :   0.4599 B(  0-C , 10-H ) :   0.7837
B(  0-C , 11-H ) :   0.7093 B(  0-C , 13-C ) :   0.1340 B(  0-C , 14-H ) :   0.1490
B(  0-C , 15-H ) :   0.2125 B(  1-C ,  2-C ) :   0.1045 B(  1-C ,  5-H ) :  -0.5201
B(  1-C ,  6-H ) :   0.4717 B(  1-C ,  7-H ) :  -1.0540 B(  1-C ,  9-O ) :  -0.1238
B(  1-C , 11-H ) :   0.2634 B(  2-C ,  7-H ) :  -0.1190 B(  2-C , 11-H ) :   0.1166
B(  2-C , 13-C ) :   1.1637 B(  2-C , 14-H ) :   0.6131 B(  2-C , 15-H ) :   0.6512
B(  2-C , 17-H ) :   0.1742 B(  3-C ,  4-S ) :   0.8760 B(  3-C , 12-O ) :   0.1160
B(  3-C , 25-C ) :   0.1085 B(  3-C , 28-C ) :   1.2108 B(  3-C , 33-H ) :   0.8462
B(  3-C , 34-H ) :   0.6919 B(  4-S ,  8-F ) :   0.6034 B(  4-S ,  9-O ) :   1.4472
B(  4-S , 12-O ) :   1.4875 B(  4-S , 33-H ) :   0.1094 B(  5-H ,  6-H ) :  -0.1653
B(  5-H ,  7-H ) :   1.0445 B(  5-H ,  9-O ) :   0.1674 B(  6-H ,  7-H ) :   0.1761
B(  7-H ,  8-F ) :   0.1113 B(  7-H ,  9-O ) :   0.1180 B(  7-H , 10-H ) :   0.1020
B(  7-H , 17-H ) :   0.1764 B(  9-O , 12-O ) :   0.1060 B( 10-H , 11-H ) :  -0.1194
B( 11-H , 21-H ) :   0.1102 B( 13-C , 14-H ) :   0.2420 B( 13-C , 15-H ) :   0.1678
B( 13-C , 16-C ) :   1.1421 B( 13-C , 17-H ) :   0.5956 B( 13-C , 18-H ) :   0.6634
B( 13-C , 20-H ) :   0.2042 B( 13-C , 21-H ) :   0.1171 B( 14-H , 15-H ) :  -0.1905
B( 16-C , 17-H ) :   0.2410 B( 16-C , 18-H ) :   0.2111 B( 16-C , 19-C ) :   1.1512
B( 16-C , 20-H ) :   0.8857 B( 16-C , 21-H ) :   0.8381 B( 16-C , 22-C ) :   0.1745
B( 16-C , 23-H ) :   0.1689 B( 16-C , 24-H ) :   0.3162 B( 17-H , 26-H ) :   0.1089
B( 19-C , 22-C ) :   1.1203 B( 19-C , 23-H ) :   0.5902 B( 19-C , 24-H ) :   0.5994
B( 22-C , 23-H ) :   0.2794 B( 22-C , 24-H ) :   0.1335 B( 22-C , 25-C ) :   1.2121
B( 22-C , 26-H ) :   0.7724 B( 22-C , 27-H ) :   0.9248 B( 22-C , 28-C ) :   0.1476
B( 22-C , 29-H ) :   0.1166 B( 22-C , 30-H ) :   0.1678 B( 23-H , 24-H ) :  -0.1413
B( 25-C , 26-H ) :   0.1276 B( 25-C , 27-H ) :   0.1826 B( 25-C , 28-C ) :   1.1269
B( 25-C , 29-H ) :   0.6316 B( 25-C , 30-H ) :   0.6454 B( 25-C , 32-H ) :   0.2006
B( 28-C , 29-H ) :   0.1464 B( 28-C , 31-H ) :   0.8138 B( 28-C , 32-H ) :   0.7089
B( 28-C , 34-H ) :   0.2557 B( 29-H , 30-H ) :   0.2464

Dispersion correction           -0.067108340
FINAL SINGLE POINT ENERGY     -1041.145161946308

DIPOLE MOMENT
-------------
                                X             Y             Z
Electronic contribution:    -10.88345     -16.17838     -13.13866
Nuclear contribution   :      9.63012      17.20461      14.03552
                        -----------------------------------------
Total Dipole Moment    :     -1.25333       1.02623       0.89686
                        -----------------------------------------
Magnitude (a.u.)       :      1.85158
Magnitude (Debye)      :      4.70634

Rotational constants in cm-1:     0.025899     0.015189     0.010690
Rotational constants in MHz :   776.424978   455.369614   320.488876

                             ****ORCA TERMINATED NORMALLY****
TOTAL RUN TIME: 0 days 0 hours 3 minutes 11 seconds 179 msec
