                         Program Version 5.0.0 -  RELEASE  -
|  1> !B3LYP D3BJ RIJCOSX def2-SVPD def2/J TightSCF xyzfile
|  2>
|  3> *xyzfile 0 1 D3.xyz
|  4>
|  5> %MaxCore 64000
|  6>
|  7> %pal nprocs 4
|  8> end
|  9>
| 10> %scf
| 11>   MaxIter 150
| 12> end
| 13>
| 14>
| 15>                          ****END OF INPUT****

CARTESIAN COORDINATES (ANGSTROEM)
---------------------------------
  C     -2.160376   -1.369486   -3.467104
  C     -3.030108   -1.910857   -4.541074
  C     -2.047717    0.146583   -3.511774
  C     -7.330440   -2.678991   -3.206811
  S     -6.019659   -2.926965   -4.419128
  H     -3.477443   -2.791513   -4.257096
  H     -2.538013   -2.017860   -5.438075
  H     -3.891589   -1.376039   -4.714365
  O     -5.645830   -1.588384   -4.919307
  O     -4.881961   -3.503697   -3.667235
  H     -1.184438   -1.843997   -3.566393
  H     -2.598195   -1.708376   -2.528477
  F     -6.549267   -3.805150   -5.425071
  C     -3.328755    0.875037   -3.103669
  H     -1.740034    0.452343   -4.517126
  H     -1.232611    0.434938   -2.842208
  C     -3.628487    0.771601   -1.609363
  H     -4.175106    0.490791   -3.682203
  H     -3.237812    1.928663   -3.381480
  C     -4.975718    1.361432   -1.190644
  H     -2.830700    1.276234   -1.054766
  H     -3.594312   -0.275838   -1.294603
  C     -6.184720    0.784347   -1.926464
  H     -4.956292    2.445725   -1.342200
  H     -5.097256    1.205252   -0.114136
  C     -6.286921   -0.735882   -1.893531
  H     -6.163994    1.100199   -2.974250
  H     -7.094530    1.223459   -1.504509
  C     -7.468999   -1.246153   -2.713833
  H     -6.360641   -1.090347   -0.859176
  H     -5.369848   -1.171853   -2.295982
  H     -7.601914   -0.601349   -3.585329
  H     -8.389791   -1.173436   -2.126922
  H     -7.118254   -3.379818   -2.398055
  H     -8.241838   -3.004745   -3.706513

 Total Charge           Charge          ....    0
 Multiplicity           Mult            ....    1
 Number of Electrons    NEL             ....  122
 Basis Dimension        Dim             ....  464

ORBITAL ENERGIES
----------------

  NO   OCC          E(Eh)            E(eV)
   0   2.0000     -89.149364     -2425.8775
   1   2.0000     -24.826553      -675.5648
   2   2.0000     -19.153756      -521.2002
   3   2.0000     -19.150351      -521.1075
   4   2.0000     -10.251869      -278.9675
   5   2.0000     -10.211483      -277.8686
   6   2.0000     -10.185237      -277.1544
   7   2.0000     -10.177062      -276.9319
   8   2.0000     -10.171086      -276.7693
   9   2.0000     -10.163046      -276.5506
  10   2.0000     -10.157102      -276.3888
  11   2.0000     -10.151111      -276.2258
  12   2.0000     -10.140164      -275.9279
  13   2.0000     -10.086612      -274.4707
  14   2.0000      -8.202668      -223.2059
  15   2.0000      -6.175865      -168.0538
  16   2.0000      -6.169362      -167.8769
  17   2.0000      -6.167840      -167.8355
  18   2.0000      -1.389337       -37.8058
  19   2.0000      -1.109877       -30.2013
  20   2.0000      -1.007002       -27.4019
  21   2.0000      -0.838098       -22.8058
  22   2.0000      -0.801475       -21.8092
  23   2.0000      -0.772967       -21.0335
  24   2.0000      -0.755023       -20.5452
  25   2.0000      -0.722861       -19.6700
  26   2.0000      -0.694896       -18.9091
  27   2.0000      -0.660755       -17.9801
  28   2.0000      -0.626038       -17.0354
  29   2.0000      -0.605040       -16.4640
  30   2.0000      -0.602542       -16.3960
  31   2.0000      -0.592286       -16.1169
  32   2.0000      -0.565613       -15.3911
  33   2.0000      -0.557122       -15.1601
  34   2.0000      -0.528872       -14.3913
  35   2.0000      -0.501881       -13.6569
  36   2.0000      -0.491466       -13.3735
  37   2.0000      -0.473627       -12.8881
  38   2.0000      -0.471040       -12.8176
  39   2.0000      -0.459518       -12.5041
  40   2.0000      -0.446180       -12.1412
  41   2.0000      -0.434074       -11.8118
  42   2.0000      -0.422389       -11.4938
  43   2.0000      -0.417234       -11.3535
  44   2.0000      -0.404620       -11.0103
  45   2.0000      -0.388332       -10.5670
  46   2.0000      -0.383727       -10.4417
  47   2.0000      -0.378757       -10.3065
  48   2.0000      -0.366983        -9.9861
  49   2.0000      -0.354799        -9.6546
  50   2.0000      -0.349795        -9.5184
  51   2.0000      -0.340095        -9.2545
  52   2.0000      -0.335125        -9.1192
  53   2.0000      -0.332924        -9.0593
  54   2.0000      -0.324648        -8.8341
  55   2.0000      -0.314572        -8.5599
  56   2.0000      -0.309696        -8.4273
  57   2.0000      -0.305426        -8.3111
  58   2.0000      -0.290833        -7.9140
  59   2.0000      -0.281275        -7.6539
  60   2.0000      -0.266664        -7.2563
  61   0.0000      -0.008913        -0.2425
  62   0.0000       0.007879         0.2144
  63   0.0000       0.025554         0.6954
  64   0.0000       0.027740         0.7548
  65   0.0000       0.032429         0.8825

MULLIKEN ATOMIC CHARGES
-----------------------
   0 C :    0.248262
   1 C :    2.285208
   2 C :    0.755681
   3 C :    0.583575
   4 S :    1.603863
   5 H :   -0.678770
   6 H :   -0.344212
   7 H :   -1.093660
   8 O :   -0.739927
   9 O :   -0.750355
  10 H :   -0.395874
  11 H :   -0.111237
  12 F :   -0.560985
  13 C :    0.646096
  14 H :   -0.182200
  15 H :   -0.209255
  16 C :    0.027694
  17 H :   -0.719600
  18 H :   -0.139975
  19 C :    0.876221
  20 H :   -0.452089
  21 H :    0.041160
  22 C :    0.054508
  23 H :   -0.123662
  24 H :   -0.090639
  25 C :    0.535121
  26 H :    0.138951
  27 H :   -0.530745
  28 C :    0.455429
  29 H :   -0.124083
  30 H :   -0.516594
  31 H :    0.048229
  32 H :   -0.313052
  33 H :   -0.096784
  34 H :   -0.126300
Sum of atomic charges:    0.0000000

LOEWDIN ATOMIC CHARGES
----------------------
   0 C :   -0.035308
   1 C :    0.130721
   2 C :   -0.022634
   3 C :   -0.029406
   4 S :    1.200761
   5 H :   -0.123860
   6 H :   -0.018795
   7 H :   -0.116035
   8 O :   -0.452897
   9 O :   -0.456327
  10 H :    0.017020
  11 H :    0.006990
  12 F :   -0.247000
  13 C :   -0.013487
  14 H :    0.021604
  15 H :    0.011848
  16 C :   -0.029289
  17 H :   -0.004282
  18 H :    0.022087
  19 C :   -0.024166
  20 H :    0.020523
  21 H :    0.002037
  22 C :   -0.029001
  23 H :    0.019382
  24 H :    0.017618
  25 C :   -0.013954
  26 H :    0.017626
  27 H :    0.021055
  28 C :   -0.025965
  29 H :    0.035502
  30 H :   -0.000080
  31 H :    0.022845
  32 H :    0.035004
  33 H :    0.027166
  34 H :    0.012697

  Mayer bond orders larger than 0.100000
B(  0-C ,  1-C ) :   0.8950 B(  0-C ,  2-C ) :   1.1897 B(  0-C ,  5-H ) :   0.4690
B(  0-C ,  6-H ) :   0.1392 B(  0-C ,  7-H ) :   0.4491 B(  0-C , 10-H ) :   0.7890
B(  0-C , 11-H ) :   0.7030 B(  0-C , 13-C ) :   0.1292 B(  0-C , 14-H ) :   0.1562
B(  0-C , 15-H ) :   0.2139 B(  1-C ,  5-H ) :  -0.5320 B(  1-C ,  6-H ) :   0.4808
B(  1-C ,  7-H ) :  -0.9592 B(  1-C ,  9-O ) :  -0.1066 B(  1-C , 11-H ) :   0.2715
B(  2-C ,  7-H ) :  -0.1188 B(  2-C , 11-H ) :   0.1183 B(  2-C , 13-C ) :   1.1586
B(  2-C , 14-H ) :   0.6098 B(  2-C , 15-H ) :   0.6462 B(  2-C , 17-H ) :   0.1799
B(  3-C ,  4-S ) :   0.8977 B(  3-C , 12-F ) :   0.1188 B(  3-C , 25-C ) :   0.1171
B(  3-C , 28-C ) :   1.2292 B(  3-C , 31-H ) :   0.1012 B(  3-C , 33-H ) :   0.8618
B(  3-C , 34-H ) :   0.6560 B(  4-S ,  8-O ) :   1.3593 B(  4-S ,  9-O ) :   1.3680
B(  4-S , 12-F ) :   0.5062 B(  4-S , 33-H ) :   0.1011 B(  5-H ,  6-H ) :  -0.2038
B(  5-H ,  7-H ) :   1.0740 B(  5-H ,  9-O ) :   0.1953 B(  6-H ,  7-H ) :   0.1881
B(  7-H ,  9-O ) :   0.1525 B(  7-H , 10-H ) :   0.1073 B(  7-H , 17-H ) :   0.1846
B(  8-O ,  9-O ) :   0.1122 B( 10-H , 11-H ) :  -0.1266 B( 11-H , 21-H ) :   0.1146
B( 13-C , 14-H ) :   0.2392 B( 13-C , 15-H ) :   0.1685 B( 13-C , 16-C ) :   1.1311
B( 13-C , 17-H ) :   0.5604 B( 13-C , 18-H ) :   0.6528 B( 13-C , 20-H ) :   0.2042
B( 13-C , 21-H ) :   0.1116 B( 14-H , 15-H ) :  -0.1892 B( 16-C , 17-H ) :   0.2528
B( 16-C , 18-H ) :   0.2142 B( 16-C , 19-C ) :   1.1493 B( 16-C , 20-H ) :   0.8870
B( 16-C , 21-H ) :   0.8339 B( 16-C , 22-C ) :   0.1779 B( 16-C , 23-H ) :   0.1710
B( 16-C , 24-H ) :   0.3173 B( 17-H , 26-H ) :   0.1100 B( 19-C , 22-C ) :   1.1195
B( 19-C , 23-H ) :   0.5921 B( 19-C , 24-H ) :   0.5966 B( 22-C , 23-H ) :   0.2794
B( 22-C , 24-H ) :   0.1341 B( 22-C , 25-C ) :   1.2294 B( 22-C , 26-H ) :   0.7674
B( 22-C , 27-H ) :   0.9227 B( 22-C , 28-C ) :   0.1557 B( 22-C , 29-H ) :   0.1182
B( 22-C , 30-H ) :   0.1602 B( 23-H , 24-H ) :  -0.1409 B( 25-C , 26-H ) :   0.1309
B( 25-C , 27-H ) :   0.1813 B( 25-C , 28-C ) :   1.1399 B( 25-C , 29-H ) :   0.6285
B( 25-C , 30-H ) :   0.6622 B( 25-C , 32-H ) :   0.2039 B( 28-C , 29-H ) :   0.1438
B( 28-C , 31-H ) :   0.8075 B( 28-C , 32-H ) :   0.7104 B( 28-C , 34-H ) :   0.2671
B( 29-H , 30-H ) :   0.2683

Dispersion correction           -0.067753719
FINAL SINGLE POINT ENERGY     -1041.130406580878

DIPOLE MOMENT
-------------
                                X             Y             Z
Electronic contribution:    -12.67320     -20.25294     -14.26867
Nuclear contribution   :     10.70731      19.84772      14.63855
                        -----------------------------------------
Total Dipole Moment    :     -1.96589      -0.40522       0.36988
                        -----------------------------------------
Magnitude (a.u.)       :      2.04102
Magnitude (Debye)      :      5.18785

Rotational constants in cm-1:     0.026014     0.014812     0.010477
Rotational constants in MHz :   779.874765   444.063394   314.081855

                             ****ORCA TERMINATED NORMALLY****
TOTAL RUN TIME: 0 days 0 hours 3 minutes 12 seconds 836 msec
