                         Program Version 5.0.0 -  RELEASE  -
|  1> !B3LYP D3BJ RIJCOSX def2-TZVPD def2/J TightSCF
|  2> *xyz -1 1
|  3> C          2.49556        1.81615       -2.13636
|  4> C          1.87218        0.42790       -2.07750
|  5> H          2.61427       -0.36583       -2.19889
|  6> H          1.38995        0.27309       -1.11236
|  7> S          0.57902        0.14047       -3.29794
|  8> O          0.22886       -1.24687       -3.12787
|  9> O         -0.43927        1.11897       -3.01455
| 10> O          1.24788        0.40347       -4.59565
| 11> H          2.96535        1.95613       -3.08747
| 12> H          3.22581        1.91242       -1.36024
| 13> H          1.73350        2.55528       -2.00274
| 14> *
| 15>
| 16> %MaxCore 64000
| 17>
| 18> %pal nprocs 4
| 19> end
| 20>
| 21> %scf
| 22>   MaxIter 150
| 23> end
| 24>
| 25>
| 26>                          ****END OF INPUT****

CARTESIAN COORDINATES (ANGSTROEM)
---------------------------------
  C      2.495560    1.816150   -2.136360
  C      1.872180    0.427900   -2.077500
  H      2.614270   -0.365830   -2.198890
  H      1.389950    0.273090   -1.112360
  S      0.579020    0.140470   -3.297940
  O      0.228860   -1.246870   -3.127870
  O     -0.439270    1.118970   -3.014550
  O      1.247880    0.403470   -4.595650
  H      2.965350    1.956130   -3.087470
  H      3.225810    1.912420   -1.360240
  H      1.733500    2.555280   -2.002740

 Total Charge           Charge          ....   -1
 Multiplicity           Mult            ....    1
 Number of Electrons    NEL             ....   58
 Basis Dimension        Dim             ....  285

ORBITAL ENERGIES
----------------

  NO   OCC          E(Eh)            E(eV)
   0   2.0000     -88.837016     -2417.3781
   1   2.0000     -18.906774      -514.4795
   2   2.0000     -18.906685      -514.4771
   3   2.0000     -18.892536      -514.0920
   4   2.0000     -10.026411      -272.8325
   5   2.0000     -10.019604      -272.6473
   6   2.0000      -7.880624      -214.4427
   7   2.0000      -5.844130      -159.0269
   8   2.0000      -5.843137      -158.9998
   9   2.0000      -5.842899      -158.9934
  10   2.0000      -0.925552       -25.1856
  11   2.0000      -0.798810       -21.7367
  12   2.0000      -0.772580       -21.0230
  13   2.0000      -0.628882       -17.1127
  14   2.0000      -0.502306       -13.6685
  15   2.0000      -0.379340       -10.3224
  16   2.0000      -0.314860        -8.5678
  17   2.0000      -0.312795        -8.5116
  18   2.0000      -0.273053        -7.4301
  19   2.0000      -0.261207        -7.1078
  20   2.0000      -0.252943        -6.8829
  21   2.0000      -0.228960        -6.2303
  22   2.0000      -0.211534        -5.7561
  23   2.0000      -0.153232        -4.1697
  24   2.0000      -0.152628        -4.1532
  25   2.0000      -0.119198        -3.2435
  26   2.0000      -0.109785        -2.9874
  27   2.0000      -0.100221        -2.7272
  28   2.0000      -0.066202        -1.8014
  29   0.0000       0.123475         3.3599
  30   0.0000       0.145737         3.9657
  31   0.0000       0.152155         4.1403
  32   0.0000       0.161270         4.3884
  33   0.0000       0.177676         4.8348

MULLIKEN ATOMIC CHARGES
-----------------------
   0 C :   -1.132643
   1 C :   -0.278498
   2 H :    0.241741
   3 H :    0.234211
   4 S :    1.257616
   5 O :   -0.703652
   6 O :   -0.719021
   7 O :   -0.762988
   8 H :    0.288384
   9 H :    0.291311
  10 H :    0.283539
Sum of atomic charges:   -1.0000000

LOEWDIN ATOMIC CHARGES
----------------------
   0 C :   -0.146206
   1 C :   -0.329399
   2 H :    0.081883
   3 H :    0.077406
   4 S :    0.345259
   5 O :   -0.389142
   6 O :   -0.382723
   7 O :   -0.416928
   8 H :    0.056293
   9 H :    0.045922
  10 H :    0.057635

  Mayer bond orders larger than 0.100000
B(  0-C ,  1-C ) :   0.6916 B(  0-C ,  8-H ) :   0.9887 B(  0-C ,  9-H ) :   0.9376
B(  0-C , 10-H ) :   0.9834 B(  1-C ,  2-H ) :   0.9567 B(  1-C ,  3-H ) :   0.9656
B(  1-C ,  4-S ) :   0.8574 B(  1-C ,  5-O ) :   0.1427 B(  1-C ,  6-O ) :   0.1170
B(  1-C ,  7-O ) :   0.1038 B(  4-S ,  5-O ) :   1.4775 B(  4-S ,  6-O ) :   1.4856
B(  4-S ,  7-O ) :   1.4392

Dispersion correction           -0.016774163
FINAL SINGLE POINT ENERGY      -703.124917063647

DIPOLE MOMENT
-------------
                                X             Y             Z
Electronic contribution:     -5.68603      -3.59040      -4.08864
Nuclear contribution   :      6.89220       4.11756       5.35566
                        -----------------------------------------
Total Dipole Moment    :      1.20617       0.52716       1.26702
                        -----------------------------------------
Magnitude (a.u.)       :      1.82704
Magnitude (Debye)      :      4.64397

Rotational constants in cm-1:     0.162183     0.084017     0.082390
Rotational constants in MHz :  4862.117324  2518.774315  2469.980309

                             ****ORCA TERMINATED NORMALLY****
TOTAL RUN TIME: 0 days 0 hours 0 minutes 30 seconds 734 msec
