                         Program Version 5.0.0 -  RELEASE  -
|  1> !B3LYP D3BJ RIJCOSX def2-TZVPD def2/J TightSCF
|  2> *xyz 1 1
|  3> C          3.38093        2.08304       -3.35013
|  4> N          4.53592        1.18245       -3.42852
|  5> C          2.49556        1.81615       -2.13636
|  6> C          4.67196        0.12227       -4.22060
|  7> N          5.86602       -0.50785       -4.22428
|  8> N          3.69888       -0.31284       -4.98699
|  9> H          2.73141       -0.05009       -4.84900
| 10> H          3.89005       -1.05517       -5.64373
| 11> H          5.25193        1.30346       -2.72101
| 12> H          6.69516       -0.06232       -3.85160
| 13> H          5.97538       -1.39688       -4.69141
| 14> H          2.80646        1.98651       -4.26848
| 15> H          3.77871        3.09828       -3.30738
| 16> H          2.11090        0.81901       -2.18783
| 17> H          1.68276        2.51198       -2.12786
| 18> H          3.07216        1.93031       -1.24227
| 19> *
| 20>
| 21> %MaxCore 64000
| 22>
| 23> %pal nprocs 4
| 24> end
| 25>
| 26> %scf
| 27>   MaxIter 150
| 28> end
| 29>
| 30>
| 31>                          ****END OF INPUT****

CARTESIAN COORDINATES (ANGSTROEM)
---------------------------------
  C      3.380930    2.083040   -3.350130
  N      4.535920    1.182450   -3.428520
  C      2.495560    1.816150   -2.136360
  C      4.671960    0.122270   -4.220600
  N      5.866020   -0.507850   -4.224280
  N      3.698880   -0.312840   -4.986990
  H      2.731410   -0.050090   -4.849000
  H      3.890050   -1.055170   -5.643730
  H      5.251930    1.303460   -2.721010
  H      6.695160   -0.062320   -3.851600
  H      5.975380   -1.396880   -4.691410
  H      2.806460    1.986510   -4.268480
  H      3.778710    3.098280   -3.307380
  H      2.110900    0.819010   -2.187830
  H      1.682760    2.511980   -2.127860
  H      3.072160    1.930310   -1.242270

 Total Charge           Charge          ....    1
 Multiplicity           Mult            ....    1
 Number of Electrons    NEL             ....   48
 Basis Dimension        Dim             ....  312

ORBITAL ENERGIES
----------------

  NO   OCC          E(Eh)            E(eV)
   0   2.0000     -14.540618      -395.6703
   1   2.0000     -14.536064      -395.5464
   2   2.0000     -14.532544      -395.4506
   3   2.0000     -10.503003      -285.8012
   4   2.0000     -10.374198      -282.2963
   5   2.0000     -10.302185      -280.3367
   6   2.0000      -1.211769       -32.9739
   7   2.0000      -1.103531       -30.0286
   8   2.0000      -1.088532       -29.6205
   9   2.0000      -0.928980       -25.2788
  10   2.0000      -0.841324       -22.8936
  11   2.0000      -0.801668       -21.8145
  12   2.0000      -0.784857       -21.3570
  13   2.0000      -0.741571       -20.1792
  14   2.0000      -0.695898       -18.9364
  15   2.0000      -0.692255       -18.8372
  16   2.0000      -0.641283       -17.4502
  17   2.0000      -0.629192       -17.1212
  18   2.0000      -0.603249       -16.4153
  19   2.0000      -0.557286       -15.1645
  20   2.0000      -0.530720       -14.4416
  21   2.0000      -0.514979       -14.0133
  22   2.0000      -0.477801       -13.0016
  23   2.0000      -0.447138       -12.1673
  24   0.0000      -0.170510        -4.6398
  25   0.0000      -0.162637        -4.4256
  26   0.0000      -0.130974        -3.5640
  27   0.0000      -0.121724        -3.3123
  28   0.0000      -0.102144        -2.7795

MULLIKEN ATOMIC CHARGES
-----------------------
   0 C :   -0.449263
   1 N :   -0.132400
   2 C :   -0.929835
   3 C :    0.675612
   4 N :   -0.326506
   5 N :   -0.268341
   6 H :    0.203268
   7 H :    0.189078
   8 H :    0.201826
   9 H :    0.194859
  10 H :    0.179732
  11 H :    0.306086
  12 H :    0.239256
  13 H :    0.295049
  14 H :    0.314761
  15 H :    0.306819
Sum of atomic charges:    1.0000000

LOEWDIN ATOMIC CHARGES
----------------------
   0 C :   -0.195846
   1 N :    0.087617
   2 C :   -0.055478
   3 C :   -0.435507
   4 N :    0.199057
   5 N :    0.225201
   6 H :    0.135437
   7 H :    0.140451
   8 H :    0.166389
   9 H :    0.134615
  10 H :    0.130599
  11 H :    0.113288
  12 H :    0.127693
  13 H :    0.070450
  14 H :    0.081010
  15 H :    0.075025

  Mayer bond orders larger than 0.100000
B(  0-C ,  1-N ) :   0.8980 B(  0-C ,  2-C ) :   0.6556 B(  0-C ,  3-C ) :  -0.1153
B(  0-C , 11-H ) :   0.8942 B(  0-C , 12-H ) :   0.9803 B(  1-N ,  3-C ) :   1.2362
B(  1-N ,  4-N ) :   0.1035 B(  1-N ,  8-H ) :   0.9752 B(  2-C , 13-H ) :   0.9746
B(  2-C , 14-H ) :   0.9798 B(  2-C , 15-H ) :   0.9451 B(  3-C ,  4-N ) :   1.0393
B(  3-C ,  5-N ) :   1.1781 B(  4-N ,  9-H ) :   0.9848 B(  4-N , 10-H ) :   1.0188
B(  5-N ,  6-H ) :   0.9530 B(  5-N ,  7-H ) :   1.0096

Dispersion correction           -0.019882208
FINAL SINGLE POINT ENERGY      -284.356511335190

DIPOLE MOMENT
-------------
                                X             Y             Z
Electronic contribution:      3.54947      -2.63962      -2.81392
Nuclear contribution   :     -2.93277       1.85779       2.25966
                        -----------------------------------------
Total Dipole Moment    :      0.61670      -0.78182      -0.55426
                        -----------------------------------------
Magnitude (a.u.)       :      1.13964
Magnitude (Debye)      :      2.89673

Rotational constants in cm-1:     0.245511     0.068839     0.059711
Rotational constants in MHz :  7360.233487  2063.743353  1790.088408

                             ****ORCA TERMINATED NORMALLY****
TOTAL RUN TIME: 0 days 0 hours 0 minutes 44 seconds 73 msec
