                         Program Version 5.0.0 -  RELEASE  -
|  1> !B3LYP D3BJ RIJCOSX def2-TZVPD def2/J TightSCF xyzfile
|  2>
|  3> *xyzfile 0 1 B.xyz
|  4>
|  5> %MaxCore 64000
|  6>
|  7> %pal nprocs 4
|  8> end
|  9>
| 10> %scf
| 11>   MaxIter 150
| 12> end
| 13>
| 14>
| 15>                          ****END OF INPUT****

CARTESIAN COORDINATES (ANGSTROEM)
---------------------------------
  C      3.380928    2.083045   -3.350127
  N      4.535924    1.182447   -3.428518
  C      2.495557    1.816150   -2.136364
  C      1.872181    0.427903   -2.077497
  H      2.614270   -0.365825   -2.198894
  H      1.389953    0.273087   -1.112360
  S      0.579024    0.140472   -3.297943
  C      4.671956    0.122273   -4.220598
  N      5.866023   -0.507849   -4.224284
  N      3.698881   -0.312844   -4.986988
  H      2.731405   -0.050091   -4.849000
  H      3.890046   -1.055172   -5.643730
  H      5.251933    1.303459   -2.721014
  H      6.695165   -0.062322   -3.851596
  H      5.975383   -1.396884   -4.691414
  O      0.228860   -1.246868   -3.127871
  O     -0.439269    1.118966   -3.014550
  O      1.247881    0.403474   -4.595647
  H      1.697003    2.561969   -2.141109
  H      3.080787    1.987436   -1.225838
  H      2.806463    1.986511   -4.268484
  H      3.778714    3.098282   -3.307383

 Total Charge           Charge          ....    0
 Multiplicity           Mult            ....    1
 Number of Electrons    NEL             ....   96
 Basis Dimension        Dim             ....  524

ORBITAL ENERGIES
----------------

  NO   OCC          E(Eh)            E(eV)
   0   2.0000     -88.983794     -2421.3721
   1   2.0000     -19.058689      -518.6133
   2   2.0000     -19.043676      -518.2048
   3   2.0000     -19.043654      -518.2042
   4   2.0000     -14.408983      -392.0884
   5   2.0000     -14.403792      -391.9471
   6   2.0000     -14.373911      -391.1340
   7   2.0000     -10.364082      -282.0210
   8   2.0000     -10.233200      -278.4595
   9   2.0000     -10.183685      -277.1121
  10   2.0000     -10.169557      -276.7277
  11   2.0000      -8.027513      -218.4397
  12   2.0000      -5.991350      -163.0329
  13   2.0000      -5.990294      -163.0042
  14   2.0000      -5.989159      -162.9733
  15   2.0000      -1.075858       -29.2756
  16   2.0000      -1.071323       -29.1522
  17   2.0000      -0.967238       -26.3199
  18   2.0000      -0.952971       -25.9317
  19   2.0000      -0.935494       -25.4561
  20   2.0000      -0.934087       -25.4178
  21   2.0000      -0.808870       -22.0105
  22   2.0000      -0.738131       -20.0856
  23   2.0000      -0.686428       -18.6786
  24   2.0000      -0.649446       -17.6723
  25   2.0000      -0.640122       -17.4186
  26   2.0000      -0.605112       -16.4659
  27   2.0000      -0.565350       -15.3840
  28   2.0000      -0.550914       -14.9911
  29   2.0000      -0.528829       -14.3902
  30   2.0000      -0.507126       -13.7996
  31   2.0000      -0.488911       -13.3040
  32   2.0000      -0.472574       -12.8594
  33   2.0000      -0.450877       -12.2690
  34   2.0000      -0.434357       -11.8195
  35   2.0000      -0.418161       -11.3788
  36   2.0000      -0.398758       -10.8508
  37   2.0000      -0.381998       -10.3947
  38   2.0000      -0.375304       -10.2125
  39   2.0000      -0.363935        -9.9032
  40   2.0000      -0.340277        -9.2594
  41   2.0000      -0.313251        -8.5240
  42   2.0000      -0.302976        -8.2444
  43   2.0000      -0.295105        -8.0302
  44   2.0000      -0.265310        -7.2194
  45   2.0000      -0.255157        -6.9432
  46   2.0000      -0.249021        -6.7762
  47   2.0000      -0.216480        -5.8907
  48   0.0000      -0.054556        -1.4845
  49   0.0000      -0.036111        -0.9826
  50   0.0000      -0.019421        -0.5285
  51   0.0000      -0.002464        -0.0670
  52   0.0000       0.016172         0.4401

MULLIKEN ATOMIC CHARGES
-----------------------
   0 C :   -0.605825
   1 N :   -0.164632
   2 C :   -0.421125
   3 C :   -0.544211
   4 H :    0.205524
   5 H :    0.284970
   6 S :    1.297059
   7 C :    0.564941
   8 N :   -0.337085
   9 N :   -0.198467
  10 H :    0.279178
  11 H :    0.175505
  12 H :    0.206510
  13 H :    0.176093
  14 H :    0.168215
  15 O :   -0.694588
  16 O :   -0.685132
  17 O :   -0.866258
  18 H :    0.272899
  19 H :    0.238683
  20 H :    0.439244
  21 H :    0.208499
Sum of atomic charges:   -0.0000000

LOEWDIN ATOMIC CHARGES
----------------------
   0 C :   -0.157082
   1 N :    0.088412
   2 C :   -0.199379
   3 C :   -0.251359
   4 H :    0.086887
   5 H :    0.099611
   6 S :    0.419779
   7 C :   -0.447059
   8 N :    0.171881
   9 N :    0.235561
  10 H :    0.024108
  11 H :    0.135595
  12 H :    0.156520
  13 H :    0.118589
  14 H :    0.118717
  15 O :   -0.339083
  16 O :   -0.328351
  17 O :   -0.392498
  18 H :    0.117576
  19 H :    0.107549
  20 H :    0.112081
  21 H :    0.121946

  Mayer bond orders larger than 0.100000
B(  0-C ,  1-N ) :   0.8882 B(  0-C ,  2-C ) :   0.8258 B(  0-C ,  7-C ) :  -0.1217
B(  0-C , 20-H ) :   0.8108 B(  0-C , 21-H ) :   0.9547 B(  1-N ,  7-C ) :   1.2467
B(  1-N ,  8-N ) :   0.1078 B(  1-N , 12-H ) :   0.9500 B(  2-C ,  3-C ) :   1.0560
B(  2-C ,  6-S ) :   0.1318 B(  2-C , 18-H ) :   0.9730 B(  2-C , 19-H ) :   0.9095
B(  3-C ,  4-H ) :   0.9372 B(  3-C ,  5-H ) :   0.9336 B(  3-C ,  6-S ) :   0.8300
B(  3-C , 15-O ) :   0.1491 B(  3-C , 16-O ) :   0.1120 B(  6-S , 15-O ) :   1.4554
B(  6-S , 16-O ) :   1.4778 B(  6-S , 17-O ) :   1.3242 B(  7-C ,  8-N ) :   0.9969
B(  7-C ,  9-N ) :   1.2644 B(  8-N , 13-H ) :   0.9907 B(  8-N , 14-H ) :   1.0215
B(  9-N , 10-H ) :   0.7636 B(  9-N , 11-H ) :   1.0064 B( 10-H , 17-O ) :   0.1143

Dispersion correction           -0.042041631
FINAL SINGLE POINT ENERGY      -947.123593341680

DIPOLE MOMENT
-------------
                                X             Y             Z
Electronic contribution:     -7.11800      -3.18589      -2.43978
Nuclear contribution   :     13.40759       3.44219       2.21042
                        -----------------------------------------
Total Dipole Moment    :      6.28960       0.25630      -0.22936
                        -----------------------------------------
Magnitude (a.u.)       :      6.29899
Magnitude (Debye)      :     16.01077

Rotational constants in cm-1:     0.059860     0.020817     0.017914
Rotational constants in MHz :  1794.564877   624.092098   537.039275

                             ****ORCA TERMINATED NORMALLY****
TOTAL RUN TIME: 0 days 0 hours 2 minutes 59 seconds 225 msec
