                         Program Version 5.0.0 -  RELEASE  -
|  1> !B3LYP D3BJ RIJCOSX def2-TZVPD def2/J TightSCF
|  2> *xyz 0 1
|  3> C          2.49556        1.81615       -2.13636
|  4> C          1.87218        0.42790       -2.07750
|  5> H          2.61427       -0.36583       -2.19889
|  6> H          1.38995        0.27309       -1.11236
|  7> S          0.57902        0.14047       -3.29794
|  8> F          0.22886       -1.24687       -3.12787
|  9> O         -0.43927        1.11897       -3.01455
| 10> O          1.24788        0.40347       -4.59565
| 11> H          2.96535        1.95613       -3.08747
| 12> H          3.22581        1.91242       -1.36024
| 13> H          1.73350        2.55528       -2.00274
| 14> *
| 15>
| 16> %MaxCore 64000
| 17>
| 18> %pal nprocs 4
| 19> end
| 20>
| 21> %scf
| 22>   MaxIter 150
| 23> end
| 24>
| 25>
| 26>                          ****END OF INPUT****

CARTESIAN COORDINATES (ANGSTROEM)
---------------------------------
  C      2.495560    1.816150   -2.136360
  C      1.872180    0.427900   -2.077500
  H      2.614270   -0.365830   -2.198890
  H      1.389950    0.273090   -1.112360
  S      0.579020    0.140470   -3.297940
  F      0.228860   -1.246870   -3.127870
  O     -0.439270    1.118970   -3.014550
  O      1.247880    0.403470   -4.595650
  H      2.965350    1.956130   -3.087470
  H      3.225810    1.912420   -1.360240
  H      1.733500    2.555280   -2.002740

 Total Charge           Charge          ....    0
 Multiplicity           Mult            ....    1
 Number of Electrons    NEL             ....   58
 Basis Dimension        Dim             ....  285

ORBITAL ENERGIES
----------------

  NO   OCC          E(Eh)            E(eV)
   0   2.0000     -89.099001     -2424.5071
   1   2.0000     -24.805039      -674.9794
   2   2.0000     -19.140772      -520.8469
   3   2.0000     -19.126168      -520.4495
   4   2.0000     -10.228403      -278.3290
   5   2.0000     -10.184021      -277.1213
   6   2.0000      -8.143075      -221.5843
   7   2.0000      -6.109807      -166.2563
   8   2.0000      -6.103396      -166.0818
   9   2.0000      -6.103299      -166.0792
  10   2.0000      -1.387532       -37.7567
  11   2.0000      -1.107391       -30.1336
  12   2.0000      -1.006459       -27.3871
  13   2.0000      -0.819921       -22.3112
  14   2.0000      -0.738947       -20.1078
  15   2.0000      -0.674828       -18.3630
  16   2.0000      -0.590125       -16.0581
  17   2.0000      -0.588440       -16.0123
  18   2.0000      -0.556348       -15.1390
  19   2.0000      -0.493481       -13.4283
  20   2.0000      -0.483242       -13.1497
  21   2.0000      -0.445154       -12.1133
  22   2.0000      -0.430227       -11.7071
  23   2.0000      -0.409570       -11.1450
  24   2.0000      -0.388519       -10.5721
  25   2.0000      -0.386830       -10.5262
  26   2.0000      -0.337047        -9.1715
  27   2.0000      -0.323237        -8.7957
  28   2.0000      -0.307536        -8.3685
  29   0.0000      -0.011946        -0.3251
  30   0.0000       0.008700         0.2367
  31   0.0000       0.022120         0.6019
  32   0.0000       0.026094         0.7101
  33   0.0000       0.046323         1.2605

MULLIKEN ATOMIC CHARGES
-----------------------
   0 C :   -1.167172
   1 C :   -0.301676
   2 H :    0.310624
   3 H :    0.304778
   4 S :    1.193883
   5 F :   -0.126337
   6 O :   -0.567684
   7 O :   -0.606424
   8 H :    0.327820
   9 H :    0.302276
  10 H :    0.329912
Sum of atomic charges:    0.0000000

LOEWDIN ATOMIC CHARGES
----------------------
   0 C :   -0.099923
   1 C :   -0.285947
   2 H :    0.099677
   3 H :    0.095503
   4 S :    0.593487
   5 F :   -0.052057
   6 O :   -0.269155
   7 O :   -0.301714
   8 H :    0.072844
   9 H :    0.073370
  10 H :    0.073915

  Mayer bond orders larger than 0.100000
B(  0-C ,  1-C ) :   0.7491 B(  0-C ,  8-H ) :   0.9523 B(  0-C ,  9-H ) :   0.9415
B(  0-C , 10-H ) :   0.9416 B(  1-C ,  2-H ) :   0.8901 B(  1-C ,  3-H ) :   0.9007
B(  1-C ,  4-S ) :   0.8502 B(  4-S ,  5-F ) :   1.0008 B(  4-S ,  6-O ) :   1.6898
B(  4-S ,  7-O ) :   1.6403

Dispersion correction           -0.016029955
FINAL SINGLE POINT ENERGY      -727.640706806289

DIPOLE MOMENT
-------------
                                X             Y             Z
Electronic contribution:     -6.81574      -6.39367      -4.09555
Nuclear contribution   :      7.60530       5.82028       5.38743
                        -----------------------------------------
Total Dipole Moment    :      0.78956      -0.57339       1.29188
                        -----------------------------------------
Magnitude (a.u.)       :      1.61899
Magnitude (Debye)      :      4.11515

Rotational constants in cm-1:     0.157861     0.081452     0.078859
Rotational constants in MHz :  4732.562506  2441.865430  2364.129821

                             ****ORCA TERMINATED NORMALLY****
TOTAL RUN TIME: 0 days 0 hours 0 minutes 33 seconds 275 msec
