                         Program Version 5.0.0 -  RELEASE  -
|  1> !B3LYP D3BJ RIJCOSX def2-TZVPD def2/J TightSCF
|  2> *xyz 0 1
|  3> C          3.38093        2.08304       -3.35013
|  4> C          4.53592        1.18245       -3.42852
|  5> C          2.49556        1.81615       -2.13636
|  6> C          4.67196        0.12227       -4.22060
|  7> N          5.86602       -0.50785       -4.22428
|  8> N          3.69888       -0.31284       -4.98699
|  9> H          2.73141       -0.05009       -4.84900
| 10> H          3.89005       -1.05517       -5.64373
| 11> H          5.25193        1.30346       -2.72101
| 12> H          6.69516       -0.06232       -3.85160
| 13> H          5.97538       -1.39688       -4.69141
| 14> H          2.80646        1.98651       -4.26848
| 15> H          3.77871        3.09828       -3.30738
| 16> H          2.11090        0.81901       -2.18783
| 17> H          1.68276        2.51198       -2.12786
| 18> H          3.07216        1.93031       -1.24227
| 19> *
| 20>
| 21> %MaxCore 64000
| 22>
| 23> %pal nprocs 4
| 24> end
| 25>
| 26> %scf
| 27>   MaxIter 150
| 28> end
| 29>
| 30>
| 31>                          ****END OF INPUT****

CARTESIAN COORDINATES (ANGSTROEM)
---------------------------------
  C      3.380930    2.083040   -3.350130
  C      4.535920    1.182450   -3.428520
  C      2.495560    1.816150   -2.136360
  C      4.671960    0.122270   -4.220600
  N      5.866020   -0.507850   -4.224280
  N      3.698880   -0.312840   -4.986990
  H      2.731410   -0.050090   -4.849000
  H      3.890050   -1.055170   -5.643730
  H      5.251930    1.303460   -2.721010
  H      6.695160   -0.062320   -3.851600
  H      5.975380   -1.396880   -4.691410
  H      2.806460    1.986510   -4.268480
  H      3.778710    3.098280   -3.307380
  H      2.110900    0.819010   -2.187830
  H      1.682760    2.511980   -2.127860
  H      3.072160    1.930310   -1.242270

 Total Charge           Charge          ....    0
 Multiplicity           Mult            ....    1
 Number of Electrons    NEL             ....   48
 Basis Dimension        Dim             ....  312

ORBITAL ENERGIES
----------------

  NO   OCC          E(Eh)            E(eV)
   0   2.0000     -14.318936      -389.6381
   1   2.0000     -14.311414      -389.4334
   2   2.0000     -10.211538      -277.8701
   3   2.0000     -10.140751      -275.9439
   4   2.0000     -10.131346      -275.6879
   5   2.0000     -10.090487      -274.5761
   6   2.0000      -0.960761       -26.1436
   7   2.0000      -0.869657       -23.6646
   8   2.0000      -0.769368       -20.9356
   9   2.0000      -0.693497       -18.8710
  10   2.0000      -0.616343       -16.7716
  11   2.0000      -0.577255       -15.7079
  12   2.0000      -0.543629       -14.7929
  13   2.0000      -0.506319       -13.7776
  14   2.0000      -0.480622       -13.0784
  15   2.0000      -0.441170       -12.0049
  16   2.0000      -0.414556       -11.2806
  17   2.0000      -0.392029       -10.6676
  18   2.0000      -0.377932       -10.2840
  19   2.0000      -0.349484        -9.5099
  20   2.0000      -0.327049        -8.8995
  21   2.0000      -0.320884        -8.7317
  22   2.0000      -0.264780        -7.2050
  23   2.0000      -0.158284        -4.3071
  24   0.0000      -0.004423        -0.1204
  25   0.0000       0.020880         0.5682
  26   0.0000       0.031482         0.8567
  27   0.0000       0.043034         1.1710
  28   0.0000       0.056512         1.5378

MULLIKEN ATOMIC CHARGES
-----------------------
   0 C :   -0.394849
   1 C :   -0.555760
   2 C :   -0.978792
   3 C :    0.483479
   4 N :   -0.363979
   5 N :   -0.311118
   6 H :    0.154066
   7 H :    0.135701
   8 H :    0.309907
   9 H :    0.151882
  10 H :    0.130486
  11 H :    0.226463
  12 H :    0.177336
  13 H :    0.281016
  14 H :    0.265259
  15 H :    0.288903
Sum of atomic charges:   -0.0000000

LOEWDIN ATOMIC CHARGES
----------------------
   0 C :   -0.277773
   1 C :   -0.136892
   2 C :   -0.105730
   3 C :   -0.547206
   4 N :    0.104171
   5 N :    0.132273
   6 H :    0.107639
   7 H :    0.099831
   8 H :    0.064965
   9 H :    0.104327
  10 H :    0.088144
  11 H :    0.090748
  12 H :    0.098407
  13 H :    0.060244
  14 H :    0.054546
  15 H :    0.062304

  Mayer bond orders larger than 0.100000
B(  0-C ,  1-C ) :   0.7181 B(  0-C ,  2-C ) :   0.5372 B(  0-C , 11-H ) :   0.9872
B(  0-C , 12-H ) :   1.0934 B(  1-C ,  3-C ) :   1.3850 B(  1-C ,  4-N ) :   0.1638
B(  1-C ,  8-H ) :   0.9468 B(  2-C , 13-H ) :   0.9895 B(  2-C , 14-H ) :   0.9824
B(  2-C , 15-H ) :   0.9833 B(  3-C ,  4-N ) :   0.8639 B(  3-C ,  5-N ) :   0.9886
B(  3-C ,  8-H ) :  -0.1025 B(  4-N ,  9-H ) :   1.0218 B(  4-N , 10-H ) :   1.0611
B(  5-N ,  6-H ) :   0.9924 B(  5-N ,  7-H ) :   1.0490

Dispersion correction           -0.020813658
FINAL SINGLE POINT ENERGY      -267.872239278678

DIPOLE MOMENT
-------------
                                X             Y             Z
Electronic contribution:      2.99599      -2.77641      -2.88432
Nuclear contribution   :     -2.84307       1.95814       2.32378
                        -----------------------------------------
Total Dipole Moment    :      0.15291      -0.81827      -0.56054
                        -----------------------------------------
Magnitude (a.u.)       :      1.00357
Magnitude (Debye)      :      2.55088

Rotational constants in cm-1:     0.248902     0.068887     0.059904
Rotational constants in MHz :  7461.898926  2065.183281  1795.882140

                             ****ORCA TERMINATED NORMALLY****
TOTAL RUN TIME: 0 days 0 hours 0 minutes 45 seconds 429 msec
