                         Program Version 5.0.0 -  RELEASE  -
|  1> !B3LYP D3BJ RIJCOSX def2-TZVPD def2/J TightSCF
|  2> *xyz 0 1
|  3> C          2.49556        1.81615       -2.13636
|  4> C          1.87218        0.42790       -2.07750
|  5> H          2.61427       -0.36583       -2.19889
|  6> H          1.38995        0.27309       -1.11236
|  7> S          0.57902        0.14047       -3.29794
|  8> O          0.22886       -1.24687       -3.12787
|  9> F         -0.43927        1.11897       -3.01455
| 10> O          1.24788        0.40347       -4.59565
| 11> H          2.96535        1.95613       -3.08747
| 12> H          3.22581        1.91242       -1.36024
| 13> H          1.73350        2.55528       -2.00274
| 14> *
| 15>
| 16> %MaxCore 64000
| 17>
| 18> %pal nprocs 4
| 19> end
| 20>
| 21> %scf
| 22>   MaxIter 150
| 23> end
| 24>
| 25>
| 26>                          ****END OF INPUT****

CARTESIAN COORDINATES (ANGSTROEM)
---------------------------------
  C      2.495560    1.816150   -2.136360
  C      1.872180    0.427900   -2.077500
  H      2.614270   -0.365830   -2.198890
  H      1.389950    0.273090   -1.112360
  S      0.579020    0.140470   -3.297940
  O      0.228860   -1.246870   -3.127870
  F     -0.439270    1.118970   -3.014550
  O      1.247880    0.403470   -4.595650
  H      2.965350    1.956130   -3.087470
  H      3.225810    1.912420   -1.360240
  H      1.733500    2.555280   -2.002740

 Total Charge           Charge          ....    0
 Multiplicity           Mult            ....    1
 Number of Electrons    NEL             ....   58
 Basis Dimension        Dim             ....  285

ORBITAL ENERGIES
----------------

  NO   OCC          E(Eh)            E(eV)
   0   2.0000     -89.099190     -2424.5122
   1   2.0000     -24.805236      -674.9848
   2   2.0000     -19.141095      -520.8557
   3   2.0000     -19.126796      -520.4666
   4   2.0000     -10.228340      -278.3273
   5   2.0000     -10.186817      -277.1974
   6   2.0000      -8.143230      -221.5886
   7   2.0000      -6.110106      -166.2644
   8   2.0000      -6.103550      -166.0860
   9   2.0000      -6.103329      -166.0800
  10   2.0000      -1.388135       -37.7731
  11   2.0000      -1.106850       -30.1189
  12   2.0000      -1.007433       -27.4136
  13   2.0000      -0.822783       -22.3891
  14   2.0000      -0.735773       -20.0214
  15   2.0000      -0.678592       -18.4654
  16   2.0000      -0.598600       -16.2887
  17   2.0000      -0.589071       -16.0294
  18   2.0000      -0.549923       -14.9642
  19   2.0000      -0.493475       -13.4281
  20   2.0000      -0.480221       -13.0675
  21   2.0000      -0.453665       -12.3449
  22   2.0000      -0.434350       -11.8193
  23   2.0000      -0.409327       -11.1384
  24   2.0000      -0.399010       -10.8576
  25   2.0000      -0.380282       -10.3480
  26   2.0000      -0.336280        -9.1506
  27   2.0000      -0.323281        -8.7969
  28   2.0000      -0.309466        -8.4210
  29   0.0000      -0.015640        -0.4256
  30   0.0000       0.013452         0.3661
  31   0.0000       0.020669         0.5624
  32   0.0000       0.024005         0.6532
  33   0.0000       0.042492         1.1563

MULLIKEN ATOMIC CHARGES
-----------------------
   0 C :   -1.151958
   1 C :   -0.280174
   2 H :    0.293047
   3 H :    0.302979
   4 S :    1.178414
   5 O :   -0.554010
   6 F :   -0.145003
   7 O :   -0.604297
   8 H :    0.325787
   9 H :    0.303017
  10 H :    0.332197
Sum of atomic charges:    0.0000000

LOEWDIN ATOMIC CHARGES
----------------------
   0 C :   -0.111230
   1 C :   -0.277696
   2 H :    0.111158
   3 H :    0.095997
   4 S :    0.591611
   5 O :   -0.272772
   6 F :   -0.048149
   7 O :   -0.299447
   8 H :    0.070848
   9 H :    0.071607
  10 H :    0.068073

  Mayer bond orders larger than 0.100000
B(  0-C ,  1-C ) :   0.6823 B(  0-C ,  8-H ) :   0.9843 B(  0-C ,  9-H ) :   0.9553
B(  0-C , 10-H ) :   0.9198 B(  1-C ,  2-H ) :   0.9196 B(  1-C ,  3-H ) :   0.9211
B(  1-C ,  4-S ) :   0.8540 B(  1-C ,  5-O ) :   0.1099 B(  4-S ,  5-O ) :   1.6859
B(  4-S ,  6-F ) :   1.0093 B(  4-S ,  7-O ) :   1.6464

Dispersion correction           -0.015948362
FINAL SINGLE POINT ENERGY      -727.640598609797

DIPOLE MOMENT
-------------
                                X             Y             Z
Electronic contribution:     -7.92987      -2.41126      -3.89950
Nuclear contribution   :      8.30151       3.35500       5.26935
                        -----------------------------------------
Total Dipole Moment    :      0.37164       0.94374       1.36985
                        -----------------------------------------
Magnitude (a.u.)       :      1.70448
Magnitude (Debye)      :      4.33244

Rotational constants in cm-1:     0.152913     0.083043     0.080351
Rotational constants in MHz :  4584.227971  2489.580280  2408.872860

                             ****ORCA TERMINATED NORMALLY****
TOTAL RUN TIME: 0 days 0 hours 0 minutes 33 seconds 261 msec
