                         Program Version 5.0.0 -  RELEASE  -
|  1> !B3LYP D3BJ RIJCOSX def2-TZVPD def2/J TightSCF
|  2> *xyz 0 1
|  3> C          3.38093        2.08304       -3.35013
|  4> N          4.53592        1.18245       -3.42852
|  5> C          2.49556        1.81615       -2.13636
|  6> C          4.67196        0.12227       -4.22060
|  7> C          5.86602       -0.50785       -4.22428
|  8> N          3.69888       -0.31284       -4.98699
|  9> H          2.73141       -0.05009       -4.84900
| 10> H          3.89005       -1.05517       -5.64373
| 11> H          5.25193        1.30346       -2.72101
| 12> H          6.69516       -0.06232       -3.85160
| 13> H          5.97538       -1.39688       -4.69141
| 14> H          2.80646        1.98651       -4.26848
| 15> H          3.77871        3.09828       -3.30738
| 16> H          2.11090        0.81901       -2.18783
| 17> H          1.68276        2.51198       -2.12786
| 18> H          3.07216        1.93031       -1.24227
| 19> *
| 20>
| 21> %MaxCore 64000
| 22>
| 23> %pal nprocs 4
| 24> end
| 25>
| 26> %scf
| 27>   MaxIter 150
| 28> end
| 29>
| 30>
| 31>                          ****END OF INPUT****

CARTESIAN COORDINATES (ANGSTROEM)
---------------------------------
  C      3.380930    2.083040   -3.350130
  N      4.535920    1.182450   -3.428520
  C      2.495560    1.816150   -2.136360
  C      4.671960    0.122270   -4.220600
  C      5.866020   -0.507850   -4.224280
  N      3.698880   -0.312840   -4.986990
  H      2.731410   -0.050090   -4.849000
  H      3.890050   -1.055170   -5.643730
  H      5.251930    1.303460   -2.721010
  H      6.695160   -0.062320   -3.851600
  H      5.975380   -1.396880   -4.691410
  H      2.806460    1.986510   -4.268480
  H      3.778710    3.098280   -3.307380
  H      2.110900    0.819010   -2.187830
  H      1.682760    2.511980   -2.127860
  H      3.072160    1.930310   -1.242270

 Total Charge           Charge          ....    0
 Multiplicity           Mult            ....    1
 Number of Electrons    NEL             ....   48
 Basis Dimension        Dim             ....  312

ORBITAL ENERGIES
----------------

  NO   OCC          E(Eh)            E(eV)
   0   2.0000     -14.318338      -389.6218
   1   2.0000     -14.314813      -389.5259
   2   2.0000     -10.215452      -277.9766
   3   2.0000     -10.208343      -277.7831
   4   2.0000     -10.160253      -276.4745
   5   2.0000     -10.076892      -274.2062
   6   2.0000      -0.967670       -26.3316
   7   2.0000      -0.887647       -24.1541
   8   2.0000      -0.770539       -20.9674
   9   2.0000      -0.696405       -18.9502
  10   2.0000      -0.627208       -17.0672
  11   2.0000      -0.602480       -16.3943
  12   2.0000      -0.543845       -14.7988
  13   2.0000      -0.497920       -13.5491
  14   2.0000      -0.480913       -13.0863
  15   2.0000      -0.445794       -12.1307
  16   2.0000      -0.428312       -11.6550
  17   2.0000      -0.402313       -10.9475
  18   2.0000      -0.388605       -10.5745
  19   2.0000      -0.369435       -10.0528
  20   2.0000      -0.363842        -9.9006
  21   2.0000      -0.352674        -9.5967
  22   2.0000      -0.254145        -6.9156
  23   2.0000      -0.157256        -4.2792
  24   0.0000      -0.004473        -0.1217
  25   0.0000       0.022431         0.6104
  26   0.0000       0.027613         0.7514
  27   0.0000       0.032733         0.8907
  28   0.0000       0.057463         1.5636

MULLIKEN ATOMIC CHARGES
-----------------------
   0 C :   -0.433007
   1 N :   -0.165290
   2 C :   -0.924218
   3 C :    0.753670
   4 C :   -1.237075
   5 N :   -0.313957
   6 H :    0.148808
   7 H :    0.156109
   8 H :    0.165098
   9 H :    0.251121
  10 H :    0.241173
  11 H :    0.294337
  12 H :    0.223454
  13 H :    0.273356
  14 H :    0.300625
  15 H :    0.265797
Sum of atomic charges:    0.0000000

LOEWDIN ATOMIC CHARGES
----------------------
   0 C :   -0.233491
   1 N :    0.022441
   2 C :   -0.084416
   3 C :   -0.569707
   4 C :   -0.001308
   5 N :    0.127821
   6 H :    0.096629
   7 H :    0.112680
   8 H :    0.143466
   9 H :   -0.001881
  10 H :   -0.006707
  11 H :    0.100866
  12 H :    0.106608
  13 H :    0.062887
  14 H :    0.061281
  15 H :    0.062833

  Mayer bond orders larger than 0.100000
B(  0-C ,  1-N ) :   0.8843 B(  0-C ,  2-C ) :   0.6147 B(  0-C ,  3-C ) :  -0.1056
B(  0-C , 11-H ) :   0.9223 B(  0-C , 12-H ) :   0.9948 B(  1-N ,  3-C ) :   1.1006
B(  1-N ,  4-C ) :   0.1245 B(  1-N ,  8-H ) :   0.9820 B(  2-C , 13-H ) :   1.0077
B(  2-C , 14-H ) :   0.9838 B(  2-C , 15-H ) :   0.9713 B(  3-C ,  4-C ) :   1.0671
B(  3-C ,  5-N ) :   1.0382 B(  3-C , 10-H ) :  -0.1134 B(  4-C ,  9-H ) :   0.9699
B(  4-C , 10-H ) :   1.1076 B(  5-N ,  6-H ) :   1.0068 B(  5-N ,  7-H ) :   1.0148

Dispersion correction           -0.020550625
FINAL SINGLE POINT ENERGY      -267.862197272254

DIPOLE MOMENT
-------------
                                X             Y             Z
Electronic contribution:      1.50825      -1.09512      -2.04076
Nuclear contribution   :     -2.56090       1.59955       2.15496
                        -----------------------------------------
Total Dipole Moment    :     -1.05265       0.50443       0.11420
                        -----------------------------------------
Magnitude (a.u.)       :      1.17284
Magnitude (Debye)      :      2.98113

Rotational constants in cm-1:     0.249834     0.071381     0.061833
Rotational constants in MHz :  7489.842787  2139.945635  1853.706310

                             ****ORCA TERMINATED NORMALLY****
TOTAL RUN TIME: 0 days 0 hours 0 minutes 44 seconds 865 msec
