                         Program Version 5.0.0 -  RELEASE  -
|  1> !B3LYP D3BJ RIJCOSX def2-TZVPD def2/J TightSCF
|  2> *xyz 0 1
|  3> C          2.49556        1.81615       -2.13636
|  4> C          1.87218        0.42790       -2.07750
|  5> H          2.61427       -0.36583       -2.19889
|  6> H          1.38995        0.27309       -1.11236
|  7> S          0.57902        0.14047       -3.29794
|  8> O          0.22886       -1.24687       -3.12787
|  9> O         -0.43927        1.11897       -3.01455
| 10> F          1.24788        0.40347       -4.59565
| 11> H          2.96535        1.95613       -3.08747
| 12> H          3.22581        1.91242       -1.36024
| 13> H          1.73350        2.55528       -2.00274
| 14> *
| 15>
| 16> %MaxCore 64000
| 17>
| 18> %pal nprocs 4
| 19> end
| 20>
| 21> %scf
| 22>   MaxIter 150
| 23> end
| 24>
| 25>
| 26>                          ****END OF INPUT****

CARTESIAN COORDINATES (ANGSTROEM)
---------------------------------
  C      2.495560    1.816150   -2.136360
  C      1.872180    0.427900   -2.077500
  H      2.614270   -0.365830   -2.198890
  H      1.389950    0.273090   -1.112360
  S      0.579020    0.140470   -3.297940
  O      0.228860   -1.246870   -3.127870
  O     -0.439270    1.118970   -3.014550
  F      1.247880    0.403470   -4.595650
  H      2.965350    1.956130   -3.087470
  H      3.225810    1.912420   -1.360240
  H      1.733500    2.555280   -2.002740

 Total Charge           Charge          ....    0
 Multiplicity           Mult            ....    1
 Number of Electrons    NEL             ....   58
 Basis Dimension        Dim             ....  285

ORBITAL ENERGIES
----------------

  NO   OCC          E(Eh)            E(eV)
   0   2.0000     -89.096689     -2424.4442
   1   2.0000     -24.782865      -674.3760
   2   2.0000     -19.140734      -520.8459
   3   2.0000     -19.140447      -520.8381
   4   2.0000     -10.227223      -278.2969
   5   2.0000     -10.187296      -277.2104
   6   2.0000      -8.140777      -221.5218
   7   2.0000      -6.107680      -166.1984
   8   2.0000      -6.101225      -166.0228
   9   2.0000      -6.100866      -166.0130
  10   2.0000      -1.351900       -36.7871
  11   2.0000      -1.117639       -30.4125
  12   2.0000      -1.028400       -27.9842
  13   2.0000      -0.821984       -22.3673
  14   2.0000      -0.721374       -19.6296
  15   2.0000      -0.671751       -18.2793
  16   2.0000      -0.580390       -15.7932
  17   2.0000      -0.564039       -15.3483
  18   2.0000      -0.547455       -14.8970
  19   2.0000      -0.494723       -13.4621
  20   2.0000      -0.477497       -12.9934
  21   2.0000      -0.457763       -12.4564
  22   2.0000      -0.438034       -11.9195
  23   2.0000      -0.410248       -11.1634
  24   2.0000      -0.404182       -10.9984
  25   2.0000      -0.382841       -10.4176
  26   2.0000      -0.344259        -9.3678
  27   2.0000      -0.333827        -9.0839
  28   2.0000      -0.324580        -8.8323
  29   0.0000      -0.013715        -0.3732
  30   0.0000       0.016274         0.4428
  31   0.0000       0.021117         0.5746
  32   0.0000       0.025508         0.6941
  33   0.0000       0.043805         1.1920

MULLIKEN ATOMIC CHARGES
-----------------------
   0 C :   -1.160055
   1 C :   -0.274509
   2 H :    0.305219
   3 H :    0.288543
   4 S :    1.199641
   5 O :   -0.560105
   6 O :   -0.574276
   7 F :   -0.186986
   8 H :    0.333605
   9 H :    0.300931
  10 H :    0.327991
Sum of atomic charges:   -0.0000000

LOEWDIN ATOMIC CHARGES
----------------------
   0 C :   -0.111088
   1 C :   -0.276518
   2 H :    0.101399
   3 H :    0.106711
   4 S :    0.592357
   5 O :   -0.273254
   6 O :   -0.267859
   7 F :   -0.082202
   8 H :    0.067548
   9 H :    0.071638
  10 H :    0.071268

  Mayer bond orders larger than 0.100000
B(  0-C ,  1-C ) :   0.6752 B(  0-C ,  8-H ) :   0.9270 B(  0-C ,  9-H ) :   0.9564
B(  0-C , 10-H ) :   0.9727 B(  1-C ,  2-H ) :   0.9186 B(  1-C ,  3-H ) :   0.9270
B(  1-C ,  4-S ) :   0.8484 B(  1-C ,  5-O ) :   0.1087 B(  4-S ,  5-O ) :   1.6780
B(  4-S ,  6-O ) :   1.6845 B(  4-S ,  7-F ) :   0.9686

Dispersion correction           -0.015943738
FINAL SINGLE POINT ENERGY      -727.658900962729

DIPOLE MOMENT
-------------
                                X             Y             Z
Electronic contribution:     -5.08080      -3.60787      -6.57456
Nuclear contribution   :      6.54345       4.10057       6.91691
                        -----------------------------------------
Total Dipole Moment    :      1.46265       0.49270       0.34235
                        -----------------------------------------
Magnitude (a.u.)       :      1.58092
Magnitude (Debye)      :      4.01838

Rotational constants in cm-1:     0.152835     0.082826     0.080611
Rotational constants in MHz :  4581.878371  2483.049050  2416.647141

                             ****ORCA TERMINATED NORMALLY****
TOTAL RUN TIME: 0 days 0 hours 0 minutes 33 seconds 40 msec
