                         Program Version 5.0.0 -  RELEASE  -
|  1> !B3LYP D3BJ RIJCOSX def2-TZVPD def2/J TightSCF
|  2> *xyz 0 1
|  3> C          3.38093        2.08304       -3.35013
|  4> N          4.53592        1.18245       -3.42852
|  5> C          2.49556        1.81615       -2.13636
|  6> C          4.67196        0.12227       -4.22060
|  7> N          5.86602       -0.50785       -4.22428
|  8> C          3.69888       -0.31284       -4.98699
|  9> H          2.73141       -0.05009       -4.84900
| 10> H          3.89005       -1.05517       -5.64373
| 11> H          5.25193        1.30346       -2.72101
| 12> H          6.69516       -0.06232       -3.85160
| 13> H          5.97538       -1.39688       -4.69141
| 14> H          2.80646        1.98651       -4.26848
| 15> H          3.77871        3.09828       -3.30738
| 16> H          2.11090        0.81901       -2.18783
| 17> H          1.68276        2.51198       -2.12786
| 18> H          3.07216        1.93031       -1.24227
| 19> *
| 20>
| 21> %MaxCore 64000
| 22>
| 23> %pal nprocs 4
| 24> end
| 25>
| 26> %scf
| 27>   MaxIter 150
| 28> end
| 29>
| 30>
| 31>                          ****END OF INPUT****

CARTESIAN COORDINATES (ANGSTROEM)
---------------------------------
  C      3.380930    2.083040   -3.350130
  N      4.535920    1.182450   -3.428520
  C      2.495560    1.816150   -2.136360
  C      4.671960    0.122270   -4.220600
  N      5.866020   -0.507850   -4.224280
  C      3.698880   -0.312840   -4.986990
  H      2.731410   -0.050090   -4.849000
  H      3.890050   -1.055170   -5.643730
  H      5.251930    1.303460   -2.721010
  H      6.695160   -0.062320   -3.851600
  H      5.975380   -1.396880   -4.691410
  H      2.806460    1.986510   -4.268480
  H      3.778710    3.098280   -3.307380
  H      2.110900    0.819010   -2.187830
  H      1.682760    2.511980   -2.127860
  H      3.072160    1.930310   -1.242270

 Total Charge           Charge          ....    0
 Multiplicity           Mult            ....    1
 Number of Electrons    NEL             ....   48
 Basis Dimension        Dim             ....  312

ORBITAL ENERGIES
----------------

  NO   OCC          E(Eh)            E(eV)
   0   2.0000     -14.315226      -389.5371
   1   2.0000     -14.311675      -389.4405
   2   2.0000     -10.212653      -277.9004
   3   2.0000     -10.200422      -277.5676
   4   2.0000     -10.152960      -276.2761
   5   2.0000     -10.080836      -274.3135
   6   2.0000      -0.961050       -26.1515
   7   2.0000      -0.878247       -23.8983
   8   2.0000      -0.756075       -20.5739
   9   2.0000      -0.711291       -19.3552
  10   2.0000      -0.638416       -17.3722
  11   2.0000      -0.564769       -15.3681
  12   2.0000      -0.543184       -14.7808
  13   2.0000      -0.514395       -13.9974
  14   2.0000      -0.457904       -12.4602
  15   2.0000      -0.448401       -12.2016
  16   2.0000      -0.419331       -11.4106
  17   2.0000      -0.403489       -10.9795
  18   2.0000      -0.380550       -10.3553
  19   2.0000      -0.376041       -10.2326
  20   2.0000      -0.354370        -9.6429
  21   2.0000      -0.349019        -9.4973
  22   2.0000      -0.246618        -6.7108
  23   2.0000      -0.169706        -4.6179
  24   0.0000      -0.000237        -0.0064
  25   0.0000       0.019185         0.5220
  26   0.0000       0.031960         0.8697
  27   0.0000       0.036837         1.0024
  28   0.0000       0.057442         1.5631

MULLIKEN ATOMIC CHARGES
-----------------------
   0 C :   -0.415160
   1 N :   -0.201723
   2 C :   -0.943178
   3 C :    0.804410
   4 N :   -0.345685
   5 C :   -1.228416
   6 H :    0.258548
   7 H :    0.244163
   8 H :    0.171422
   9 H :    0.143108
  10 H :    0.144449
  11 H :    0.313229
  12 H :    0.213879
  13 H :    0.267862
  14 H :    0.298956
  15 H :    0.274137
Sum of atomic charges:    0.0000000

LOEWDIN ATOMIC CHARGES
----------------------
   0 C :   -0.228768
   1 N :    0.014020
   2 C :   -0.081250
   3 C :   -0.562445
   4 N :    0.107975
   5 C :    0.008296
   6 H :    0.006135
   7 H :    0.007961
   8 H :    0.134800
   9 H :    0.092780
  10 H :    0.101745
  11 H :    0.104420
  12 H :    0.106638
  13 H :    0.065633
  14 H :    0.061939
  15 H :    0.060124

  Mayer bond orders larger than 0.100000
B(  0-C ,  1-N ) :   0.8783 B(  0-C ,  2-C ) :   0.6047 B(  0-C ,  5-C ) :   0.1117
B(  0-C , 11-H ) :   0.9158 B(  0-C , 12-H ) :   0.9590 B(  1-N ,  3-C ) :   1.0598
B(  1-N ,  8-H ) :   0.9955 B(  2-C , 13-H ) :   1.0254 B(  2-C , 14-H ) :   0.9688
B(  2-C , 15-H ) :   0.9608 B(  3-C ,  4-N ) :   0.9027 B(  3-C ,  5-C ) :   1.2276
B(  3-C ,  7-H ) :  -0.1211 B(  4-N ,  9-H ) :   1.0347 B(  4-N , 10-H ) :   1.0307
B(  5-C ,  6-H ) :   0.9374 B(  5-C ,  7-H ) :   1.1216

Dispersion correction           -0.020679111
FINAL SINGLE POINT ENERGY      -267.867444194858

DIPOLE MOMENT
-------------
                                X             Y             Z
Electronic contribution:      3.64853      -1.31663      -1.35535
Nuclear contribution   :     -3.02065       1.64092       1.99316
                        -----------------------------------------
Total Dipole Moment    :      0.62788       0.32429       0.63781
                        -----------------------------------------
Magnitude (a.u.)       :      0.95195
Magnitude (Debye)      :      2.41966

Rotational constants in cm-1:     0.259304     0.069422     0.060943
Rotational constants in MHz :  7773.747720  2081.225169  1827.013389

                             ****ORCA TERMINATED NORMALLY****
TOTAL RUN TIME: 0 days 0 hours 0 minutes 44 seconds 703 msec
