                         Program Version 5.0.0 -  RELEASE  -
|  1> !B3LYP D3BJ RIJCOSX def2-TZVPD def2/J TightSCF xyzfile
|  2>
|  3> *xyzfile 0 1 D1.xyz
|  4>
|  5> %MaxCore 64000
|  6>
|  7> %pal nprocs 4
|  8> end
|  9>
| 10> %scf
| 11>   MaxIter 150
| 12> end
| 13>
| 14>
| 15>                          ****END OF INPUT****

CARTESIAN COORDINATES (ANGSTROEM)
---------------------------------
  C      3.380928    2.083045   -3.350127
  C      4.535924    1.182447   -3.428518
  C      2.495557    1.816150   -2.136364
  C      1.872181    0.427903   -2.077497
  H      2.614270   -0.365825   -2.198894
  H      1.389953    0.273087   -1.112360
  S      0.579024    0.140472   -3.297943
  C      4.671956    0.122273   -4.220598
  N      5.866023   -0.507849   -4.224284
  N      3.698881   -0.312844   -4.986988
  H      2.731405   -0.050091   -4.849000
  H      3.890046   -1.055172   -5.643730
  H      5.251933    1.303459   -2.721014
  H      6.695165   -0.062322   -3.851596
  H      5.975383   -1.396884   -4.691414
  F      0.228860   -1.246868   -3.127871
  O     -0.439269    1.118966   -3.014550
  O      1.247881    0.403474   -4.595647
  H      1.697003    2.561969   -2.141109
  H      3.080787    1.987436   -1.225838
  H      2.806463    1.986511   -4.268484
  H      3.778714    3.098282   -3.307383

 Total Charge           Charge          ....    0
 Multiplicity           Mult            ....    1
 Number of Electrons    NEL             ....   96
 Basis Dimension        Dim             ....  524

ORBITAL ENERGIES
----------------

  NO   OCC          E(Eh)            E(eV)
   0   2.0000     -89.108529     -2424.7663
   1   2.0000     -24.811812      -675.1637
   2   2.0000     -19.148066      -521.0454
   3   2.0000     -19.142730      -520.9002
   4   2.0000     -14.308891      -389.3647
   5   2.0000     -14.292406      -388.9161
   6   2.0000     -10.220793      -278.1219
   7   2.0000     -10.208790      -277.7953
   8   2.0000     -10.177950      -276.9561
   9   2.0000     -10.144680      -276.0508
  10   2.0000     -10.089839      -274.5585
  11   2.0000      -8.152896      -221.8516
  12   2.0000      -6.119595      -166.5226
  13   2.0000      -6.113525      -166.3575
  14   2.0000      -6.112765      -166.3368
  15   2.0000      -1.394651       -37.9504
  16   2.0000      -1.119696       -30.4685
  17   2.0000      -1.025989       -27.9186
  18   2.0000      -0.951738       -25.8981
  19   2.0000      -0.860616       -23.4185
  20   2.0000      -0.823942       -22.4206
  21   2.0000      -0.765129       -20.8202
  22   2.0000      -0.727715       -19.8021
  23   2.0000      -0.681939       -18.5565
  24   2.0000      -0.627796       -17.0832
  25   2.0000      -0.600067       -16.3286
  26   2.0000      -0.590244       -16.0614
  27   2.0000      -0.581395       -15.8206
  28   2.0000      -0.553303       -15.0561
  29   2.0000      -0.535054       -14.5596
  30   2.0000      -0.515617       -14.0306
  31   2.0000      -0.491660       -13.3787
  32   2.0000      -0.483925       -13.1683
  33   2.0000      -0.469617       -12.7789
  34   2.0000      -0.452117       -12.3027
  35   2.0000      -0.438788       -11.9400
  36   2.0000      -0.409097       -11.1321
  37   2.0000      -0.403994       -10.9932
  38   2.0000      -0.393116       -10.6972
  39   2.0000      -0.381169       -10.3721
  40   2.0000      -0.358026        -9.7424
  41   2.0000      -0.353750        -9.6260
  42   2.0000      -0.339652        -9.2424
  43   2.0000      -0.336533        -9.1575
  44   2.0000      -0.320475        -8.7206
  45   2.0000      -0.313802        -8.5390
  46   2.0000      -0.255121        -6.9422
  47   2.0000      -0.158850        -4.3225
  48   0.0000      -0.013055        -0.3552
  49   0.0000       0.004782         0.1301
  50   0.0000       0.011167         0.3039
  51   0.0000       0.022990         0.6256
  52   0.0000       0.032685         0.8894

MULLIKEN ATOMIC CHARGES
-----------------------
   0 C :   -0.414998
   1 C :   -0.865936
   2 C :   -0.504045
   3 C :   -0.569540
   4 H :    0.351876
   5 H :    0.303056
   6 S :    1.207915
   7 C :    0.578260
   8 N :   -0.359418
   9 N :   -0.292170
  10 H :    0.268598
  11 H :    0.121184
  12 H :    0.280165
  13 H :    0.159355
  14 H :    0.129441
  15 F :   -0.142425
  16 O :   -0.576295
  17 O :   -0.716874
  18 H :    0.187758
  19 H :    0.306210
  20 H :    0.334006
  21 H :    0.213876
Sum of atomic charges:   -0.0000000

LOEWDIN ATOMIC CHARGES
----------------------
   0 C :   -0.218491
   1 C :   -0.129703
   2 C :   -0.204321
   3 C :   -0.218860
   4 H :    0.103324
   5 H :    0.101218
   6 S :    0.643838
   7 C :   -0.541290
   8 N :    0.107007
   9 N :    0.146360
  10 H :    0.013223
  11 H :    0.104609
  12 H :    0.064775
  13 H :    0.102649
  14 H :    0.088446
  15 F :   -0.041237
  16 O :   -0.251944
  17 O :   -0.306035
  18 H :    0.109172
  19 H :    0.120631
  20 H :    0.097557
  21 H :    0.109073

  Mayer bond orders larger than 0.100000
B(  0-C ,  1-C ) :   0.5879 B(  0-C ,  2-C ) :   0.7159 B(  0-C , 12-H ) :  -0.1002
B(  0-C , 20-H ) :   0.9239 B(  0-C , 21-H ) :   1.0568 B(  1-C ,  7-C ) :   1.3135
B(  1-C ,  8-N ) :   0.1719 B(  1-C ,  9-N ) :   0.1024 B(  1-C , 12-H ) :   1.0139
B(  2-C ,  3-C ) :   1.1085 B(  2-C ,  6-S ) :   0.1554 B(  2-C , 18-H ) :   0.9594
B(  2-C , 19-H ) :   0.8996 B(  3-C ,  4-H ) :   0.8370 B(  3-C ,  5-H ) :   0.8894
B(  3-C ,  6-S ) :   0.8080 B(  6-S , 15-F ) :   0.9558 B(  6-S , 16-O ) :   1.6705
B(  6-S , 17-O ) :   1.5916 B(  7-C ,  8-N ) :   0.8604 B(  7-C ,  9-N ) :   0.9524
B(  7-C , 10-H ) :  -0.1006 B(  7-C , 12-H ) :  -0.1222 B(  8-N , 13-H ) :   1.0082
B(  8-N , 14-H ) :   1.0626 B(  9-N , 10-H ) :   0.8446 B(  9-N , 11-H ) :   1.0443

Dispersion correction           -0.042368212
FINAL SINGLE POINT ENERGY      -955.017158006144

DIPOLE MOMENT
-------------
                                X             Y             Z
Electronic contribution:    -15.29742      -6.67794      -1.15114
Nuclear contribution   :     15.92508       5.34175       1.81950
                        -----------------------------------------
Total Dipole Moment    :      0.62766      -1.33619       0.66836
                        -----------------------------------------
Magnitude (a.u.)       :      1.62051
Magnitude (Debye)      :      4.11901

Rotational constants in cm-1:     0.058561     0.020662     0.017762
Rotational constants in MHz :  1755.621534   619.433801   532.501507

                             ****ORCA TERMINATED NORMALLY****
TOTAL RUN TIME: 0 days 0 hours 3 minutes 17 seconds 188 msec
