                         Program Version 5.0.0 -  RELEASE  -
|  1> !B3LYP D3BJ RIJCOSX def2-TZVPD def2/J TightSCF xyzfile
|  2>
|  3> *xyzfile 0 1 D2.xyz
|  4>
|  5> %MaxCore 64000
|  6>
|  7> %pal nprocs 4
|  8> end
|  9>
| 10> %scf
| 11>   MaxIter 150
| 12> end
| 13>
| 14>
| 15>                          ****END OF INPUT****

CARTESIAN COORDINATES (ANGSTROEM)
---------------------------------
  C      3.380928    2.083045   -3.350127
  N      4.535924    1.182447   -3.428518
  C      2.495557    1.816150   -2.136364
  C      1.872181    0.427903   -2.077497
  H      2.614270   -0.365825   -2.198894
  H      1.389953    0.273087   -1.112360
  S      0.579024    0.140472   -3.297943
  C      4.671956    0.122273   -4.220598
  C      5.866023   -0.507849   -4.224284
  N      3.698881   -0.312844   -4.986988
  H      2.731405   -0.050091   -4.849000
  H      3.890046   -1.055172   -5.643730
  H      5.251933    1.303459   -2.721014
  H      6.695165   -0.062322   -3.851596
  H      5.975383   -1.396884   -4.691414
  F      0.228860   -1.246868   -3.127871
  O     -0.439269    1.118966   -3.014550
  O      1.247881    0.403474   -4.595647
  H      1.697003    2.561969   -2.141109
  H      3.080787    1.987436   -1.225838
  H      2.806463    1.986511   -4.268484
  H      3.778714    3.098282   -3.307383

 Total Charge           Charge          ....    0
 Multiplicity           Mult            ....    1
 Number of Electrons    NEL             ....   96
 Basis Dimension        Dim             ....  524

ORBITAL ENERGIES
----------------

  NO   OCC          E(Eh)            E(eV)
   0   2.0000     -89.122234     -2425.1393
   1   2.0000     -24.823175      -675.4729
   2   2.0000     -19.160945      -521.3958
   3   2.0000     -19.154602      -521.2232
   4   2.0000     -14.316240      -389.5647
   5   2.0000     -14.289382      -388.8338
   6   2.0000     -10.239578      -278.6331
   7   2.0000     -10.211919      -277.8804
   8   2.0000     -10.208214      -277.7796
   9   2.0000     -10.205514      -277.7062
  10   2.0000     -10.070679      -274.0371
  11   2.0000      -8.166433      -222.2199
  12   2.0000      -6.133074      -166.8894
  13   2.0000      -6.127062      -166.7258
  14   2.0000      -6.126438      -166.7089
  15   2.0000      -1.405834       -38.2547
  16   2.0000      -1.132449       -30.8155
  17   2.0000      -1.038370       -28.2555
  18   2.0000      -0.961628       -26.1672
  19   2.0000      -0.880908       -23.9707
  20   2.0000      -0.835687       -22.7402
  21   2.0000      -0.772189       -21.0123
  22   2.0000      -0.728072       -19.8118
  23   2.0000      -0.687776       -18.7153
  24   2.0000      -0.637985       -17.3604
  25   2.0000      -0.610124       -16.6023
  26   2.0000      -0.598872       -16.2961
  27   2.0000      -0.596686       -16.2367
  28   2.0000      -0.582417       -15.8484
  29   2.0000      -0.544811       -14.8251
  30   2.0000      -0.508411       -13.8346
  31   2.0000      -0.493436       -13.4271
  32   2.0000      -0.488779       -13.3004
  33   2.0000      -0.481473       -13.1016
  34   2.0000      -0.466138       -12.6843
  35   2.0000      -0.447510       -12.1774
  36   2.0000      -0.417225       -11.3533
  37   2.0000      -0.409968       -11.1558
  38   2.0000      -0.408225       -11.1084
  39   2.0000      -0.388657       -10.5759
  40   2.0000      -0.384606       -10.4657
  41   2.0000      -0.370295       -10.0762
  42   2.0000      -0.358424        -9.7532
  43   2.0000      -0.347489        -9.4557
  44   2.0000      -0.341973        -9.3056
  45   2.0000      -0.328078        -8.9275
  46   2.0000      -0.248211        -6.7542
  47   2.0000      -0.151867        -4.1325
  48   0.0000      -0.020858        -0.5676
  49   0.0000      -0.005384        -0.1465
  50   0.0000       0.011855         0.3226
  51   0.0000       0.014416         0.3923
  52   0.0000       0.030107         0.8193

MULLIKEN ATOMIC CHARGES
-----------------------
   0 C :   -0.636455
   1 N :   -0.184957
   2 C :   -0.432236
   3 C :   -0.571344
   4 H :    0.330323
   5 H :    0.307384
   6 S :    1.216345
   7 C :    0.654682
   8 C :   -1.265301
   9 N :   -0.292710
  10 H :    0.301964
  11 H :    0.125978
  12 H :    0.181966
  13 H :    0.251814
  14 H :    0.260829
  15 F :   -0.137161
  16 O :   -0.574387
  17 O :   -0.714733
  18 H :    0.256612
  19 H :    0.266544
  20 H :    0.407178
  21 H :    0.247665
Sum of atomic charges:    0.0000000

LOEWDIN ATOMIC CHARGES
----------------------
   0 C :   -0.173848
   1 N :    0.034476
   2 C :   -0.188304
   3 C :   -0.215714
   4 H :    0.106740
   5 H :    0.103495
   6 S :    0.645222
   7 C :   -0.570744
   8 C :   -0.005823
   9 N :    0.142362
  10 H :    0.007787
  11 H :    0.116870
  12 H :    0.144219
  13 H :   -0.006269
  14 H :   -0.008096
  15 F :   -0.034980
  16 O :   -0.249685
  17 O :   -0.306105
  18 H :    0.114103
  19 H :    0.120101
  20 H :    0.106567
  21 H :    0.117624

  Mayer bond orders larger than 0.100000
B(  0-C ,  1-N ) :   0.8561 B(  0-C ,  2-C ) :   0.8352 B(  0-C ,  7-C ) :  -0.1073
B(  0-C , 20-H ) :   0.8479 B(  0-C , 21-H ) :   0.9633 B(  1-N ,  7-C ) :   1.1180
B(  1-N ,  8-C ) :   0.1479 B(  1-N , 12-H ) :   0.9545 B(  2-C ,  3-C ) :   1.0773
B(  2-C ,  6-S ) :   0.1521 B(  2-C , 18-H ) :   0.9730 B(  2-C , 19-H ) :   0.8946
B(  3-C ,  4-H ) :   0.8449 B(  3-C ,  5-H ) :   0.8972 B(  3-C ,  6-S ) :   0.8133
B(  6-S , 15-F ) :   0.9635 B(  6-S , 16-O ) :   1.6717 B(  6-S , 17-O ) :   1.5902
B(  7-C ,  8-C ) :   1.1063 B(  7-C ,  9-N ) :   1.0653 B(  7-C , 14-H ) :  -0.1010
B(  8-C , 13-H ) :   1.0223 B(  8-C , 14-H ) :   1.0705 B(  9-N , 10-H ) :   0.7998
B(  9-N , 11-H ) :   1.0277

Dispersion correction           -0.041919371
FINAL SINGLE POINT ENERGY      -955.002117503419

DIPOLE MOMENT
-------------
                                X             Y             Z
Electronic contribution:    -16.77079      -5.22773      -0.38793
Nuclear contribution   :     16.05479       5.17692       1.74190
                        -----------------------------------------
Total Dipole Moment    :     -0.71600      -0.05081       1.35397
                        -----------------------------------------
Magnitude (a.u.)       :      1.53247
Magnitude (Debye)      :      3.89523

Rotational constants in cm-1:     0.058652     0.021107     0.018077
Rotational constants in MHz :  1758.344290   632.763813   541.920558

                             ****ORCA TERMINATED NORMALLY****
TOTAL RUN TIME: 0 days 0 hours 3 minutes 24 seconds 196 msec
