                         Program Version 5.0.0 -  RELEASE  -
|  1> !B3LYP D3BJ RIJCOSX def2-TZVPD def2/J TightSCF xyzfile
|  2>
|  3> *xyzfile 0 1 D3.xyz
|  4>
|  5> %MaxCore 64000
|  6>
|  7> %pal nprocs 4
|  8> end
|  9>
| 10> %scf
| 11>   MaxIter 150
| 12> end
| 13>
| 14>
| 15>                          ****END OF INPUT****

CARTESIAN COORDINATES (ANGSTROEM)
---------------------------------
  C      3.380928    2.083045   -3.350127
  N      4.535924    1.182447   -3.428518
  C      2.495557    1.816150   -2.136364
  C      1.872181    0.427903   -2.077497
  H      2.614270   -0.365825   -2.198894
  H      1.389953    0.273087   -1.112360
  S      0.579024    0.140472   -3.297943
  C      4.671956    0.122273   -4.220598
  N      5.866023   -0.507849   -4.224284
  C      3.698881   -0.312844   -4.986988
  H      2.731405   -0.050091   -4.849000
  H      3.890046   -1.055172   -5.643730
  H      5.251933    1.303459   -2.721014
  H      6.695165   -0.062322   -3.851596
  H      5.975383   -1.396884   -4.691414
  F      0.228860   -1.246868   -3.127871
  O     -0.439269    1.118966   -3.014550
  O      1.247881    0.403474   -4.595647
  H      1.697003    2.561969   -2.141109
  H      3.080787    1.987436   -1.225838
  H      2.806463    1.986511   -4.268484
  H      3.778714    3.098282   -3.307383

 Total Charge           Charge          ....    0
 Multiplicity           Mult            ....    1
 Number of Electrons    NEL             ....   96
 Basis Dimension        Dim             ....  524

ORBITAL ENERGIES
----------------

  NO   OCC          E(Eh)            E(eV)
   0   2.0000     -89.100115     -2424.5374
   1   2.0000     -24.804397      -674.9620
   2   2.0000     -19.140987      -520.8527
   3   2.0000     -19.125483      -520.4309
   4   2.0000     -14.317273      -389.5928
   5   2.0000     -14.307595      -389.3295
   6   2.0000     -10.225201      -278.2419
   7   2.0000     -10.205759      -277.7128
   8   2.0000     -10.205367      -277.7022
   9   2.0000     -10.197148      -277.4785
  10   2.0000     -10.059315      -273.7279
  11   2.0000      -8.144343      -221.6188
  12   2.0000      -6.111058      -166.2903
  13   2.0000      -6.104721      -166.1179
  14   2.0000      -6.104509      -166.1121
  15   2.0000      -1.386935       -37.7404
  16   2.0000      -1.110129       -30.2081
  17   2.0000      -1.013073       -27.5671
  18   2.0000      -0.960625       -26.1399
  19   2.0000      -0.879662       -23.9368
  20   2.0000      -0.822404       -22.3787
  21   2.0000      -0.754158       -20.5217
  22   2.0000      -0.717436       -19.5224
  23   2.0000      -0.695740       -18.9321
  24   2.0000      -0.642717       -17.4892
  25   2.0000      -0.590522       -16.0689
  26   2.0000      -0.586863       -15.9694
  27   2.0000      -0.573143       -15.5960
  28   2.0000      -0.555023       -15.1029
  29   2.0000      -0.537380       -14.6229
  30   2.0000      -0.516341       -14.0503
  31   2.0000      -0.493213       -13.4210
  32   2.0000      -0.490419       -13.3450
  33   2.0000      -0.456636       -12.4257
  34   2.0000      -0.452538       -12.3142
  35   2.0000      -0.446960       -12.1624
  36   2.0000      -0.406943       -11.0735
  37   2.0000      -0.399473       -10.8702
  38   2.0000      -0.391136       -10.6434
  39   2.0000      -0.383309       -10.4304
  40   2.0000      -0.379101       -10.3159
  41   2.0000      -0.369922       -10.0661
  42   2.0000      -0.349916        -9.5217
  43   2.0000      -0.336971        -9.1695
  44   2.0000      -0.320300        -8.7158
  45   2.0000      -0.283990        -7.7278
  46   2.0000      -0.248112        -6.7515
  47   2.0000      -0.163162        -4.4399
  48   0.0000      -0.011358        -0.3091
  49   0.0000      -0.000724        -0.0197
  50   0.0000       0.010473         0.2850
  51   0.0000       0.019756         0.5376
  52   0.0000       0.034721         0.9448

MULLIKEN ATOMIC CHARGES
-----------------------
   0 C :   -0.634003
   1 N :   -0.210366
   2 C :   -0.459595
   3 C :   -0.547863
   4 H :    0.340566
   5 H :    0.304947
   6 S :    1.189453
   7 C :    0.943429
   8 N :   -0.371071
   9 C :   -1.550143
  10 H :    0.515240
  11 H :    0.219329
  12 H :    0.177881
  13 H :    0.132138
  14 H :    0.149015
  15 F :   -0.148154
  16 O :   -0.588733
  17 O :   -0.602184
  18 H :    0.245619
  19 H :    0.264402
  20 H :    0.403765
  21 H :    0.226327
Sum of atomic charges:    0.0000000

LOEWDIN ATOMIC CHARGES
----------------------
   0 C :   -0.168304
   1 N :    0.025763
   2 C :   -0.187717
   3 C :   -0.216954
   4 H :    0.103402
   5 H :    0.100725
   6 S :    0.635092
   7 C :   -0.554771
   8 N :    0.105435
   9 C :    0.022601
  10 H :   -0.057721
  11 H :    0.021179
  12 H :    0.135299
  13 H :    0.089504
  14 H :    0.100739
  15 F :   -0.039825
  16 O :   -0.261041
  17 O :   -0.313053
  18 H :    0.113920
  19 H :    0.116793
  20 H :    0.111101
  21 H :    0.117833

  Mayer bond orders larger than 0.100000
B(  0-C ,  1-N ) :   0.9102 B(  0-C ,  2-C ) :   0.8309 B(  0-C , 20-H ) :   0.8390
B(  0-C , 21-H ) :   0.9620 B(  1-N ,  7-C ) :   1.0445 B(  1-N , 12-H ) :   0.9691
B(  2-C ,  3-C ) :   1.0845 B(  2-C ,  6-S ) :   0.1654 B(  2-C , 18-H ) :   0.9578
B(  2-C , 19-H ) :   0.8967 B(  3-C ,  4-H ) :   0.8566 B(  3-C ,  5-H ) :   0.9058
B(  3-C ,  6-S ) :   0.7817 B(  6-S , 15-F ) :   0.9447 B(  6-S , 16-O ) :   1.6649
B(  6-S , 17-O ) :   1.6669 B(  7-C ,  8-N ) :   0.8947 B(  7-C ,  9-C ) :   0.8851
B(  7-C , 11-H ) :  -0.1833 B(  8-N , 13-H ) :   1.0485 B(  8-N , 14-H ) :   1.0259
B(  9-C , 10-H ) :   0.9630 B(  9-C , 11-H ) :   1.2272 B(  9-C , 17-O ) :   0.1953
B( 10-H , 17-O ) :  -0.4164

Dispersion correction           -0.042328389
FINAL SINGLE POINT ENERGY      -954.986369679099

DIPOLE MOMENT
-------------
                                X             Y             Z
Electronic contribution:    -14.70988      -5.47353       0.02611
Nuclear contribution   :     15.84345       5.19593       1.66752
                        -----------------------------------------
Total Dipole Moment    :      1.13358      -0.27759       1.69363
                        -----------------------------------------
Magnitude (a.u.)       :      2.05680
Magnitude (Debye)      :      5.22797

Rotational constants in cm-1:     0.059060     0.020573     0.017713
Rotational constants in MHz :  1770.576058   616.749938   531.036486

                             ****ORCA TERMINATED NORMALLY****
TOTAL RUN TIME: 0 days 0 hours 3 minutes 12 seconds 622 msec
