                         Program Version 5.0.0 -  RELEASE  -
|  1> !B3LYP D3BJ RIJCOSX def2-TZVPD def2/J TightSCF xyzfile
|  2>
|  3> *xyzfile 0 1 D4.xyz
|  4>
|  5> %MaxCore 64000
|  6>
|  7> %pal nprocs 4
|  8> end
|  9>
| 10> %scf
| 11>   MaxIter 150
| 12> end
| 13>
| 14>
| 15>                          ****END OF INPUT****

CARTESIAN COORDINATES (ANGSTROEM)
---------------------------------
  C      3.380928    2.083045   -3.350127
  C      4.535924    1.182447   -3.428518
  C      2.495557    1.816150   -2.136364
  C      1.872181    0.427903   -2.077497
  H      2.614270   -0.365825   -2.198894
  H      1.389953    0.273087   -1.112360
  S      0.579024    0.140472   -3.297943
  C      4.671956    0.122273   -4.220598
  N      5.866023   -0.507849   -4.224284
  N      3.698881   -0.312844   -4.986988
  H      2.731405   -0.050091   -4.849000
  H      3.890046   -1.055172   -5.643730
  H      5.251933    1.303459   -2.721014
  H      6.695165   -0.062322   -3.851596
  H      5.975383   -1.396884   -4.691414
  O      0.228860   -1.246868   -3.127871
  F     -0.439269    1.118966   -3.014550
  O      1.247881    0.403474   -4.595647
  H      1.697003    2.561969   -2.141109
  H      3.080787    1.987436   -1.225838
  H      2.806463    1.986511   -4.268484
  H      3.778714    3.098282   -3.307383

 Total Charge           Charge          ....    0
 Multiplicity           Mult            ....    1
 Number of Electrons    NEL             ....   96
 Basis Dimension        Dim             ....  524

ORBITAL ENERGIES
----------------

  NO   OCC          E(Eh)            E(eV)
   0   2.0000     -89.108808     -2424.7739
   1   2.0000     -24.811458      -675.1541
   2   2.0000     -19.148474      -521.0565
   3   2.0000     -19.142048      -520.8816
   4   2.0000     -14.308343      -389.3498
   5   2.0000     -14.291717      -388.8974
   6   2.0000     -10.220158      -278.1046
   7   2.0000     -10.209132      -277.8046
   8   2.0000     -10.179917      -277.0096
   9   2.0000     -10.146652      -276.1044
  10   2.0000     -10.090213      -274.5687
  11   2.0000      -8.153043      -221.8556
  12   2.0000      -6.119824      -166.5289
  13   2.0000      -6.113699      -166.3622
  14   2.0000      -6.112842      -166.3389
  15   2.0000      -1.394327       -37.9416
  16   2.0000      -1.119307       -30.4579
  17   2.0000      -1.026079       -27.9210
  18   2.0000      -0.951059       -25.8796
  19   2.0000      -0.859826       -23.3970
  20   2.0000      -0.826412       -22.4878
  21   2.0000      -0.763017       -20.7628
  22   2.0000      -0.727574       -19.7983
  23   2.0000      -0.683540       -18.6001
  24   2.0000      -0.626360       -17.0441
  25   2.0000      -0.603186       -16.4135
  26   2.0000      -0.593835       -16.1591
  27   2.0000      -0.581343       -15.8192
  28   2.0000      -0.550001       -14.9663
  29   2.0000      -0.532815       -14.4986
  30   2.0000      -0.514699       -14.0057
  31   2.0000      -0.488133       -13.2828
  32   2.0000      -0.481699       -13.1077
  33   2.0000      -0.475327       -12.9343
  34   2.0000      -0.453392       -12.3374
  35   2.0000      -0.441238       -12.0067
  36   2.0000      -0.412057       -11.2126
  37   2.0000      -0.402327       -10.9479
  38   2.0000      -0.398701       -10.8492
  39   2.0000      -0.379303       -10.3214
  40   2.0000      -0.359133        -9.7725
  41   2.0000      -0.350551        -9.5390
  42   2.0000      -0.342152        -9.3104
  43   2.0000      -0.335933        -9.1412
  44   2.0000      -0.327121        -8.9014
  45   2.0000      -0.310477        -8.4485
  46   2.0000      -0.254039        -6.9128
  47   2.0000      -0.159043        -4.3278
  48   0.0000      -0.013585        -0.3697
  49   0.0000       0.006123         0.1666
  50   0.0000       0.012593         0.3427
  51   0.0000       0.023667         0.6440
  52   0.0000       0.032788         0.8922

MULLIKEN ATOMIC CHARGES
-----------------------
   0 C :   -0.398266
   1 C :   -0.898923
   2 C :   -0.452609
   3 C :   -0.544846
   4 H :    0.318485
   5 H :    0.306633
   6 S :    1.193088
   7 C :    0.599240
   8 N :   -0.359643
   9 N :   -0.280144
  10 H :    0.233917
  11 H :    0.122447
  12 H :    0.280771
  13 H :    0.159578
  14 H :    0.131482
  15 O :   -0.584864
  16 F :   -0.134443
  17 O :   -0.712070
  18 H :    0.184264
  19 H :    0.291327
  20 H :    0.332082
  21 H :    0.212494
Sum of atomic charges:   -0.0000000

LOEWDIN ATOMIC CHARGES
----------------------
   0 C :   -0.224190
   1 C :   -0.129915
   2 C :   -0.215989
   3 C :   -0.212870
   4 H :    0.113912
   5 H :    0.101556
   6 S :    0.641529
   7 C :   -0.537613
   8 N :    0.108736
   9 N :    0.152605
  10 H :    0.019147
  11 H :    0.107436
  12 H :    0.064575
  13 H :    0.102843
  14 H :    0.089896
  15 O :   -0.258153
  16 F :   -0.035511
  17 O :   -0.311029
  18 H :    0.102803
  19 H :    0.117987
  20 H :    0.094567
  21 H :    0.107681

  Mayer bond orders larger than 0.100000
B(  0-C ,  1-C ) :   0.6065 B(  0-C ,  2-C ) :   0.7345 B(  0-C , 20-H ) :   0.9165
B(  0-C , 21-H ) :   1.0660 B(  1-C ,  2-C ) :   0.1109 B(  1-C ,  3-C ) :   0.1024
B(  1-C ,  7-C ) :   1.3036 B(  1-C ,  8-N ) :   0.1691 B(  1-C ,  9-N ) :   0.1048
B(  1-C , 12-H ) :   1.0134 B(  2-C ,  3-C ) :   1.0288 B(  2-C ,  6-S ) :   0.1189
B(  2-C , 18-H ) :   0.9421 B(  2-C , 19-H ) :   0.9191 B(  3-C ,  4-H ) :   0.8825
B(  3-C ,  5-H ) :   0.9125 B(  3-C ,  6-S ) :   0.8082 B(  3-C , 15-O ) :   0.1010
B(  6-S , 15-O ) :   1.6409 B(  6-S , 16-F ) :   1.0070 B(  6-S , 17-O ) :   1.5881
B(  7-C ,  8-N ) :   0.8661 B(  7-C ,  9-N ) :   0.9552 B(  7-C , 10-H ) :  -0.1053
B(  7-C , 12-H ) :  -0.1225 B(  8-N , 13-H ) :   1.0079 B(  8-N , 14-H ) :   1.0607
B(  9-N , 10-H ) :   0.8448 B(  9-N , 11-H ) :   1.0388

Dispersion correction           -0.042312235
FINAL SINGLE POINT ENERGY      -955.017457471590

DIPOLE MOMENT
-------------
                                X             Y             Z
Electronic contribution:    -16.40265      -2.65485      -0.98281
Nuclear contribution   :     16.65743       2.74852       1.69529
                        -----------------------------------------
Total Dipole Moment    :      0.25478       0.09367       0.71247
                        -----------------------------------------
Magnitude (a.u.)       :      0.76243
Magnitude (Debye)      :      1.93795

Rotational constants in cm-1:     0.059907     0.020458     0.017675
Rotational constants in MHz :  1795.978106   613.328205   529.885290

                             ****ORCA TERMINATED NORMALLY****
TOTAL RUN TIME: 0 days 0 hours 3 minutes 30 seconds 34 msec
