                         Program Version 5.0.0 -  RELEASE  -
|  1> !B3LYP D3BJ RIJCOSX def2-TZVPD def2/J TightSCF xyzfile
|  2>
|  3> *xyzfile 0 1 D5.xyz
|  4>
|  5> %MaxCore 64000
|  6>
|  7> %pal nprocs 4
|  8> end
|  9>
| 10> %scf
| 11>   MaxIter 150
| 12> end
| 13>
| 14>
| 15>                          ****END OF INPUT****

CARTESIAN COORDINATES (ANGSTROEM)
---------------------------------
  C      3.380928    2.083045   -3.350127
  N      4.535924    1.182447   -3.428518
  C      2.495557    1.816150   -2.136364
  C      1.872181    0.427903   -2.077497
  H      2.614270   -0.365825   -2.198894
  H      1.389953    0.273087   -1.112360
  S      0.579024    0.140472   -3.297943
  C      4.671956    0.122273   -4.220598
  C      5.866023   -0.507849   -4.224284
  N      3.698881   -0.312844   -4.986988
  H      2.731405   -0.050091   -4.849000
  H      3.890046   -1.055172   -5.643730
  H      5.251933    1.303459   -2.721014
  H      6.695165   -0.062322   -3.851596
  H      5.975383   -1.396884   -4.691414
  O      0.228860   -1.246868   -3.127871
  F     -0.439269    1.118966   -3.014550
  O      1.247881    0.403474   -4.595647
  H      1.697003    2.561969   -2.141109
  H      3.080787    1.987436   -1.225838
  H      2.806463    1.986511   -4.268484
  H      3.778714    3.098282   -3.307383

 Total Charge           Charge          ....    0
 Multiplicity           Mult            ....    1
 Number of Electrons    NEL             ....   96
 Basis Dimension        Dim             ....  524

ORBITAL ENERGIES
----------------

  NO   OCC          E(Eh)            E(eV)
   0   2.0000     -89.121828     -2425.1282
   1   2.0000     -24.824020      -675.4959
   2   2.0000     -19.160081      -521.3723
   3   2.0000     -19.154365      -521.2168
   4   2.0000     -14.317113      -389.5884
   5   2.0000     -14.288224      -388.8023
   6   2.0000     -10.239240      -278.6239
   7   2.0000     -10.214020      -277.9376
   8   2.0000     -10.207713      -277.7660
   9   2.0000     -10.207382      -277.7570
  10   2.0000     -10.069725      -274.0111
  11   2.0000      -8.165973      -222.2074
  12   2.0000      -6.132726      -166.8800
  13   2.0000      -6.126600      -166.7133
  14   2.0000      -6.125880      -166.6937
  15   2.0000      -1.406953       -38.2851
  16   2.0000      -1.131136       -30.7798
  17   2.0000      -1.037930       -28.2435
  18   2.0000      -0.961481       -26.1632
  19   2.0000      -0.880740       -23.9662
  20   2.0000      -0.837798       -22.7976
  21   2.0000      -0.770091       -20.9552
  22   2.0000      -0.729582       -19.8529
  23   2.0000      -0.688698       -18.7404
  24   2.0000      -0.636964       -17.3327
  25   2.0000      -0.612641       -16.6708
  26   2.0000      -0.610557       -16.6141
  27   2.0000      -0.595512       -16.2047
  28   2.0000      -0.574779       -15.6405
  29   2.0000      -0.540647       -14.7117
  30   2.0000      -0.508170       -13.8280
  31   2.0000      -0.498066       -13.5531
  32   2.0000      -0.488316       -13.2878
  33   2.0000      -0.480936       -13.0869
  34   2.0000      -0.462623       -12.5886
  35   2.0000      -0.452188       -12.3047
  36   2.0000      -0.420142       -11.4326
  37   2.0000      -0.414305       -11.2738
  38   2.0000      -0.407913       -11.0999
  39   2.0000      -0.392682       -10.6854
  40   2.0000      -0.382389       -10.4053
  41   2.0000      -0.367504       -10.0003
  42   2.0000      -0.354153        -9.6370
  43   2.0000      -0.343861        -9.3569
  44   2.0000      -0.340901        -9.2764
  45   2.0000      -0.333971        -9.0878
  46   2.0000      -0.247739        -6.7413
  47   2.0000      -0.150926        -4.1069
  48   0.0000      -0.024892        -0.6774
  49   0.0000      -0.002587        -0.0704
  50   0.0000       0.011425         0.3109
  51   0.0000       0.013159         0.3581
  52   0.0000       0.022975         0.6252

MULLIKEN ATOMIC CHARGES
-----------------------
   0 C :   -0.622278
   1 N :   -0.194222
   2 C :   -0.395843
   3 C :   -0.554469
   4 H :    0.302656
   5 H :    0.311058
   6 S :    1.206576
   7 C :    0.664914
   8 C :   -1.272964
   9 N :   -0.281351
  10 H :    0.269959
  11 H :    0.126628
  12 H :    0.184181
  13 H :    0.253047
  14 H :    0.262027
  15 O :   -0.577794
  16 F :   -0.135713
  17 O :   -0.711058
  18 H :    0.253212
  19 H :    0.258391
  20 H :    0.403862
  21 H :    0.249181
Sum of atomic charges:   -0.0000000

LOEWDIN ATOMIC CHARGES
----------------------
   0 C :   -0.179204
   1 N :    0.034994
   2 C :   -0.199381
   3 C :   -0.209244
   4 H :    0.117416
   5 H :    0.103876
   6 S :    0.641558
   7 C :   -0.568487
   8 C :   -0.004220
   9 N :    0.147758
  10 H :    0.013350
  11 H :    0.119132
  12 H :    0.144306
  13 H :   -0.006128
  14 H :   -0.006763
  15 O :   -0.249859
  16 F :   -0.034204
  17 O :   -0.310557
  18 H :    0.108167
  19 H :    0.117579
  20 H :    0.103509
  21 H :    0.116403

  Mayer bond orders larger than 0.100000
B(  0-C ,  1-N ) :   0.8658 B(  0-C ,  2-C ) :   0.8521 B(  0-C ,  7-C ) :  -0.1025
B(  0-C , 20-H ) :   0.8508 B(  0-C , 21-H ) :   0.9647 B(  1-N ,  7-C ) :   1.1066
B(  1-N ,  8-C ) :   0.1488 B(  1-N , 12-H ) :   0.9555 B(  2-C ,  3-C ) :   0.9966
B(  2-C ,  6-S ) :   0.1175 B(  2-C , 18-H ) :   0.9646 B(  2-C , 19-H ) :   0.9119
B(  3-C ,  4-H ) :   0.8844 B(  3-C ,  5-H ) :   0.9212 B(  3-C ,  6-S ) :   0.8186
B(  3-C , 15-O ) :   0.1061 B(  6-S , 15-O ) :   1.6481 B(  6-S , 16-F ) :   1.0088
B(  6-S , 17-O ) :   1.5842 B(  7-C ,  8-C ) :   1.0989 B(  7-C ,  9-N ) :   1.0662
B(  7-C , 14-H ) :  -0.1000 B(  8-C , 13-H ) :   1.0237 B(  8-C , 14-H ) :   1.0682
B(  9-N , 10-H ) :   0.7984 B(  9-N , 11-H ) :   1.0221

Dispersion correction           -0.041863904
FINAL SINGLE POINT ENERGY      -955.001040943833

DIPOLE MOMENT
-------------
                                X             Y             Z
Electronic contribution:    -17.88050      -1.20035      -0.20421
Nuclear contribution   :     16.78714       2.58368       1.61768
                        -----------------------------------------
Total Dipole Moment    :     -1.09336       1.38333       1.41348
                        -----------------------------------------
Magnitude (a.u.)       :      2.25986
Magnitude (Debye)      :      5.74410

Rotational constants in cm-1:     0.059928     0.020911     0.017993
Rotational constants in MHz :  1796.610847   626.896941   539.414615

                             ****ORCA TERMINATED NORMALLY****
TOTAL RUN TIME: 0 days 0 hours 3 minutes 41 seconds 928 msec
