                         Program Version 5.0.0 -  RELEASE  -
|  1> !B3LYP D3BJ RIJCOSX def2-TZVPD def2/J TightSCF xyzfile
|  2>
|  3> *xyzfile 0 1 D6.xyz
|  4>
|  5> %MaxCore 64000
|  6>
|  7> %pal nprocs 4
|  8> end
|  9>
| 10> %scf
| 11>   MaxIter 150
| 12> end
| 13>
| 14>
| 15>                          ****END OF INPUT****

CARTESIAN COORDINATES (ANGSTROEM)
---------------------------------
  C      3.380928    2.083045   -3.350127
  N      4.535924    1.182447   -3.428518
  C      2.495557    1.816150   -2.136364
  C      1.872181    0.427903   -2.077497
  H      2.614270   -0.365825   -2.198894
  H      1.389953    0.273087   -1.112360
  S      0.579024    0.140472   -3.297943
  C      4.671956    0.122273   -4.220598
  N      5.866023   -0.507849   -4.224284
  C      3.698881   -0.312844   -4.986988
  H      2.731405   -0.050091   -4.849000
  H      3.890046   -1.055172   -5.643730
  H      5.251933    1.303459   -2.721014
  H      6.695165   -0.062322   -3.851596
  H      5.975383   -1.396884   -4.691414
  O      0.228860   -1.246868   -3.127871
  F     -0.439269    1.118966   -3.014550
  O      1.247881    0.403474   -4.595647
  H      1.697003    2.561969   -2.141109
  H      3.080787    1.987436   -1.225838
  H      2.806463    1.986511   -4.268484
  H      3.778714    3.098282   -3.307383

 Total Charge           Charge          ....    0
 Multiplicity           Mult            ....    1
 Number of Electrons    NEL             ....   96
 Basis Dimension        Dim             ....  524

ORBITAL ENERGIES
----------------

  NO   OCC          E(Eh)            E(eV)
   0   2.0000     -89.099105     -2424.5099
   1   2.0000     -24.804361      -674.9610
   2   2.0000     -19.140389      -520.8365
   3   2.0000     -19.127017      -520.4726
   4   2.0000     -14.317590      -389.6014
   5   2.0000     -14.306057      -389.2876
   6   2.0000     -10.225022      -278.2370
   7   2.0000     -10.207782      -277.7679
   8   2.0000     -10.203829      -277.6603
   9   2.0000     -10.199471      -277.5417
  10   2.0000     -10.058842      -273.7150
  11   2.0000      -8.143393      -221.5930
  12   2.0000      -6.110251      -166.2684
  13   2.0000      -6.103687      -166.0898
  14   2.0000      -6.103509      -166.0849
  15   2.0000      -1.387685       -37.7608
  16   2.0000      -1.108749       -30.1706
  17   2.0000      -1.013360       -27.5749
  18   2.0000      -0.960162       -26.1273
  19   2.0000      -0.879297       -23.9269
  20   2.0000      -0.825024       -22.4500
  21   2.0000      -0.751329       -20.4447
  22   2.0000      -0.718871       -19.5615
  23   2.0000      -0.695946       -18.9376
  24   2.0000      -0.642998       -17.4969
  25   2.0000      -0.598523       -16.2866
  26   2.0000      -0.590839       -16.0775
  27   2.0000      -0.568795       -15.4777
  28   2.0000      -0.553689       -15.0666
  29   2.0000      -0.533926       -14.5289
  30   2.0000      -0.515039       -14.0149
  31   2.0000      -0.493279       -13.4228
  32   2.0000      -0.487101       -13.2547
  33   2.0000      -0.464326       -12.6349
  34   2.0000      -0.451154       -12.2765
  35   2.0000      -0.444931       -12.1072
  36   2.0000      -0.415460       -11.3052
  37   2.0000      -0.399663       -10.8754
  38   2.0000      -0.394773       -10.7423
  39   2.0000      -0.386926       -10.5288
  40   2.0000      -0.377065       -10.2605
  41   2.0000      -0.366997        -9.9865
  42   2.0000      -0.350720        -9.5436
  43   2.0000      -0.326021        -8.8715
  44   2.0000      -0.311680        -8.4812
  45   2.0000      -0.298085        -8.1113
  46   2.0000      -0.247867        -6.7448
  47   2.0000      -0.161560        -4.3963
  48   0.0000      -0.015208        -0.4138
  49   0.0000       0.001054         0.0287
  50   0.0000       0.011262         0.3064
  51   0.0000       0.017981         0.4893
  52   0.0000       0.031605         0.8600

MULLIKEN ATOMIC CHARGES
-----------------------
   0 C :   -0.619357
   1 N :   -0.219250
   2 C :   -0.417869
   3 C :   -0.518249
   4 H :    0.302492
   5 H :    0.300097
   6 S :    1.180559
   7 C :    0.931312
   8 N :   -0.371507
   9 C :   -1.473836
  10 H :    0.426851
  11 H :    0.224249
  12 H :    0.178595
  13 H :    0.130977
  14 H :    0.149571
  15 O :   -0.595884
  16 F :   -0.143325
  17 O :   -0.590142
  18 H :    0.240945
  19 H :    0.256945
  20 H :    0.399184
  21 H :    0.227642
Sum of atomic charges:   -0.0000000

LOEWDIN ATOMIC CHARGES
----------------------
   0 C :   -0.173757
   1 N :    0.025589
   2 C :   -0.198578
   3 C :   -0.210308
   4 H :    0.114249
   5 H :    0.101206
   6 S :    0.630913
   7 C :   -0.552934
   8 N :    0.105884
   9 C :    0.029552
  10 H :   -0.051789
  11 H :    0.024076
  12 H :    0.135189
  13 H :    0.089246
  14 H :    0.101521
  15 O :   -0.257916
  16 F :   -0.043097
  17 O :   -0.316224
  18 H :    0.108102
  19 H :    0.114387
  20 H :    0.108044
  21 H :    0.116646

  Mayer bond orders larger than 0.100000
B(  0-C ,  1-N ) :   0.9195 B(  0-C ,  2-C ) :   0.8482 B(  0-C , 20-H ) :   0.8429
B(  0-C , 21-H ) :   0.9627 B(  1-N ,  7-C ) :   1.0293 B(  1-N , 12-H ) :   0.9715
B(  2-C ,  3-C ) :   1.0077 B(  2-C ,  6-S ) :   0.1368 B(  2-C , 18-H ) :   0.9501
B(  2-C , 19-H ) :   0.9129 B(  3-C ,  4-H ) :   0.9011 B(  3-C ,  5-H ) :   0.9340
B(  3-C ,  6-S ) :   0.7818 B(  3-C , 15-O ) :   0.1220 B(  6-S , 15-O ) :   1.6180
B(  6-S , 16-F ) :   1.0054 B(  6-S , 17-O ) :   1.6448 B(  7-C ,  8-N ) :   0.8891
B(  7-C ,  9-C ) :   0.8928 B(  7-C , 11-H ) :  -0.1762 B(  8-N , 13-H ) :   1.0497
B(  8-N , 14-H ) :   1.0261 B(  9-C , 10-H ) :   0.9829 B(  9-C , 11-H ) :   1.1978
B(  9-C , 17-O ) :   0.1095 B( 10-H , 17-O ) :  -0.2877

Dispersion correction           -0.042278460
FINAL SINGLE POINT ENERGY      -954.985889733122

DIPOLE MOMENT
-------------
                                X             Y             Z
Electronic contribution:    -15.83852      -1.43503       0.20931
Nuclear contribution   :     16.57580       2.60270       1.54331
                        -----------------------------------------
Total Dipole Moment    :      0.73728       1.16767       1.75262
                        -----------------------------------------
Magnitude (a.u.)       :      2.23130
Magnitude (Debye)      :      5.67152

Rotational constants in cm-1:     0.060402     0.020377     0.017632
Rotational constants in MHz :  1810.792194   610.900365   528.582827

                             ****ORCA TERMINATED NORMALLY****
TOTAL RUN TIME: 0 days 0 hours 3 minutes 12 seconds 466 msec
