                         Program Version 5.0.0 -  RELEASE  -
|  1> !B3LYP D3BJ RIJCOSX def2-TZVPD def2/J TightSCF xyzfile
|  2>
|  3> *xyzfile 0 1 D7.xyz
|  4>
|  5> %MaxCore 64000
|  6>
|  7> %pal nprocs 4
|  8> end
|  9>
| 10> %scf
| 11>   MaxIter 150
| 12> end
| 13>
| 14>
| 15>                          ****END OF INPUT****

CARTESIAN COORDINATES (ANGSTROEM)
---------------------------------
  C      3.380928    2.083045   -3.350127
  C      4.535924    1.182447   -3.428518
  C      2.495557    1.816150   -2.136364
  C      1.872181    0.427903   -2.077497
  H      2.614270   -0.365825   -2.198894
  H      1.389953    0.273087   -1.112360
  S      0.579024    0.140472   -3.297943
  C      4.671956    0.122273   -4.220598
  N      5.866023   -0.507849   -4.224284
  N      3.698881   -0.312844   -4.986988
  H      2.731405   -0.050091   -4.849000
  H      3.890046   -1.055172   -5.643730
  H      5.251933    1.303459   -2.721014
  H      6.695165   -0.062322   -3.851596
  H      5.975383   -1.396884   -4.691414
  O      0.228860   -1.246868   -3.127871
  O     -0.439269    1.118966   -3.014550
  F      1.247881    0.403474   -4.595647
  H      1.697003    2.561969   -2.141109
  H      3.080787    1.987436   -1.225838
  H      2.806463    1.986511   -4.268484
  H      3.778714    3.098282   -3.307383

 Total Charge           Charge          ....    0
 Multiplicity           Mult            ....    1
 Number of Electrons    NEL             ....   96
 Basis Dimension        Dim             ....  524

ORBITAL ENERGIES
----------------

  NO   OCC          E(Eh)            E(eV)
   0   2.0000     -89.098364     -2424.4898
   1   2.0000     -24.798998      -674.8150
   2   2.0000     -19.143105      -520.9104
   3   2.0000     -19.142473      -520.8932
   4   2.0000     -14.321572      -389.7098
   5   2.0000     -14.321045      -389.6954
   6   2.0000     -10.224854      -278.2324
   7   2.0000     -10.216802      -278.0133
   8   2.0000     -10.179473      -276.9975
   9   2.0000     -10.161134      -276.4985
  10   2.0000     -10.104759      -274.9645
  11   2.0000      -8.143106      -221.5852
  12   2.0000      -6.110387      -166.2721
  13   2.0000      -6.103095      -166.0737
  14   2.0000      -6.102985      -166.0707
  15   2.0000      -1.373000       -37.3612
  16   2.0000      -1.121336       -30.5131
  17   2.0000      -1.030507       -28.0415
  18   2.0000      -0.970937       -26.4206
  19   2.0000      -0.880009       -23.9463
  20   2.0000      -0.827265       -22.5110
  21   2.0000      -0.766704       -20.8631
  22   2.0000      -0.732243       -19.9253
  23   2.0000      -0.688189       -18.7266
  24   2.0000      -0.644612       -17.5408
  25   2.0000      -0.598372       -16.2825
  26   2.0000      -0.588727       -16.0201
  27   2.0000      -0.574674       -15.6377
  28   2.0000      -0.553205       -15.0535
  29   2.0000      -0.548038       -14.9129
  30   2.0000      -0.515549       -14.0288
  31   2.0000      -0.492779       -13.4092
  32   2.0000      -0.479737       -13.0543
  33   2.0000      -0.472888       -12.8679
  34   2.0000      -0.460735       -12.5372
  35   2.0000      -0.455007       -12.3814
  36   2.0000      -0.415342       -11.3020
  37   2.0000      -0.408647       -11.1199
  38   2.0000      -0.406475       -11.0607
  39   2.0000      -0.387379       -10.5411
  40   2.0000      -0.365485        -9.9454
  41   2.0000      -0.353659        -9.6235
  42   2.0000      -0.344977        -9.3873
  43   2.0000      -0.339802        -9.2465
  44   2.0000      -0.329817        -8.9748
  45   2.0000      -0.323749        -8.8097
  46   2.0000      -0.273627        -7.4458
  47   2.0000      -0.173615        -4.7243
  48   0.0000      -0.011607        -0.3158
  49   0.0000       0.002215         0.0603
  50   0.0000       0.012325         0.3354
  51   0.0000       0.023102         0.6286
  52   0.0000       0.032068         0.8726

MULLIKEN ATOMIC CHARGES
-----------------------
   0 C :   -0.388777
   1 C :   -0.828795
   2 C :   -0.495908
   3 C :   -0.504092
   4 H :    0.306172
   5 H :    0.305266
   6 S :    1.164530
   7 C :    0.598285
   8 N :   -0.364160
   9 N :   -0.326585
  10 H :    0.295118
  11 H :    0.129061
  12 H :    0.283425
  13 H :    0.163110
  14 H :    0.132739
  15 O :   -0.587324
  16 O :   -0.575391
  17 F :   -0.294461
  18 H :    0.189100
  19 H :    0.309044
  20 H :    0.287250
  21 H :    0.202394
Sum of atomic charges:    0.0000000

LOEWDIN ATOMIC CHARGES
----------------------
   0 C :   -0.219906
   1 C :   -0.125835
   2 C :   -0.214840
   3 C :   -0.214716
   4 H :    0.104571
   5 H :    0.111889
   6 S :    0.610596
   7 C :   -0.536366
   8 N :    0.112218
   9 N :    0.152103
  10 H :    0.045833
  11 H :    0.110555
  12 H :    0.069150
  13 H :    0.105865
  14 H :    0.091623
  15 O :   -0.263932
  16 O :   -0.255727
  17 F :   -0.115491
  18 H :    0.107107
  19 H :    0.118998
  20 H :    0.095435
  21 H :    0.110871

  Mayer bond orders larger than 0.100000
B(  0-C ,  1-C ) :   0.6015 B(  0-C ,  2-C ) :   0.7094 B(  0-C , 12-H ) :  -0.1043
B(  0-C , 20-H ) :   0.9102 B(  0-C , 21-H ) :   1.0731 B(  1-C ,  7-C ) :   1.3231
B(  1-C ,  8-N ) :   0.1698 B(  1-C ,  9-N ) :   0.1027 B(  1-C , 12-H ) :   1.0033
B(  2-C ,  3-C ) :   1.0792 B(  2-C ,  6-S ) :   0.1453 B(  2-C , 18-H ) :   0.9983
B(  2-C , 19-H ) :   0.8915 B(  3-C ,  4-H ) :   0.9166 B(  3-C ,  5-H ) :   0.8923
B(  3-C ,  6-S ) :   0.7819 B(  3-C , 15-O ) :   0.1028 B(  6-S , 15-O ) :   1.6230
B(  6-S , 16-O ) :   1.6449 B(  6-S , 17-F ) :   0.9992 B(  7-C ,  8-N ) :   0.8606
B(  7-C ,  9-N ) :   0.9384 B(  7-C , 12-H ) :  -0.1155 B(  8-N , 13-H ) :   1.0067
B(  8-N , 14-H ) :   1.0601 B(  9-N , 10-H ) :   0.8454 B(  9-N , 11-H ) :   1.0440

Dispersion correction           -0.041912823
FINAL SINGLE POINT ENERGY      -955.022890871554

DIPOLE MOMENT
-------------
                                X             Y             Z
Electronic contribution:    -13.21939      -3.83558      -3.65066
Nuclear contribution   :     14.80811       3.53278       3.42836
                        -----------------------------------------
Total Dipole Moment    :      1.58872      -0.30279      -0.22231
                        -----------------------------------------
Magnitude (a.u.)       :      1.63252
Magnitude (Debye)      :      4.14954

Rotational constants in cm-1:     0.059173     0.020923     0.018056
Rotational constants in MHz :  1773.956621   627.264018   541.303397

                             ****ORCA TERMINATED NORMALLY****
TOTAL RUN TIME: 0 days 0 hours 3 minutes 10 seconds 311 msec
