                         Program Version 5.0.0 -  RELEASE  -
|  1> !B3LYP D3BJ RIJCOSX def2-TZVPD def2/J TightSCF xyzfile
|  2>
|  3> *xyzfile 0 1 D8.xyz
|  4>
|  5> %MaxCore 64000
|  6>
|  7> %pal nprocs 4
|  8> end
|  9>
| 10> %scf
| 11>   MaxIter 150
| 12> end
| 13>
| 14>
| 15>                          ****END OF INPUT****

CARTESIAN COORDINATES (ANGSTROEM)
---------------------------------
  C      3.380928    2.083045   -3.350127
  N      4.535924    1.182447   -3.428518
  C      2.495557    1.816150   -2.136364
  C      1.872181    0.427903   -2.077497
  H      2.614270   -0.365825   -2.198894
  H      1.389953    0.273087   -1.112360
  S      0.579024    0.140472   -3.297943
  C      4.671956    0.122273   -4.220598
  C      5.866023   -0.507849   -4.224284
  N      3.698881   -0.312844   -4.986988
  H      2.731405   -0.050091   -4.849000
  H      3.890046   -1.055172   -5.643730
  H      5.251933    1.303459   -2.721014
  H      6.695165   -0.062322   -3.851596
  H      5.975383   -1.396884   -4.691414
  O      0.228860   -1.246868   -3.127871
  O     -0.439269    1.118966   -3.014550
  F      1.247881    0.403474   -4.595647
  H      1.697003    2.561969   -2.141109
  H      3.080787    1.987436   -1.225838
  H      2.806463    1.986511   -4.268484
  H      3.778714    3.098282   -3.307383

 Total Charge           Charge          ....    0
 Multiplicity           Mult            ....    1
 Number of Electrons    NEL             ....   96
 Basis Dimension        Dim             ....  524

ORBITAL ENERGIES
----------------

  NO   OCC          E(Eh)            E(eV)
   0   2.0000     -89.111302     -2424.8418
   1   2.0000     -24.810305      -675.1227
   2   2.0000     -19.155043      -521.2352
   3   2.0000     -19.154206      -521.2124
   4   2.0000     -14.329496      -389.9254
   5   2.0000     -14.318355      -389.6223
   6   2.0000     -10.235142      -278.5124
   7   2.0000     -10.227475      -278.3037
   8   2.0000     -10.224337      -278.2184
   9   2.0000     -10.206226      -277.7255
  10   2.0000     -10.085455      -274.4392
  11   2.0000      -8.155917      -221.9338
  12   2.0000      -6.123160      -166.6196
  13   2.0000      -6.116041      -166.4259
  14   2.0000      -6.115758      -166.4182
  15   2.0000      -1.384516       -37.6746
  16   2.0000      -1.133158       -30.8348
  17   2.0000      -1.042189       -28.3594
  18   2.0000      -0.979768       -26.6608
  19   2.0000      -0.900441       -24.5022
  20   2.0000      -0.838131       -22.8067
  21   2.0000      -0.773172       -21.0391
  22   2.0000      -0.727672       -19.8010
  23   2.0000      -0.703473       -19.1425
  24   2.0000      -0.644270       -17.5315
  25   2.0000      -0.616202       -16.7677
  26   2.0000      -0.610392       -16.6096
  27   2.0000      -0.595026       -16.1915
  28   2.0000      -0.564481       -15.3603
  29   2.0000      -0.538322       -14.6485
  30   2.0000      -0.516859       -14.0644
  31   2.0000      -0.498817       -13.5735
  32   2.0000      -0.492352       -13.3976
  33   2.0000      -0.486166       -13.2293
  34   2.0000      -0.471550       -12.8315
  35   2.0000      -0.460477       -12.5302
  36   2.0000      -0.428927       -11.6717
  37   2.0000      -0.411765       -11.2047
  38   2.0000      -0.408355       -11.1119
  39   2.0000      -0.395984       -10.7753
  40   2.0000      -0.388897       -10.5824
  41   2.0000      -0.381276       -10.3750
  42   2.0000      -0.363596        -9.8939
  43   2.0000      -0.356129        -9.6908
  44   2.0000      -0.344806        -9.3827
  45   2.0000      -0.337448        -9.1824
  46   2.0000      -0.266217        -7.2441
  47   2.0000      -0.166970        -4.5435
  48   0.0000      -0.018268        -0.4971
  49   0.0000      -0.000916        -0.0249
  50   0.0000       0.008719         0.2373
  51   0.0000       0.011961         0.3255
  52   0.0000       0.031622         0.8605

MULLIKEN ATOMIC CHARGES
-----------------------
   0 C :   -0.632191
   1 N :   -0.170179
   2 C :   -0.413132
   3 C :   -0.508879
   4 H :    0.287048
   5 H :    0.305064
   6 S :    1.177323
   7 C :    0.721984
   8 C :   -1.281958
   9 N :   -0.325481
  10 H :    0.328811
  11 H :    0.133025
  12 H :    0.184471
  13 H :    0.255284
  14 H :    0.262402
  15 O :   -0.580262
  16 O :   -0.573967
  17 F :   -0.300501
  18 H :    0.257131
  19 H :    0.271873
  20 H :    0.362866
  21 H :    0.239268
Sum of atomic charges:   -0.0000000

LOEWDIN ATOMIC CHARGES
----------------------
   0 C :   -0.176427
   1 N :    0.035461
   2 C :   -0.199704
   3 C :   -0.212273
   4 H :    0.107478
   5 H :    0.113932
   6 S :    0.611461
   7 C :   -0.565337
   8 C :    0.004895
   9 N :    0.147236
  10 H :    0.039533
  11 H :    0.122032
  12 H :    0.147353
  13 H :   -0.000628
  14 H :   -0.003246
  15 O :   -0.255936
  16 O :   -0.253613
  17 F :   -0.116154
  18 H :    0.111809
  19 H :    0.118395
  20 H :    0.104877
  21 H :    0.118855

  Mayer bond orders larger than 0.100000
B(  0-C ,  1-N ) :   0.8745 B(  0-C ,  2-C ) :   0.8080 B(  0-C ,  7-C ) :  -0.1105
B(  0-C , 20-H ) :   0.8376 B(  0-C , 21-H ) :   0.9906 B(  1-N ,  7-C ) :   1.1044
B(  1-N ,  8-C ) :   0.1499 B(  1-N , 12-H ) :   0.9509 B(  2-C ,  3-C ) :   1.0358
B(  2-C ,  6-S ) :   0.1389 B(  2-C , 18-H ) :   1.0097 B(  2-C , 19-H ) :   0.8904
B(  3-C ,  4-H ) :   0.9171 B(  3-C ,  5-H ) :   0.9047 B(  3-C ,  6-S ) :   0.7947
B(  3-C , 15-O ) :   0.1066 B(  6-S , 15-O ) :   1.6320 B(  6-S , 16-O ) :   1.6452
B(  6-S , 17-F ) :   0.9952 B(  7-C ,  8-C ) :   1.0535 B(  7-C ,  9-N ) :   1.0361
B(  7-C , 14-H ) :  -0.1087 B(  8-C , 13-H ) :   1.0183 B(  8-C , 14-H ) :   1.0709
B(  9-N , 10-H ) :   0.7994 B(  9-N , 11-H ) :   1.0217

Dispersion correction           -0.041474239
FINAL SINGLE POINT ENERGY      -955.007484097438

DIPOLE MOMENT
-------------
                                X             Y             Z
Electronic contribution:    -14.65344      -2.42401      -2.89864
Nuclear contribution   :     14.93782       3.36795       3.35075
                        -----------------------------------------
Total Dipole Moment    :      0.28438       0.94394       0.45212
                        -----------------------------------------
Magnitude (a.u.)       :      1.08457
Magnitude (Debye)      :      2.75676

Rotational constants in cm-1:     0.059219     0.021387     0.018380
Rotational constants in MHz :  1775.354399   641.172207   551.019443

                             ****ORCA TERMINATED NORMALLY****
TOTAL RUN TIME: 0 days 0 hours 3 minutes 28 seconds 446 msec
