                         Program Version 5.0.0 -  RELEASE  -
|  1> !B3LYP D3BJ RIJCOSX def2-TZVPD def2/J TightSCF xyzfile
|  2>
|  3> *xyzfile 0 1 D9.xyz
|  4>
|  5> %MaxCore 64000
|  6>
|  7> %pal nprocs 4
|  8> end
|  9>
| 10> %scf
| 11>   MaxIter 150
| 12> end
| 13>
| 14>
| 15>                          ****END OF INPUT****

CARTESIAN COORDINATES (ANGSTROEM)
---------------------------------
  C      3.380928    2.083045   -3.350127
  N      4.535924    1.182447   -3.428518
  C      2.495557    1.816150   -2.136364
  C      1.872181    0.427903   -2.077497
  H      2.614270   -0.365825   -2.198894
  H      1.389953    0.273087   -1.112360
  S      0.579024    0.140472   -3.297943
  C      4.671956    0.122273   -4.220598
  N      5.866023   -0.507849   -4.224284
  C      3.698881   -0.312844   -4.986988
  H      2.731405   -0.050091   -4.849000
  H      3.890046   -1.055172   -5.643730
  H      5.251933    1.303459   -2.721014
  H      6.695165   -0.062322   -3.851596
  H      5.975383   -1.396884   -4.691414
  O      0.228860   -1.246868   -3.127871
  O     -0.439269    1.118966   -3.014550
  F      1.247881    0.403474   -4.595647
  H      1.697003    2.561969   -2.141109
  H      3.080787    1.987436   -1.225838
  H      2.806463    1.986511   -4.268484
  H      3.778714    3.098282   -3.307383

 Total Charge           Charge          ....    0
 Multiplicity           Mult            ....    1
 Number of Electrons    NEL             ....   96
 Basis Dimension        Dim             ....  524

ORBITAL ENERGIES
----------------

  NO   OCC          E(Eh)            E(eV)
   0   2.0000     -89.093719     -2424.3634
   1   2.0000     -24.779843      -674.2938
   2   2.0000     -19.138220      -520.7774
   3   2.0000     -19.136681      -520.7356
   4   2.0000     -14.331426      -389.9779
   5   2.0000     -14.321286      -389.7020
   6   2.0000     -10.223802      -278.2038
   7   2.0000     -10.221776      -278.1487
   8   2.0000     -10.221203      -278.1331
   9   2.0000     -10.198709      -277.5210
  10   2.0000     -10.084158      -274.4039
  11   2.0000      -8.138024      -221.4469
  12   2.0000      -6.104998      -166.1254
  13   2.0000      -6.098432      -165.9468
  14   2.0000      -6.098022      -165.9356
  15   2.0000      -1.355508       -36.8852
  16   2.0000      -1.115371       -30.3508
  17   2.0000      -1.025332       -27.9007
  18   2.0000      -0.975558       -26.5463
  19   2.0000      -0.893297       -24.3078
  20   2.0000      -0.824975       -22.4487
  21   2.0000      -0.750267       -20.4158
  22   2.0000      -0.732121       -19.9220
  23   2.0000      -0.695728       -18.9317
  24   2.0000      -0.651857       -17.7379
  25   2.0000      -0.588390       -16.0109
  26   2.0000      -0.583682       -15.8828
  27   2.0000      -0.564495       -15.3607
  28   2.0000      -0.555425       -15.1139
  29   2.0000      -0.544013       -14.8033
  30   2.0000      -0.519003       -14.1228
  31   2.0000      -0.495783       -13.4909
  32   2.0000      -0.480971       -13.0879
  33   2.0000      -0.467061       -12.7094
  34   2.0000      -0.463740       -12.6190
  35   2.0000      -0.448017       -12.1911
  36   2.0000      -0.418359       -11.3841
  37   2.0000      -0.412605       -11.2275
  38   2.0000      -0.399017       -10.8578
  39   2.0000      -0.387146       -10.5348
  40   2.0000      -0.382671       -10.4130
  41   2.0000      -0.373310       -10.1583
  42   2.0000      -0.357879        -9.7384
  43   2.0000      -0.340234        -9.2582
  44   2.0000      -0.329512        -8.9665
  45   2.0000      -0.320667        -8.7258
  46   2.0000      -0.261131        -7.1057
  47   2.0000      -0.181444        -4.9373
  48   0.0000      -0.013863        -0.3772
  49   0.0000       0.002730         0.0743
  50   0.0000       0.010834         0.2948
  51   0.0000       0.016988         0.4623
  52   0.0000       0.034964         0.9514

MULLIKEN ATOMIC CHARGES
-----------------------
   0 C :   -0.634367
   1 N :   -0.195541
   2 C :   -0.444753
   3 C :   -0.479795
   4 H :    0.302473
   5 H :    0.299335
   6 S :    1.184914
   7 C :    0.952252
   8 N :   -0.371995
   9 C :   -1.546877
  10 H :    0.497913
  11 H :    0.221767
  12 H :    0.182682
  13 H :    0.136778
  14 H :    0.151794
  15 O :   -0.597278
  16 O :   -0.587490
  17 F :   -0.182083
  18 H :    0.249093
  19 H :    0.267725
  20 H :    0.374482
  21 H :    0.218971
Sum of atomic charges:   -0.0000000

LOEWDIN ATOMIC CHARGES
----------------------
   0 C :   -0.170940
   1 N :    0.028934
   2 C :   -0.198524
   3 C :   -0.212821
   4 H :    0.105098
   5 H :    0.111368
   6 S :    0.608298
   7 C :   -0.548499
   8 N :    0.113714
   9 C :    0.026499
  10 H :   -0.032135
  11 H :    0.024387
  12 H :    0.139126
  13 H :    0.093995
  14 H :    0.104260
  15 O :   -0.261182
  16 O :   -0.262063
  17 F :   -0.124772
  18 H :    0.111734
  19 H :    0.115259
  20 H :    0.109126
  21 H :    0.119138

  Mayer bond orders larger than 0.100000
B(  0-C ,  1-N ) :   0.9246 B(  0-C ,  2-C ) :   0.8111 B(  0-C , 20-H ) :   0.8261
B(  0-C , 21-H ) :   0.9899 B(  1-N ,  7-C ) :   1.0418 B(  1-N , 12-H ) :   0.9657
B(  2-C ,  3-C ) :   1.0473 B(  2-C ,  6-S ) :   0.1495 B(  2-C , 18-H ) :   0.9935
B(  2-C , 19-H ) :   0.8936 B(  3-C ,  4-H ) :   0.9205 B(  3-C ,  5-H ) :   0.9164
B(  3-C ,  6-S ) :   0.7716 B(  3-C , 15-O ) :   0.1239 B(  6-S , 15-O ) :   1.6107
B(  6-S , 16-O ) :   1.6318 B(  6-S , 17-F ) :   1.0407 B(  7-C ,  8-N ) :   0.8921
B(  7-C ,  9-C ) :   0.9338 B(  7-C , 11-H ) :  -0.1538 B(  8-N , 13-H ) :   1.0429
B(  8-N , 14-H ) :   1.0227 B(  9-C , 10-H ) :   0.8644 B(  9-C , 11-H ) :   1.1852
B(  9-C , 17-F ) :   0.1455 B( 10-H , 17-F ) :  -0.2902

Dispersion correction           -0.041869844
FINAL SINGLE POINT ENERGY      -955.005127266568

DIPOLE MOMENT
-------------
                                X             Y             Z
Electronic contribution:    -12.65751      -2.64128      -2.43708
Nuclear contribution   :     14.72648       3.38697       3.27638
                        -----------------------------------------
Total Dipole Moment    :      2.06898       0.74568       0.83930
                        -----------------------------------------
Magnitude (a.u.)       :      2.35396
Magnitude (Debye)      :      5.98329

Rotational constants in cm-1:     0.059651     0.020833     0.018010
Rotational constants in MHz :  1788.283887   624.555661   539.921162

                             ****ORCA TERMINATED NORMALLY****
TOTAL RUN TIME: 0 days 0 hours 3 minutes 27 seconds 117 msec
