                         Program Version 5.0.0 -  RELEASE  -
|  1> !LC-PBE RIJCOSX def2-SVPD def2/J TightSCF
|  2>
|  3> *xyz -1 1
|  4> C          2.95263        1.86308       -3.57485
|  5> C          4.12921        0.89839       -3.41895
|  6> H          3.73369       -0.10060       -3.23763
|  7> H          4.71910        0.86256       -4.33901
|  8> C          5.01734        1.31521       -2.22130
|  9> O          4.73706        0.85411       -1.12283
| 10> O          5.92815        2.16811       -2.49136
| 11> H          2.35067        1.56005       -4.40594
| 12> H          3.32277        2.85258       -3.74453
| 13> H          2.36134        1.85149       -2.68315
| 14> *
| 15> %MaxCore 64000
| 16>
| 17> %pal nprocs 4
| 18> end
| 19>
| 20> %scf
| 21>   MaxIter 150
| 22> end
| 23>
| 24>
| 25>                          ****END OF INPUT****

CARTESIAN COORDINATES (ANGSTROEM)
---------------------------------
  C      2.952630    1.863080   -3.574850
  C      4.129210    0.898390   -3.418950
  H      3.733690   -0.100600   -3.237630
  H      4.719100    0.862560   -4.339010
  C      5.017340    1.315210   -2.221300
  O      4.737060    0.854110   -1.122830
  O      5.928150    2.168110   -2.491360
  H      2.350670    1.560050   -4.405940
  H      3.322770    2.852580   -3.744530
  H      2.361340    1.851490   -2.683150

 Total Charge           Charge          ....   -1
 Multiplicity           Mult            ....    1
 Number of Electrons    NEL             ....   40
 Basis Dimension        Dim             ....  146

ORBITAL ENERGIES
----------------

  NO   OCC          E(Eh)            E(eV)
   0   2.0000     -18.734633      -509.7953
   1   2.0000     -18.722651      -509.4692
   2   2.0000     -10.019034      -272.6318
   3   2.0000      -9.966744      -271.2089
   4   2.0000      -9.953077      -270.8370
   5   2.0000      -0.986780       -26.8517
   6   2.0000      -0.879936       -23.9443
   7   2.0000      -0.778250       -21.1773
   8   2.0000      -0.630375       -17.1534
   9   2.0000      -0.471199       -12.8220
  10   2.0000      -0.437315       -11.9000
  11   2.0000      -0.403561       -10.9815
  12   2.0000      -0.378860       -10.3093
  13   2.0000      -0.353035        -9.6066
  14   2.0000      -0.352222        -9.5845
  15   2.0000      -0.312759        -8.5106
  16   2.0000      -0.309650        -8.4260
  17   2.0000      -0.180948        -4.9238
  18   2.0000      -0.173212        -4.7133
  19   2.0000      -0.164967        -4.4890
  20   0.0000       0.221939         6.0393
  21   0.0000       0.254057         6.9132
  22   0.0000       0.263915         7.1815
  23   0.0000       0.294071         8.0021
  24   0.0000       0.313841         8.5400

MULLIKEN ATOMIC CHARGES
-----------------------
   0 C :    0.287401
   1 C :   -0.433854
   2 H :    0.063587
   3 H :    0.047105
   4 C :    0.310841
   5 O :   -0.584963
   6 O :   -0.684122
   7 H :   -0.015834
   8 H :    0.003311
   9 H :    0.006527
Sum of atomic charges:   -1.0000000

LOEWDIN ATOMIC CHARGES
----------------------
   0 C :    0.070715
   1 C :   -0.068434
   2 H :    0.011415
   3 H :    0.016045
   4 C :   -0.332327
   5 O :   -0.300019
   6 O :   -0.346934
   7 H :   -0.029535
   8 H :   -0.010682
   9 H :   -0.010244

  Mayer bond orders larger than 0.100000
B(  0-C ,  1-C ) :   1.3071 B(  0-C ,  7-H ) :   0.8889 B(  0-C ,  8-H ) :   0.8874
B(  0-C ,  9-H ) :   0.8783 B(  1-C ,  2-H ) :   0.9468 B(  1-C ,  3-H ) :   0.9641
B(  1-C ,  4-C ) :   1.0020 B(  1-C ,  7-H ) :   0.1094 B(  1-C ,  8-H ) :   0.1466
B(  1-C ,  9-H ) :   0.1504 B(  4-C ,  5-O ) :   1.6237 B(  4-C ,  6-O ) :   1.5484

FINAL SINGLE POINT ENERGY      -266.873634914190

DIPOLE MOMENT
-------------
                                X             Y             Z
Electronic contribution:      4.33641      -0.23468       3.81548
Nuclear contribution   :     -5.85873      -0.10793      -5.24103
                        -----------------------------------------
Total Dipole Moment    :     -1.52231      -0.34261      -1.42555
                        -----------------------------------------
Magnitude (a.u.)       :      2.11353
Magnitude (Debye)      :      5.37217

Rotational constants in cm-1:     0.292505     0.135951     0.110253
Rotational constants in MHz :  8769.065873  4075.717001  3305.311891

                             ****ORCA TERMINATED NORMALLY****
TOTAL RUN TIME: 0 days 0 hours 0 minutes 19 seconds 57 msec
