                         Program Version 5.0.0 -  RELEASE  -
|  1> !LC-PBE RIJCOSX def2-SVPD def2/J TightSCF
|  2>
|  3> *xyz 1 1
|  4> C          3.34350        3.35457       -3.59200
|  5> C          2.95263        1.86308       -3.57485
|  6> C          4.25587        3.70385       -4.72605
|  7> N          3.73403        4.29378       -5.80077
|  8> N          5.51504        3.40725       -4.63718
|  9> H          6.14919        3.60120       -5.39905
| 10> H          5.81358        2.89950       -3.80879
| 11> H          2.74138        4.51311       -5.82470
| 12> H          4.28755        4.52126       -6.61434
| 13> H          3.86125        3.59725       -2.66298
| 14> H          2.44649        3.97346       -3.65656
| 15> H          2.44395        1.61721       -4.48352
| 16> H          2.30781        1.67290       -2.74242
| 17> H          3.83491        1.26414       -3.48670
| 18> *
| 19> %MaxCore 64000
| 20>
| 21> %pal nprocs 4
| 22> end
| 23>
| 24> %scf
| 25>   MaxIter 150
| 26> end
| 27>
| 28>
| 29>                          ****END OF INPUT****

CARTESIAN COORDINATES (ANGSTROEM)
---------------------------------
  C      3.343500    3.354570   -3.592000
  C      2.952630    1.863080   -3.574850
  C      4.255870    3.703850   -4.726050
  N      3.734030    4.293780   -5.800770
  N      5.515040    3.407250   -4.637180
  H      6.149190    3.601200   -5.399050
  H      5.813580    2.899500   -3.808790
  H      2.741380    4.513110   -5.824700
  H      4.287550    4.521260   -6.614340
  H      3.861250    3.597250   -2.662980
  H      2.446490    3.973460   -3.656560
  H      2.443950    1.617210   -4.483520
  H      2.307810    1.672900   -2.742420
  H      3.834910    1.264140   -3.486700

 Total Charge           Charge          ....    1
 Multiplicity           Mult            ....    1
 Number of Electrons    NEL             ....   40
 Basis Dimension        Dim             ....  172

ORBITAL ENERGIES
----------------

  NO   OCC          E(Eh)            E(eV)
   0   2.0000     -14.479848      -394.0167
   1   2.0000     -14.474666      -393.8757
   2   2.0000     -10.460593      -284.6472
   3   2.0000     -10.328395      -281.0499
   4   2.0000     -10.283577      -279.8304
   5   2.0000      -1.377316       -37.4787
   6   2.0000      -1.272230       -34.6191
   7   2.0000      -1.141354       -31.0578
   8   2.0000      -1.019764       -27.7492
   9   2.0000      -0.973381       -26.4870
  10   2.0000      -0.930493       -25.3200
  11   2.0000      -0.901193       -24.5227
  12   2.0000      -0.844364       -22.9763
  13   2.0000      -0.801001       -21.7964
  14   2.0000      -0.768023       -20.8990
  15   2.0000      -0.757654       -20.6168
  16   2.0000      -0.679958       -18.5026
  17   2.0000      -0.669400       -18.2153
  18   2.0000      -0.659903       -17.9569
  19   2.0000      -0.624808       -17.0019
  20   0.0000      -0.118100        -3.2137
  21   0.0000      -0.078863        -2.1460
  22   0.0000      -0.036932        -1.0050
  23   0.0000      -0.034989        -0.9521
  24   0.0000      -0.011544        -0.3141

MULLIKEN ATOMIC CHARGES
-----------------------
   0 C :   -0.509731
   1 C :    0.394258
   2 C :    0.664682
   3 N :   -0.097229
   4 N :    0.073158
   5 H :   -0.093471
   6 H :    0.124043
   7 H :    0.101813
   8 H :   -0.071438
   9 H :    0.128184
  10 H :    0.099504
  11 H :    0.034453
  12 H :    0.110616
  13 H :    0.041156
Sum of atomic charges:    1.0000000

LOEWDIN ATOMIC CHARGES
----------------------
   0 C :   -0.013678
   1 C :    0.142063
   2 C :   -0.047323
   3 N :    0.266203
   4 N :    0.272710
   5 H :    0.062662
   6 H :    0.068869
   7 H :    0.060334
   8 H :    0.052384
   9 H :    0.056615
  10 H :    0.050379
  11 H :    0.009080
  12 H :    0.018392
  13 H :    0.001311

  Mayer bond orders larger than 0.100000
B(  0-C ,  1-C ) :   1.2646 B(  0-C ,  2-C ) :   1.1344 B(  0-C ,  9-H ) :   0.9174
B(  0-C , 10-H ) :   0.9248 B(  0-C , 11-H ) :   0.1260 B(  0-C , 12-H ) :   0.1135
B(  0-C , 13-H ) :   0.1511 B(  1-C , 11-H ) :   0.8889 B(  1-C , 12-H ) :   0.8656
B(  1-C , 13-H ) :   0.8320 B(  2-C ,  3-N ) :   1.0334 B(  2-C ,  4-N ) :   1.2335
B(  2-C ,  5-H ) :  -0.1357 B(  2-C ,  8-H ) :  -0.1874 B(  3-N ,  4-N ) :   0.1394
B(  3-N ,  7-H ) :   1.0639 B(  3-N ,  8-H ) :   1.3040 B(  4-N ,  5-H ) :   1.2757
B(  4-N ,  6-H ) :   1.0344 B(  5-H ,  6-H ) :  -0.1528 B(  7-H ,  8-H ) :  -0.1667

FINAL SINGLE POINT ENERGY      -228.136797570613

DIPOLE MOMENT
-------------
                                X             Y             Z
Electronic contribution:      2.38361       2.58318      -2.28317
Nuclear contribution   :     -1.74195      -2.09431       1.58516
                        -----------------------------------------
Total Dipole Moment    :      0.64166       0.48887      -0.69800
                        -----------------------------------------
Magnitude (a.u.)       :      1.06674
Magnitude (Debye)      :      2.71144

Rotational constants in cm-1:     0.258965     0.126500     0.098780
Rotational constants in MHz :  7763.584551  3792.383135  2961.336502

                             ****ORCA TERMINATED NORMALLY****
TOTAL RUN TIME: 0 days 0 hours 0 minutes 22 seconds 675 msec
