                         Program Version 5.0.0 -  RELEASE  -
|  1> !LC-PBE RIJCOSX def2-SVPD def2/J TightSCF
|  2>
|  3> *xyz 0 1
|  4> C          2.95263        1.86308       -3.57485
|  5> C          4.12921        0.89839       -3.41895
|  6> H          3.73369       -0.10060       -3.23763
|  7> H          4.71910        0.86256       -4.33901
|  8> C          5.01734        1.31521       -2.22130
|  9> F          4.73706        0.85411       -1.12283
| 10> O          5.92815        2.16811       -2.49136
| 11> H          2.35067        1.56005       -4.40594
| 12> H          3.32277        2.85258       -3.74453
| 13> H          2.36134        1.85149       -2.68315
| 14> *
| 15> %MaxCore 64000
| 16>
| 17> %pal nprocs 4
| 18> end
| 19>
| 20> %scf
| 21>   MaxIter 150
| 22> end
| 23>
| 24>
| 25>                          ****END OF INPUT****

CARTESIAN COORDINATES (ANGSTROEM)
---------------------------------
  C      2.952630    1.863080   -3.574850
  C      4.129210    0.898390   -3.418950
  H      3.733690   -0.100600   -3.237630
  H      4.719100    0.862560   -4.339010
  C      5.017340    1.315210   -2.221300
  F      4.737060    0.854110   -1.122830
  O      5.928150    2.168110   -2.491360
  H      2.350670    1.560050   -4.405940
  H      3.322770    2.852580   -3.744530
  H      2.361340    1.851490   -2.683150

 Total Charge           Charge          ....    0
 Multiplicity           Mult            ....    1
 Number of Electrons    NEL             ....   40
 Basis Dimension        Dim             ....  146

ORBITAL ENERGIES
----------------

  NO   OCC          E(Eh)            E(eV)
   0   2.0000     -24.596458      -669.3036
   1   2.0000     -19.000596      -517.0325
   2   2.0000     -10.322926      -280.9011
   3   2.0000     -10.162488      -276.5354
   4   2.0000     -10.136887      -275.8387
   5   2.0000      -1.494255       -40.6608
   6   2.0000      -1.181275       -32.1441
   7   2.0000      -0.976668       -26.5765
   8   2.0000      -0.854216       -23.2444
   9   2.0000      -0.810224       -22.0473
  10   2.0000      -0.726893       -19.7798
  11   2.0000      -0.708494       -19.2791
  12   2.0000      -0.657882       -17.9019
  13   2.0000      -0.612589       -16.6694
  14   2.0000      -0.579872       -15.7791
  15   2.0000      -0.542097       -14.7512
  16   2.0000      -0.517260       -14.0754
  17   2.0000      -0.505665       -13.7599
  18   2.0000      -0.483411       -13.1543
  19   2.0000      -0.425628       -11.5819
  20   0.0000       0.062695         1.7060
  21   0.0000       0.082223         2.2374
  22   0.0000       0.112952         3.0736
  23   0.0000       0.121743         3.3128
  24   0.0000       0.148786         4.0487

MULLIKEN ATOMIC CHARGES
-----------------------
   0 C :    0.291745
   1 C :   -0.490170
   2 H :    0.109001
   3 H :    0.098721
   4 C :    0.658774
   5 F :   -0.288437
   6 O :   -0.466601
   7 H :    0.035942
   8 H :    0.030045
   9 H :    0.020981
Sum of atomic charges:   -0.0000000

LOEWDIN ATOMIC CHARGES
----------------------
   0 C :    0.106236
   1 C :   -0.020002
   2 H :    0.033724
   3 H :    0.047910
   4 C :   -0.031173
   5 F :    0.005278
   6 O :   -0.148209
   7 H :   -0.000011
   8 H :    0.005233
   9 H :    0.001014

  Mayer bond orders larger than 0.100000
B(  0-C ,  1-C ) :   1.3111 B(  0-C ,  7-H ) :   0.8967 B(  0-C ,  8-H ) :   0.8890
B(  0-C ,  9-H ) :   0.8730 B(  1-C ,  2-H ) :   0.9359 B(  1-C ,  3-H ) :   0.9656
B(  1-C ,  4-C ) :   1.0592 B(  1-C ,  7-H ) :   0.1000 B(  1-C ,  8-H ) :   0.1297
B(  1-C ,  9-H ) :   0.1295 B(  4-C ,  5-F ) :   0.8481 B(  4-C ,  6-O ) :   1.8735
B(  5-F ,  6-O ) :   0.1005

FINAL SINGLE POINT ENERGY      -291.368180786961

DIPOLE MOMENT
-------------
                                X             Y             Z
Electronic contribution:      5.00653      -1.21713       6.49938
Nuclear contribution   :     -6.06116       0.51860      -6.80802
                        -----------------------------------------
Total Dipole Moment    :     -1.05463      -0.69853      -0.30864
                        -----------------------------------------
Magnitude (a.u.)       :      1.30209
Magnitude (Debye)      :      3.30966

Rotational constants in cm-1:     0.276196     0.132056     0.105465
Rotational constants in MHz :  8280.156449  3958.940601  3161.775929

                             ****ORCA TERMINATED NORMALLY****
TOTAL RUN TIME: 0 days 0 hours 0 minutes 19 seconds 388 msec
