                         Program Version 5.0.0 -  RELEASE  -
|  1> !LC-PBE RIJCOSX def2-SVPD def2/J TightSCF
|  2>
|  3> *xyz 0 1
|  4> C          3.34350        3.35457       -3.59200
|  5> C          2.95263        1.86308       -3.57485
|  6> C          4.25587        3.70385       -4.72605
|  7> C          3.73403        4.29378       -5.80077
|  8> N          5.51504        3.40725       -4.63718
|  9> H          6.14919        3.60120       -5.39905
| 10> H          5.81358        2.89950       -3.80879
| 11> H          2.74138        4.51311       -5.82470
| 12> H          4.28755        4.52126       -6.61434
| 13> H          3.86125        3.59725       -2.66298
| 14> H          2.44649        3.97346       -3.65656
| 15> H          2.44395        1.61721       -4.48352
| 16> H          2.30781        1.67290       -2.74242
| 17> H          3.83491        1.26414       -3.48670
| 18> *
| 19> %MaxCore 64000
| 20>
| 21> %pal nprocs 4
| 22> end
| 23>
| 24> %scf
| 25>   MaxIter 150
| 26> end
| 27>
| 28>
| 29>                          ****END OF INPUT****

CARTESIAN COORDINATES (ANGSTROEM)
---------------------------------
  C      3.343500    3.354570   -3.592000
  C      2.952630    1.863080   -3.574850
  C      4.255870    3.703850   -4.726050
  C      3.734030    4.293780   -5.800770
  N      5.515040    3.407250   -4.637180
  H      6.149190    3.601200   -5.399050
  H      5.813580    2.899500   -3.808790
  H      2.741380    4.513110   -5.824700
  H      4.287550    4.521260   -6.614340
  H      3.861250    3.597250   -2.662980
  H      2.446490    3.973460   -3.656560
  H      2.443950    1.617210   -4.483520
  H      2.307810    1.672900   -2.742420
  H      3.834910    1.264140   -3.486700

 Total Charge           Charge          ....    0
 Multiplicity           Mult            ....    1
 Number of Electrons    NEL             ....   40
 Basis Dimension        Dim             ....  172

ORBITAL ENERGIES
----------------

  NO   OCC          E(Eh)            E(eV)
   0   2.0000     -14.231623      -387.2622
   1   2.0000     -10.152473      -276.2628
   2   2.0000     -10.128000      -275.5969
   3   2.0000     -10.113787      -275.2101
   4   2.0000     -10.057666      -273.6830
   5   2.0000      -1.105114       -30.0717
   6   2.0000      -0.949054       -25.8251
   7   2.0000      -0.878658       -23.9095
   8   2.0000      -0.795644       -21.6506
   9   2.0000      -0.720683       -19.6108
  10   2.0000      -0.679301       -18.4847
  11   2.0000      -0.627286       -17.0693
  12   2.0000      -0.580130       -15.7861
  13   2.0000      -0.564160       -15.3516
  14   2.0000      -0.532407       -14.4875
  15   2.0000      -0.519625       -14.1397
  16   2.0000      -0.484371       -13.1804
  17   2.0000      -0.469303       -12.7704
  18   2.0000      -0.461742       -12.5646
  19   2.0000      -0.306532        -8.3412
  20   0.0000       0.087965         2.3936
  21   0.0000       0.117865         3.2073
  22   0.0000       0.124844         3.3972
  23   0.0000       0.127476         3.4688
  24   0.0000       0.144081         3.9207

MULLIKEN ATOMIC CHARGES
-----------------------
   0 C :   -0.325387
   1 C :    0.417289
   2 C :   -0.105171
   3 C :    0.279889
   4 N :    0.195225
   5 H :   -0.149510
   6 H :   -0.043849
   7 H :   -0.097247
   8 H :   -0.403443
   9 H :    0.024989
  10 H :    0.138961
  11 H :   -0.002852
  12 H :    0.061099
  13 H :    0.010008
Sum of atomic charges:    0.0000000

LOEWDIN ATOMIC CHARGES
----------------------
   0 C :   -0.054735
   1 C :    0.104505
   2 C :   -0.279897
   3 C :    0.148043
   4 N :    0.154329
   5 H :    0.023193
   6 H :    0.017589
   7 H :   -0.072211
   8 H :   -0.078919
   9 H :    0.029993
  10 H :    0.034048
  11 H :   -0.003108
  12 H :   -0.008654
  13 H :   -0.014177

  Mayer bond orders larger than 0.100000
B(  0-C ,  1-C ) :   1.2560 B(  0-C ,  2-C ) :   1.1919 B(  0-C ,  3-C ) :   0.1482
B(  0-C ,  9-H ) :   0.8938 B(  0-C , 10-H ) :   0.8755 B(  0-C , 11-H ) :   0.1412
B(  0-C , 12-H ) :   0.1284 B(  0-C , 13-H ) :   0.1692 B(  1-C , 11-H ) :   0.9003
B(  1-C , 12-H ) :   0.8516 B(  1-C , 13-H ) :   0.8366 B(  2-C ,  3-C ) :   1.7875
B(  2-C ,  4-N ) :   1.2536 B(  2-C ,  8-H ) :   0.1469 B(  2-C ,  9-H ) :   0.1385
B(  2-C , 10-H ) :   0.1218 B(  3-C ,  4-N ) :   0.2250 B(  3-C ,  7-H ) :   0.9760
B(  3-C ,  8-H ) :   0.7926 B(  4-N ,  5-H ) :   1.2335 B(  4-N ,  6-H ) :   1.0870
B(  5-H ,  6-H ) :  -0.1273

FINAL SINGLE POINT ENERGY      -211.696233877129

DIPOLE MOMENT
-------------
                                X             Y             Z
Electronic contribution:      2.32023       1.47171      -0.84677
Nuclear contribution   :     -1.79713      -1.86925       1.28073
                        -----------------------------------------
Total Dipole Moment    :      0.52310      -0.39753       0.43396
                        -----------------------------------------
Magnitude (a.u.)       :      0.78739
Magnitude (Debye)      :      2.00139

Rotational constants in cm-1:     0.269040     0.129645     0.102087
Rotational constants in MHz :  8065.609820  3886.645139  3060.489045

                             ****ORCA TERMINATED NORMALLY****
TOTAL RUN TIME: 0 days 0 hours 0 minutes 23 seconds 446 msec
