                         Program Version 5.0.0 -  RELEASE  -
|  1> !LC-PBE RIJCOSX def2-SVPD def2/J TightSCF
|  2>
|  3> *xyz 0 1
|  4> C          2.95263        1.86308       -3.57485
|  5> C          4.12921        0.89839       -3.41895
|  6> H          3.73369       -0.10060       -3.23763
|  7> H          4.71910        0.86256       -4.33901
|  8> C          5.01734        1.31521       -2.22130
|  9> O          4.73706        0.85411       -1.12283
| 10> F          5.92815        2.16811       -2.49136
| 11> H          2.35067        1.56005       -4.40594
| 12> H          3.32277        2.85258       -3.74453
| 13> H          2.36134        1.85149       -2.68315
| 14> *
| 15> %MaxCore 64000
| 16>
| 17> %pal nprocs 4
| 18> end
| 19>
| 20> %scf
| 21>   MaxIter 150
| 22> end
| 23>
| 24>
| 25>                          ****END OF INPUT****

CARTESIAN COORDINATES (ANGSTROEM)
---------------------------------
  C      2.952630    1.863080   -3.574850
  C      4.129210    0.898390   -3.418950
  H      3.733690   -0.100600   -3.237630
  H      4.719100    0.862560   -4.339010
  C      5.017340    1.315210   -2.221300
  O      4.737060    0.854110   -1.122830
  F      5.928150    2.168110   -2.491360
  H      2.350670    1.560050   -4.405940
  H      3.322770    2.852580   -3.744530
  H      2.361340    1.851490   -2.683150

 Total Charge           Charge          ....    0
 Multiplicity           Mult            ....    1
 Number of Electrons    NEL             ....   40
 Basis Dimension        Dim             ....  146

ORBITAL ENERGIES
----------------

  NO   OCC          E(Eh)            E(eV)
   0   2.0000     -24.575012      -668.7201
   1   2.0000     -19.010864      -517.3119
   2   2.0000     -10.318387      -280.7776
   3   2.0000     -10.161812      -276.5169
   4   2.0000     -10.137034      -275.8427
   5   2.0000      -1.453454       -39.5505
   6   2.0000      -1.214128       -33.0381
   7   2.0000      -0.976396       -26.5691
   8   2.0000      -0.843984       -22.9660
   9   2.0000      -0.795699       -21.6521
  10   2.0000      -0.705469       -19.1968
  11   2.0000      -0.688858       -18.7448
  12   2.0000      -0.658102       -17.9079
  13   2.0000      -0.611820       -16.6485
  14   2.0000      -0.584136       -15.8951
  15   2.0000      -0.548022       -14.9124
  16   2.0000      -0.525275       -14.2935
  17   2.0000      -0.507094       -13.7987
  18   2.0000      -0.498142       -13.5551
  19   2.0000      -0.435655       -11.8548
  20   0.0000       0.067864         1.8467
  21   0.0000       0.083875         2.2824
  22   0.0000       0.113527         3.0892
  23   0.0000       0.122664         3.3379
  24   0.0000       0.148218         4.0332

MULLIKEN ATOMIC CHARGES
-----------------------
   0 C :    0.290190
   1 C :   -0.487058
   2 H :    0.113894
   3 H :    0.091288
   4 C :    0.652447
   5 O :   -0.392636
   6 F :   -0.355201
   7 H :    0.035527
   8 H :    0.016111
   9 H :    0.035439
Sum of atomic charges:    0.0000000

LOEWDIN ATOMIC CHARGES
----------------------
   0 C :    0.105922
   1 C :   -0.018566
   2 H :    0.043317
   3 H :    0.038855
   4 C :   -0.029195
   5 O :   -0.109872
   6 F :   -0.036616
   7 H :   -0.000072
   8 H :    0.000562
   9 H :    0.005664

  Mayer bond orders larger than 0.100000
B(  0-C ,  1-C ) :   1.3104 B(  0-C ,  7-H ) :   0.8978 B(  0-C ,  8-H ) :   0.8808
B(  0-C ,  9-H ) :   0.8807 B(  1-C ,  2-H ) :   0.9532 B(  1-C ,  3-H ) :   0.9531
B(  1-C ,  4-C ) :   1.0454 B(  1-C ,  8-H ) :   0.1247 B(  1-C ,  9-H ) :   0.1340
B(  4-C ,  5-O ) :   1.9342 B(  4-C ,  6-F ) :   0.7782

FINAL SINGLE POINT ENERGY      -291.385148669076

DIPOLE MOMENT
-------------
                                X             Y             Z
Electronic contribution:      7.01960       1.00246       4.18461
Nuclear contribution   :     -7.35982      -0.91407      -5.31589
                        -----------------------------------------
Total Dipole Moment    :     -0.34022       0.08839      -1.13128
                        -----------------------------------------
Magnitude (a.u.)       :      1.18464
Magnitude (Debye)      :      3.01111

Rotational constants in cm-1:     0.275433     0.132201     0.105422
Rotational constants in MHz :  8257.268192  3963.279062  3160.465566

                             ****ORCA TERMINATED NORMALLY****
TOTAL RUN TIME: 0 days 0 hours 0 minutes 18 seconds 59 msec
