                         Program Version 5.0.0 -  RELEASE  -
|  1> !LC-PBE RIJCOSX def2-SVPD def2/J TightSCF
|  2>
|  3> *xyz 0 1
|  4> C          3.34350        3.35457       -3.59200
|  5> C          2.95263        1.86308       -3.57485
|  6> C          4.25587        3.70385       -4.72605
|  7> N          3.73403        4.29378       -5.80077
|  8> C          5.51504        3.40725       -4.63718
|  9> H          6.14919        3.60120       -5.39905
| 10> H          5.81358        2.89950       -3.80879
| 11> H          2.74138        4.51311       -5.82470
| 12> H          4.28755        4.52126       -6.61434
| 13> H          3.86125        3.59725       -2.66298
| 14> H          2.44649        3.97346       -3.65656
| 15> H          2.44395        1.61721       -4.48352
| 16> H          2.30781        1.67290       -2.74242
| 17> H          3.83491        1.26414       -3.48670
| 18> *
| 19> %MaxCore 64000
| 20>
| 21> %pal nprocs 4
| 22> end
| 23>
| 24> %scf
| 25>   MaxIter 150
| 26> end
| 27>
| 28>
| 29>                          ****END OF INPUT****

CARTESIAN COORDINATES (ANGSTROEM)
---------------------------------
  C      3.343500    3.354570   -3.592000
  C      2.952630    1.863080   -3.574850
  C      4.255870    3.703850   -4.726050
  N      3.734030    4.293780   -5.800770
  C      5.515040    3.407250   -4.637180
  H      6.149190    3.601200   -5.399050
  H      5.813580    2.899500   -3.808790
  H      2.741380    4.513110   -5.824700
  H      4.287550    4.521260   -6.614340
  H      3.861250    3.597250   -2.662980
  H      2.446490    3.973460   -3.656560
  H      2.443950    1.617210   -4.483520
  H      2.307810    1.672900   -2.742420
  H      3.834910    1.264140   -3.486700

 Total Charge           Charge          ....    0
 Multiplicity           Mult            ....    1
 Number of Electrons    NEL             ....   40
 Basis Dimension        Dim             ....  172

ORBITAL ENERGIES
----------------

  NO   OCC          E(Eh)            E(eV)
   0   2.0000     -14.227664      -387.1544
   1   2.0000     -10.149597      -276.1846
   2   2.0000     -10.127309      -275.5781
   3   2.0000     -10.111495      -275.1478
   4   2.0000     -10.056877      -273.6615
   5   2.0000      -1.090817       -29.6826
   6   2.0000      -0.951133       -25.8816
   7   2.0000      -0.882079       -24.0026
   8   2.0000      -0.796935       -21.6857
   9   2.0000      -0.714086       -19.4313
  10   2.0000      -0.666984       -18.1496
  11   2.0000      -0.630944       -17.1689
  12   2.0000      -0.583180       -15.8691
  13   2.0000      -0.555041       -15.1034
  14   2.0000      -0.531688       -14.4680
  15   2.0000      -0.521312       -14.1856
  16   2.0000      -0.479111       -13.0373
  17   2.0000      -0.467252       -12.7146
  18   2.0000      -0.465091       -12.6558
  19   2.0000      -0.312487        -8.5032
  20   0.0000       0.089691         2.4406
  21   0.0000       0.117763         3.2045
  22   0.0000       0.123444         3.3591
  23   0.0000       0.129330         3.5192
  24   0.0000       0.144832         3.9411

MULLIKEN ATOMIC CHARGES
-----------------------
   0 C :   -0.320966
   1 C :    0.385172
   2 C :    0.079247
   3 N :    0.015146
   4 C :    0.245319
   5 H :   -0.358452
   6 H :   -0.075620
   7 H :   -0.038459
   8 H :   -0.132297
   9 H :    0.147615
  10 H :   -0.012549
  11 H :   -0.002609
  12 H :    0.066634
  13 H :    0.001819
Sum of atomic charges:   -0.0000000

LOEWDIN ATOMIC CHARGES
----------------------
   0 C :   -0.055280
   1 C :    0.105485
   2 C :   -0.270660
   3 N :    0.151725
   4 C :    0.140686
   5 H :   -0.067652
   6 H :   -0.059103
   7 H :    0.006762
   8 H :    0.011661
   9 H :    0.036513
  10 H :    0.024216
  11 H :   -0.005814
  12 H :   -0.009426
  13 H :   -0.009114

  Mayer bond orders larger than 0.100000
B(  0-C ,  1-C ) :   1.2693 B(  0-C ,  2-C ) :   1.1065 B(  0-C ,  3-N ) :   0.1141
B(  0-C ,  4-C ) :   0.1653 B(  0-C ,  9-H ) :   0.8681 B(  0-C , 10-H ) :   0.9125
B(  0-C , 11-H ) :   0.1491 B(  0-C , 12-H ) :   0.1163 B(  0-C , 13-H ) :   0.1555
B(  1-C , 11-H ) :   0.8847 B(  1-C , 12-H ) :   0.8473 B(  1-C , 13-H ) :   0.8765
B(  2-C ,  3-N ) :   1.0890 B(  2-C ,  4-C ) :   1.9109 B(  2-C ,  5-H ) :   0.1962
B(  2-C ,  6-H ) :   0.1422 B(  2-C ,  8-H ) :  -0.1308 B(  2-C , 10-H ) :   0.1095
B(  3-N ,  4-C ) :   0.2414 B(  3-N ,  7-H ) :   1.0996 B(  3-N ,  8-H ) :   1.2807
B(  4-C ,  5-H ) :   0.7910 B(  4-C ,  6-H ) :   0.8304 B(  7-H ,  8-H ) :  -0.1564

FINAL SINGLE POINT ENERGY      -211.696831056766

DIPOLE MOMENT
-------------
                                X             Y             Z
Electronic contribution:      0.78153       2.26042      -1.85060
Nuclear contribution   :     -1.38463      -2.07457       1.55023
                        -----------------------------------------
Total Dipole Moment    :     -0.60310       0.18585      -0.30037
                        -----------------------------------------
Magnitude (a.u.)       :      0.69892
Magnitude (Debye)      :      1.77650

Rotational constants in cm-1:     0.272312     0.128195     0.101724
Rotational constants in MHz :  8163.717141  3843.180148  3049.598073

                             ****ORCA TERMINATED NORMALLY****
TOTAL RUN TIME: 0 days 0 hours 0 minutes 23 seconds 996 msec
