                         Program Version 5.0.0 -  RELEASE  -
|  1> !LC-PBE RIJCOSX def2-SVPD def2/J TightSCF xyzfile
|  2>
|  3> *xyzfile 0 1 D1.xyz
|  4>
|  5> %MaxCore 64000
|  6>
|  7> %pal nprocs 4
|  8> end
|  9>
| 10> %scf
| 11>   MaxIter 150
| 12> end
| 13>
| 14>
| 15>                          ****END OF INPUT****

CARTESIAN COORDINATES (ANGSTROEM)
---------------------------------
  C      3.343500    3.354571   -3.591998
  C      2.952633    1.863077   -3.574849
  C      4.129209    0.898394   -3.418950
  H      3.733687   -0.100605   -3.237633
  H      4.719095    0.862556   -4.339005
  C      5.017344    1.315212   -2.221305
  C      4.255868    3.703851   -4.726054
  C      3.734032    4.293783   -5.800770
  N      5.515039    3.407255   -4.637185
  H      6.149187    3.601203   -5.399053
  H      5.813584    2.899504   -3.808785
  H      2.741380    4.513109   -5.824701
  H      4.287548    4.521260   -6.614341
  H      2.278938    1.735250   -2.725496
  H      2.377466    1.625787   -4.475869
  F      4.737055    0.854112   -1.122825
  O      5.928146    2.168108   -2.491365
  H      3.861246    3.597252   -2.662979
  H      2.446493    3.973461   -3.656556

 Total Charge           Charge          ....    0
 Multiplicity           Mult            ....    1
 Number of Electrons    NEL             ....   70
 Basis Dimension        Dim             ....  266

ORBITAL ENERGIES
----------------

  NO   OCC          E(Eh)            E(eV)
   0   2.0000     -24.619618      -669.9339
   1   2.0000     -19.030031      -517.8335
   2   2.0000     -14.192996      -386.2110
   3   2.0000     -10.352481      -281.7053
   4   2.0000     -10.171930      -276.7923
   5   2.0000     -10.154312      -276.3129
   6   2.0000     -10.143377      -276.0153
   7   2.0000     -10.131302      -275.6868
   8   2.0000     -10.047258      -273.3998
   9   2.0000      -1.516285       -41.2602
  10   2.0000      -1.220784       -33.2192
  11   2.0000      -1.084412       -29.5084
  12   2.0000      -0.999479       -27.1972
  13   2.0000      -0.919756       -25.0278
  14   2.0000      -0.873307       -23.7639
  15   2.0000      -0.841656       -22.9026
  16   2.0000      -0.793895       -21.6030
  17   2.0000      -0.749323       -20.3901
  18   2.0000      -0.735292       -20.0083
  19   2.0000      -0.701988       -19.1021
  20   2.0000      -0.697320       -18.9750
  21   2.0000      -0.656492       -17.8641
  22   2.0000      -0.634969       -17.2784
  23   2.0000      -0.605448       -16.4751
  24   2.0000      -0.587374       -15.9833
  25   2.0000      -0.576687       -15.6924
  26   2.0000      -0.535627       -14.5752
  27   2.0000      -0.522528       -14.2187
  28   2.0000      -0.513952       -13.9853
  29   2.0000      -0.508626       -13.8404
  30   2.0000      -0.490439       -13.3455
  31   2.0000      -0.464809       -12.6481
  32   2.0000      -0.456364       -12.4183
  33   2.0000      -0.439837       -11.9686
  34   2.0000      -0.291466        -7.9312
  35   0.0000       0.036967         1.0059
  36   0.0000       0.075399         2.0517
  37   0.0000       0.105726         2.8769
  38   0.0000       0.108071         2.9408
  39   0.0000       0.116394         3.1672

MULLIKEN ATOMIC CHARGES
-----------------------
   0 C :    0.209489
   1 C :   -0.139636
   2 C :   -0.038228
   3 H :   -0.015528
   4 H :    0.210551
   5 C :    0.702291
   6 C :   -0.078556
   7 C :    0.159863
   8 N :    0.568088
   9 H :   -0.172983
  10 H :   -0.446423
  11 H :   -0.116370
  12 H :   -0.336497
  13 H :    0.108746
  14 H :   -0.052290
  15 F :   -0.299472
  16 O :   -0.443937
  17 H :    0.107404
  18 H :    0.073488
Sum of atomic charges:    0.0000000

LOEWDIN ATOMIC CHARGES
----------------------
   0 C :   -0.000727
   1 C :   -0.019980
   2 C :    0.039828
   3 H :    0.037458
   4 H :    0.048412
   5 C :    0.035850
   6 C :   -0.253512
   7 C :    0.139849
   8 N :    0.185908
   9 H :    0.026770
  10 H :   -0.142392
  11 H :   -0.078910
  12 H :   -0.080463
  13 H :    0.035442
  14 H :    0.046123
  15 F :    0.029764
  16 O :   -0.119246
  17 H :    0.030602
  18 H :    0.039224

  Mayer bond orders larger than 0.100000
B(  0-C ,  1-C ) :   1.1715 B(  0-C ,  6-C ) :   1.1685 B(  0-C ,  8-N ) :   0.1113
B(  0-C , 14-H ) :   0.1262 B(  0-C , 17-H ) :   0.6976 B(  0-C , 18-H ) :   0.8695
B(  1-C ,  2-C ) :   1.2719 B(  1-C ,  3-H ) :   0.1595 B(  1-C ,  4-H ) :   0.1350
B(  1-C , 13-H ) :   0.8697 B(  1-C , 14-H ) :   0.9977 B(  1-C , 17-H ) :   0.1303
B(  1-C , 18-H ) :   0.1247 B(  2-C ,  3-H ) :   0.8822 B(  2-C ,  4-H ) :   0.8433
B(  2-C ,  5-C ) :   1.0857 B(  5-C , 15-F ) :   0.8153 B(  5-C , 16-O ) :   1.6782
B(  6-C ,  7-C ) :   1.7482 B(  6-C ,  8-N ) :   1.1103 B(  6-C ,  9-H ) :  -0.1112
B(  6-C , 12-H ) :   0.1514 B(  6-C , 17-H ) :   0.1873 B(  6-C , 18-H ) :   0.1253
B(  7-C ,  8-N ) :   0.1684 B(  7-C , 11-H ) :   0.9930 B(  7-C , 12-H ) :   0.7417
B(  8-N ,  9-H ) :   1.2177 B(  8-N , 10-H ) :   0.9871 B(  8-N , 16-O ) :  -0.1009
B(  9-H , 10-H ) :  -0.2068 B( 10-H , 16-O ) :   0.2151

FINAL SINGLE POINT ENERGY      -462.733719460124

DIPOLE MOMENT
-------------
                                X             Y             Z
Electronic contribution:      5.48120      -5.99228      10.54674
Nuclear contribution   :     -5.86483       4.68058     -10.07545
                        -----------------------------------------
Total Dipole Moment    :     -0.38364      -1.31169       0.47129
                        -----------------------------------------
Magnitude (a.u.)       :      1.44562
Magnitude (Debye)      :      3.67448

Rotational constants in cm-1:     0.107256     0.035474     0.030113
Rotational constants in MHz :  3215.453922  1063.481574   902.777619

                             ****ORCA TERMINATED NORMALLY****
TOTAL RUN TIME: 0 days 0 hours 1 minutes 7 seconds 669 msec
