                         Program Version 5.0.0 -  RELEASE  -
|  1> !LC-PBE RIJCOSX def2-SVPD def2/J TightSCF xyzfile
|  2>
|  3> *xyzfile 0 1 D3.xyz
|  4>
|  5> %MaxCore 64000
|  6>
|  7> %pal nprocs 4
|  8> end
|  9>
| 10> %scf
| 11>   MaxIter 150
| 12> end
| 13>
| 14>
| 15>                          ****END OF INPUT****

CARTESIAN COORDINATES (ANGSTROEM)
---------------------------------
  C      3.343500    3.354571   -3.591998
  C      2.952633    1.863077   -3.574849
  C      4.129209    0.898394   -3.418950
  H      3.733687   -0.100605   -3.237633
  H      4.719095    0.862556   -4.339005
  C      5.017344    1.315212   -2.221305
  C      4.255868    3.703851   -4.726054
  C      3.734032    4.293783   -5.800770
  N      5.515039    3.407255   -4.637185
  H      6.149187    3.601203   -5.399053
  H      5.813584    2.899504   -3.808785
  H      2.741380    4.513109   -5.824701
  H      4.287548    4.521260   -6.614341
  H      2.278938    1.735250   -2.725496
  H      2.377466    1.625787   -4.475869
  O      4.737055    0.854112   -1.122825
  F      5.928146    2.168108   -2.491365
  H      3.861246    3.597252   -2.662979
  H      2.446493    3.973461   -3.656556

 Total Charge           Charge          ....    0
 Multiplicity           Mult            ....    1
 Number of Electrons    NEL             ....   70
 Basis Dimension        Dim             ....  266

ORBITAL ENERGIES
----------------

  NO   OCC          E(Eh)            E(eV)
   0   2.0000     -24.607637      -669.6078
   1   2.0000     -19.028416      -517.7895
   2   2.0000     -14.221789      -386.9946
   3   2.0000     -10.336386      -281.2674
   4   2.0000     -10.167559      -276.6734
   5   2.0000     -10.157472      -276.3989
   6   2.0000     -10.152974      -276.2765
   7   2.0000     -10.140556      -275.9386
   8   2.0000     -10.061786      -273.7951
   9   2.0000      -1.490405       -40.5560
  10   2.0000      -1.231407       -33.5083
  11   2.0000      -1.107583       -30.1389
  12   2.0000      -0.999684       -27.2028
  13   2.0000      -0.926836       -25.2205
  14   2.0000      -0.882124       -24.0038
  15   2.0000      -0.841649       -22.9024
  16   2.0000      -0.802780       -21.8447
  17   2.0000      -0.745417       -20.2838
  18   2.0000      -0.731781       -19.9128
  19   2.0000      -0.706609       -19.2278
  20   2.0000      -0.680164       -18.5082
  21   2.0000      -0.655978       -17.8501
  22   2.0000      -0.634153       -17.2562
  23   2.0000      -0.618221       -16.8226
  24   2.0000      -0.593388       -16.1469
  25   2.0000      -0.571649       -15.5554
  26   2.0000      -0.541864       -14.7449
  27   2.0000      -0.537637       -14.6298
  28   2.0000      -0.526591       -14.3293
  29   2.0000      -0.516369       -14.0511
  30   2.0000      -0.492948       -13.4138
  31   2.0000      -0.474273       -12.9056
  32   2.0000      -0.465855       -12.6766
  33   2.0000      -0.447326       -12.1724
  34   2.0000      -0.308743        -8.4013
  35   0.0000       0.052254         1.4219
  36   0.0000       0.081104         2.2070
  37   0.0000       0.103453         2.8151
  38   0.0000       0.107837         2.9344
  39   0.0000       0.112284         3.0554

MULLIKEN ATOMIC CHARGES
-----------------------
   0 C :    0.169364
   1 C :   -0.118459
   2 C :   -0.025003
   3 H :   -0.021455
   4 H :    0.221228
   5 C :    0.615396
   6 C :   -0.036027
   7 C :    0.159719
   8 N :    0.548313
   9 H :   -0.167510
  10 H :   -0.373884
  11 H :   -0.102978
  12 H :   -0.338445
  13 H :    0.124946
  14 H :   -0.051668
  15 O :   -0.356580
  16 F :   -0.402127
  17 H :    0.078834
  18 H :    0.076336
Sum of atomic charges:    0.0000000

LOEWDIN ATOMIC CHARGES
----------------------
   0 C :   -0.000452
   1 C :   -0.018468
   2 C :    0.035062
   3 H :    0.045550
   4 H :    0.038075
   5 C :   -0.003589
   6 C :   -0.254615
   7 C :    0.149221
   8 N :    0.184942
   9 H :    0.030516
  10 H :   -0.095915
  11 H :   -0.072952
  12 H :   -0.076882
  13 H :    0.041177
  14 H :    0.044994
  15 O :   -0.085533
  16 F :   -0.035607
  17 H :    0.033312
  18 H :    0.041164

  Mayer bond orders larger than 0.100000
B(  0-C ,  1-C ) :   1.1866 B(  0-C ,  6-C ) :   1.1668 B(  0-C ,  8-N ) :   0.1150
B(  0-C , 14-H ) :   0.1318 B(  0-C , 17-H ) :   0.7131 B(  0-C , 18-H ) :   0.8692
B(  1-C ,  2-C ) :   1.2748 B(  1-C ,  3-H ) :   0.1478 B(  1-C ,  4-H ) :   0.1314
B(  1-C , 13-H ) :   0.8764 B(  1-C , 14-H ) :   0.9881 B(  1-C , 17-H ) :   0.1338
B(  1-C , 18-H ) :   0.1204 B(  2-C ,  3-H ) :   0.8972 B(  2-C ,  4-H ) :   0.8264
B(  2-C ,  5-C ) :   1.0676 B(  2-C , 16-F ) :   0.1216 B(  3-H ,  5-C ) :   0.1117
B(  5-C , 15-O ) :   1.9347 B(  5-C , 16-F ) :   0.6563 B(  6-C ,  7-C ) :   1.7413
B(  6-C ,  8-N ) :   1.0903 B(  6-C ,  9-H ) :  -0.1225 B(  6-C , 12-H ) :   0.1455
B(  6-C , 17-H ) :   0.1677 B(  6-C , 18-H ) :   0.1334 B(  7-C ,  8-N ) :   0.1742
B(  7-C , 11-H ) :   1.0021 B(  7-C , 12-H ) :   0.7392 B(  8-N ,  9-H ) :   1.2356
B(  8-N , 10-H ) :   0.9996 B(  9-H , 10-H ) :  -0.2036 B( 10-H , 16-F ) :   0.1299
B( 15-O , 16-F ) :   0.1058

FINAL SINGLE POINT ENERGY      -462.739830144407

DIPOLE MOMENT
-------------
                                X             Y             Z
Electronic contribution:      7.42053      -3.58624       8.00491
Nuclear contribution   :     -7.21688       3.18902      -8.52197
                        -----------------------------------------
Total Dipole Moment    :      0.20365      -0.39721      -0.51706
                        -----------------------------------------
Magnitude (a.u.)       :      0.68308
Magnitude (Debye)      :      1.73626

Rotational constants in cm-1:     0.103917     0.036987     0.030872
Rotational constants in MHz :  3115.342573  1108.839114   925.506342

                             ****ORCA TERMINATED NORMALLY****
TOTAL RUN TIME: 0 days 0 hours 1 minutes 6 seconds 31 msec
