                         Program Version 5.0.0 -  RELEASE  -
|  1> !wB97X-D3 RIJCOSX def2-SVPD def2/J TightSCF CPCM(Water)
|  2> *xyz -1 1
|  3> C          0.70466        1.44313       -4.50363
|  4> C          1.72854        1.42432       -5.63944
|  5> H          2.64672        1.95379       -5.38105
|  6> H          1.29992        1.93061       -6.50361
|  7> S          2.25263       -0.18811       -6.27184
|  8> O          3.56261       -0.44446       -5.63155
|  9> O          2.34494       -0.03374       -7.69650
| 10> O          1.26606       -1.15918       -5.80536
| 11> H         -0.17385        0.91270       -4.80656
| 12> H          0.44778        2.45562       -4.27173
| 13> H          1.12367        0.97423       -3.63791
| 14> *
| 15>
| 16> %MaxCore 64000
| 17>
| 18> %pal nprocs 18
| 19> end
| 20>
| 21> %scf
| 22>   MaxIter 150
| 23> end
| 24>
| 25>
| 26>                          ****END OF INPUT****

CARTESIAN COORDINATES (ANGSTROEM)
---------------------------------
  C      0.704660    1.443130   -4.503630
  C      1.728540    1.424320   -5.639440
  H      2.646720    1.953790   -5.381050
  H      1.299920    1.930610   -6.503610
  S      2.252630   -0.188110   -6.271840
  O      3.562610   -0.444460   -5.631550
  O      2.344940   -0.033740   -7.696500
  O      1.266060   -1.159180   -5.805360
  H     -0.173850    0.912700   -4.806560
  H      0.447780    2.455620   -4.271730
  H      1.123670    0.974230   -3.637910

 Total Charge           Charge          ....   -1
 Multiplicity           Mult            ....    1
 Number of Electrons    NEL             ....   58
 Basis Dimension        Dim             ....  176

ORBITAL ENERGIES
----------------

  NO   OCC          E(Eh)            E(eV)
   0   2.0000     -89.152378     -2425.9595
   1   2.0000     -19.210255      -522.7376
   2   2.0000     -19.203394      -522.5509
   3   2.0000     -19.197272      -522.3843
   4   2.0000     -10.298095      -280.2254
   5   2.0000     -10.275665      -279.6151
   6   2.0000      -8.226821      -223.8632
   7   2.0000      -6.186648      -168.3473
   8   2.0000      -6.186612      -168.3463
   9   2.0000      -6.184962      -168.3014
  10   2.0000      -1.229296       -33.4508
  11   2.0000      -1.087754       -29.5993
  12   2.0000      -1.065685       -28.9988
  13   2.0000      -0.884329       -24.0638
  14   2.0000      -0.760866       -20.7042
  15   2.0000      -0.652720       -17.7614
  16   2.0000      -0.587928       -15.9983
  17   2.0000      -0.569108       -15.4862
  18   2.0000      -0.554744       -15.0953
  19   2.0000      -0.535993       -14.5851
  20   2.0000      -0.505036       -13.7427
  21   2.0000      -0.465045       -12.6545
  22   2.0000      -0.456981       -12.4351
  23   2.0000      -0.435912       -11.8618
  24   2.0000      -0.431832       -11.7507
  25   2.0000      -0.390483       -10.6256
  26   2.0000      -0.380472       -10.3532
  27   2.0000      -0.371298       -10.1035
  28   2.0000      -0.345751        -9.4084
  29   0.0000       0.080753         2.1974
  30   0.0000       0.100847         2.7442
  31   0.0000       0.102287         2.7834
  32   0.0000       0.103279         2.8104
  33   0.0000       0.143912         3.9161

MULLIKEN ATOMIC CHARGES
-----------------------
   0 C :    0.672326
   1 C :   -0.394881
   2 H :    0.014035
   3 H :    0.060443
   4 S :    1.274685
   5 O :   -0.863003
   6 O :   -0.802957
   7 O :   -0.844836
   8 H :   -0.030914
   9 H :   -0.049513
  10 H :   -0.035385
Sum of atomic charges:   -1.0000000

LOEWDIN ATOMIC CHARGES
----------------------
   0 C :    0.115491
   1 C :   -0.108329
   2 H :    0.014125
   3 H :    0.007484
   4 S :    0.860972
   5 O :   -0.639208
   6 O :   -0.601781
   7 O :   -0.613883
   8 H :   -0.016980
   9 H :   -0.008691
  10 H :   -0.009199

  Mayer bond orders larger than 0.100000
B(  0-C ,  1-C ) :   1.2987 B(  0-C ,  8-H ) :   0.8211 B(  0-C ,  9-H ) :   0.8016
B(  0-C , 10-H ) :   0.8273 B(  1-C ,  2-H ) :   0.9845 B(  1-C ,  3-H ) :   0.9697
B(  1-C ,  4-S ) :   0.9148 B(  1-C ,  8-H ) :   0.1916 B(  1-C ,  9-H ) :   0.1878
B(  1-C , 10-H ) :   0.1728 B(  4-S ,  5-O ) :   1.2710 B(  4-S ,  6-O ) :   1.3552
B(  4-S ,  7-O ) :   1.2962

Dispersion correction           -0.002812042
FINAL SINGLE POINT ENERGY      -702.794001329248

DIPOLE MOMENT
-------------
                                X             Y             Z
Electronic contribution:      3.28085      -4.82297      -3.98527
Nuclear contribution   :     -4.50297       7.24642       5.01775
                        -----------------------------------------
Total Dipole Moment    :     -1.22213       2.42344       1.03248
                        -----------------------------------------
Magnitude (a.u.)       :      2.90391
Magnitude (Debye)      :      7.38115

Rotational constants in cm-1:     0.162459     0.081286     0.079601
Rotational constants in MHz :  4870.394399  2436.893583  2386.374948

                             ****ORCA TERMINATED NORMALLY****
TOTAL RUN TIME: 0 days 0 hours 0 minutes 10 seconds 558 msec
