                         Program Version 5.0.0 -  RELEASE  -
|  1> !wB97X-D3 RIJCOSX def2-SVPD def2/J TightSCF CPCM(Water)
|  2> *xyz 1 1
|  3> C          2.91632       -1.24259       -1.54313
|  4> C          3.46659       -1.59097       -2.88908
|  5> N          4.65227       -1.14316       -3.25969
|  6> N          2.75226       -2.29204       -3.72803
|  7> H          1.77836       -2.48960       -3.51274
|  8> H          2.94861       -2.20854       -4.71681
|  9> H          5.14672       -0.51251       -2.63385
| 10> H          4.78303       -1.00720       -4.25350
| 11> C          2.80408        0.29070       -1.35924
| 12> H          1.94047       -1.71653       -1.44116
| 13> H          3.55857       -1.66343       -0.76637
| 14> H          2.17393        0.69633       -2.12297
| 15> H          3.77707        0.73043       -1.42880
| 16> H          2.38369        0.50492       -0.39889
| 17> *
| 18>
| 19> %MaxCore 64000
| 20>
| 21> %pal nprocs 18
| 22> end
| 23>
| 24> %scf
| 25>   MaxIter 150
| 26> end
| 27>
| 28>
| 29>                          ****END OF INPUT****

CARTESIAN COORDINATES (ANGSTROEM)
---------------------------------
  C      2.916320   -1.242590   -1.543130
  C      3.466590   -1.590970   -2.889080
  N      4.652270   -1.143160   -3.259690
  N      2.752260   -2.292040   -3.728030
  H      1.778360   -2.489600   -3.512740
  H      2.948610   -2.208540   -4.716810
  H      5.146720   -0.512510   -2.633850
  H      4.783030   -1.007200   -4.253500
  C      2.804080    0.290700   -1.359240
  H      1.940470   -1.716530   -1.441160
  H      3.558570   -1.663430   -0.766370
  H      2.173930    0.696330   -2.122970
  H      3.777070    0.730430   -1.428800
  H      2.383690    0.504920   -0.398890

 Total Charge           Charge          ....    1
 Multiplicity           Mult            ....    1
 Number of Electrons    NEL             ....   40
 Basis Dimension        Dim             ....  172

ORBITAL ENERGIES
----------------

  NO   OCC          E(Eh)            E(eV)
   0   2.0000     -14.500928      -394.5903
   1   2.0000     -14.496647      -394.4738
   2   2.0000     -10.437917      -284.0302
   3   2.0000     -10.322720      -280.8955
   4   2.0000     -10.293072      -280.0887
   5   2.0000      -1.138389       -30.9771
   6   2.0000      -1.034622       -28.1535
   7   2.0000      -0.912353       -24.8264
   8   2.0000      -0.798066       -21.7165
   9   2.0000      -0.745824       -20.2949
  10   2.0000      -0.689537       -18.7633
  11   2.0000      -0.677156       -18.4264
  12   2.0000      -0.613095       -16.6832
  13   2.0000      -0.593562       -16.1517
  14   2.0000      -0.557682       -15.1753
  15   2.0000      -0.527582       -14.3562
  16   2.0000      -0.486303       -13.2330
  17   2.0000      -0.473990       -12.8979
  18   2.0000      -0.460690       -12.5360
  19   2.0000      -0.410717       -11.1762
  20   0.0000       0.038473         1.0469
  21   0.0000       0.088277         2.4021
  22   0.0000       0.121871         3.3163
  23   0.0000       0.130103         3.5403
  24   0.0000       0.140503         3.8233

MULLIKEN ATOMIC CHARGES
-----------------------
   0 C :   -0.315219
   1 C :    0.416953
   2 N :    0.003752
   3 N :   -0.025925
   4 H :    0.111183
   5 H :   -0.015514
   6 H :    0.102245
   7 H :    0.015794
   8 C :    0.541821
   9 H :    0.101335
  10 H :    0.104396
  11 H :   -0.027387
  12 H :   -0.054665
  13 H :    0.041232
Sum of atomic charges:    1.0000000

LOEWDIN ATOMIC CHARGES
----------------------
   0 C :    0.020428
   1 C :   -0.045793
   2 N :    0.283972
   3 N :    0.284316
   4 H :    0.062265
   5 H :    0.059958
   6 H :    0.051225
   7 H :    0.057030
   8 C :    0.159603
   9 H :    0.036924
  10 H :    0.051494
  11 H :   -0.002458
  12 H :   -0.016134
  13 H :   -0.002830

  Mayer bond orders larger than 0.100000
B(  0-C ,  1-C ) :   1.2488 B(  0-C ,  8-C ) :   1.2555 B(  0-C ,  9-H ) :   0.8981
B(  0-C , 10-H ) :   0.8411 B(  0-C , 11-H ) :   0.1425 B(  0-C , 12-H ) :   0.1657
B(  0-C , 13-H ) :   0.1390 B(  1-C ,  2-N ) :   1.1301 B(  1-C ,  3-N ) :   1.1258
B(  1-C ,  9-H ) :   0.1424 B(  1-C , 10-H ) :   0.1459 B(  2-N ,  3-N ) :   0.1590
B(  2-N ,  6-H ) :   0.9595 B(  2-N ,  7-H ) :   1.1689 B(  3-N ,  4-H ) :   1.0090
B(  3-N ,  5-H ) :   1.1779 B(  4-H ,  5-H ) :  -0.1244 B(  6-H ,  7-H ) :  -0.1178
B(  8-C ,  9-H ) :   0.1036 B(  8-C , 11-H ) :   0.8586 B(  8-C , 12-H ) :   0.8370
B(  8-C , 13-H ) :   0.8602

Dispersion correction           -0.003004665
FINAL SINGLE POINT ENERGY      -228.913726855442

DIPOLE MOMENT
-------------
                                X             Y             Z
Electronic contribution:      1.34490      -2.91764      -3.07835
Nuclear contribution   :     -1.30215       2.77761       1.84194
                        -----------------------------------------
Total Dipole Moment    :      0.04276      -0.14003      -1.23641
                        -----------------------------------------
Magnitude (a.u.)       :      1.24505
Magnitude (Debye)      :      3.16466

Rotational constants in cm-1:     0.267442     0.127541     0.099068
Rotational constants in MHz :  8017.703171  3823.592522  2969.992494

                             ****ORCA TERMINATED NORMALLY****
TOTAL RUN TIME: 0 days 0 hours 0 minutes 10 seconds 570 msec
