                         Program Version 5.0.0 -  RELEASE  -
|  1> !wB97X-D3 RIJCOSX def2-SVPD def2/J TightSCF CPCM(Water)
|  2> *xyz 0 1
|  3> C          0.70466        1.44313       -4.50363
|  4> C          1.72854        1.42432       -5.63944
|  5> H          2.64672        1.95379       -5.38105
|  6> H          1.29992        1.93061       -6.50361
|  7> S          2.25263       -0.18811       -6.27184
|  8> F          3.56261       -0.44446       -5.63155
|  9> O          2.34494       -0.03374       -7.69650
| 10> O          1.26606       -1.15918       -5.80536
| 11> H         -0.17385        0.91270       -4.80656
| 12> H          0.44778        2.45562       -4.27173
| 13> H          1.12367        0.97423       -3.63791
| 14> *
| 15>
| 16> %MaxCore 64000
| 17>
| 18> %pal nprocs 18
| 19> end
| 20>
| 21> %scf
| 22>   MaxIter 150
| 23> end
| 24>
| 25>
| 26>                          ****END OF INPUT****

CARTESIAN COORDINATES (ANGSTROEM)
---------------------------------
  C      0.704660    1.443130   -4.503630
  C      1.728540    1.424320   -5.639440
  H      2.646720    1.953790   -5.381050
  H      1.299920    1.930610   -6.503610
  S      2.252630   -0.188110   -6.271840
  F      3.562610   -0.444460   -5.631550
  O      2.344940   -0.033740   -7.696500
  O      1.266060   -1.159180   -5.805360
  H     -0.173850    0.912700   -4.806560
  H      0.447780    2.455620   -4.271730
  H      1.123670    0.974230   -3.637910

 Total Charge           Charge          ....    0
 Multiplicity           Mult            ....    1
 Number of Electrons    NEL             ....   58
 Basis Dimension        Dim             ....  176

ORBITAL ENERGIES
----------------

  NO   OCC          E(Eh)            E(eV)
   0   2.0000     -89.237729     -2428.2821
   1   2.0000     -24.899665      -677.5543
   2   2.0000     -19.270839      -524.3862
   3   2.0000     -19.263868      -524.1965
   4   2.0000     -10.338507      -281.3251
   5   2.0000     -10.291387      -280.0429
   6   2.0000      -8.312155      -226.1852
   7   2.0000      -6.275674      -170.7698
   8   2.0000      -6.269936      -170.6136
   9   2.0000      -6.267870      -170.5574
  10   2.0000      -1.459955       -39.7274
  11   2.0000      -1.239936       -33.7404
  12   2.0000      -1.142649       -31.0931
  13   2.0000      -0.921592       -25.0778
  14   2.0000      -0.830124       -22.5888
  15   2.0000      -0.770512       -20.9667
  16   2.0000      -0.677865       -18.4457
  17   2.0000      -0.671208       -18.2645
  18   2.0000      -0.661286       -17.9945
  19   2.0000      -0.590449       -16.0669
  20   2.0000      -0.573351       -15.6017
  21   2.0000      -0.565350       -15.3840
  22   2.0000      -0.522847       -14.2274
  23   2.0000      -0.504448       -13.7267
  24   2.0000      -0.487194       -13.2572
  25   2.0000      -0.469138       -12.7659
  26   2.0000      -0.441489       -12.0135
  27   2.0000      -0.429472       -11.6865
  28   2.0000      -0.426200       -11.5975
  29   0.0000       0.070274         1.9123
  30   0.0000       0.094967         2.5842
  31   0.0000       0.099074         2.6959
  32   0.0000       0.101598         2.7646
  33   0.0000       0.119350         3.2477

MULLIKEN ATOMIC CHARGES
-----------------------
   0 C :    0.638290
   1 C :   -0.485018
   2 H :    0.090606
   3 H :    0.132110
   4 S :    1.512096
   5 F :   -0.417244
   6 O :   -0.697947
   7 O :   -0.742629
   8 H :    0.000958
   9 H :   -0.018283
  10 H :   -0.012939
Sum of atomic charges:   -0.0000000

LOEWDIN ATOMIC CHARGES
----------------------
   0 C :    0.136287
   1 C :   -0.064748
   2 H :    0.032823
   3 H :    0.030593
   4 S :    1.141030
   5 F :   -0.266514
   6 O :   -0.496094
   7 O :   -0.509113
   8 H :   -0.007136
   9 H :    0.003598
  10 H :   -0.000726

  Mayer bond orders larger than 0.100000
B(  0-C ,  1-C ) :   1.3333 B(  0-C ,  8-H ) :   0.8291 B(  0-C ,  9-H ) :   0.8047
B(  0-C , 10-H ) :   0.8355 B(  1-C ,  2-H ) :   0.9634 B(  1-C ,  3-H ) :   0.9665
B(  1-C ,  4-S ) :   0.9668 B(  1-C ,  8-H ) :   0.1850 B(  1-C ,  9-H ) :   0.1847
B(  1-C , 10-H ) :   0.1705 B(  4-S ,  5-F ) :   0.6451 B(  4-S ,  6-O ) :   1.5347
B(  4-S ,  7-O ) :   1.4790

Dispersion correction           -0.002792976
FINAL SINGLE POINT ENERGY      -727.203638741807

DIPOLE MOMENT
-------------
                                X             Y             Z
Electronic contribution:      6.42363      -6.02261      -3.43804
Nuclear contribution   :     -6.09914       7.80989       4.64238
                        -----------------------------------------
Total Dipole Moment    :      0.32449       1.78728       1.20435
                        -----------------------------------------
Magnitude (a.u.)       :      2.17947
Magnitude (Debye)      :      5.53978

Rotational constants in cm-1:     0.154372     0.078826     0.078033
Rotational constants in MHz :  4627.943144  2363.154585  2339.382767

                             ****ORCA TERMINATED NORMALLY****
TOTAL RUN TIME: 0 days 0 hours 0 minutes 12 seconds 574 msec
