                         Program Version 5.0.0 -  RELEASE  -
|  1> !wB97X-D3 RIJCOSX def2-SVPD def2/J TightSCF CPCM(Water)
|  2> *xyz 0 1
|  3> C          2.91632       -1.24259       -1.54313
|  4> C          3.46659       -1.59097       -2.88908
|  5> C          4.65227       -1.14316       -3.25969
|  6> N          2.75226       -2.29204       -3.72803
|  7> H          1.77836       -2.48960       -3.51274
|  8> H          2.94861       -2.20854       -4.71681
|  9> H          5.14672       -0.51251       -2.63385
| 10> H          4.78303       -1.00720       -4.25350
| 11> C          2.80408        0.29070       -1.35924
| 12> H          1.94047       -1.71653       -1.44116
| 13> H          3.55857       -1.66343       -0.76637
| 14> H          2.17393        0.69633       -2.12297
| 15> H          3.77707        0.73043       -1.42880
| 16> H          2.38369        0.50492       -0.39889
| 17> *
| 18>
| 19> %MaxCore 64000
| 20>
| 21> %pal nprocs 18
| 22> end
| 23>
| 24> %scf
| 25>   MaxIter 150
| 26> end
| 27>
| 28>
| 29>                          ****END OF INPUT****

CARTESIAN COORDINATES (ANGSTROEM)
---------------------------------
  C      2.916320   -1.242590   -1.543130
  C      3.466590   -1.590970   -2.889080
  C      4.652270   -1.143160   -3.259690
  N      2.752260   -2.292040   -3.728030
  H      1.778360   -2.489600   -3.512740
  H      2.948610   -2.208540   -4.716810
  H      5.146720   -0.512510   -2.633850
  H      4.783030   -1.007200   -4.253500
  C      2.804080    0.290700   -1.359240
  H      1.940470   -1.716530   -1.441160
  H      3.558570   -1.663430   -0.766370
  H      2.173930    0.696330   -2.122970
  H      3.777070    0.730430   -1.428800
  H      2.383690    0.504920   -0.398890

 Total Charge           Charge          ....    0
 Multiplicity           Mult            ....    1
 Number of Electrons    NEL             ....   40
 Basis Dimension        Dim             ....  172

ORBITAL ENERGIES
----------------

  NO   OCC          E(Eh)            E(eV)
   0   2.0000     -14.434911      -392.7939
   1   2.0000     -10.316484      -280.7258
   2   2.0000     -10.287908      -279.9482
   3   2.0000     -10.272965      -279.5416
   4   2.0000     -10.220006      -278.1005
   5   2.0000      -1.044030       -28.4095
   6   2.0000      -0.889327       -24.1998
   7   2.0000      -0.821564       -22.3559
   8   2.0000      -0.748415       -20.3654
   9   2.0000      -0.665595       -18.1118
  10   2.0000      -0.619109       -16.8468
  11   2.0000      -0.581338       -15.8190
  12   2.0000      -0.547682       -14.9032
  13   2.0000      -0.508551       -13.8384
  14   2.0000      -0.488775       -13.3002
  15   2.0000      -0.473508       -12.8848
  16   2.0000      -0.448720       -12.2103
  17   2.0000      -0.435132       -11.8406
  18   2.0000      -0.421924       -11.4811
  19   2.0000      -0.283866        -7.7244
  20   0.0000       0.095494         2.5985
  21   0.0000       0.108994         2.9659
  22   0.0000       0.126965         3.4549
  23   0.0000       0.131520         3.5788
  24   0.0000       0.146987         3.9997

MULLIKEN ATOMIC CHARGES
-----------------------
   0 C :   -0.109093
   1 C :   -0.306649
   2 C :    0.397127
   3 N :    0.082786
   4 H :   -0.007776
   5 H :   -0.037508
   6 H :   -0.126321
   7 H :   -0.335484
   8 C :    0.591399
   9 H :   -0.009453
  10 H :    0.028422
  11 H :   -0.082825
  12 H :   -0.111418
  13 H :    0.026795
Sum of atomic charges:   -0.0000000

LOEWDIN ATOMIC CHARGES
----------------------
   0 C :   -0.020539
   1 C :   -0.271443
   2 C :    0.135562
   3 N :    0.171734
   4 H :    0.018738
   5 H :    0.022281
   6 H :   -0.092856
   7 H :   -0.090329
   8 C :    0.136221
   9 H :    0.017018
  10 H :    0.030184
  11 H :   -0.011665
  12 H :   -0.028104
  13 H :   -0.016802

  Mayer bond orders larger than 0.100000
B(  0-C ,  1-C ) :   1.2062 B(  0-C ,  8-C ) :   1.2551 B(  0-C ,  9-H ) :   0.8398
B(  0-C , 10-H ) :   0.8456 B(  0-C , 11-H ) :   0.1532 B(  0-C , 12-H ) :   0.1737
B(  0-C , 13-H ) :   0.1508 B(  1-C ,  2-C ) :   2.0048 B(  1-C ,  3-N ) :   1.1426
B(  1-C ,  6-H ) :   0.1355 B(  1-C ,  7-H ) :   0.2134 B(  1-C ,  9-H ) :   0.1869
B(  1-C , 10-H ) :   0.1668 B(  2-C ,  3-N ) :   0.2217 B(  2-C ,  6-H ) :   0.7272
B(  2-C ,  7-H ) :   0.8262 B(  3-N ,  4-H ) :   1.0140 B(  3-N ,  5-H ) :   1.0818
B(  4-H ,  5-H ) :  -0.1117 B(  6-H ,  7-H ) :   0.1394 B(  8-C , 11-H ) :   0.8599
B(  8-C , 12-H ) :   0.8575 B(  8-C , 13-H ) :   0.8250

Dispersion correction           -0.002988923
FINAL SINGLE POINT ENERGY      -212.362051916829

DIPOLE MOMENT
-------------
                                X             Y             Z
Electronic contribution:     -0.31726      -2.71146      -1.84188
Nuclear contribution   :     -0.99366       2.78648       1.68526
                        -----------------------------------------
Total Dipole Moment    :     -1.31092       0.07501      -0.15661
                        -----------------------------------------
Magnitude (a.u.)       :      1.32237
Magnitude (Debye)      :      3.36120

Rotational constants in cm-1:     0.282898     0.128664     0.101801
Rotational constants in MHz :  8481.061354  3857.240210  3051.924245

                             ****ORCA TERMINATED NORMALLY****
TOTAL RUN TIME: 0 days 0 hours 0 minutes 11 seconds 609 msec
