                         Program Version 5.0.0 -  RELEASE  -
|  1> !wB97X-D3 RIJCOSX def2-SVPD def2/J TightSCF CPCM(Water)
|  2> *xyz 0 1
|  3> C          0.70466        1.44313       -4.50363
|  4> C          1.72854        1.42432       -5.63944
|  5> H          2.64672        1.95379       -5.38105
|  6> H          1.29992        1.93061       -6.50361
|  7> S          2.25263       -0.18811       -6.27184
|  8> O          3.56261       -0.44446       -5.63155
|  9> F          2.34494       -0.03374       -7.69650
| 10> O          1.26606       -1.15918       -5.80536
| 11> H         -0.17385        0.91270       -4.80656
| 12> H          0.44778        2.45562       -4.27173
| 13> H          1.12367        0.97423       -3.63791
| 14> *
| 15>
| 16> %MaxCore 64000
| 17>
| 18> %pal nprocs 18
| 19> end
| 20>
| 21> %scf
| 22>   MaxIter 150
| 23> end
| 24>
| 25>
| 26>                          ****END OF INPUT****

CARTESIAN COORDINATES (ANGSTROEM)
---------------------------------
  C      0.704660    1.443130   -4.503630
  C      1.728540    1.424320   -5.639440
  H      2.646720    1.953790   -5.381050
  H      1.299920    1.930610   -6.503610
  S      2.252630   -0.188110   -6.271840
  O      3.562610   -0.444460   -5.631550
  F      2.344940   -0.033740   -7.696500
  O      1.266060   -1.159180   -5.805360
  H     -0.173850    0.912700   -4.806560
  H      0.447780    2.455620   -4.271730
  H      1.123670    0.974230   -3.637910

 Total Charge           Charge          ....    0
 Multiplicity           Mult            ....    1
 Number of Electrons    NEL             ....   58
 Basis Dimension        Dim             ....  176

ORBITAL ENERGIES
----------------

  NO   OCC          E(Eh)            E(eV)
   0   2.0000     -89.240896     -2428.3682
   1   2.0000     -24.921048      -678.1362
   2   2.0000     -19.264498      -524.2136
   3   2.0000     -19.257711      -524.0289
   4   2.0000     -10.339611      -281.3551
   5   2.0000     -10.293620      -280.1037
   6   2.0000      -8.315351      -226.2722
   7   2.0000      -6.278990      -170.8600
   8   2.0000      -6.273013      -170.6974
   9   2.0000      -6.270873      -170.6391
  10   2.0000      -1.496583       -40.7241
  11   2.0000      -1.227445       -33.4005
  12   2.0000      -1.123867       -30.5820
  13   2.0000      -0.923616       -25.1329
  14   2.0000      -0.844812       -22.9885
  15   2.0000      -0.777698       -21.1622
  16   2.0000      -0.697252       -18.9732
  17   2.0000      -0.690236       -18.7823
  18   2.0000      -0.664482       -18.0815
  19   2.0000      -0.588087       -16.0027
  20   2.0000      -0.582231       -15.8433
  21   2.0000      -0.553618       -15.0647
  22   2.0000      -0.521812       -14.1992
  23   2.0000      -0.496125       -13.5002
  24   2.0000      -0.487507       -13.2657
  25   2.0000      -0.470278       -12.7969
  26   2.0000      -0.436883       -11.8882
  27   2.0000      -0.422403       -11.4942
  28   2.0000      -0.412456       -11.2235
  29   0.0000       0.069752         1.8980
  30   0.0000       0.094618         2.5747
  31   0.0000       0.098674         2.6851
  32   0.0000       0.100694         2.7400
  33   0.0000       0.119154         3.2424

MULLIKEN ATOMIC CHARGES
-----------------------
   0 C :    0.619068
   1 C :   -0.482484
   2 H :    0.077160
   3 H :    0.142951
   4 S :    1.520214
   5 O :   -0.748378
   6 F :   -0.384236
   7 O :   -0.731458
   8 H :    0.004698
   9 H :   -0.015331
  10 H :   -0.002205
Sum of atomic charges:    0.0000000

LOEWDIN ATOMIC CHARGES
----------------------
   0 C :    0.141982
   1 C :   -0.068373
   2 H :    0.032286
   3 H :    0.027087
   4 S :    1.147258
   5 O :   -0.530367
   6 F :   -0.239477
   7 O :   -0.510040
   8 H :   -0.006489
   9 H :    0.005422
  10 H :    0.000711

  Mayer bond orders larger than 0.100000
B(  0-C ,  1-C ) :   1.3375 B(  0-C ,  8-H ) :   0.8279 B(  0-C ,  9-H ) :   0.8083
B(  0-C , 10-H ) :   0.8393 B(  1-C ,  2-H ) :   0.9892 B(  1-C ,  3-H ) :   0.9364
B(  1-C ,  4-S ) :   0.9596 B(  1-C ,  8-H ) :   0.1858 B(  1-C ,  9-H ) :   0.1809
B(  1-C , 10-H ) :   0.1629 B(  4-S ,  5-O ) :   1.4568 B(  4-S ,  6-F ) :   0.7137
B(  4-S ,  7-O ) :   1.4763

Dispersion correction           -0.002819710
FINAL SINGLE POINT ENERGY      -727.185739098335

DIPOLE MOMENT
-------------
                                X             Y             Z
Electronic contribution:      4.03099      -5.22496      -7.40644
Nuclear contribution   :     -4.83029       7.38191       6.79413
                        -----------------------------------------
Total Dipole Moment    :     -0.79929       2.15695      -0.61232
                        -----------------------------------------
Magnitude (a.u.)       :      2.38038
Magnitude (Debye)      :      6.05046

Rotational constants in cm-1:     0.156575     0.079070     0.076729
Rotational constants in MHz :  4694.010604  2370.444114  2300.280155

                             ****ORCA TERMINATED NORMALLY****
TOTAL RUN TIME: 0 days 0 hours 0 minutes 11 seconds 321 msec
