                         Program Version 5.0.0 -  RELEASE  -
|  1> !wB97X-D3 RIJCOSX def2-SVPD def2/J TightSCF CPCM(Water)
|  2> *xyz 0 1
|  3> C          2.91632       -1.24259       -1.54313
|  4> C          3.46659       -1.59097       -2.88908
|  5> N          4.65227       -1.14316       -3.25969
|  6> C          2.75226       -2.29204       -3.72803
|  7> H          1.77836       -2.48960       -3.51274
|  8> H          2.94861       -2.20854       -4.71681
|  9> H          5.14672       -0.51251       -2.63385
| 10> H          4.78303       -1.00720       -4.25350
| 11> C          2.80408        0.29070       -1.35924
| 12> H          1.94047       -1.71653       -1.44116
| 13> H          3.55857       -1.66343       -0.76637
| 14> H          2.17393        0.69633       -2.12297
| 15> H          3.77707        0.73043       -1.42880
| 16> H          2.38369        0.50492       -0.39889
| 17> *
| 18>
| 19> %MaxCore 64000
| 20>
| 21> %pal nprocs 18
| 22> end
| 23>
| 24> %scf
| 25>   MaxIter 150
| 26> end
| 27>
| 28>
| 29>                          ****END OF INPUT****

CARTESIAN COORDINATES (ANGSTROEM)
---------------------------------
  C      2.916320   -1.242590   -1.543130
  C      3.466590   -1.590970   -2.889080
  N      4.652270   -1.143160   -3.259690
  C      2.752260   -2.292040   -3.728030
  H      1.778360   -2.489600   -3.512740
  H      2.948610   -2.208540   -4.716810
  H      5.146720   -0.512510   -2.633850
  H      4.783030   -1.007200   -4.253500
  C      2.804080    0.290700   -1.359240
  H      1.940470   -1.716530   -1.441160
  H      3.558570   -1.663430   -0.766370
  H      2.173930    0.696330   -2.122970
  H      3.777070    0.730430   -1.428800
  H      2.383690    0.504920   -0.398890

 Total Charge           Charge          ....    0
 Multiplicity           Mult            ....    1
 Number of Electrons    NEL             ....   40
 Basis Dimension        Dim             ....  172

ORBITAL ENERGIES
----------------

  NO   OCC          E(Eh)            E(eV)
   0   2.0000     -14.431901      -392.7120
   1   2.0000     -10.314692      -280.6770
   2   2.0000     -10.287102      -279.9263
   3   2.0000     -10.274153      -279.5739
   4   2.0000     -10.224015      -278.2096
   5   2.0000      -1.039657       -28.2905
   6   2.0000      -0.885676       -24.1005
   7   2.0000      -0.832460       -22.6524
   8   2.0000      -0.739917       -20.1342
   9   2.0000      -0.665649       -18.1132
  10   2.0000      -0.623851       -16.9759
  11   2.0000      -0.577800       -15.7227
  12   2.0000      -0.533775       -14.5248
  13   2.0000      -0.530090       -14.4245
  14   2.0000      -0.487626       -13.2690
  15   2.0000      -0.475042       -12.9266
  16   2.0000      -0.446405       -12.1473
  17   2.0000      -0.435992       -11.8640
  18   2.0000      -0.416178       -11.3248
  19   2.0000      -0.290792        -7.9129
  20   0.0000       0.094756         2.5785
  21   0.0000       0.110602         3.0096
  22   0.0000       0.124989         3.4011
  23   0.0000       0.139066         3.7842
  24   0.0000       0.140952         3.8355

MULLIKEN ATOMIC CHARGES
-----------------------
   0 C :   -0.226693
   1 C :   -0.390687
   2 N :    0.145878
   3 C :    0.300964
   4 H :   -0.031295
   5 H :   -0.327203
   6 H :   -0.030028
   7 H :   -0.024327
   8 C :    0.613907
   9 H :    0.132348
  10 H :   -0.010190
  11 H :   -0.034709
  12 H :   -0.073768
  13 H :   -0.044197
Sum of atomic charges:   -0.0000000

LOEWDIN ATOMIC CHARGES
----------------------
   0 C :   -0.025009
   1 C :   -0.281743
   2 N :    0.175547
   3 C :    0.139598
   4 H :   -0.085209
   5 H :   -0.084796
   6 H :    0.010396
   7 H :    0.019459
   8 C :    0.137064
   9 H :    0.021103
  10 H :    0.027422
  11 H :   -0.011646
  12 H :   -0.026364
  13 H :   -0.015821

  Mayer bond orders larger than 0.100000
B(  0-C ,  1-C ) :   1.3069 B(  0-C ,  8-C ) :   1.2482 B(  0-C ,  9-H ) :   0.8882
B(  0-C , 10-H ) :   0.8428 B(  0-C , 11-H ) :   0.1457 B(  0-C , 12-H ) :   0.1931
B(  0-C , 13-H ) :   0.1892 B(  1-C ,  2-N ) :   1.1491 B(  1-C ,  3-C ) :   2.0556
B(  1-C ,  5-H ) :   0.2646 B(  1-C ,  9-H ) :   0.1097 B(  1-C , 10-H ) :   0.2039
B(  2-N ,  3-C ) :   0.2458 B(  2-N ,  6-H ) :   0.9749 B(  2-N ,  7-H ) :   1.0541
B(  3-C ,  4-H ) :   0.8979 B(  3-C ,  5-H ) :   0.7215 B(  4-H ,  5-H ) :   0.1478
B(  8-C ,  9-H ) :   0.1024 B(  8-C , 11-H ) :   0.8408 B(  8-C , 12-H ) :   0.8115
B(  8-C , 13-H ) :   0.8507

Dispersion correction           -0.003012779
FINAL SINGLE POINT ENERGY      -212.365341946848

DIPOLE MOMENT
-------------
                                X             Y             Z
Electronic contribution:      1.87370      -1.40499      -1.31866
Nuclear contribution   :     -1.43372       2.52039       1.57679
                        -----------------------------------------
Total Dipole Moment    :      0.43999       1.11540       0.25813
                        -----------------------------------------
Magnitude (a.u.)       :      1.22651
Magnitude (Debye)      :      3.11754

Rotational constants in cm-1:     0.274962     0.131786     0.102554
Rotational constants in MHz :  8243.150005  3950.846092  3074.493018

                             ****ORCA TERMINATED NORMALLY****
TOTAL RUN TIME: 0 days 0 hours 0 minutes 11 seconds 30 msec
