                         Program Version 5.0.0 -  RELEASE  -
|  1> !wB97X-D3 RIJCOSX def2-SVPD def2/J TightSCF CPCM(Water)
|  2> *xyz 0 1
|  3> C          0.70466        1.44313       -4.50363
|  4> C          1.72854        1.42432       -5.63944
|  5> H          2.64672        1.95379       -5.38105
|  6> H          1.29992        1.93061       -6.50361
|  7> S          2.25263       -0.18811       -6.27184
|  8> O          3.56261       -0.44446       -5.63155
|  9> O          2.34494       -0.03374       -7.69650
| 10> F          1.26606       -1.15918       -5.80536
| 11> H         -0.17385        0.91270       -4.80656
| 12> H          0.44778        2.45562       -4.27173
| 13> H          1.12367        0.97423       -3.63791
| 14> *
| 15>
| 16> %MaxCore 64000
| 17>
| 18> %pal nprocs 18
| 19> end
| 20>
| 21> %scf
| 22>   MaxIter 150
| 23> end
| 24>
| 25>
| 26>                          ****END OF INPUT****

CARTESIAN COORDINATES (ANGSTROEM)
---------------------------------
  C      0.704660    1.443130   -4.503630
  C      1.728540    1.424320   -5.639440
  H      2.646720    1.953790   -5.381050
  H      1.299920    1.930610   -6.503610
  S      2.252630   -0.188110   -6.271840
  O      3.562610   -0.444460   -5.631550
  O      2.344940   -0.033740   -7.696500
  F      1.266060   -1.159180   -5.805360
  H     -0.173850    0.912700   -4.806560
  H      0.447780    2.455620   -4.271730
  H      1.123670    0.974230   -3.637910

 Total Charge           Charge          ....    0
 Multiplicity           Mult            ....    1
 Number of Electrons    NEL             ....   58
 Basis Dimension        Dim             ....  176

ORBITAL ENERGIES
----------------

  NO   OCC          E(Eh)            E(eV)
   0   2.0000     -89.239358     -2428.3264
   1   2.0000     -24.910137      -677.8393
   2   2.0000     -19.271435      -524.4024
   3   2.0000     -19.257528      -524.0240
   4   2.0000     -10.339378      -281.3488
   5   2.0000     -10.293344      -280.0961
   6   2.0000      -8.313847      -226.2313
   7   2.0000      -6.277520      -170.8200
   8   2.0000      -6.271571      -170.6581
   9   2.0000      -6.269385      -170.5986
  10   2.0000      -1.476457       -40.1764
  11   2.0000      -1.237098       -33.6631
  12   2.0000      -1.132371       -30.8134
  13   2.0000      -0.924312       -25.1518
  14   2.0000      -0.833247       -22.6738
  15   2.0000      -0.776914       -21.1409
  16   2.0000      -0.692866       -18.8539
  17   2.0000      -0.683654       -18.6032
  18   2.0000      -0.655771       -17.8444
  19   2.0000      -0.585495       -15.9321
  20   2.0000      -0.576621       -15.6906
  21   2.0000      -0.555567       -15.1178
  22   2.0000      -0.535474       -14.5710
  23   2.0000      -0.506215       -13.7748
  24   2.0000      -0.480887       -13.0856
  25   2.0000      -0.477172       -12.9845
  26   2.0000      -0.437304       -11.8996
  27   2.0000      -0.425425       -11.5764
  28   2.0000      -0.417984       -11.3739
  29   0.0000       0.067911         1.8480
  30   0.0000       0.095055         2.5866
  31   0.0000       0.098580         2.6825
  32   0.0000       0.099732         2.7138
  33   0.0000       0.128254         3.4900

MULLIKEN ATOMIC CHARGES
-----------------------
   0 C :    0.601620
   1 C :   -0.468719
   2 H :    0.082913
   3 H :    0.128160
   4 S :    1.503688
   5 O :   -0.751297
   6 O :   -0.687134
   7 F :   -0.418100
   8 H :    0.014982
   9 H :   -0.007353
  10 H :    0.001239
Sum of atomic charges:   -0.0000000

LOEWDIN ATOMIC CHARGES
----------------------
   0 C :    0.135637
   1 C :   -0.062507
   2 H :    0.037849
   3 H :    0.026979
   4 S :    1.141067
   5 O :   -0.530707
   6 O :   -0.495127
   7 F :   -0.252640
   8 H :   -0.003864
   9 H :    0.003694
  10 H :   -0.000382

  Mayer bond orders larger than 0.100000
B(  0-C ,  1-C ) :   1.3192 B(  0-C ,  8-H ) :   0.8321 B(  0-C ,  9-H ) :   0.7999
B(  0-C , 10-H ) :   0.8436 B(  1-C ,  2-H ) :   0.9827 B(  1-C ,  3-H ) :   0.9661
B(  1-C ,  4-S ) :   0.9741 B(  1-C ,  8-H ) :   0.1757 B(  1-C ,  9-H ) :   0.1879
B(  1-C , 10-H ) :   0.1586 B(  4-S ,  5-O ) :   1.4590 B(  4-S ,  6-O ) :   1.5343
B(  4-S ,  7-F ) :   0.6730

Dispersion correction           -0.002791679
FINAL SINGLE POINT ENERGY      -727.194961827102

DIPOLE MOMENT
-------------
                                X             Y             Z
Electronic contribution:      1.96097      -7.37606      -3.78423
Nuclear contribution   :     -3.70606       8.55465       4.82350
                        -----------------------------------------
Total Dipole Moment    :     -1.74509       1.17859       1.03927
                        -----------------------------------------
Magnitude (a.u.)       :      2.34829
Magnitude (Debye)      :      5.96889

Rotational constants in cm-1:     0.153201     0.080978     0.077494
Rotational constants in MHz :  4592.852844  2427.650814  2323.207507

                             ****ORCA TERMINATED NORMALLY****
TOTAL RUN TIME: 0 days 0 hours 0 minutes 10 seconds 890 msec
