                         Program Version 5.0.0 -  RELEASE  -
|  1> !wB97X-D3 RIJCOSX def2-SVPD def2/J TightSCF CPCM(Water) xyzfile
|  2>
|  3> *xyzfile 0 1 D1.xyz
|  4>
|  5> %MaxCore 64000
|  6>
|  7> %pal nprocs 18
|  8> end
|  9>
| 10> %scf
| 11>   MaxIter 150
| 12> end
| 13>
| 14>
| 15>                          ****END OF INPUT****

CARTESIAN COORDINATES (ANGSTROEM)
---------------------------------
  C      2.916324   -1.242589   -1.543125
  C      0.704661    1.443129   -4.503630
  C      1.728539    1.424320   -5.639443
  H      2.646718    1.953794   -5.381054
  H      1.299916    1.930613   -6.503614
  S      2.252625   -0.188115   -6.271840
  C      3.466585   -1.590971   -2.889082
  C      4.652275   -1.143164   -3.259692
  N      2.752264   -2.292043   -3.728029
  H      1.778364   -2.489604   -3.512738
  H      2.948612   -2.208544   -4.716813
  H      5.146723   -0.512508   -2.633852
  H      4.783030   -1.007203   -4.253498
  F      3.562607   -0.444464   -5.631552
  O      2.344944   -0.033742   -7.696501
  C      2.804084    0.290698   -1.359243
  C      1.052550    0.695659   -3.214915
  H     -0.232483    1.032925   -4.884449
  H      0.511700    2.495794   -4.267966
  C      2.388380    1.093669   -2.597108
  H      3.763425    0.674718   -0.999889
  H      2.094788    0.461222   -0.545756
  O      1.266058   -1.159177   -5.805365
  H      3.167316    1.013242   -3.359430
  H      2.357690    2.149375   -2.310997
  H      1.039284   -0.368429   -3.449329
  H      0.250787    0.865605   -2.488283
  H      1.940472   -1.716529   -1.441161
  H      3.558569   -1.663433   -0.766371

 Total Charge           Charge          ....    0
 Multiplicity           Mult            ....    1
 Number of Electrons    NEL             ....  112
 Basis Dimension        Dim             ....  404

ORBITAL ENERGIES
----------------

  NO   OCC          E(Eh)            E(eV)
   0   2.0000     -89.241872     -2428.3948
   1   2.0000     -24.906250      -677.7335
   2   2.0000     -19.273009      -524.4452
   3   2.0000     -19.266280      -524.2621
   4   2.0000     -14.431942      -392.7131
   5   2.0000     -10.338693      -281.3301
   6   2.0000     -10.314172      -280.6629
   7   2.0000     -10.301598      -280.3207
   8   2.0000     -10.285477      -279.8820
   9   2.0000     -10.284209      -279.8476
  10   2.0000     -10.281718      -279.7798
  11   2.0000     -10.278654      -279.6964
  12   2.0000     -10.216660      -278.0095
  13   2.0000      -8.315073      -226.2646
  14   2.0000      -6.278797      -170.8548
  15   2.0000      -6.272849      -170.6929
  16   2.0000      -6.270769      -170.6363
  17   2.0000      -1.468025       -39.9470
  18   2.0000      -1.242815       -33.8187
  19   2.0000      -1.145857       -31.1804
  20   2.0000      -1.043976       -28.4080
  21   2.0000      -0.939621       -25.5684
  22   2.0000      -0.906477       -24.6665
  23   2.0000      -0.866625       -23.5821
  24   2.0000      -0.840082       -22.8598
  25   2.0000      -0.804136       -21.8816
  26   2.0000      -0.788208       -21.4482
  27   2.0000      -0.733879       -19.9699
  28   2.0000      -0.696701       -18.9582
  29   2.0000      -0.682589       -18.5742
  30   2.0000      -0.672314       -18.2946
  31   2.0000      -0.667316       -18.1586
  32   2.0000      -0.647954       -17.6317
  33   2.0000      -0.613986       -16.7074
  34   2.0000      -0.596975       -16.2445
  35   2.0000      -0.583057       -15.8658
  36   2.0000      -0.577626       -15.7180
  37   2.0000      -0.571371       -15.5478
  38   2.0000      -0.562702       -15.3119
  39   2.0000      -0.537062       -14.6142
  40   2.0000      -0.525117       -14.2892
  41   2.0000      -0.513813       -13.9816
  42   2.0000      -0.499012       -13.5788
  43   2.0000      -0.488799       -13.3009
  44   2.0000      -0.475292       -12.9333
  45   2.0000      -0.473359       -12.8807
  46   2.0000      -0.462365       -12.5816
  47   2.0000      -0.451702       -12.2914
  48   2.0000      -0.444318       -12.0905
  49   2.0000      -0.434156       -11.8140
  50   2.0000      -0.428817       -11.6687
  51   2.0000      -0.423225       -11.5165
  52   2.0000      -0.409838       -11.1523
  53   2.0000      -0.403814       -10.9883
  54   2.0000      -0.401128       -10.9152
  55   2.0000      -0.280325        -7.6280
  56   0.0000       0.072441         1.9712
  57   0.0000       0.090435         2.4609
  58   0.0000       0.092219         2.5094
  59   0.0000       0.097102         2.6423
  60   0.0000       0.108976         2.9654

MULLIKEN ATOMIC CHARGES
-----------------------
   0 C :    0.494088
   1 C :    0.420614
   2 C :    0.009688
   3 H :    0.228152
   4 H :   -0.113224
   5 S :    1.560097
   6 C :   -0.597032
   7 C :    0.637602
   8 N :    0.289863
   9 H :    0.071244
  10 H :   -0.140276
  11 H :    0.029401
  12 H :   -0.600835
  13 F :   -0.568984
  14 O :   -0.696520
  15 C :    0.306365
  16 C :    0.204524
  17 H :    0.050891
  18 H :    0.011809
  19 C :   -0.058464
  20 H :    0.014369
  21 H :   -0.093636
  22 O :   -0.825126
  23 H :   -0.055371
  24 H :   -0.144162
  25 H :   -0.353210
  26 H :   -0.053712
  27 H :    0.133987
  28 H :   -0.162141
Sum of atomic charges:    0.0000000

LOEWDIN ATOMIC CHARGES
----------------------
   0 C :    0.027927
   1 C :   -0.019911
   2 C :   -0.013937
   3 H :    0.030532
   4 H :    0.032632
   5 S :    1.152996
   6 C :   -0.255009
   7 C :    0.142747
   8 N :    0.189620
   9 H :    0.019617
  10 H :   -0.035586
  11 H :   -0.077344
  12 H :   -0.121406
  13 F :   -0.275996
  14 O :   -0.479743
  15 C :   -0.007931
  16 C :   -0.017708
  17 H :    0.033432
  18 H :    0.043857
  19 C :   -0.023258
  20 H :    0.021231
  21 H :    0.022075
  22 O :   -0.486448
  23 H :   -0.005100
  24 H :    0.031595
  25 H :   -0.016156
  26 H :    0.037172
  27 H :    0.019948
  28 H :    0.030151

  Mayer bond orders larger than 0.100000
B(  0-C ,  6-C ) :   1.2922 B(  0-C , 15-C ) :   1.1351 B(  0-C , 21-H ) :   0.1726
B(  0-C , 27-H ) :   0.6147 B(  0-C , 28-H ) :   0.7514 B(  1-C ,  2-C ) :   1.2545
B(  1-C ,  4-H ) :   0.1998 B(  1-C , 16-C ) :   1.2425 B(  1-C , 17-H ) :   0.6913
B(  1-C , 18-H ) :   0.7661 B(  2-C ,  3-H ) :   0.8493 B(  2-C ,  4-H ) :   0.9309
B(  2-C ,  5-S ) :   0.9668 B(  2-C , 17-H ) :   0.1144 B(  2-C , 18-H ) :   0.1432
B(  5-S , 13-F ) :   0.6325 B(  5-S , 14-O ) :   1.5433 B(  5-S , 22-O ) :   1.4511
B(  6-C ,  7-C ) :   2.2436 B(  6-C ,  8-N ) :   0.9780 B(  6-C , 11-H ) :   0.1238
B(  6-C , 12-H ) :   0.3685 B(  6-C , 27-H ) :   0.2551 B(  6-C , 28-H ) :   0.2302
B(  7-C ,  8-N ) :   0.3271 B(  7-C , 11-H ) :   0.6013 B(  7-C , 12-H ) :   0.3813
B(  8-N ,  9-H ) :   0.8727 B(  8-N , 10-H ) :   0.9368 B(  8-N , 11-H ) :   0.1594
B(  9-H , 10-H ) :  -0.1300 B( 12-H , 13-F ) :   0.2872 B( 15-C , 19-C ) :   1.2253
B( 15-C , 20-H ) :   0.7095 B( 15-C , 21-H ) :   0.8456 B( 15-C , 23-H ) :   0.1620
B( 15-C , 27-H ) :   0.1249 B( 16-C , 17-H ) :   0.2641 B( 16-C , 19-C ) :   1.2205
B( 16-C , 23-H ) :   0.1293 B( 16-C , 24-H ) :   0.1678 B( 16-C , 25-H ) :   0.9063
B( 16-C , 26-H ) :   0.7380 B( 19-C , 20-H ) :   0.2588 B( 19-C , 21-H ) :   0.1789
B( 19-C , 23-H ) :   0.8576 B( 19-C , 24-H ) :   0.8739 B( 19-C , 25-H ) :   0.1376
B( 19-C , 26-H ) :   0.2136 B( 20-H , 21-H ) :  -0.1222

Dispersion correction           -0.016341872
FINAL SINGLE POINT ENERGY     -1016.918748942790

DIPOLE MOMENT
-------------
                                X             Y             Z
Electronic contribution:      1.81751      -4.37077     -18.33689
Nuclear contribution   :     -2.89481       6.29550      19.36835
                        -----------------------------------------
Total Dipole Moment    :     -1.07730       1.92473       1.03147
                        -----------------------------------------
Magnitude (a.u.)       :      2.43497
Magnitude (Debye)      :      6.18919

Rotational constants in cm-1:     0.036515     0.018832     0.015081
Rotational constants in MHz :  1094.679513   564.567051   452.109105

                             ****ORCA TERMINATED NORMALLY****
TOTAL RUN TIME: 0 days 0 hours 1 minutes 4 seconds 798 msec
