                         Program Version 5.0.0 -  RELEASE  -
|  1> !wB97X-D3 RIJCOSX def2-SVPD def2/J TightSCF CPCM(Water) xyzfile
|  2>
|  3> *xyzfile 0 1 D3.xyz
|  4>
|  5> %MaxCore 64000
|  6>
|  7> %pal nprocs 18
|  8> end
|  9>
| 10> %scf
| 11>   MaxIter 150
| 12> end
| 13>
| 14>
| 15>                          ****END OF INPUT****

CARTESIAN COORDINATES (ANGSTROEM)
---------------------------------
  C      2.916324   -1.242589   -1.543125
  C      0.704661    1.443129   -4.503630
  C      1.728539    1.424320   -5.639443
  H      2.646718    1.953794   -5.381054
  H      1.299916    1.930613   -6.503614
  S      2.252625   -0.188115   -6.271840
  C      3.466585   -1.590971   -2.889082
  C      4.652275   -1.143164   -3.259692
  N      2.752264   -2.292043   -3.728029
  H      1.778364   -2.489604   -3.512738
  H      2.948612   -2.208544   -4.716813
  H      5.146723   -0.512508   -2.633852
  H      4.783030   -1.007203   -4.253498
  O      3.562607   -0.444464   -5.631552
  F      2.344944   -0.033742   -7.696501
  C      2.804084    0.290698   -1.359243
  C      1.052550    0.695659   -3.214915
  H     -0.232483    1.032925   -4.884449
  H      0.511700    2.495794   -4.267966
  C      2.388380    1.093669   -2.597108
  H      3.763425    0.674718   -0.999889
  H      2.094788    0.461222   -0.545756
  O      1.266058   -1.159177   -5.805365
  H      3.167316    1.013242   -3.359430
  H      2.357690    2.149375   -2.310997
  H      1.039284   -0.368429   -3.449329
  H      0.250787    0.865605   -2.488283
  H      1.940472   -1.716529   -1.441161
  H      3.558569   -1.663433   -0.766371

 Total Charge           Charge          ....    0
 Multiplicity           Mult            ....    1
 Number of Electrons    NEL             ....  112
 Basis Dimension        Dim             ....  404

ORBITAL ENERGIES
----------------

  NO   OCC          E(Eh)            E(eV)
   0   2.0000     -89.242231     -2428.4046
   1   2.0000     -24.920688      -678.1264
   2   2.0000     -19.265291      -524.2352
   3   2.0000     -19.258073      -524.0388
   4   2.0000     -14.421418      -392.4267
   5   2.0000     -10.338201      -281.3168
   6   2.0000     -10.305801      -280.4351
   7   2.0000     -10.302641      -280.3491
   8   2.0000     -10.281871      -279.7839
   9   2.0000     -10.281734      -279.7802
  10   2.0000     -10.279836      -279.7286
  11   2.0000     -10.274964      -279.5960
  12   2.0000     -10.206239      -277.7259
  13   2.0000      -8.315520      -226.2768
  14   2.0000      -6.279190      -170.8655
  15   2.0000      -6.273296      -170.7051
  16   2.0000      -6.271130      -170.6461
  17   2.0000      -1.495420       -40.6925
  18   2.0000      -1.230025       -33.4707
  19   2.0000      -1.126383       -30.6504
  20   2.0000      -1.033870       -28.1330
  21   2.0000      -0.938139       -25.5281
  22   2.0000      -0.903659       -24.5898
  23   2.0000      -0.868725       -23.6392
  24   2.0000      -0.833797       -22.6888
  25   2.0000      -0.808076       -21.9889
  26   2.0000      -0.782151       -21.2834
  27   2.0000      -0.735308       -20.0087
  28   2.0000      -0.699755       -19.0413
  29   2.0000      -0.695587       -18.9279
  30   2.0000      -0.672250       -18.2929
  31   2.0000      -0.664070       -18.0703
  32   2.0000      -0.644268       -17.5314
  33   2.0000      -0.612275       -16.6609
  34   2.0000      -0.594837       -16.1864
  35   2.0000      -0.585863       -15.9421
  36   2.0000      -0.578826       -15.7507
  37   2.0000      -0.567691       -15.4477
  38   2.0000      -0.550932       -14.9916
  39   2.0000      -0.532974       -14.5030
  40   2.0000      -0.522172       -14.2090
  41   2.0000      -0.508231       -13.8297
  42   2.0000      -0.493172       -13.4199
  43   2.0000      -0.482635       -13.1332
  44   2.0000      -0.475593       -12.9415
  45   2.0000      -0.460854       -12.5405
  46   2.0000      -0.452239       -12.3060
  47   2.0000      -0.443877       -12.0785
  48   2.0000      -0.438428       -11.9302
  49   2.0000      -0.431364       -11.7380
  50   2.0000      -0.416949       -11.3458
  51   2.0000      -0.416161       -11.3243
  52   2.0000      -0.404622       -11.0103
  53   2.0000      -0.400154       -10.8887
  54   2.0000      -0.397048       -10.8042
  55   2.0000      -0.271387        -7.3848
  56   0.0000       0.072521         1.9734
  57   0.0000       0.091553         2.4913
  58   0.0000       0.092033         2.5043
  59   0.0000       0.096959         2.6384
  60   0.0000       0.107022         2.9122

MULLIKEN ATOMIC CHARGES
-----------------------
   0 C :    0.494922
   1 C :    0.392739
   2 C :    0.001256
   3 H :    0.200324
   4 H :   -0.059882
   5 S :    1.672621
   6 C :   -0.590855
   7 C :    0.651923
   8 N :    0.279923
   9 H :    0.071741
  10 H :   -0.161297
  11 H :   -0.025035
  12 H :   -0.592564
  13 O :   -0.824616
  14 F :   -0.479845
  15 C :    0.319261
  16 C :    0.181385
  17 H :    0.057833
  18 H :    0.010778
  19 C :   -0.052599
  20 H :    0.013756
  21 H :   -0.099735
  22 O :   -0.803650
  23 H :   -0.049757
  24 H :   -0.143038
  25 H :   -0.344065
  26 H :   -0.077577
  27 H :    0.123218
  28 H :   -0.167164
Sum of atomic charges:   -0.0000000

LOEWDIN ATOMIC CHARGES
----------------------
   0 C :    0.024874
   1 C :   -0.015367
   2 C :   -0.015917
   3 H :    0.030198
   4 H :    0.028503
   5 S :    1.194630
   6 C :   -0.255676
   7 C :    0.135445
   8 N :    0.190317
   9 H :    0.015419
  10 H :   -0.046460
  11 H :   -0.082741
  12 H :   -0.145921
  13 O :   -0.499503
  14 F :   -0.233462
  15 C :   -0.009809
  16 C :   -0.015413
  17 H :    0.032938
  18 H :    0.044830
  19 C :   -0.021682
  20 H :    0.019895
  21 H :    0.020180
  22 O :   -0.487782
  23 H :   -0.004832
  24 H :    0.029863
  25 H :   -0.014182
  26 H :    0.036073
  27 H :    0.017968
  28 H :    0.027613

  Mayer bond orders larger than 0.100000
B(  0-C ,  6-C ) :   1.2797 B(  0-C , 15-C ) :   1.1329 B(  0-C , 21-H ) :   0.1805
B(  0-C , 27-H ) :   0.6207 B(  0-C , 28-H ) :   0.7498 B(  1-C ,  2-C ) :   1.2857
B(  1-C ,  4-H ) :   0.2171 B(  1-C , 16-C ) :   1.2444 B(  1-C , 17-H ) :   0.6968
B(  1-C , 18-H ) :   0.7597 B(  2-C ,  3-H ) :   0.8748 B(  2-C ,  4-H ) :   0.8796
B(  2-C ,  5-S ) :   0.9971 B(  2-C , 17-H ) :   0.1073 B(  2-C , 18-H ) :   0.1459
B(  5-S , 13-O ) :   1.3272 B(  5-S , 14-F ) :   0.5756 B(  5-S , 22-O ) :   1.3963
B(  6-C ,  7-C ) :   2.2346 B(  6-C ,  8-N ) :   0.9822 B(  6-C , 11-H ) :   0.1236
B(  6-C , 12-H ) :   0.4003 B(  6-C , 27-H ) :   0.2536 B(  6-C , 28-H ) :   0.2341
B(  7-C ,  8-N ) :   0.3335 B(  7-C , 11-H ) :   0.5745 B(  7-C , 12-H ) :   0.3870
B(  8-N ,  9-H ) :   0.8730 B(  8-N , 10-H ) :   0.9306 B(  8-N , 11-H ) :   0.1610
B(  9-H , 10-H ) :  -0.1340 B( 10-H , 12-H ) :   0.1082 B( 10-H , 13-O ) :   0.1040
B( 12-H , 13-O ) :   0.2489 B( 13-O , 22-O ) :   0.1163 B( 15-C , 19-C ) :   1.2235
B( 15-C , 20-H ) :   0.7062 B( 15-C , 21-H ) :   0.8423 B( 15-C , 23-H ) :   0.1531
B( 15-C , 27-H ) :   0.1215 B( 16-C , 17-H ) :   0.2659 B( 16-C , 19-C ) :   1.2381
B( 16-C , 23-H ) :   0.1346 B( 16-C , 24-H ) :   0.1753 B( 16-C , 25-H ) :   0.9040
B( 16-C , 26-H ) :   0.7419 B( 19-C , 20-H ) :   0.2555 B( 19-C , 21-H ) :   0.1758
B( 19-C , 23-H ) :   0.8754 B( 19-C , 24-H ) :   0.8450 B( 19-C , 25-H ) :   0.1391
B( 19-C , 26-H ) :   0.2119 B( 20-H , 21-H ) :  -0.1244

Dispersion correction           -0.016391803
FINAL SINGLE POINT ENERGY     -1016.902656508560

DIPOLE MOMENT
-------------
                                X             Y             Z
Electronic contribution:     -0.65292      -3.48700     -22.68560
Nuclear contribution   :     -1.50273       5.82595      21.72909
                        -----------------------------------------
Total Dipole Moment    :     -2.15565       2.33895      -0.95652
                        -----------------------------------------
Magnitude (a.u.)       :      3.32151
Magnitude (Debye)      :      8.44261

Rotational constants in cm-1:     0.036883     0.018294     0.014745
Rotational constants in MHz :  1105.724679   548.429785   442.050481

                             ****ORCA TERMINATED NORMALLY****
TOTAL RUN TIME: 0 days 0 hours 1 minutes 4 seconds 486 msec
