                         Program Version 5.0.0 -  RELEASE  -
|  1> !wB97X-D3 RIJCOSX def2-SVPD def2/J TightSCF CPCM(Water) xyzfile
|  2>
|  3> *xyzfile 0 1 D5.xyz
|  4>
|  5> %MaxCore 64000
|  6>
|  7> %pal nprocs 18
|  8> end
|  9>
| 10> %scf
| 11>   MaxIter 150
| 12> end
| 13>
| 14>
| 15>                          ****END OF INPUT****

CARTESIAN COORDINATES (ANGSTROEM)
---------------------------------
  C      2.916324   -1.242589   -1.543125
  C      0.704661    1.443129   -4.503630
  C      1.728539    1.424320   -5.639443
  H      2.646718    1.953794   -5.381054
  H      1.299916    1.930613   -6.503614
  S      2.252625   -0.188115   -6.271840
  C      3.466585   -1.590971   -2.889082
  C      4.652275   -1.143164   -3.259692
  N      2.752264   -2.292043   -3.728029
  H      1.778364   -2.489604   -3.512738
  H      2.948612   -2.208544   -4.716813
  H      5.146723   -0.512508   -2.633852
  H      4.783030   -1.007203   -4.253498
  O      3.562607   -0.444464   -5.631552
  O      2.344944   -0.033742   -7.696501
  C      2.804084    0.290698   -1.359243
  C      1.052550    0.695659   -3.214915
  H     -0.232483    1.032925   -4.884449
  H      0.511700    2.495794   -4.267966
  C      2.388380    1.093669   -2.597108
  H      3.763425    0.674718   -0.999889
  H      2.094788    0.461222   -0.545756
  F      1.266058   -1.159177   -5.805365
  H      3.167316    1.013242   -3.359430
  H      2.357690    2.149375   -2.310997
  H      1.039284   -0.368429   -3.449329
  H      0.250787    0.865605   -2.488283
  H      1.940472   -1.716529   -1.441161
  H      3.558569   -1.663433   -0.766371

 Total Charge           Charge          ....    0
 Multiplicity           Mult            ....    1
 Number of Electrons    NEL             ....  112
 Basis Dimension        Dim             ....  404

ORBITAL ENERGIES
----------------

  NO   OCC          E(Eh)            E(eV)
   0   2.0000     -89.242427     -2428.4099
   1   2.0000     -24.914262      -677.9515
   2   2.0000     -19.272810      -524.4398
   3   2.0000     -19.258250      -524.0436
   4   2.0000     -14.428028      -392.6066
   5   2.0000     -10.338995      -281.3384
   6   2.0000     -10.308002      -280.4950
   7   2.0000     -10.303044      -280.3601
   8   2.0000     -10.284496      -279.8554
   9   2.0000     -10.283244      -279.8213
  10   2.0000     -10.282800      -279.8092
  11   2.0000     -10.276831      -279.6468
  12   2.0000     -10.208554      -277.7889
  13   2.0000      -8.315783      -226.2840
  14   2.0000      -6.279533      -170.8748
  15   2.0000      -6.273600      -170.7133
  16   2.0000      -6.271294      -170.6506
  17   2.0000      -1.480786       -40.2942
  18   2.0000      -1.238920       -33.7127
  19   2.0000      -1.136337       -30.9213
  20   2.0000      -1.039184       -28.2776
  21   2.0000      -0.941401       -25.6168
  22   2.0000      -0.905103       -24.6291
  23   2.0000      -0.866112       -23.5681
  24   2.0000      -0.831708       -22.6319
  25   2.0000      -0.810566       -22.0566
  26   2.0000      -0.783000       -21.3065
  27   2.0000      -0.737363       -20.0647
  28   2.0000      -0.701392       -19.0859
  29   2.0000      -0.692691       -18.8491
  30   2.0000      -0.675490       -18.3810
  31   2.0000      -0.662061       -18.0156
  32   2.0000      -0.646070       -17.5805
  33   2.0000      -0.612624       -16.6703
  34   2.0000      -0.589488       -16.0408
  35   2.0000      -0.584861       -15.9149
  36   2.0000      -0.576542       -15.6885
  37   2.0000      -0.572839       -15.5877
  38   2.0000      -0.556409       -15.1406
  39   2.0000      -0.541689       -14.7401
  40   2.0000      -0.523972       -14.2580
  41   2.0000      -0.506494       -13.7824
  42   2.0000      -0.503271       -13.6947
  43   2.0000      -0.484864       -13.1938
  44   2.0000      -0.475405       -12.9364
  45   2.0000      -0.473459       -12.8835
  46   2.0000      -0.460114       -12.5203
  47   2.0000      -0.447588       -12.1795
  48   2.0000      -0.441948       -12.0260
  49   2.0000      -0.431818       -11.7504
  50   2.0000      -0.422247       -11.4899
  51   2.0000      -0.417235       -11.3536
  52   2.0000      -0.404714       -11.0128
  53   2.0000      -0.401701       -10.9308
  54   2.0000      -0.399676       -10.8757
  55   2.0000      -0.275161        -7.4875
  56   0.0000       0.069957         1.9036
  57   0.0000       0.091088         2.4786
  58   0.0000       0.093574         2.5463
  59   0.0000       0.095943         2.6107
  60   0.0000       0.105954         2.8832

MULLIKEN ATOMIC CHARGES
-----------------------
   0 C :    0.494353
   1 C :    0.394396
   2 C :    0.024104
   3 H :    0.204440
   4 H :   -0.092920
   5 S :    1.481643
   6 C :   -0.570254
   7 C :    0.656211
   8 N :    0.265487
   9 H :    0.075285
  10 H :   -0.180167
  11 H :   -0.029375
  12 H :   -0.585043
  13 O :   -0.775152
  14 O :   -0.688429
  15 C :    0.314038
  16 C :    0.205545
  17 H :    0.062215
  18 H :    0.022702
  19 C :   -0.056127
  20 H :    0.017999
  21 H :   -0.098335
  22 F :   -0.488068
  23 H :   -0.047808
  24 H :   -0.140978
  25 H :   -0.360881
  26 H :   -0.063828
  27 H :    0.124368
  28 H :   -0.165421
Sum of atomic charges:   -0.0000000

LOEWDIN ATOMIC CHARGES
----------------------
   0 C :    0.025666
   1 C :   -0.023911
   2 C :   -0.009417
   3 H :    0.036265
   4 H :    0.028794
   5 S :    1.169412
   6 C :   -0.257485
   7 C :    0.140031
   8 N :    0.186325
   9 H :    0.018895
  10 H :   -0.040056
  11 H :   -0.080303
  12 H :   -0.144133
  13 O :   -0.496607
  14 O :   -0.479193
  15 C :   -0.009140
  16 C :   -0.017125
  17 H :    0.034946
  18 H :    0.043633
  19 C :   -0.021006
  20 H :    0.020602
  21 H :    0.020798
  22 F :   -0.246674
  23 H :   -0.004652
  24 H :    0.031219
  25 H :   -0.011468
  26 H :    0.037775
  27 H :    0.018405
  28 H :    0.028405

  Mayer bond orders larger than 0.100000
B(  0-C ,  6-C ) :   1.2766 B(  0-C , 15-C ) :   1.1343 B(  0-C , 21-H ) :   0.1802
B(  0-C , 27-H ) :   0.6224 B(  0-C , 28-H ) :   0.7510 B(  1-C ,  2-C ) :   1.2527
B(  1-C ,  4-H ) :   0.2076 B(  1-C , 16-C ) :   1.2458 B(  1-C , 17-H ) :   0.7026
B(  1-C , 18-H ) :   0.7534 B(  2-C ,  3-H ) :   0.8722 B(  2-C ,  4-H ) :   0.9269
B(  2-C ,  5-S ) :   0.9924 B(  2-C , 17-H ) :   0.1072 B(  2-C , 18-H ) :   0.1491
B(  5-S , 13-O ) :   1.3902 B(  5-S , 14-O ) :   1.5486 B(  5-S , 22-F ) :   0.6246
B(  6-C ,  7-C ) :   2.2383 B(  6-C ,  8-N ) :   0.9673 B(  6-C , 11-H ) :   0.1239
B(  6-C , 12-H ) :   0.3931 B(  6-C , 27-H ) :   0.2525 B(  6-C , 28-H ) :   0.2308
B(  7-C ,  8-N ) :   0.3284 B(  7-C , 11-H ) :   0.5783 B(  7-C , 12-H ) :   0.3915
B(  8-N ,  9-H ) :   0.8805 B(  8-N , 10-H ) :   0.9394 B(  8-N , 11-H ) :   0.1526
B(  9-H , 10-H ) :  -0.1338 B( 10-H , 13-O ) :   0.1005 B( 12-H , 13-O ) :   0.2633
B( 15-C , 19-C ) :   1.2299 B( 15-C , 20-H ) :   0.7048 B( 15-C , 21-H ) :   0.8445
B( 15-C , 23-H ) :   0.1544 B( 15-C , 27-H ) :   0.1216 B( 16-C , 17-H ) :   0.2487
B( 16-C , 18-H ) :   0.1025 B( 16-C , 19-C ) :   1.2329 B( 16-C , 23-H ) :   0.1361
B( 16-C , 24-H ) :   0.1713 B( 16-C , 25-H ) :   0.8883 B( 16-C , 26-H ) :   0.7450
B( 19-C , 20-H ) :   0.2559 B( 19-C , 21-H ) :   0.1775 B( 19-C , 23-H ) :   0.8717
B( 19-C , 24-H ) :   0.8515 B( 19-C , 25-H ) :   0.1417 B( 19-C , 26-H ) :   0.2140
B( 20-H , 21-H ) :  -0.1226

Dispersion correction           -0.016347162
FINAL SINGLE POINT ENERGY     -1016.909720586902

DIPOLE MOMENT
-------------
                                X             Y             Z
Electronic contribution:     -2.74147      -5.70051     -18.79934
Nuclear contribution   :     -0.26930       7.11259      19.56706
                        -----------------------------------------
Total Dipole Moment    :     -3.01077       1.41208       0.76772
                        -----------------------------------------
Magnitude (a.u.)       :      3.41293
Magnitude (Debye)      :      8.67499

Rotational constants in cm-1:     0.036519     0.018683     0.015073
Rotational constants in MHz :  1094.801738   560.111127   451.890222

                             ****ORCA TERMINATED NORMALLY****
TOTAL RUN TIME: 0 days 0 hours 1 minutes 3 seconds 894 msec
