                         Program Version 5.0.0 -  RELEASE  -
|  1> !B3LYP D3BJ RIJCOSX def2-SVPD def2/J TightSCF
|  2> *xyz -1 1
|  3> C         -0.29041        0.95134       -5.15342
|  4> C         -0.05517        1.61942       -3.78858
|  5> H          0.04501        0.86230       -3.00301
|  6> H         -0.92294        2.23033       -3.51703
|  7> C          1.22302        2.46987       -3.75691
|  8> H          1.11470        3.25807       -4.53300
|  9> H          1.23773        3.01124       -2.79216
| 10> O          2.35381        1.71203       -3.93448
| 11> H         -0.38575        1.70447       -5.90748
| 12> H         -1.18723        0.36894       -5.11561
| 13> H          0.53806        0.31571       -5.38692
| 14> *
| 15>
| 16> %MaxCore 64000
| 17>
| 18> %pal nprocs 4
| 19> end
| 20>
| 21> %scf
| 22>   MaxIter 150
| 23> end
| 24>
| 25>
| 26>                          ****END OF INPUT****

CARTESIAN COORDINATES (ANGSTROEM)
---------------------------------
  C     -0.290410    0.951340   -5.153420
  C     -0.055170    1.619420   -3.788580
  H      0.045010    0.862300   -3.003010
  H     -0.922940    2.230330   -3.517030
  C      1.223020    2.469870   -3.756910
  H      1.114700    3.258070   -4.533000
  H      1.237730    3.011240   -2.792160
  O      2.353810    1.712030   -3.934480
  H     -0.385750    1.704470   -5.907480
  H     -1.187230    0.368940   -5.115610
  H      0.538060    0.315710   -5.386920

 Total Charge           Charge          ....   -1
 Multiplicity           Mult            ....    1
 Number of Electrons    NEL             ....   34
 Basis Dimension        Dim             ....  139

ORBITAL ENERGIES
----------------

  NO   OCC          E(Eh)            E(eV)
   0   2.0000     -18.811948      -511.8991
   1   2.0000     -10.002462      -272.1808
   2   2.0000      -9.999605      -272.1031
   3   2.0000      -9.991880      -271.8929
   4   2.0000      -0.674726       -18.3602
   5   2.0000      -0.574859       -15.6427
   6   2.0000      -0.462130       -12.5752
   7   2.0000      -0.361715        -9.8428
   8   2.0000      -0.272387        -7.4120
   9   2.0000      -0.265898        -7.2355
  10   2.0000      -0.220741        -6.0067
  11   2.0000      -0.188313        -5.1243
  12   2.0000      -0.162094        -4.4108
  13   2.0000      -0.154720        -4.2102
  14   2.0000      -0.113501        -3.0885
  15   2.0000       0.025306         0.6886
  16   2.0000       0.028196         0.7673
  17   0.0000       0.164113         4.4657
  18   0.0000       0.189194         5.1482
  19   0.0000       0.204671         5.5694
  20   0.0000       0.233615         6.3570
  21   0.0000       0.248675         6.7668

MULLIKEN ATOMIC CHARGES
-----------------------
   0 C :    0.813479
   1 C :   -0.361360
   2 H :   -0.134409
   3 H :   -0.157472
   4 C :    0.586419
   5 H :   -0.178866
   6 H :   -0.254353
   7 O :   -0.896070
   8 H :   -0.143402
   9 H :   -0.172951
  10 H :   -0.101015
Sum of atomic charges:   -1.0000000

LOEWDIN ATOMIC CHARGES
----------------------
   0 C :    0.099298
   1 C :   -0.105200
   2 H :   -0.001561
   3 H :   -0.020251
   4 C :   -0.212968
   5 H :   -0.032713
   6 H :   -0.038901
   7 O :   -0.557347
   8 H :   -0.040448
   9 H :   -0.054173
  10 H :   -0.035735

  Mayer bond orders larger than 0.100000
B(  0-C ,  1-C ) :   1.2411 B(  0-C ,  8-H ) :   0.7878 B(  0-C ,  9-H ) :   0.7570
B(  0-C , 10-H ) :   0.8066 B(  1-C ,  2-H ) :   0.9519 B(  1-C ,  3-H ) :   0.9868
B(  1-C ,  4-C ) :   1.0375 B(  1-C ,  5-H ) :   0.1424 B(  1-C ,  6-H ) :   0.1664
B(  1-C ,  7-O ) :   0.1552 B(  1-C ,  8-H ) :   0.2088 B(  1-C ,  9-H ) :   0.2184
B(  1-C , 10-H ) :   0.2230 B(  2-H ,  4-C ) :   0.1560 B(  3-H ,  4-C ) :   0.1016
B(  4-C ,  5-H ) :   0.9212 B(  4-C ,  6-H ) :   0.9202 B(  4-C ,  7-O ) :   1.1248

Dispersion correction           -0.010954084
FINAL SINGLE POINT ENERGY      -193.501674597094

DIPOLE MOMENT
-------------
                                X             Y             Z
Electronic contribution:      2.92987      -0.05228       0.70283
Nuclear contribution   :     -4.97104      -0.06484      -1.04325
                        -----------------------------------------
Total Dipole Moment    :     -2.04117      -0.11711      -0.34043
                        -----------------------------------------
Magnitude (a.u.)       :      2.07268
Magnitude (Debye)      :      5.26832

Rotational constants in cm-1:     0.508668     0.174500     0.148765
Rotational constants in MHz : 15249.486055  5231.367342  4459.875680

                             ****ORCA TERMINATED NORMALLY****
TOTAL RUN TIME: 0 days 0 hours 0 minutes 10 seconds 157 msec
