                         Program Version 5.0.0 -  RELEASE  -
|  1> !B3LYP D3BJ RIJCOSX def2-SVPD def2/J TightSCF
|  2> *xyz 1 1
|  3> C          1.63556       -1.67040       -5.29211
|  4> C          0.33848       -1.50091       -4.50540
|  5> N          2.48451       -0.50741       -5.14039
|  6> C         -0.68487       -0.52803       -5.09989
|  7> H          1.39834       -1.82924       -6.35259
|  8> H          2.15586       -2.56540       -4.93209
|  9> C          3.45115       -0.14953       -5.95259
| 10> N          3.92267        1.08956       -5.85071
| 11> N          3.96616       -1.00618       -6.86788
| 12> H          3.52139       -1.90647       -6.99527
| 13> H          4.44482       -0.62347       -7.67035
| 14> H          2.25200        0.24080       -4.49879
| 15> H          3.46428        1.64078       -5.13639
| 16> H          4.83447        1.31375       -6.22465
| 17> H          0.59489       -1.21158       -3.48231
| 18> H         -0.12653       -2.48766       -4.43418
| 19> H         -0.92267       -0.82721       -6.09931
| 20> H         -0.27317        0.45953       -5.11162
| 21> H         -1.57350       -0.53693       -4.50394
| 22> *
| 23>
| 24> %MaxCore 64000
| 25>
| 26> %pal nprocs 4
| 27> end
| 28>
| 29> %scf
| 30>   MaxIter 150
| 31> end
| 32>
| 33>
| 34>                          ****END OF INPUT****

CARTESIAN COORDINATES (ANGSTROEM)
---------------------------------
  C      1.635560   -1.670400   -5.292110
  C      0.338480   -1.500910   -4.505400
  N      2.484510   -0.507410   -5.140390
  C     -0.684870   -0.528030   -5.099890
  H      1.398340   -1.829240   -6.352590
  H      2.155860   -2.565400   -4.932090
  C      3.451150   -0.149530   -5.952590
  N      3.922670    1.089560   -5.850710
  N      3.966160   -1.006180   -6.867880
  H      3.521390   -1.906470   -6.995270
  H      4.444820   -0.623470   -7.670350
  H      2.252000    0.240800   -4.498790
  H      3.464280    1.640780   -5.136390
  H      4.834470    1.313750   -6.224650
  H      0.594890   -1.211580   -3.482310
  H     -0.126530   -2.487660   -4.434180
  H     -0.922670   -0.827210   -6.099310
  H     -0.273170    0.459530   -5.111620
  H     -1.573500   -0.536930   -4.503940

 Total Charge           Charge          ....    1
 Multiplicity           Mult            ....    1
 Number of Electrons    NEL             ....   56
 Basis Dimension        Dim             ....  236

ORBITAL ENERGIES
----------------

  NO   OCC          E(Eh)            E(eV)
   0   2.0000     -14.554567      -396.0499
   1   2.0000     -14.552191      -395.9853
   2   2.0000     -14.550474      -395.9385
   3   2.0000     -10.513928      -286.0985
   4   2.0000     -10.388116      -282.6750
   5   2.0000     -10.328145      -281.0431
   6   2.0000     -10.298553      -280.2379
   7   2.0000      -1.209199       -32.9040
   8   2.0000      -1.096890       -29.8479
   9   2.0000      -1.083763       -29.4907
  10   2.0000      -0.937302       -25.5053
  11   2.0000      -0.855023       -23.2664
  12   2.0000      -0.821750       -22.3610
  13   2.0000      -0.780238       -21.2314
  14   2.0000      -0.764068       -20.7913
  15   2.0000      -0.729218       -19.8430
  16   2.0000      -0.691118       -18.8063
  17   2.0000      -0.684077       -18.6147
  18   2.0000      -0.653770       -17.7900
  19   2.0000      -0.644201       -17.5296
  20   2.0000      -0.594889       -16.1878
  21   2.0000      -0.574979       -15.6460
  22   2.0000      -0.554670       -15.0933
  23   2.0000      -0.502397       -13.6709
  24   2.0000      -0.487292       -13.2599
  25   2.0000      -0.484483       -13.1834
  26   2.0000      -0.477070       -12.9817
  27   2.0000      -0.451670       -12.2906
  28   0.0000      -0.172450        -4.6926
  29   0.0000      -0.156966        -4.2713
  30   0.0000      -0.126725        -3.4484
  31   0.0000      -0.107879        -2.9355
  32   0.0000      -0.090387        -2.4595

MULLIKEN ATOMIC CHARGES
-----------------------
   0 C :    0.627591
   1 C :   -0.090758
   2 N :   -0.367282
   3 C :    0.977090
   4 H :   -0.066624
   5 H :   -0.220448
   6 C :    1.087850
   7 N :    0.126544
   8 N :    0.069693
   9 H :   -0.043552
  10 H :   -0.120404
  11 H :   -0.162964
  12 H :   -0.006520
  13 H :   -0.148947
  14 H :   -0.141152
  15 H :   -0.162046
  16 H :   -0.080039
  17 H :   -0.141194
  18 H :   -0.136841
Sum of atomic charges:    1.0000000

LOEWDIN ATOMIC CHARGES
----------------------
   0 C :    0.062623
   1 C :   -0.046389
   2 N :    0.049860
   3 C :    0.152629
   4 H :    0.036326
   5 H :    0.039824
   6 C :   -0.040363
   7 N :    0.270152
   8 N :    0.288230
   9 H :    0.013243
  10 H :    0.033185
  11 H :    0.049690
  12 H :    0.030656
  13 H :    0.041727
  14 H :    0.026917
  15 H :    0.033956
  16 H :   -0.011406
  17 H :   -0.026576
  18 H :   -0.004285

  Mayer bond orders larger than 0.100000
B(  0-C ,  1-C ) :   1.1959 B(  0-C ,  2-N ) :   0.9894 B(  0-C ,  4-H ) :   0.7747
B(  0-C ,  5-H ) :   0.8658 B(  0-C , 11-H ) :  -0.1309 B(  0-C , 14-H ) :   0.1624
B(  0-C , 15-H ) :   0.2379 B(  1-C ,  2-N ) :   0.1179 B(  1-C ,  3-C ) :   1.2698
B(  1-C , 14-H ) :   0.8233 B(  1-C , 15-H ) :   0.7914 B(  1-C , 16-H ) :   0.2115
B(  1-C , 17-H ) :   0.2463 B(  1-C , 18-H ) :   0.2598 B(  2-N ,  4-H ) :   0.1859
B(  2-N ,  5-H ) :   0.1378 B(  2-N ,  6-C ) :   1.0950 B(  2-N ,  7-N ) :   0.2941
B(  2-N ,  8-N ) :   0.2021 B(  2-N , 11-H ) :   1.1638 B(  3-C , 16-H ) :   0.7620
B(  3-C , 17-H ) :   0.7594 B(  3-C , 18-H ) :   0.7186 B(  6-C ,  7-N ) :   0.9963
B(  6-C ,  8-N ) :   0.9692 B(  6-C ,  9-H ) :  -0.1162 B(  6-C , 10-H ) :  -0.1239
B(  6-C , 11-H ) :  -0.2547 B(  6-C , 13-H ) :  -0.1110 B(  7-N ,  8-N ) :   0.1489
B(  7-N , 12-H ) :   1.0675 B(  7-N , 13-H ) :   1.2267 B(  8-N ,  9-H ) :   1.0469
B(  8-N , 10-H ) :   1.2194 B(  9-H , 10-H ) :  -0.1563 B( 12-H , 13-H ) :  -0.1477

Dispersion correction           -0.025003624
FINAL SINGLE POINT ENERGY      -323.317760873064

DIPOLE MOMENT
-------------
                                X             Y             Z
Electronic contribution:      7.34774       1.74061      -1.59854
Nuclear contribution   :     -5.91327      -1.13589       1.03073
                        -----------------------------------------
Total Dipole Moment    :      1.43447       0.60472      -0.56781
                        -----------------------------------------
Magnitude (a.u.)       :      1.65705
Magnitude (Debye)      :      4.21188

Rotational constants in cm-1:     0.176161     0.043658     0.038822
Rotational constants in MHz :  5281.161077  1308.843263  1163.840625

                             ****ORCA TERMINATED NORMALLY****
TOTAL RUN TIME: 0 days 0 hours 0 minutes 26 seconds 760 msec
