                         Program Version 5.0.0 -  RELEASE  -
|  1> !B3LYP D3BJ RIJCOSX def2-SVPD def2/J TightSCF
|  2> *xyz 0 1
|  3> C         -0.29041        0.95134       -5.15342
|  4> C         -0.05517        1.61942       -3.78858
|  5> H          0.04501        0.86230       -3.00301
|  6> H         -0.92294        2.23033       -3.51703
|  7> C          1.22302        2.46987       -3.75691
|  8> H          1.11470        3.25807       -4.53300
|  9> H          1.23773        3.01124       -2.79216
| 10> F          2.35381        1.71203       -3.93448
| 11> H         -0.38575        1.70447       -5.90748
| 12> H         -1.18723        0.36894       -5.11561
| 13> H          0.53806        0.31571       -5.38692
| 14> *
| 15>
| 16> %MaxCore 64000
| 17>
| 18> %pal nprocs 4
| 19> end
| 20>
| 21> %scf
| 22>   MaxIter 150
| 23> end
| 24>
| 25>
| 26>                          ****END OF INPUT****

CARTESIAN COORDINATES (ANGSTROEM)
---------------------------------
  C     -0.290410    0.951340   -5.153420
  C     -0.055170    1.619420   -3.788580
  H      0.045010    0.862300   -3.003010
  H     -0.922940    2.230330   -3.517030
  C      1.223020    2.469870   -3.756910
  H      1.114700    3.258070   -4.533000
  H      1.237730    3.011240   -2.792160
  F      2.353810    1.712030   -3.934480
  H     -0.385750    1.704470   -5.907480
  H     -1.187230    0.368940   -5.115610
  H      0.538060    0.315710   -5.386920

 Total Charge           Charge          ....    0
 Multiplicity           Mult            ....    1
 Number of Electrons    NEL             ....   34
 Basis Dimension        Dim             ....  139

ORBITAL ENERGIES
----------------

  NO   OCC          E(Eh)            E(eV)
   0   2.0000     -24.686104      -671.7430
   1   2.0000     -10.261974      -279.2425
   2   2.0000     -10.190289      -277.2919
   3   2.0000     -10.171833      -276.7896
   4   2.0000      -1.183489       -32.2044
   5   2.0000      -0.781815       -21.2743
   6   2.0000      -0.683991       -18.6123
   7   2.0000      -0.594571       -16.1791
   8   2.0000      -0.511913       -13.9299
   9   2.0000      -0.494364       -13.4523
  10   2.0000      -0.470233       -12.7957
  11   2.0000      -0.435909       -11.8617
  12   2.0000      -0.402346       -10.9484
  13   2.0000      -0.378310       -10.2943
  14   2.0000      -0.355073        -9.6620
  15   2.0000      -0.330544        -8.9946
  16   2.0000      -0.328724        -8.9450
  17   0.0000       0.020325         0.5531
  18   0.0000       0.046193         1.2570
  19   0.0000       0.054745         1.4897
  20   0.0000       0.065554         1.7838
  21   0.0000       0.089798         2.4435

MULLIKEN ATOMIC CHARGES
-----------------------
   0 C :    0.842367
   1 C :   -0.310004
   2 H :   -0.148029
   3 H :   -0.153649
   4 C :    0.877646
   5 H :   -0.105746
   6 H :   -0.169941
   7 F :   -0.445109
   8 H :   -0.129158
   9 H :   -0.147871
  10 H :   -0.110507
Sum of atomic charges:    0.0000000

LOEWDIN ATOMIC CHARGES
----------------------
   0 C :    0.134541
   1 C :   -0.056898
   2 H :    0.020187
   3 H :    0.021163
   4 C :    0.099619
   5 H :    0.031288
   6 H :    0.026332
   7 F :   -0.211118
   8 H :   -0.021940
   9 H :   -0.023559
  10 H :   -0.019616

  Mayer bond orders larger than 0.100000
B(  0-C ,  1-C ) :   1.2848 B(  0-C ,  8-H ) :   0.7793 B(  0-C ,  9-H ) :   0.7768
B(  0-C , 10-H ) :   0.7956 B(  1-C ,  2-H ) :   0.9299 B(  1-C ,  3-H ) :   0.9354
B(  1-C ,  4-C ) :   1.1778 B(  1-C ,  5-H ) :   0.1081 B(  1-C ,  6-H ) :   0.1301
B(  1-C ,  8-H ) :   0.1905 B(  1-C ,  9-H ) :   0.2062 B(  1-C , 10-H ) :   0.2035
B(  2-H ,  4-C ) :   0.1060 B(  4-C ,  5-H ) :   0.8811 B(  4-C ,  6-H ) :   0.8759
B(  4-C ,  7-F ) :   0.7216

Dispersion correction           -0.010327362
FINAL SINGLE POINT ENERGY      -218.111371239811

DIPOLE MOMENT
-------------
                                X             Y             Z
Electronic contribution:      6.16980       0.39257       1.40371
Nuclear contribution   :     -6.82889      -0.09322      -1.32039
                        -----------------------------------------
Total Dipole Moment    :     -0.65909       0.29936       0.08332
                        -----------------------------------------
Magnitude (a.u.)       :      0.72867
Magnitude (Debye)      :      1.85213

Rotational constants in cm-1:     0.494282     0.164406     0.140369
Rotational constants in MHz : 14818.207649  4928.760399  4208.156468

                             ****ORCA TERMINATED NORMALLY****
TOTAL RUN TIME: 0 days 0 hours 0 minutes 8 seconds 506 msec
