                         Program Version 5.0.0 -  RELEASE  -
|  1> !B3LYP D3BJ RIJCOSX def2-SVPD def2/J TightSCF
|  2> *xyz 0 1
|  3> C          1.63556       -1.67040       -5.29211
|  4> C          0.33848       -1.50091       -4.50540
|  5> C          2.48451       -0.50741       -5.14039
|  6> C         -0.68487       -0.52803       -5.09989
|  7> H          1.39834       -1.82924       -6.35259
|  8> H          2.15586       -2.56540       -4.93209
|  9> C          3.45115       -0.14953       -5.95259
| 10> N          3.92267        1.08956       -5.85071
| 11> N          3.96616       -1.00618       -6.86788
| 12> H          3.52139       -1.90647       -6.99527
| 13> H          4.44482       -0.62347       -7.67035
| 14> H          2.25200        0.24080       -4.49879
| 15> H          3.46428        1.64078       -5.13639
| 16> H          4.83447        1.31375       -6.22465
| 17> H          0.59489       -1.21158       -3.48231
| 18> H         -0.12653       -2.48766       -4.43418
| 19> H         -0.92267       -0.82721       -6.09931
| 20> H         -0.27317        0.45953       -5.11162
| 21> H         -1.57350       -0.53693       -4.50394
| 22> *
| 23>
| 24> %MaxCore 64000
| 25>
| 26> %pal nprocs 4
| 27> end
| 28>
| 29> %scf
| 30>   MaxIter 150
| 31> end
| 32>
| 33>
| 34>                          ****END OF INPUT****

CARTESIAN COORDINATES (ANGSTROEM)
---------------------------------
  C      1.635560   -1.670400   -5.292110
  C      0.338480   -1.500910   -4.505400
  C      2.484510   -0.507410   -5.140390
  C     -0.684870   -0.528030   -5.099890
  H      1.398340   -1.829240   -6.352590
  H      2.155860   -2.565400   -4.932090
  C      3.451150   -0.149530   -5.952590
  N      3.922670    1.089560   -5.850710
  N      3.966160   -1.006180   -6.867880
  H      3.521390   -1.906470   -6.995270
  H      4.444820   -0.623470   -7.670350
  H      2.252000    0.240800   -4.498790
  H      3.464280    1.640780   -5.136390
  H      4.834470    1.313750   -6.224650
  H      0.594890   -1.211580   -3.482310
  H     -0.126530   -2.487660   -4.434180
  H     -0.922670   -0.827210   -6.099310
  H     -0.273170    0.459530   -5.111620
  H     -1.573500   -0.536930   -4.503940

 Total Charge           Charge          ....    0
 Multiplicity           Mult            ....    1
 Number of Electrons    NEL             ....   56
 Basis Dimension        Dim             ....  236

ORBITAL ENERGIES
----------------

  NO   OCC          E(Eh)            E(eV)
   0   2.0000     -14.331859      -389.9897
   1   2.0000     -14.326671      -389.8485
   2   2.0000     -10.221385      -278.1380
   3   2.0000     -10.162723      -276.5417
   4   2.0000     -10.159174      -276.4452
   5   2.0000     -10.154476      -276.3174
   6   2.0000     -10.106535      -275.0128
   7   2.0000      -0.949205       -25.8292
   8   2.0000      -0.862045       -23.4574
   9   2.0000      -0.780383       -21.2353
  10   2.0000      -0.717647       -19.5282
  11   2.0000      -0.654467       -17.8090
  12   2.0000      -0.589791       -16.0490
  13   2.0000      -0.567704       -15.4480
  14   2.0000      -0.533214       -14.5095
  15   2.0000      -0.512491       -13.9456
  16   2.0000      -0.469145       -12.7661
  17   2.0000      -0.444245       -12.0885
  18   2.0000      -0.435125       -11.8404
  19   2.0000      -0.412122       -11.2144
  20   2.0000      -0.388498       -10.5716
  21   2.0000      -0.374190       -10.1822
  22   2.0000      -0.364653        -9.9227
  23   2.0000      -0.328573        -8.9409
  24   2.0000      -0.319238        -8.6869
  25   2.0000      -0.313611        -8.5338
  26   2.0000      -0.264924        -7.2089
  27   2.0000      -0.164231        -4.4690
  28   0.0000       0.014361         0.3908
  29   0.0000       0.037422         1.0183
  30   0.0000       0.040530         1.1029
  31   0.0000       0.059288         1.6133
  32   0.0000       0.066980         1.8226

MULLIKEN ATOMIC CHARGES
-----------------------
   0 C :    0.380769
   1 C :    0.055892
   2 C :   -0.050401
   3 C :    0.978265
   4 H :   -0.115293
   5 H :   -0.220326
   6 C :    0.466175
   7 N :    0.151217
   8 N :    0.032372
   9 H :   -0.047713
  10 H :   -0.208551
  11 H :   -0.490442
  12 H :    0.036062
  13 H :   -0.266897
  14 H :   -0.104807
  15 H :   -0.199535
  16 H :   -0.106157
  17 H :   -0.143764
  18 H :   -0.146867
Sum of atomic charges:   -0.0000000

LOEWDIN ATOMIC CHARGES
----------------------
   0 C :   -0.071712
   1 C :   -0.078467
   2 C :   -0.029007
   3 C :    0.133654
   4 H :    0.015002
   5 H :    0.015146
   6 C :   -0.226415
   7 N :    0.181681
   8 N :    0.210479
   9 H :   -0.017714
  10 H :   -0.016406
  11 H :   -0.053327
  12 H :   -0.000932
  13 H :   -0.011158
  14 H :    0.017209
  15 H :    0.009023
  16 H :   -0.023202
  17 H :   -0.028261
  18 H :   -0.025593

  Mayer bond orders larger than 0.100000
B(  0-C ,  1-C ) :   1.2017 B(  0-C ,  2-C ) :   0.8939 B(  0-C ,  4-H ) :   0.7565
B(  0-C ,  5-H ) :   0.6891 B(  0-C , 11-H ) :   0.2995 B(  0-C , 14-H ) :   0.2048
B(  0-C , 15-H ) :   0.2876 B(  1-C ,  2-C ) :   0.2097 B(  1-C ,  3-C ) :   1.2519
B(  1-C , 14-H ) :   0.8025 B(  1-C , 15-H ) :   0.7085 B(  1-C , 16-H ) :   0.2201
B(  1-C , 17-H ) :   0.2550 B(  1-C , 18-H ) :   0.2570 B(  2-C ,  4-H ) :   0.1932
B(  2-C ,  5-H ) :   0.2986 B(  2-C ,  6-C ) :   1.5395 B(  2-C ,  7-N ) :   0.3505
B(  2-C ,  8-N ) :   0.2346 B(  2-C ,  9-H ) :  -0.1245 B(  2-C , 11-H ) :   0.7043
B(  2-C , 12-H ) :  -0.1085 B(  3-C , 16-H ) :   0.7651 B(  3-C , 17-H ) :   0.7717
B(  3-C , 18-H ) :   0.7008 B(  4-H , 11-H ) :   0.1102 B(  6-C ,  7-N ) :   0.9742
B(  6-C ,  8-N ) :   1.0082 B(  6-C , 11-H ) :   0.1180 B(  7-N ,  8-N ) :   0.1121
B(  7-N , 12-H ) :   1.0414 B(  7-N , 13-H ) :   1.2290 B(  8-N ,  9-H ) :   1.0562
B(  8-N , 10-H ) :   1.2095 B(  9-H , 10-H ) :  -0.1328 B( 12-H , 13-H ) :  -0.1483

Dispersion correction           -0.026038730
FINAL SINGLE POINT ENERGY      -306.848945500030

DIPOLE MOMENT
-------------
                                X             Y             Z
Electronic contribution:      6.38002       1.43254      -1.64839
Nuclear contribution   :     -5.84539      -1.11717       1.11949
                        -----------------------------------------
Total Dipole Moment    :      0.53462       0.31538      -0.52890
                        -----------------------------------------
Magnitude (a.u.)       :      0.81549
Magnitude (Debye)      :      2.07281

Rotational constants in cm-1:     0.177055     0.043715     0.038831
Rotational constants in MHz :  5307.971484  1310.555422  1164.112547

                             ****ORCA TERMINATED NORMALLY****
TOTAL RUN TIME: 0 days 0 hours 0 minutes 33 seconds 296 msec
