                         Program Version 5.0.0 -  RELEASE  -
|  1> !B3LYP D3BJ RIJCOSX def2-SVPD def2/J TightSCF
|  2> *xyz 0 1
|  3> C          1.63556       -1.67040       -5.29211
|  4> C          0.33848       -1.50091       -4.50540
|  5> N          2.48451       -0.50741       -5.14039
|  6> C         -0.68487       -0.52803       -5.09989
|  7> H          1.39834       -1.82924       -6.35259
|  8> H          2.15586       -2.56540       -4.93209
|  9> C          3.45115       -0.14953       -5.95259
| 10> C          3.92267        1.08956       -5.85071
| 11> N          3.96616       -1.00618       -6.86788
| 12> H          3.52139       -1.90647       -6.99527
| 13> H          4.44482       -0.62347       -7.67035
| 14> H          2.25200        0.24080       -4.49879
| 15> H          3.46428        1.64078       -5.13639
| 16> H          4.83447        1.31375       -6.22465
| 17> H          0.59489       -1.21158       -3.48231
| 18> H         -0.12653       -2.48766       -4.43418
| 19> H         -0.92267       -0.82721       -6.09931
| 20> H         -0.27317        0.45953       -5.11162
| 21> H         -1.57350       -0.53693       -4.50394
| 22> *
| 23>
| 24> %MaxCore 64000
| 25>
| 26> %pal nprocs 4
| 27> end
| 28>
| 29> %scf
| 30>   MaxIter 150
| 31> end
| 32>
| 33>
| 34>                          ****END OF INPUT****

CARTESIAN COORDINATES (ANGSTROEM)
---------------------------------
  C      1.635560   -1.670400   -5.292110
  C      0.338480   -1.500910   -4.505400
  N      2.484510   -0.507410   -5.140390
  C     -0.684870   -0.528030   -5.099890
  H      1.398340   -1.829240   -6.352590
  H      2.155860   -2.565400   -4.932090
  C      3.451150   -0.149530   -5.952590
  C      3.922670    1.089560   -5.850710
  N      3.966160   -1.006180   -6.867880
  H      3.521390   -1.906470   -6.995270
  H      4.444820   -0.623470   -7.670350
  H      2.252000    0.240800   -4.498790
  H      3.464280    1.640780   -5.136390
  H      4.834470    1.313750   -6.224650
  H      0.594890   -1.211580   -3.482310
  H     -0.126530   -2.487660   -4.434180
  H     -0.922670   -0.827210   -6.099310
  H     -0.273170    0.459530   -5.111620
  H     -1.573500   -0.536930   -4.503940

 Total Charge           Charge          ....    0
 Multiplicity           Mult            ....    1
 Number of Electrons    NEL             ....   56
 Basis Dimension        Dim             ....  236

ORBITAL ENERGIES
----------------

  NO   OCC          E(Eh)            E(eV)
   0   2.0000     -14.329334      -389.9210
   1   2.0000     -14.328947      -389.9105
   2   2.0000     -10.224738      -278.2293
   3   2.0000     -10.223017      -278.1824
   4   2.0000     -10.192806      -277.3603
   5   2.0000     -10.176216      -276.9089
   6   2.0000     -10.092896      -274.6417
   7   2.0000      -0.961063       -26.1519
   8   2.0000      -0.874859       -23.8061
   9   2.0000      -0.788185       -21.4476
  10   2.0000      -0.721576       -19.6351
  11   2.0000      -0.665332       -18.1046
  12   2.0000      -0.602853       -16.4045
  13   2.0000      -0.588875       -16.0241
  14   2.0000      -0.535469       -14.5709
  15   2.0000      -0.499181       -13.5834
  16   2.0000      -0.472457       -12.8562
  17   2.0000      -0.467338       -12.7169
  18   2.0000      -0.445429       -12.1207
  19   2.0000      -0.417992       -11.3741
  20   2.0000      -0.394386       -10.7318
  21   2.0000      -0.383766       -10.4428
  22   2.0000      -0.374190       -10.1822
  23   2.0000      -0.356677        -9.7057
  24   2.0000      -0.352106        -9.5813
  25   2.0000      -0.342132        -9.3099
  26   2.0000      -0.258028        -7.0213
  27   2.0000      -0.161124        -4.3844
  28   0.0000       0.011861         0.3228
  29   0.0000       0.029157         0.7934
  30   0.0000       0.036880         1.0035
  31   0.0000       0.049037         1.3344
  32   0.0000       0.062359         1.6969

MULLIKEN ATOMIC CHARGES
-----------------------
   0 C :    0.640947
   1 C :   -0.081860
   2 N :   -0.278945
   3 C :    0.964137
   4 H :   -0.121773
   5 H :   -0.291431
   6 C :    0.488310
   7 C :    0.611544
   8 N :    0.134059
   9 H :   -0.171726
  10 H :   -0.116203
  11 H :   -0.177492
  12 H :   -0.306841
  13 H :   -0.564564
  14 H :   -0.156460
  15 H :   -0.187741
  16 H :   -0.089546
  17 H :   -0.134484
  18 H :   -0.159929
Sum of atomic charges:    0.0000000

LOEWDIN ATOMIC CHARGES
----------------------
   0 C :    0.033399
   1 C :   -0.064124
   2 N :   -0.012352
   3 C :    0.137739
   4 H :    0.018832
   5 H :    0.016985
   6 C :   -0.233431
   7 C :    0.146178
   8 N :    0.206761
   9 H :   -0.030832
  10 H :    0.000832
  11 H :    0.025663
  12 H :   -0.109881
  13 H :   -0.104232
  14 H :    0.017890
  15 H :    0.015902
  16 H :   -0.020008
  17 H :   -0.024394
  18 H :   -0.020929

  Mayer bond orders larger than 0.100000
B(  0-C ,  1-C ) :   1.1829 B(  0-C ,  2-N ) :   0.9576 B(  0-C ,  4-H ) :   0.7889
B(  0-C ,  5-H ) :   0.8624 B(  0-C , 11-H ) :  -0.1462 B(  0-C , 14-H ) :   0.1803
B(  0-C , 15-H ) :   0.2489 B(  1-C ,  2-N ) :   0.1028 B(  1-C ,  3-C ) :   1.2468
B(  1-C , 14-H ) :   0.8212 B(  1-C , 15-H ) :   0.7921 B(  1-C , 16-H ) :   0.2201
B(  1-C , 17-H ) :   0.2514 B(  1-C , 18-H ) :   0.2648 B(  2-N ,  4-H ) :   0.1848
B(  2-N ,  5-H ) :   0.1695 B(  2-N ,  6-C ) :   1.1454 B(  2-N ,  7-C ) :   0.2722
B(  2-N ,  8-N ) :   0.1159 B(  2-N , 11-H ) :   1.1114 B(  3-C , 16-H ) :   0.7650
B(  3-C , 17-H ) :   0.7642 B(  3-C , 18-H ) :   0.7121 B(  6-C ,  7-C ) :   1.5873
B(  6-C ,  8-N ) :   0.9350 B(  6-C , 10-H ) :  -0.1047 B(  6-C , 11-H ) :  -0.1954
B(  6-C , 12-H ) :   0.2678 B(  6-C , 13-H ) :   0.3012 B(  7-C ,  8-N ) :   0.2543
B(  7-C , 12-H ) :   0.7782 B(  7-C , 13-H ) :   0.5456 B(  8-N ,  9-H ) :   1.0407
B(  8-N , 10-H ) :   1.1797 B(  9-H , 10-H ) :  -0.1448

Dispersion correction           -0.025694780
FINAL SINGLE POINT ENERGY      -306.838255369746

DIPOLE MOMENT
-------------
                                X             Y             Z
Electronic contribution:      4.77676      -0.14692      -1.04596
Nuclear contribution   :     -5.53036      -0.76734       0.96389
                        -----------------------------------------
Total Dipole Moment    :     -0.75360      -0.91426      -0.08206
                        -----------------------------------------
Magnitude (a.u.)       :      1.18765
Magnitude (Debye)      :      3.01878

Rotational constants in cm-1:     0.181901     0.044719     0.039941
Rotational constants in MHz :  5453.254735  1340.639344  1197.391002

                             ****ORCA TERMINATED NORMALLY****
TOTAL RUN TIME: 0 days 0 hours 0 minutes 31 seconds 53 msec
