                         Program Version 5.0.0 -  RELEASE  -
|  1> !B3LYP D3BJ RIJCOSX def2-SVPD def2/J TightSCF
|  2> *xyz 0 1
|  3> C          1.63556       -1.67040       -5.29211
|  4> C          0.33848       -1.50091       -4.50540
|  5> N          2.48451       -0.50741       -5.14039
|  6> C         -0.68487       -0.52803       -5.09989
|  7> H          1.39834       -1.82924       -6.35259
|  8> H          2.15586       -2.56540       -4.93209
|  9> C          3.45115       -0.14953       -5.95259
| 10> N          3.92267        1.08956       -5.85071
| 11> C          3.96616       -1.00618       -6.86788
| 12> H          3.52139       -1.90647       -6.99527
| 13> H          4.44482       -0.62347       -7.67035
| 14> H          2.25200        0.24080       -4.49879
| 15> H          3.46428        1.64078       -5.13639
| 16> H          4.83447        1.31375       -6.22465
| 17> H          0.59489       -1.21158       -3.48231
| 18> H         -0.12653       -2.48766       -4.43418
| 19> H         -0.92267       -0.82721       -6.09931
| 20> H         -0.27317        0.45953       -5.11162
| 21> H         -1.57350       -0.53693       -4.50394
| 22> *
| 23>
| 24> %MaxCore 64000
| 25>
| 26> %pal nprocs 4
| 27> end
| 28>
| 29> %scf
| 30>   MaxIter 150
| 31> end
| 32>
| 33>
| 34>                          ****END OF INPUT****

CARTESIAN COORDINATES (ANGSTROEM)
---------------------------------
  C      1.635560   -1.670400   -5.292110
  C      0.338480   -1.500910   -4.505400
  N      2.484510   -0.507410   -5.140390
  C     -0.684870   -0.528030   -5.099890
  H      1.398340   -1.829240   -6.352590
  H      2.155860   -2.565400   -4.932090
  C      3.451150   -0.149530   -5.952590
  N      3.922670    1.089560   -5.850710
  C      3.966160   -1.006180   -6.867880
  H      3.521390   -1.906470   -6.995270
  H      4.444820   -0.623470   -7.670350
  H      2.252000    0.240800   -4.498790
  H      3.464280    1.640780   -5.136390
  H      4.834470    1.313750   -6.224650
  H      0.594890   -1.211580   -3.482310
  H     -0.126530   -2.487660   -4.434180
  H     -0.922670   -0.827210   -6.099310
  H     -0.273170    0.459530   -5.111620
  H     -1.573500   -0.536930   -4.503940

 Total Charge           Charge          ....    0
 Multiplicity           Mult            ....    1
 Number of Electrons    NEL             ....   56
 Basis Dimension        Dim             ....  236

ORBITAL ENERGIES
----------------

  NO   OCC          E(Eh)            E(eV)
   0   2.0000     -14.335427      -390.0868
   1   2.0000     -14.331573      -389.9819
   2   2.0000     -10.226389      -278.2742
   3   2.0000     -10.216491      -278.0048
   4   2.0000     -10.189382      -277.2672
   5   2.0000     -10.174971      -276.8750
   6   2.0000     -10.095123      -274.7023
   7   2.0000      -0.969702       -26.3869
   8   2.0000      -0.880041       -23.9471
   9   2.0000      -0.780393       -21.2356
  10   2.0000      -0.702053       -19.1038
  11   2.0000      -0.689791       -18.7702
  12   2.0000      -0.605564       -16.4782
  13   2.0000      -0.566045       -15.4029
  14   2.0000      -0.535845       -14.5811
  15   2.0000      -0.523810       -14.2536
  16   2.0000      -0.475518       -12.9395
  17   2.0000      -0.466017       -12.6810
  18   2.0000      -0.435608       -11.8535
  19   2.0000      -0.420059       -11.4304
  20   2.0000      -0.388191       -10.5632
  21   2.0000      -0.385294       -10.4844
  22   2.0000      -0.367394        -9.9973
  23   2.0000      -0.355567        -9.6755
  24   2.0000      -0.347895        -9.4667
  25   2.0000      -0.342486        -9.3195
  26   2.0000      -0.252430        -6.8690
  27   2.0000      -0.165633        -4.5071
  28   0.0000       0.006881         0.1872
  29   0.0000       0.026750         0.7279
  30   0.0000       0.042718         1.1624
  31   0.0000       0.049213         1.3391
  32   0.0000       0.065349         1.7782

MULLIKEN ATOMIC CHARGES
-----------------------
   0 C :    0.651527
   1 C :   -0.082339
   2 N :   -0.301608
   3 C :    0.972161
   4 H :   -0.058513
   5 H :   -0.264248
   6 C :    0.378027
   7 N :    0.221654
   8 C :    0.609371
   9 H :   -0.171592
  10 H :   -0.581069
  11 H :   -0.302501
  12 H :   -0.156268
  13 H :   -0.167082
  14 H :   -0.164219
  15 H :   -0.198298
  16 H :   -0.085978
  17 H :   -0.143386
  18 H :   -0.155640
Sum of atomic charges:    0.0000000

LOEWDIN ATOMIC CHARGES
----------------------
   0 C :    0.045720
   1 C :   -0.065057
   2 N :   -0.012768
   3 C :    0.135436
   4 H :    0.026361
   5 H :    0.025142
   6 C :   -0.243454
   7 N :    0.192593
   8 C :    0.167740
   9 H :   -0.127335
  10 H :   -0.112718
  11 H :    0.014093
  12 H :   -0.017153
  13 H :    0.009199
  14 H :    0.014673
  15 H :    0.016798
  16 H :   -0.018948
  17 H :   -0.028550
  18 H :   -0.021770

  Mayer bond orders larger than 0.100000
B(  0-C ,  1-C ) :   1.1762 B(  0-C ,  2-N ) :   1.0151 B(  0-C ,  4-H ) :   0.7716
B(  0-C ,  5-H ) :   0.8634 B(  0-C , 11-H ) :  -0.1311 B(  0-C , 14-H ) :   0.1786
B(  0-C , 15-H ) :   0.2336 B(  1-C ,  3-C ) :   1.2490 B(  1-C , 14-H ) :   0.8143
B(  1-C , 15-H ) :   0.8030 B(  1-C , 16-H ) :   0.2207 B(  1-C , 17-H ) :   0.2533
B(  1-C , 18-H ) :   0.2678 B(  2-N ,  4-H ) :   0.1970 B(  2-N ,  5-H ) :   0.1382
B(  2-N ,  6-C ) :   1.1434 B(  2-N ,  7-N ) :   0.2031 B(  2-N ,  8-C ) :   0.3003
B(  2-N , 11-H ) :   1.1738 B(  3-C , 16-H ) :   0.7663 B(  3-C , 17-H ) :   0.7677
B(  3-C , 18-H ) :   0.7055 B(  6-C ,  7-N ) :   0.9722 B(  6-C ,  8-C ) :   1.7258
B(  6-C ,  9-H ) :   0.3334 B(  6-C , 10-H ) :   0.2531 B(  6-C , 11-H ) :  -0.2622
B(  7-N ,  8-C ) :   0.2635 B(  7-N , 12-H ) :   1.0623 B(  7-N , 13-H ) :   1.2179
B(  8-C ,  9-H ) :   0.6077 B(  8-C , 10-H ) :   0.6229 B(  9-H , 10-H ) :   0.1692
B( 12-H , 13-H ) :  -0.1351

Dispersion correction           -0.025782154
FINAL SINGLE POINT ENERGY      -306.839111369328

DIPOLE MOMENT
-------------
                                X             Y             Z
Electronic contribution:      4.84723       1.89406       0.02336
Nuclear contribution   :     -5.52083      -1.22643       0.74108
                        -----------------------------------------
Total Dipole Moment    :     -0.67360       0.66763       0.76444
                        -----------------------------------------
Magnitude (a.u.)       :      1.21813
Magnitude (Debye)      :      3.09623

Rotational constants in cm-1:     0.181479     0.044588     0.039739
Rotational constants in MHz :  5440.604457  1336.706831  1191.355312

                             ****ORCA TERMINATED NORMALLY****
TOTAL RUN TIME: 0 days 0 hours 0 minutes 31 seconds 326 msec
