                         Program Version 5.0.0 -  RELEASE  -
|  1> !PBE0 D3BJ RIJCOSX def2-SVP def2/J TightSCF
|  2> *xyz -1 1
|  3> C         -2.79070       -0.78527        5.70281
|  4> C         -2.45380        0.05510        6.94145
|  5> C         -2.07842        1.48042        6.56410
|  6> H         -1.62558       -0.38216        7.49891
|  7> H         -3.32527        0.08775        7.59917
|  8> O         -0.90125        1.85816        6.82810
|  9> O         -2.93658        2.17731        5.96415
| 10> H         -1.94052       -0.82114        5.05412
| 11> H         -3.61590       -0.34261        5.18514
| 12> H         -3.05063       -1.77815        6.00536
| 13> *
| 14> %MaxCore 64000
| 15>
| 16> %pal nprocs 4
| 17> end
| 18>
| 19> %scf
| 20>   MaxIter 150
| 21> end
| 22>
| 23>
| 24>                          ****END OF INPUT****

CARTESIAN COORDINATES (ANGSTROEM)
---------------------------------
  C     -2.790700   -0.785270    5.702810
  C     -2.453800    0.055100    6.941450
  C     -2.078420    1.480420    6.564100
  H     -1.625580   -0.382160    7.498910
  H     -3.325270    0.087750    7.599170
  O     -0.901250    1.858160    6.828100
  O     -2.936580    2.177310    5.964150
  H     -1.940520   -0.821140    5.054120
  H     -3.615900   -0.342610    5.185140
  H     -3.050630   -1.778150    6.005360

 Total Charge           Charge          ....   -1
 Multiplicity           Mult            ....    1
 Number of Electrons    NEL             ....   40
 Basis Dimension        Dim             ....   95

ORBITAL ENERGIES
----------------

  NO   OCC          E(Eh)            E(eV)
   0   2.0000     -18.910846      -514.5903
   1   2.0000     -18.908691      -514.5316
   2   2.0000     -10.081831      -274.3406
   3   2.0000     -10.062303      -273.8092
   4   2.0000     -10.041147      -273.2335
   5   2.0000      -0.801518       -21.8104
   6   2.0000      -0.705365       -19.1940
   7   2.0000      -0.609432       -16.5835
   8   2.0000      -0.474810       -12.9202
   9   2.0000      -0.317389        -8.6366
  10   2.0000      -0.294050        -8.0015
  11   2.0000      -0.252235        -6.8637
  12   2.0000      -0.225753        -6.1431
  13   2.0000      -0.208620        -5.6768
  14   2.0000      -0.197751        -5.3811
  15   2.0000      -0.163508        -4.4493
  16   2.0000      -0.149132        -4.0581
  17   2.0000      -0.024174        -0.6578
  18   2.0000      -0.021994        -0.5985
  19   2.0000      -0.004472        -0.1217
  20   0.0000       0.225483         6.1357
  21   0.0000       0.275760         7.5038
  22   0.0000       0.286234         7.7888
  23   0.0000       0.292114         7.9488
  24   0.0000       0.297882         8.1058

MULLIKEN ATOMIC CHARGES
-----------------------
   0 C :   -0.047643
   1 C :   -0.051849
   2 C :    0.077431
   3 H :   -0.028403
   4 H :   -0.018155
   5 O :   -0.466211
   6 O :   -0.464729
   7 H :    0.009276
   8 H :    0.015617
   9 H :   -0.025335
Sum of atomic charges:   -1.0000000

LOEWDIN ATOMIC CHARGES
----------------------
   0 C :   -0.069792
   1 C :   -0.098656
   2 C :   -0.045915
   3 H :   -0.000131
   4 H :    0.005810
   5 O :   -0.408423
   6 O :   -0.406648
   7 H :    0.013704
   8 H :    0.014078
   9 H :   -0.004027

  Mayer bond orders larger than 0.100000
B(  0-C ,  1-C ) :   1.0867 B(  0-C ,  7-H ) :   0.9735 B(  0-C ,  8-H ) :   0.9640
B(  0-C ,  9-H ) :   0.9683 B(  1-C ,  2-C ) :   0.9210 B(  1-C ,  3-H ) :   0.9404
B(  1-C ,  4-H ) :   0.9364 B(  2-C ,  5-O ) :   1.8331 B(  2-C ,  6-O ) :   1.8104
B(  5-O ,  6-O ) :   0.1144

Dispersion correction           -0.005467074
FINAL SINGLE POINT ENERGY      -267.321741611485

DIPOLE MOMENT
-------------
                                X             Y             Z
Electronic contribution:      1.69836       5.74548       0.63805
Nuclear contribution   :     -2.24498      -7.51881      -0.57245
                        -----------------------------------------
Total Dipole Moment    :     -0.54662      -1.77333       0.06560
                        -----------------------------------------
Magnitude (a.u.)       :      1.85683
Magnitude (Debye)      :      4.71968

Rotational constants in cm-1:     0.305589     0.135336     0.107479
Rotational constants in MHz :  9161.317320  4057.276612  3222.126231

                             ****ORCA TERMINATED NORMALLY****
TOTAL RUN TIME: 0 days 0 hours 0 minutes 11 seconds 41 msec
