                         Program Version 5.0.0 -  RELEASE  -
|  1> !PBE0 D3BJ RIJCOSX def2-SVP def2/J TightSCF
|  2> *xyz 1 1
|  3> C         -0.69912        3.48945        3.75516
|  4> H         -0.96672        4.34901        3.14049
|  5> N         -1.08067        3.79296        5.15686
|  6> C          0.77696        3.13839        3.61741
|  7> H         -1.33146        2.65651        3.44632
|  8> H         -0.87449        4.76274        5.42734
|  9> H         -0.68079        3.13476        5.83900
| 10> H         -2.05755        3.53169        5.34620
| 11> H          0.99957        2.92898        2.59199
| 12> H          0.99576        2.27685        4.21303
| 13> H          1.37223        3.96279        3.95046
| 14> *
| 15> %MaxCore 64000
| 16>
| 17> %pal nprocs 4
| 18> end
| 19>
| 20> %scf
| 21>   MaxIter 150
| 22> end
| 23>
| 24>
| 25>                          ****END OF INPUT****

CARTESIAN COORDINATES (ANGSTROEM)
---------------------------------
  C     -0.699120    3.489450    3.755160
  H     -0.966720    4.349010    3.140490
  N     -1.080670    3.792960    5.156860
  C      0.776960    3.138390    3.617410
  H     -1.331460    2.656510    3.446320
  H     -0.874490    4.762740    5.427340
  H     -0.680790    3.134760    5.839000
  H     -2.057550    3.531690    5.346200
  H      0.999570    2.928980    2.591990
  H      0.995760    2.276850    4.213030
  H      1.372230    3.962790    3.950460

 Total Charge           Charge          ....    1
 Multiplicity           Mult            ....    1
 Number of Electrons    NEL             ....   26
 Basis Dimension        Dim             ....   82

ORBITAL ENERGIES
----------------

  NO   OCC          E(Eh)            E(eV)
   0   2.0000     -14.734682      -400.9511
   1   2.0000     -10.486517      -285.3526
   2   2.0000     -10.406577      -283.1773
   3   2.0000      -1.238276       -33.6952
   4   2.0000      -0.984275       -26.7835
   5   2.0000      -0.861780       -23.4502
   6   2.0000      -0.834084       -22.6966
   7   2.0000      -0.785061       -21.3626
   8   2.0000      -0.715499       -19.4697
   9   2.0000      -0.656996       -17.8778
  10   2.0000      -0.594810       -16.1856
  11   2.0000      -0.579983       -15.7822
  12   2.0000      -0.561572       -15.2811
  13   0.0000      -0.174735        -4.7548
  14   0.0000      -0.116579        -3.1723
  15   0.0000      -0.113216        -3.0808
  16   0.0000      -0.079516        -2.1637
  17   0.0000      -0.039813        -1.0834

MULLIKEN ATOMIC CHARGES
-----------------------
   0 C :   -0.075657
   1 H :    0.125367
   2 N :   -0.018172
   3 C :   -0.082280
   4 H :    0.116132
   5 H :    0.232336
   6 H :    0.208701
   7 H :    0.217510
   8 H :    0.115469
   9 H :    0.079189
  10 H :    0.081404
Sum of atomic charges:    1.0000000

LOEWDIN ATOMIC CHARGES
----------------------
   0 C :    0.042986
   1 H :    0.060126
   2 N :    0.288175
   3 C :   -0.048571
   4 H :    0.056669
   5 H :    0.149688
   6 H :    0.145809
   7 H :    0.151493
   8 H :    0.067107
   9 H :    0.042601
  10 H :    0.043916

  Mayer bond orders larger than 0.100000
B(  0-C ,  1-H ) :   0.9488 B(  0-C ,  2-N ) :   0.9091 B(  0-C ,  3-C ) :   1.0912
B(  0-C ,  4-H ) :   0.9520 B(  2-N ,  5-H ) :   0.9278 B(  2-N ,  6-H ) :   0.9288
B(  2-N ,  7-H ) :   0.9305 B(  3-C ,  8-H ) :   0.9571 B(  3-C ,  9-H ) :   0.9663
B(  3-C , 10-H ) :   0.9697

Dispersion correction           -0.005000239
FINAL SINGLE POINT ENERGY      -135.270252966874

DIPOLE MOMENT
-------------
                                X             Y             Z
Electronic contribution:     -1.35722       0.58379       1.14588
Nuclear contribution   :      0.33986      -0.24565       0.10678
                        -----------------------------------------
Total Dipole Moment    :     -1.01736       0.33814       1.25266
                        -----------------------------------------
Magnitude (a.u.)       :      1.64880
Magnitude (Debye)      :      4.19091

Rotational constants in cm-1:     1.016237     0.277523     0.247812
Rotational constants in MHz : 30466.024354  8319.937961  7429.230177

                             ****ORCA TERMINATED NORMALLY****
TOTAL RUN TIME: 0 days 0 hours 0 minutes 8 seconds 455 msec
