                         Program Version 5.0.0 -  RELEASE  -
|  1> !PBE0 D3BJ RIJCOSX def2-SVP def2/J TightSCF
|  2> *xyz 0 1
|  3> C         -2.79070       -0.78527        5.70281
|  4> C         -2.45380        0.05510        6.94145
|  5> C         -2.07842        1.48042        6.56410
|  6> H         -1.62558       -0.38216        7.49891
|  7> H         -3.32527        0.08775        7.59917
|  8> F         -0.90125        1.85816        6.82810
|  9> O         -2.93658        2.17731        5.96415
| 10> H         -1.94052       -0.82114        5.05412
| 11> H         -3.61590       -0.34261        5.18514
| 12> H         -3.05063       -1.77815        6.00536
| 13> *
| 14> %MaxCore 64000
| 15>
| 16> %pal nprocs 4
| 17> end
| 18>
| 19> %scf
| 20>   MaxIter 150
| 21> end
| 22>
| 23>
| 24>                          ****END OF INPUT****

CARTESIAN COORDINATES (ANGSTROEM)
---------------------------------
  C     -2.790700   -0.785270    5.702810
  C     -2.453800    0.055100    6.941450
  C     -2.078420    1.480420    6.564100
  H     -1.625580   -0.382160    7.498910
  H     -3.325270    0.087750    7.599170
  F     -0.901250    1.858160    6.828100
  O     -2.936580    2.177310    5.964150
  H     -1.940520   -0.821140    5.054120
  H     -3.615900   -0.342610    5.185140
  H     -3.050630   -1.778150    6.005360

 Total Charge           Charge          ....    0
 Multiplicity           Mult            ....    1
 Number of Electrons    NEL             ....   40
 Basis Dimension        Dim             ....   95

ORBITAL ENERGIES
----------------

  NO   OCC          E(Eh)            E(eV)
   0   2.0000     -24.836640      -675.8393
   1   2.0000     -19.211919      -522.7829
   2   2.0000     -10.402397      -283.0636
   3   2.0000     -10.261292      -279.2240
   4   2.0000     -10.238467      -278.6029
   5   2.0000      -1.322861       -35.9969
   6   2.0000      -1.043687       -28.4002
   7   2.0000      -0.817034       -22.2326
   8   2.0000      -0.700911       -19.0728
   9   2.0000      -0.648587       -17.6490
  10   2.0000      -0.558024       -15.1846
  11   2.0000      -0.543739       -14.7959
  12   2.0000      -0.517498       -14.0818
  13   2.0000      -0.476856       -12.9759
  14   2.0000      -0.444499       -12.0954
  15   2.0000      -0.411811       -11.2059
  16   2.0000      -0.389969       -10.6116
  17   2.0000      -0.385090       -10.4788
  18   2.0000      -0.354868        -9.6565
  19   2.0000      -0.300572        -8.1790
  20   0.0000      -0.018684        -0.5084
  21   0.0000       0.071796         1.9537
  22   0.0000       0.114754         3.1226
  23   0.0000       0.118271         3.2183
  24   0.0000       0.137828         3.7505

MULLIKEN ATOMIC CHARGES
-----------------------
   0 C :   -0.060877
   1 C :   -0.136704
   2 C :    0.278639
   3 H :    0.049805
   4 H :    0.084154
   5 F :   -0.095079
   6 O :   -0.281501
   7 H :    0.046268
   8 H :    0.066212
   9 H :    0.049084
Sum of atomic charges:   -0.0000000

LOEWDIN ATOMIC CHARGES
----------------------
   0 C :   -0.045045
   1 C :   -0.079828
   2 C :    0.113754
   3 H :    0.031518
   4 H :    0.054538
   5 F :    0.031483
   6 O :   -0.202755
   7 H :    0.029367
   8 H :    0.035422
   9 H :    0.031546

  Mayer bond orders larger than 0.100000
B(  0-C ,  1-C ) :   1.0807 B(  0-C ,  7-H ) :   0.9766 B(  0-C ,  8-H ) :   0.9699
B(  0-C ,  9-H ) :   0.9707 B(  1-C ,  2-C ) :   0.9971 B(  1-C ,  3-H ) :   0.9402
B(  1-C ,  4-H ) :   0.9329 B(  2-C ,  5-F ) :   1.1754 B(  2-C ,  6-O ) :   2.0495

Dispersion correction           -0.005178714
FINAL SINGLE POINT ENERGY      -291.864505044469

DIPOLE MOMENT
-------------
                                X             Y             Z
Electronic contribution:      3.96312       7.49171       1.46870
Nuclear contribution   :     -3.69486      -8.49563      -1.04945
                        -----------------------------------------
Total Dipole Moment    :      0.26826      -1.00393       0.41925
                        -----------------------------------------
Magnitude (a.u.)       :      1.12054
Magnitude (Debye)      :      2.84818

Rotational constants in cm-1:     0.293725     0.129218     0.102393
Rotational constants in MHz :  8805.653529  3873.869810  3069.666716

                             ****ORCA TERMINATED NORMALLY****
TOTAL RUN TIME: 0 days 0 hours 0 minutes 10 seconds 464 msec
