                         Program Version 5.0.0 -  RELEASE  -
|  1> !PBE0 D3BJ RIJCOSX def2-SVP def2/J TightSCF
|  2> *xyz 0 1
|  3> C         -0.69912        3.48945        3.75516
|  4> H         -0.96672        4.34901        3.14049
|  5> C         -1.08067        3.79296        5.15686
|  6> C          0.77696        3.13839        3.61741
|  7> H         -1.33146        2.65651        3.44632
|  8> H         -0.87449        4.76274        5.42734
|  9> H         -0.68079        3.13476        5.83900
| 10> H         -2.05755        3.53169        5.34620
| 11> H          0.99957        2.92898        2.59199
| 12> H          0.99576        2.27685        4.21303
| 13> H          1.37223        3.96279        3.95046
| 14> *
| 15> %MaxCore 64000
| 16>
| 17> %pal nprocs 4
| 18> end
| 19>
| 20> %scf
| 21>   MaxIter 150
| 22> end
| 23>
| 24>
| 25>                          ****END OF INPUT****

CARTESIAN COORDINATES (ANGSTROEM)
---------------------------------
  C     -0.699120    3.489450    3.755160
  H     -0.966720    4.349010    3.140490
  C     -1.080670    3.792960    5.156860
  C      0.776960    3.138390    3.617410
  H     -1.331460    2.656510    3.446320
  H     -0.874490    4.762740    5.427340
  H     -0.680790    3.134760    5.839000
  H     -2.057550    3.531690    5.346200
  H      0.999570    2.928980    2.591990
  H      0.995760    2.276850    4.213030
  H      1.372230    3.962790    3.950460

 Total Charge           Charge          ....    0
 Multiplicity           Mult            ....    1
 Number of Electrons    NEL             ....   26
 Basis Dimension        Dim             ....   82

ORBITAL ENERGIES
----------------

  NO   OCC          E(Eh)            E(eV)
   0   2.0000     -10.217748      -278.0391
   1   2.0000     -10.209545      -277.8158
   2   2.0000     -10.192388      -277.3490
   3   2.0000      -0.806270       -21.9397
   4   2.0000      -0.704456       -19.1692
   5   2.0000      -0.599041       -16.3007
   6   2.0000      -0.483707       -13.1623
   7   2.0000      -0.450828       -12.2676
   8   2.0000      -0.411201       -11.1893
   9   2.0000      -0.406686       -11.0665
  10   2.0000      -0.350275        -9.5315
  11   2.0000      -0.337771        -9.1912
  12   2.0000      -0.334854        -9.1118
  13   0.0000       0.074569         2.0291
  14   0.0000       0.120932         3.2907
  15   0.0000       0.125308         3.4098
  16   0.0000       0.127307         3.4642
  17   0.0000       0.157102         4.2750

MULLIKEN ATOMIC CHARGES
-----------------------
   0 C :   -0.145478
   1 H :    0.034490
   2 C :    0.014152
   3 C :   -0.049047
   4 H :    0.029469
   5 H :    0.023465
   6 H :   -0.003469
   7 H :    0.001618
   8 H :    0.032141
   9 H :    0.031075
  10 H :    0.031582
Sum of atomic charges:    0.0000000

LOEWDIN ATOMIC CHARGES
----------------------
   0 C :   -0.051124
   1 H :    0.024226
   2 C :   -0.060500
   3 C :   -0.061975
   4 H :    0.023481
   5 H :    0.017047
   6 H :    0.018173
   7 H :    0.021591
   8 H :    0.023224
   9 H :    0.022784
  10 H :    0.023072

  Mayer bond orders larger than 0.100000
B(  0-C ,  1-H ) :   0.9582 B(  0-C ,  2-C ) :   1.0987 B(  0-C ,  3-C ) :   1.0926
B(  0-C ,  4-H ) :   0.9595 B(  2-C ,  5-H ) :   0.9753 B(  2-C ,  6-H ) :   0.9622
B(  2-C ,  7-H ) :   0.9618 B(  3-C ,  8-H ) :   0.9721 B(  3-C ,  9-H ) :   0.9738
B(  3-C , 10-H ) :   0.9765

Dispersion correction           -0.005019913
FINAL SINGLE POINT ENERGY      -118.884677995803

DIPOLE MOMENT
-------------
                                X             Y             Z
Electronic contribution:     -0.13471       0.11844      -0.38986
Nuclear contribution   :      0.10024      -0.14218       0.41628
                        -----------------------------------------
Total Dipole Moment    :     -0.03446      -0.02374       0.02643
                        -----------------------------------------
Magnitude (a.u.)       :      0.04949
Magnitude (Debye)      :      0.12580

Rotational constants in cm-1:     1.024179     0.291605     0.259489
Rotational constants in MHz : 30704.103454  8742.106283  7779.285909

                             ****ORCA TERMINATED NORMALLY****
TOTAL RUN TIME: 0 days 0 hours 0 minutes 8 seconds 867 msec
