                         Program Version 5.0.0 -  RELEASE  -
|  1> !PBE0 D3BJ RIJCOSX def2-SVP def2/J TightSCF
|  2> *xyz 0 1
|  3> C         -2.79070       -0.78527        5.70281
|  4> C         -2.45380        0.05510        6.94145
|  5> C         -2.07842        1.48042        6.56410
|  6> H         -1.62558       -0.38216        7.49891
|  7> H         -3.32527        0.08775        7.59917
|  8> O         -0.90125        1.85816        6.82810
|  9> F         -2.93658        2.17731        5.96415
| 10> H         -1.94052       -0.82114        5.05412
| 11> H         -3.61590       -0.34261        5.18514
| 12> H         -3.05063       -1.77815        6.00536
| 13> *
| 14> %MaxCore 64000
| 15>
| 16> %pal nprocs 4
| 17> end
| 18>
| 19> %scf
| 20>   MaxIter 150
| 21> end
| 22>
| 23>
| 24>                          ****END OF INPUT****

CARTESIAN COORDINATES (ANGSTROEM)
---------------------------------
  C     -2.790700   -0.785270    5.702810
  C     -2.453800    0.055100    6.941450
  C     -2.078420    1.480420    6.564100
  H     -1.625580   -0.382160    7.498910
  H     -3.325270    0.087750    7.599170
  O     -0.901250    1.858160    6.828100
  F     -2.936580    2.177310    5.964150
  H     -1.940520   -0.821140    5.054120
  H     -3.615900   -0.342610    5.185140
  H     -3.050630   -1.778150    6.005360

 Total Charge           Charge          ....    0
 Multiplicity           Mult            ....    1
 Number of Electrons    NEL             ....   40
 Basis Dimension        Dim             ....   95

ORBITAL ENERGIES
----------------

  NO   OCC          E(Eh)            E(eV)
   0   2.0000     -24.840466      -675.9435
   1   2.0000     -19.209585      -522.7194
   2   2.0000     -10.401816      -283.0478
   3   2.0000     -10.260592      -279.2049
   4   2.0000     -10.242348      -278.7085
   5   2.0000      -1.328617       -36.1535
   6   2.0000      -1.038306       -28.2537
   7   2.0000      -0.820123       -22.3167
   8   2.0000      -0.698592       -19.0097
   9   2.0000      -0.655414       -17.8347
  10   2.0000      -0.562517       -15.3069
  11   2.0000      -0.550388       -14.9768
  12   2.0000      -0.511508       -13.9188
  13   2.0000      -0.476978       -12.9792
  14   2.0000      -0.446377       -12.1465
  15   2.0000      -0.413827       -11.2608
  16   2.0000      -0.392983       -10.6936
  17   2.0000      -0.387599       -10.5471
  18   2.0000      -0.355907        -9.6847
  19   2.0000      -0.294171        -8.0048
  20   0.0000      -0.015430        -0.4199
  21   0.0000       0.067842         1.8461
  22   0.0000       0.112332         3.0567
  23   0.0000       0.120461         3.2779
  24   0.0000       0.141656         3.8546

MULLIKEN ATOMIC CHARGES
-----------------------
   0 C :   -0.080436
   1 C :   -0.128767
   2 C :    0.277302
   3 H :    0.075960
   4 H :    0.066756
   5 O :   -0.282976
   6 F :   -0.091008
   7 H :    0.057352
   8 H :    0.051460
   9 H :    0.054357
Sum of atomic charges:   -0.0000000

LOEWDIN ATOMIC CHARGES
----------------------
   0 C :   -0.053375
   1 C :   -0.075764
   2 C :    0.111254
   3 H :    0.048326
   4 H :    0.043110
   5 O :   -0.205964
   6 F :    0.038074
   7 H :    0.032016
   8 H :    0.028488
   9 H :    0.033836

  Mayer bond orders larger than 0.100000
B(  0-C ,  1-C ) :   1.0653 B(  0-C ,  7-H ) :   0.9755 B(  0-C ,  8-H ) :   0.9733
B(  0-C ,  9-H ) :   0.9701 B(  1-C ,  2-C ) :   1.0079 B(  1-C ,  3-H ) :   0.9500
B(  1-C ,  4-H ) :   0.9301 B(  2-C ,  5-O ) :   2.0564 B(  2-C ,  6-F ) :   1.1716

Dispersion correction           -0.005153064
FINAL SINGLE POINT ENERGY      -291.861914180792

DIPOLE MOMENT
-------------
                                X             Y             Z
Electronic contribution:      0.61832       8.00460       0.04576
Nuclear contribution   :     -1.47571      -8.84360      -0.10748
                        -----------------------------------------
Total Dipole Moment    :     -0.85740      -0.83901      -0.06172
                        -----------------------------------------
Magnitude (a.u.)       :      1.20120
Magnitude (Debye)      :      3.05320

Rotational constants in cm-1:     0.283081     0.133379     0.103386
Rotational constants in MHz :  8486.545774  3998.599544  3099.448040

                             ****ORCA TERMINATED NORMALLY****
TOTAL RUN TIME: 0 days 0 hours 0 minutes 10 seconds 399 msec
