                         Program Version 5.0.0 -  RELEASE  -
|  1> !PBE0 D3BJ RIJCOSX def2-TZVP def2/J TightSCF xyzfile
|  2>
|  3> *xyzfile 0 1 D1.xyz
|  4>
|  5> %MaxCore 64000
|  6>
|  7> %pal nprocs 18
|  8> end
|  9>
| 10> %scf
| 11>   MaxIter 150
| 12> end
| 13>
| 14>
| 15>                          ****END OF INPUT****

CARTESIAN COORDINATES (ANGSTROEM)
---------------------------------
  C     -0.699123    3.489451    3.755163
  H     -0.966716    4.349013    3.140491
  C     -1.080669    3.792957    5.156857
  C      0.776956    3.138391    3.617408
  H     -1.331455    2.656510    3.446323
  H      1.371398    3.888342    4.149744
  H      1.046926    3.232057    2.561331
  C      1.118917    1.731170    4.115155
  H      2.200573    1.654226    4.254882
  C      0.659466    0.635182    3.153306
  H      0.677024    1.576674    5.103150
  H      1.312288    0.638870    2.274207
  H     -0.339563    0.868049    2.772876
  C      0.639957   -0.771175    3.755619
  C     -0.341821   -0.965537    4.915046
  H      1.648266   -1.028665    4.097015
  H      0.398568   -1.482386    2.958453
  H     -0.279892   -2.005646    5.252547
  C     -1.789164   -0.639231    4.557496
  H     -0.032380   -0.352918    5.765118
  H     -2.107151   -1.270102    3.719619
  H     -1.856352    0.391636    4.197604
  C     -2.790700   -0.785275    5.702812
  H     -2.867308   -1.835651    6.001675
  H     -3.774554   -0.486577    5.334807
  C     -2.453797    0.055101    6.941445
  C     -2.078419    1.480421    6.564098
  H     -1.625584   -0.382163    7.498914
  H     -3.325274    0.087746    7.599175
  H     -0.874488    4.762737    5.427344
  H     -0.680793    3.134762    5.839000
  H     -2.057550    3.531691    5.346197
  F     -0.901252    1.858156    6.828104
  O     -2.936582    2.177309    5.964151

 Total Charge           Charge          ....    0
 Multiplicity           Mult            ....    1
 Number of Electrons    NEL             ....  104
 Basis Dimension        Dim             ....  529

ORBITAL ENERGIES
----------------

  NO   OCC          E(Eh)            E(eV)
   0   2.0000     -24.849289      -676.1835
   1   2.0000     -19.218137      -522.9521
   2   2.0000     -10.408773      -283.2371
   3   2.0000     -10.255859      -279.0761
   4   2.0000     -10.238881      -278.6141
   5   2.0000     -10.223815      -278.2041
   6   2.0000     -10.220828      -278.1229
   7   2.0000     -10.215599      -277.9806
   8   2.0000     -10.208403      -277.7848
   9   2.0000     -10.205592      -277.7083
  10   2.0000     -10.198353      -277.5113
  11   2.0000     -10.188352      -277.2392
  12   2.0000     -10.132558      -275.7209
  13   2.0000      -1.363185       -37.0942
  14   2.0000      -1.075075       -29.2543
  15   2.0000      -0.855998       -23.2929
  16   2.0000      -0.831508       -22.6265
  17   2.0000      -0.801103       -21.7991
  18   2.0000      -0.772150       -21.0113
  19   2.0000      -0.730079       -19.8665
  20   2.0000      -0.706026       -19.2119
  21   2.0000      -0.678183       -18.4543
  22   2.0000      -0.644947       -17.5499
  23   2.0000      -0.626329       -17.0433
  24   2.0000      -0.584305       -15.8997
  25   2.0000      -0.578517       -15.7422
  26   2.0000      -0.571849       -15.5608
  27   2.0000      -0.554434       -15.0869
  28   2.0000      -0.536393       -14.5960
  29   2.0000      -0.494205       -13.4480
  30   2.0000      -0.490553       -13.3486
  31   2.0000      -0.473723       -12.8907
  32   2.0000      -0.470655       -12.8072
  33   2.0000      -0.450213       -12.2509
  34   2.0000      -0.442104       -12.0303
  35   2.0000      -0.427462       -11.6318
  36   2.0000      -0.420521       -11.4430
  37   2.0000      -0.412271       -11.2185
  38   2.0000      -0.401563       -10.9271
  39   2.0000      -0.392416       -10.6782
  40   2.0000      -0.379798       -10.3348
  41   2.0000      -0.372299       -10.1308
  42   2.0000      -0.363648        -9.8954
  43   2.0000      -0.356258        -9.6943
  44   2.0000      -0.349672        -9.5151
  45   2.0000      -0.339761        -9.2454
  46   2.0000      -0.334280        -9.0962
  47   2.0000      -0.323346        -8.7987
  48   2.0000      -0.319573        -8.6960
  49   2.0000      -0.308950        -8.4070
  50   2.0000      -0.305814        -8.3216
  51   2.0000      -0.277699        -7.5566
  52   0.0000      -0.037556        -1.0220
  53   0.0000       0.037977         1.0334
  54   0.0000       0.055430         1.5083
  55   0.0000       0.058046         1.5795
  56   0.0000       0.066557         1.8111

MULLIKEN ATOMIC CHARGES
-----------------------
   0 C :   -0.203763
   1 H :    0.091803
   2 C :   -0.399733
   3 C :   -0.105039
   4 H :    0.090885
   5 H :    0.092905
   6 H :    0.083996
   7 C :   -0.229766
   8 H :    0.097357
   9 C :   -0.262818
  10 H :    0.088270
  11 H :    0.106454
  12 H :    0.120601
  13 C :   -0.112459
  14 C :   -0.282804
  15 H :    0.096706
  16 H :    0.099851
  17 H :    0.104504
  18 C :   -0.230514
  19 H :    0.115822
  20 H :    0.107594
  21 H :    0.120897
  22 C :   -0.171683
  23 H :    0.110459
  24 H :    0.124336
  25 C :   -0.218046
  26 C :    0.364202
  27 H :    0.134431
  28 H :    0.145472
  29 H :    0.102047
  30 H :    0.102032
  31 H :    0.155546
  32 F :   -0.102518
  33 O :   -0.337026
Sum of atomic charges:   -0.0000000

LOEWDIN ATOMIC CHARGES
----------------------
   0 C :   -0.305942
   1 H :    0.133938
   2 C :   -0.334065
   3 C :   -0.269818
   4 H :    0.131183
   5 H :    0.136470
   6 H :    0.134520
   7 C :   -0.268919
   8 H :    0.135358
   9 C :   -0.273155
  10 H :    0.132281
  11 H :    0.137556
  12 H :    0.135947
  13 C :   -0.269901
  14 C :   -0.273492
  15 H :    0.138006
  16 H :    0.137924
  17 H :    0.137984
  18 C :   -0.271361
  19 H :    0.132837
  20 H :    0.142108
  21 H :    0.142017
  22 C :   -0.255993
  23 H :    0.141787
  24 H :    0.147387
  25 C :   -0.234583
  26 C :   -0.477129
  27 H :    0.144685
  28 H :    0.159960
  29 H :    0.100874
  30 H :    0.100772
  31 H :    0.111993
  32 F :    0.327722
  33 O :    0.091046

  Mayer bond orders larger than 0.100000
B(  0-C ,  1-H ) :   0.9567 B(  0-C ,  2-C ) :   0.9875 B(  0-C ,  3-C ) :   0.9846
B(  0-C ,  4-H ) :   0.9908 B(  2-C , 29-H ) :   0.9513 B(  2-C , 30-H ) :   0.9907
B(  2-C , 31-H ) :   0.9584 B(  3-C ,  5-H ) :   0.9532 B(  3-C ,  6-H ) :   0.9538
B(  3-C ,  7-C ) :   1.0065 B(  7-C ,  8-H ) :   0.9490 B(  7-C ,  9-C ) :   0.9953
B(  7-C , 10-H ) :   0.9790 B(  9-C , 11-H ) :   0.9516 B(  9-C , 12-H ) :   0.9773
B(  9-C , 13-C ) :   0.9817 B( 13-C , 14-C ) :   1.0088 B( 13-C , 15-H ) :   0.9584
B( 13-C , 16-H ) :   0.9583 B( 14-C , 17-H ) :   0.9524 B( 14-C , 18-C ) :   0.9758
B( 14-C , 19-H ) :   0.9733 B( 18-C , 20-H ) :   0.9510 B( 18-C , 21-H ) :   0.9641
B( 18-C , 22-C ) :   1.0132 B( 22-C , 23-H ) :   0.9563 B( 22-C , 24-H ) :   0.9510
B( 22-C , 25-C ) :   0.9832 B( 25-C , 26-C ) :   0.9985 B( 25-C , 27-H ) :   0.9607
B( 25-C , 28-H ) :   0.9334 B( 26-C , 32-F ) :   1.1199 B( 26-C , 33-O ) :   1.9907

Dispersion correction           -0.032801419
FINAL SINGLE POINT ENERGY      -606.388885583302

DIPOLE MOMENT
-------------
                                X             Y             Z
Electronic contribution:     -5.47873       2.48564      10.84297
Nuclear contribution   :      5.54676      -3.70047     -10.28793
                        -----------------------------------------
Total Dipole Moment    :      0.06803      -1.21483       0.55504
                        -----------------------------------------
Magnitude (a.u.)       :      1.33735
Magnitude (Debye)      :      3.39927

Rotational constants in cm-1:     0.028503     0.023389     0.015214
Rotational constants in MHz :   854.502405   701.197575   456.108322

                             ****ORCA TERMINATED NORMALLY****
TOTAL RUN TIME: 0 days 0 hours 0 minutes 56 seconds 230 msec
