                         Program Version 5.0.0 -  RELEASE  -
|  1> !PBE0 D3BJ RIJCOSX def2-TZVP def2/J TightSCF xyzfile
|  2>
|  3> *xyzfile 0 1 D2.xyz
|  4>
|  5> %MaxCore 64000
|  6>
|  7> %pal nprocs 18
|  8> end
|  9>
| 10> %scf
| 11>   MaxIter 150
| 12> end
| 13>
| 14>
| 15>                          ****END OF INPUT****

CARTESIAN COORDINATES (ANGSTROEM)
---------------------------------
  C     -0.699123    3.489451    3.755163
  H     -0.966716    4.349013    3.140491
  C     -1.080669    3.792957    5.156857
  C      0.776956    3.138391    3.617408
  H     -1.331455    2.656510    3.446323
  H      1.371398    3.888342    4.149744
  H      1.046926    3.232057    2.561331
  C      1.118917    1.731170    4.115155
  H      2.200573    1.654226    4.254882
  C      0.659466    0.635182    3.153306
  H      0.677024    1.576674    5.103150
  H      1.312288    0.638870    2.274207
  H     -0.339563    0.868049    2.772876
  C      0.639957   -0.771175    3.755619
  C     -0.341821   -0.965537    4.915046
  H      1.648266   -1.028665    4.097015
  H      0.398568   -1.482386    2.958453
  H     -0.279892   -2.005646    5.252547
  C     -1.789164   -0.639231    4.557496
  H     -0.032380   -0.352918    5.765118
  H     -2.107151   -1.270102    3.719619
  H     -1.856352    0.391636    4.197604
  C     -2.790700   -0.785275    5.702812
  H     -2.867308   -1.835651    6.001675
  H     -3.774554   -0.486577    5.334807
  C     -2.453797    0.055101    6.941445
  C     -2.078419    1.480421    6.564098
  H     -1.625584   -0.382163    7.498914
  H     -3.325274    0.087746    7.599175
  H     -0.874488    4.762737    5.427344
  H     -0.680793    3.134762    5.839000
  H     -2.057550    3.531691    5.346197
  O     -0.901252    1.858156    6.828104
  F     -2.936582    2.177309    5.964151

 Total Charge           Charge          ....    0
 Multiplicity           Mult            ....    1
 Number of Electrons    NEL             ....  104
 Basis Dimension        Dim             ....  529

ORBITAL ENERGIES
----------------

  NO   OCC          E(Eh)            E(eV)
   0   2.0000     -24.852387      -676.2678
   1   2.0000     -19.218507      -522.9622
   2   2.0000     -10.410525      -283.2848
   3   2.0000     -10.256310      -279.0884
   4   2.0000     -10.242160      -278.7033
   5   2.0000     -10.226034      -278.2645
   6   2.0000     -10.215383      -277.9747
   7   2.0000     -10.211594      -277.8716
   8   2.0000     -10.204286      -277.6727
   9   2.0000     -10.197403      -277.4854
  10   2.0000     -10.194972      -277.4193
  11   2.0000     -10.188161      -277.2339
  12   2.0000     -10.131345      -275.6879
  13   2.0000      -1.366450       -37.1830
  14   2.0000      -1.074889       -29.2492
  15   2.0000      -0.857316       -23.3288
  16   2.0000      -0.828563       -22.5464
  17   2.0000      -0.799312       -21.7504
  18   2.0000      -0.770567       -20.9682
  19   2.0000      -0.726751       -19.7759
  20   2.0000      -0.703546       -19.1445
  21   2.0000      -0.680216       -18.5096
  22   2.0000      -0.641312       -17.4510
  23   2.0000      -0.627023       -17.0622
  24   2.0000      -0.581806       -15.8317
  25   2.0000      -0.579777       -15.7765
  26   2.0000      -0.574614       -15.6360
  27   2.0000      -0.553908       -15.0726
  28   2.0000      -0.532195       -14.4818
  29   2.0000      -0.496769       -13.5178
  30   2.0000      -0.491759       -13.3814
  31   2.0000      -0.472292       -12.8517
  32   2.0000      -0.466154       -12.6847
  33   2.0000      -0.445251       -12.1159
  34   2.0000      -0.436155       -11.8684
  35   2.0000      -0.430711       -11.7202
  36   2.0000      -0.420710       -11.4481
  37   2.0000      -0.414244       -11.2721
  38   2.0000      -0.400332       -10.8936
  39   2.0000      -0.388206       -10.5636
  40   2.0000      -0.383780       -10.4432
  41   2.0000      -0.378542       -10.3006
  42   2.0000      -0.362672        -9.8688
  43   2.0000      -0.355410        -9.6712
  44   2.0000      -0.348002        -9.4696
  45   2.0000      -0.337403        -9.1812
  46   2.0000      -0.331615        -9.0237
  47   2.0000      -0.321989        -8.7618
  48   2.0000      -0.315470        -8.5844
  49   2.0000      -0.305705        -8.3186
  50   2.0000      -0.303255        -8.2520
  51   2.0000      -0.268733        -7.3126
  52   0.0000      -0.036910        -1.0044
  53   0.0000       0.034442         0.9372
  54   0.0000       0.056657         1.5417
  55   0.0000       0.057607         1.5676
  56   0.0000       0.068312         1.8589

MULLIKEN ATOMIC CHARGES
-----------------------
   0 C :   -0.191480
   1 H :    0.090332
   2 C :   -0.407626
   3 C :   -0.107328
   4 H :    0.075288
   5 H :    0.093387
   6 H :    0.081511
   7 C :   -0.243319
   8 H :    0.092252
   9 C :   -0.260590
  10 H :    0.128551
  11 H :    0.104381
  12 H :    0.114573
  13 C :   -0.116701
  14 C :   -0.287206
  15 H :    0.096470
  16 H :    0.096602
  17 H :    0.100772
  18 C :   -0.205162
  19 H :    0.143254
  20 H :    0.108817
  21 H :    0.100886
  22 C :   -0.204407
  23 H :    0.114310
  24 H :    0.121992
  25 C :   -0.208237
  26 C :    0.368570
  27 H :    0.150551
  28 H :    0.138524
  29 H :    0.103450
  30 H :    0.170388
  31 H :    0.088374
  32 O :   -0.349140
  33 F :   -0.102037
Sum of atomic charges:    0.0000000

LOEWDIN ATOMIC CHARGES
----------------------
   0 C :   -0.309058
   1 H :    0.132196
   2 C :   -0.333720
   3 C :   -0.268436
   4 H :    0.127610
   5 H :    0.137287
   6 H :    0.133559
   7 C :   -0.267200
   8 H :    0.134737
   9 C :   -0.274111
  10 H :    0.141345
  11 H :    0.136599
  12 H :    0.133891
  13 C :   -0.270191
  14 C :   -0.272012
  15 H :    0.138462
  16 H :    0.136385
  17 H :    0.137031
  18 C :   -0.270971
  19 H :    0.140782
  20 H :    0.141851
  21 H :    0.138301
  22 C :   -0.263930
  23 H :    0.143183
  24 H :    0.142483
  25 C :   -0.231220
  26 C :   -0.474182
  27 H :    0.157436
  28 H :    0.153185
  29 H :    0.101441
  30 H :    0.104836
  31 H :    0.103488
  32 O :    0.078138
  33 F :    0.340805

  Mayer bond orders larger than 0.100000
B(  0-C ,  1-H ) :   0.9565 B(  0-C ,  2-C ) :   0.9842 B(  0-C ,  3-C ) :   0.9989
B(  0-C ,  4-H ) :   0.9839 B(  2-C , 29-H ) :   0.9541 B(  2-C , 30-H ) :   0.9657
B(  2-C , 31-H ) :   0.9780 B(  3-C ,  5-H ) :   0.9530 B(  3-C ,  6-H ) :   0.9546
B(  3-C ,  7-C ) :   1.0043 B(  7-C ,  8-H ) :   0.9480 B(  7-C ,  9-C ) :   0.9918
B(  7-C , 10-H ) :   0.9769 B(  9-C , 11-H ) :   0.9516 B(  9-C , 12-H ) :   0.9779
B(  9-C , 13-C ) :   0.9842 B( 13-C , 14-C ) :   1.0089 B( 13-C , 15-H ) :   0.9574
B( 13-C , 16-H ) :   0.9597 B( 14-C , 17-H ) :   0.9513 B( 14-C , 18-C ) :   0.9724
B( 14-C , 19-H ) :   0.9681 B( 18-C , 20-H ) :   0.9519 B( 18-C , 21-H ) :   0.9677
B( 18-C , 22-C ) :   0.9951 B( 22-C , 23-H ) :   0.9536 B( 22-C , 24-H ) :   0.9625
B( 22-C , 25-C ) :   0.9702 B( 25-C , 26-C ) :   1.0093 B( 25-C , 27-H ) :   0.9662
B( 25-C , 28-H ) :   0.9339 B( 26-C , 32-O ) :   1.9571 B( 26-C , 33-F ) :   1.1261

Dispersion correction           -0.032887319
FINAL SINGLE POINT ENERGY      -606.387446000128

DIPOLE MOMENT
-------------
                                X             Y             Z
Electronic contribution:     -8.94981       3.01360       9.46747
Nuclear contribution   :      8.07181      -4.09641      -9.21610
                        -----------------------------------------
Total Dipole Moment    :     -0.87800      -1.08281       0.25137
                        -----------------------------------------
Magnitude (a.u.)       :      1.41653
Magnitude (Debye)      :      3.60052

Rotational constants in cm-1:     0.028400     0.023377     0.015073
Rotational constants in MHz :   851.414727   700.831775   451.871218

                             ****ORCA TERMINATED NORMALLY****
TOTAL RUN TIME: 0 days 0 hours 0 minutes 54 seconds 590 msec
