                         Program Version 5.0.0 -  RELEASE  -
|  1> !PBE D3BJ RIJCOSX def2-SVPD def2/J TightSCF
|  2> *xyz -1 1
|  3> C          3.38093        2.08304       -3.35013
|  4> C          2.49556        1.81615       -2.13636
|  5> C          1.87218        0.42790       -2.07750
|  6> H          2.61427       -0.36583       -2.19889
|  7> H          1.38995        0.27309       -1.11236
|  8> S          0.57902        0.14047       -3.29794
|  9> O          0.22886       -1.24687       -3.12787
| 10> O         -0.43927        1.11897       -3.01455
| 11> O          1.24788        0.40347       -4.59565
| 12> H          1.69700        2.56197       -2.14111
| 13> H          3.08079        1.98744       -1.22584
| 14> H          2.81820        1.91840       -4.24519
| 15> H          4.22171        1.42153       -3.33067
| 16> H          3.72372        3.09635       -3.32565
| 17> *
| 18>
| 19> %MaxCore 64000
| 20>
| 21> %pal nprocs 8
| 22> end
| 23>
| 24> %scf
| 25>   MaxIter 150
| 26> end
| 27>
| 28>
| 29>                          ****END OF INPUT****

CARTESIAN COORDINATES (ANGSTROEM)
---------------------------------
  C      3.380930    2.083040   -3.350130
  C      2.495560    1.816150   -2.136360
  C      1.872180    0.427900   -2.077500
  H      2.614270   -0.365830   -2.198890
  H      1.389950    0.273090   -1.112360
  S      0.579020    0.140470   -3.297940
  O      0.228860   -1.246870   -3.127870
  O     -0.439270    1.118970   -3.014550
  O      1.247880    0.403470   -4.595650
  H      1.697000    2.561970   -2.141110
  H      3.080790    1.987440   -1.225840
  H      2.818200    1.918400   -4.245190
  H      4.221710    1.421530   -3.330670
  H      3.723720    3.096350   -3.325650

 Total Charge           Charge          ....   -1
 Multiplicity           Mult            ....    1
 Number of Electrons    NEL             ....   66
 Basis Dimension        Dim             ....  212

ORBITAL ENERGIES
----------------

  NO   OCC          E(Eh)            E(eV)
   0   2.0000     -88.057170     -2396.1574
   1   2.0000     -18.550362      -504.7810
   2   2.0000     -18.550093      -504.7737
   3   2.0000     -18.537238      -504.4239
   4   2.0000      -9.762489      -265.6508
   5   2.0000      -9.754969      -265.4462
   6   2.0000      -9.742158      -265.0976
   7   2.0000      -7.661310      -208.4748
   8   2.0000      -5.688339      -154.7876
   9   2.0000      -5.688235      -154.7847
  10   2.0000      -5.687514      -154.7651
  11   2.0000      -0.846317       -23.0295
  12   2.0000      -0.713511       -19.4156
  13   2.0000      -0.689118       -18.7518
  14   2.0000      -0.576252       -15.6806
  15   2.0000      -0.491609       -13.3774
  16   2.0000      -0.401321       -10.9205
  17   2.0000      -0.325252        -8.8506
  18   2.0000      -0.280347        -7.6286
  19   2.0000      -0.268334        -7.3017
  20   2.0000      -0.242608        -6.6017
  21   2.0000      -0.231240        -6.2924
  22   2.0000      -0.216965        -5.9039
  23   2.0000      -0.206727        -5.6253
  24   2.0000      -0.174378        -4.7451
  25   2.0000      -0.170579        -4.6417
  26   2.0000      -0.159074        -4.3286
  27   2.0000      -0.108922        -2.9639
  28   2.0000      -0.108403        -2.9498
  29   2.0000      -0.076946        -2.0938
  30   2.0000      -0.070642        -1.9223
  31   2.0000      -0.057410        -1.5622
  32   2.0000      -0.025027        -0.6810
  33   0.0000       0.121330         3.3016
  34   0.0000       0.147959         4.0262
  35   0.0000       0.152741         4.1563
  36   0.0000       0.162016         4.4087
  37   0.0000       0.180113         4.9011

MULLIKEN ATOMIC CHARGES
-----------------------
   0 C :    0.852209
   1 C :   -0.280773
   2 C :    0.033106
   3 H :   -0.026809
   4 H :   -0.023298
   5 S :    1.228432
   6 O :   -0.756209
   7 O :   -0.743433
   8 O :   -0.811321
   9 H :   -0.011856
  10 H :   -0.143055
  11 H :   -0.242505
  12 H :   -0.023288
  13 H :   -0.051203
Sum of atomic charges:   -1.0000000

LOEWDIN ATOMIC CHARGES
----------------------
   0 C :    0.112416
   1 C :   -0.097771
   2 C :   -0.101893
   3 H :    0.006823
   4 H :    0.000439
   5 S :    0.815263
   6 O :   -0.548719
   7 O :   -0.545290
   8 O :   -0.554752
   9 H :    0.017639
  10 H :    0.005946
  11 H :   -0.053320
  12 H :   -0.023912
  13 H :   -0.032870

  Mayer bond orders larger than 0.100000
B(  0-C ,  1-C ) :   1.2971 B(  0-C ,  9-H ) :   0.1134 B(  0-C , 11-H ) :   0.8023
B(  0-C , 12-H ) :   0.7213 B(  0-C , 13-H ) :   0.7000 B(  1-C ,  2-C ) :   1.2346
B(  1-C ,  3-H ) :   0.1339 B(  1-C ,  4-H ) :   0.1347 B(  1-C ,  9-H ) :   0.8711
B(  1-C , 10-H ) :   0.8899 B(  1-C , 11-H ) :   0.2835 B(  1-C , 12-H ) :   0.2242
B(  1-C , 13-H ) :   0.2266 B(  2-C ,  3-H ) :   0.9400 B(  2-C ,  4-H ) :   0.9019
B(  2-C ,  5-S ) :   0.8979 B(  2-C ,  9-H ) :   0.1430 B(  2-C , 10-H ) :   0.1215
B(  5-S ,  6-O ) :   1.3747 B(  5-S ,  7-O ) :   1.3190 B(  5-S ,  8-O ) :   1.2865
B(  8-O , 11-H ) :   0.1147 B( 11-H , 12-H ) :   0.1171 B( 11-H , 13-H ) :   0.1107

Dispersion correction           -0.013340603
FINAL SINGLE POINT ENERGY      -741.520433238988

DIPOLE MOMENT
-------------
                                X             Y             Z
Electronic contribution:     -8.89054      -5.58164      -2.94598
Nuclear contribution   :     10.42821       6.37804       4.08250
                        -----------------------------------------
Total Dipole Moment    :      1.53768       0.79640       1.13652
                        -----------------------------------------
Magnitude (a.u.)       :      2.07132
Magnitude (Debye)      :      5.26488

Rotational constants in cm-1:     0.136992     0.054831     0.052480
Rotational constants in MHz :  4106.928256  1643.799656  1573.299166

                             ****ORCA TERMINATED NORMALLY****
TOTAL RUN TIME: 0 days 0 hours 0 minutes 5 seconds 760 msec
