                         Program Version 5.0.0 -  RELEASE  -
|  1> !PBE D3BJ RIJCOSX def2-SVPD def2/J TightSCF
|  2> *xyz 1 1
|  3> C          3.38093        2.08304       -3.35013
|  4> N          4.53592        1.18245       -3.42852
|  5> C          2.49556        1.81615       -2.13636
|  6> C          1.87218        0.42790       -2.07750
|  7> C          4.67196        0.12227       -4.22060
|  8> N          5.86602       -0.50785       -4.22428
|  9> N          3.69888       -0.31284       -4.98699
| 10> H          2.73141       -0.05009       -4.84900
| 11> H          3.89005       -1.05517       -5.64373
| 12> H          5.25193        1.30346       -2.72101
| 13> H          6.69516       -0.06232       -3.85160
| 14> H          5.97538       -1.39688       -4.69141
| 15> H          1.69700        2.56197       -2.14111
| 16> H          3.08079        1.98744       -1.22584
| 17> H          2.80646        1.98651       -4.26848
| 18> H          3.77871        3.09828       -3.30738
| 19> H          1.29954        0.25615       -2.96490
| 20> H          1.23321        0.35984       -1.22194
| 21> H          2.64581       -0.30765       -2.00430
| 22> *
| 23>
| 24> %MaxCore 64000
| 25>
| 26> %pal nprocs 8
| 27> end
| 28>
| 29> %scf
| 30>   MaxIter 150
| 31> end
| 32>
| 33>
| 34>                          ****END OF INPUT****

CARTESIAN COORDINATES (ANGSTROEM)
---------------------------------
  C      3.380930    2.083040   -3.350130
  N      4.535920    1.182450   -3.428520
  C      2.495560    1.816150   -2.136360
  C      1.872180    0.427900   -2.077500
  C      4.671960    0.122270   -4.220600
  N      5.866020   -0.507850   -4.224280
  N      3.698880   -0.312840   -4.986990
  H      2.731410   -0.050090   -4.849000
  H      3.890050   -1.055170   -5.643730
  H      5.251930    1.303460   -2.721010
  H      6.695160   -0.062320   -3.851600
  H      5.975380   -1.396880   -4.691410
  H      1.697000    2.561970   -2.141110
  H      3.080790    1.987440   -1.225840
  H      2.806460    1.986510   -4.268480
  H      3.778710    3.098280   -3.307380
  H      1.299540    0.256150   -2.964900
  H      1.233210    0.359840   -1.221940
  H      2.645810   -0.307650   -2.004300

 Total Charge           Charge          ....    1
 Multiplicity           Mult            ....    1
 Number of Electrons    NEL             ....   56
 Basis Dimension        Dim             ....  236

ORBITAL ENERGIES
----------------

  NO   OCC          E(Eh)            E(eV)
   0   2.0000     -14.221648      -386.9907
   1   2.0000     -14.219937      -386.9442
   2   2.0000     -14.215798      -386.8315
   3   2.0000     -10.215943      -277.9900
   4   2.0000     -10.096720      -274.7457
   5   2.0000     -10.039208      -273.1807
   6   2.0000     -10.017866      -272.6000
   7   2.0000      -1.118443       -30.4344
   8   2.0000      -1.016177       -27.6516
   9   2.0000      -1.001841       -27.2615
  10   2.0000      -0.864958       -23.5367
  11   2.0000      -0.796928       -21.6855
  12   2.0000      -0.762736       -20.7551
  13   2.0000      -0.730922       -19.8894
  14   2.0000      -0.704793       -19.1784
  15   2.0000      -0.672009       -18.2863
  16   2.0000      -0.645111       -17.5544
  17   2.0000      -0.640832       -17.4379
  18   2.0000      -0.592359       -16.1189
  19   2.0000      -0.583484       -15.8774
  20   2.0000      -0.552442       -15.0327
  21   2.0000      -0.533103       -14.5065
  22   2.0000      -0.510479       -13.8908
  23   2.0000      -0.468924       -12.7601
  24   2.0000      -0.449924       -12.2430
  25   2.0000      -0.441853       -12.0234
  26   2.0000      -0.433568       -11.7980
  27   2.0000      -0.405353       -11.0302
  28   0.0000      -0.199167        -5.4196
  29   0.0000      -0.171478        -4.6662
  30   0.0000      -0.141491        -3.8502
  31   0.0000      -0.130682        -3.5560
  32   0.0000      -0.117076        -3.1858

MULLIKEN ATOMIC CHARGES
-----------------------
   0 C :    0.851505
   1 N :   -0.542301
   2 C :   -0.326601
   3 C :    0.809408
   4 C :    1.566706
   5 N :   -0.078425
   6 N :    0.013941
   7 H :   -0.116491
   8 H :   -0.125848
   9 H :   -0.252234
  10 H :   -0.084906
  11 H :   -0.033374
  12 H :   -0.036708
  13 H :   -0.050289
  14 H :   -0.072278
  15 H :   -0.265822
  16 H :   -0.053334
  17 H :   -0.187725
  18 H :   -0.015225
Sum of atomic charges:    1.0000000

LOEWDIN ATOMIC CHARGES
----------------------
   0 C :    0.077943
   1 N :    0.057929
   2 C :   -0.054933
   3 C :    0.132968
   4 C :   -0.058606
   5 N :    0.270599
   6 N :    0.294217
   7 H :    0.016645
   8 H :    0.040463
   9 H :    0.059710
  10 H :    0.033313
  11 H :    0.030454
  12 H :    0.039278
  13 H :    0.032992
  14 H :    0.026244
  15 H :    0.041450
  16 H :   -0.019642
  17 H :   -0.000255
  18 H :   -0.020768

  Mayer bond orders larger than 0.100000
B(  0-C ,  1-N ) :   0.9424 B(  0-C ,  2-C ) :   1.1218 B(  0-C ,  9-H ) :  -0.2122
B(  0-C , 12-H ) :   0.1221 B(  0-C , 13-H ) :   0.1268 B(  0-C , 14-H ) :   0.7250
B(  0-C , 15-H ) :   0.8794 B(  1-N ,  4-C ) :   0.8446 B(  1-N ,  5-N ) :   0.3253
B(  1-N ,  6-N ) :   0.3429 B(  1-N ,  9-H ) :   1.3527 B(  1-N , 14-H ) :   0.1684
B(  1-N , 15-H ) :   0.1630 B(  2-C ,  3-C ) :   1.3568 B(  2-C , 12-H ) :   0.8914
B(  2-C , 13-H ) :   0.8953 B(  2-C , 14-H ) :   0.1239 B(  2-C , 16-H ) :   0.2371
B(  2-C , 17-H ) :   0.2323 B(  2-C , 18-H ) :   0.2382 B(  3-C , 12-H ) :   0.1087
B(  3-C , 16-H ) :   0.7638 B(  3-C , 17-H ) :   0.7976 B(  3-C , 18-H ) :   0.7586
B(  4-C ,  5-N ) :   0.7420 B(  4-C ,  6-N ) :   0.8777 B(  4-C ,  7-H ) :  -0.1979
B(  4-C ,  8-H ) :  -0.2077 B(  4-C ,  9-H ) :  -0.2724 B(  4-C , 10-H ) :  -0.1839
B(  4-C , 11-H ) :  -0.1087 B(  5-N ,  6-N ) :   0.2282 B(  5-N , 10-H ) :   1.2079
B(  5-N , 11-H ) :   1.1769 B(  6-N ,  7-H ) :   1.1691 B(  6-N ,  8-H ) :   1.3170
B(  6-N , 14-H ) :   0.1074 B(  7-H ,  8-H ) :  -0.2352 B( 10-H , 11-H ) :  -0.1775
B( 14-H , 15-H ) :  -0.1379

Dispersion correction           -0.016028961
FINAL SINGLE POINT ENERGY      -323.102954115593

DIPOLE MOMENT
-------------
                                X             Y             Z
Electronic contribution:      5.29220      -1.44805      -3.75973
Nuclear contribution   :     -4.20917       0.72396       2.93051
                        -----------------------------------------
Total Dipole Moment    :      1.08303      -0.72409      -0.82922
                        -----------------------------------------
Magnitude (a.u.)       :      1.54430
Magnitude (Debye)      :      3.92530

Rotational constants in cm-1:     0.153116     0.051500     0.046494
Rotational constants in MHz :  4590.307026  1543.937577  1393.864628

                             ****ORCA TERMINATED NORMALLY****
TOTAL RUN TIME: 0 days 0 hours 0 minutes 6 seconds 775 msec
