                         Program Version 5.0.0 -  RELEASE  -
|  1> !PBE D3BJ RIJCOSX def2-SVPD def2/J TightSCF xyzfile
|  2>
|  3> *xyzfile 0 1 B.xyz
|  4>
|  5> %MaxCore 64000
|  6>
|  7> %pal nprocs 4
|  8> end
|  9>
| 10> %scf
| 11>   MaxIter 150
| 12> end
| 13>
| 14>
| 15>                          ****END OF INPUT****

CARTESIAN COORDINATES (ANGSTROEM)
---------------------------------
  C      3.380928    2.083045   -3.350127
  N      4.535924    1.182447   -3.428518
  C      2.495557    1.816150   -2.136364
  C      1.872181    0.427903   -2.077497
  H      2.614270   -0.365825   -2.198894
  H      1.389953    0.273087   -1.112360
  S      0.579024    0.140472   -3.297943
  C      4.671956    0.122273   -4.220598
  N      5.866023   -0.507849   -4.224284
  N      3.698881   -0.312844   -4.986988
  H      2.731405   -0.050091   -4.849000
  H      3.890046   -1.055172   -5.643730
  H      5.251933    1.303459   -2.721014
  H      6.695165   -0.062322   -3.851596
  H      5.975383   -1.396884   -4.691414
  O      0.228860   -1.246868   -3.127871
  O     -0.439269    1.118966   -3.014550
  O      1.247881    0.403474   -4.595647
  H      1.697003    2.561969   -2.141109
  H      3.080787    1.987436   -1.225838
  H      2.806463    1.986511   -4.268484
  H      3.778714    3.098282   -3.307383

 Total Charge           Charge          ....    0
 Multiplicity           Mult            ....    1
 Number of Electrons    NEL             ....   96
 Basis Dimension        Dim             ....  324

ORBITAL ENERGIES
----------------

  NO   OCC          E(Eh)            E(eV)
   0   2.0000     -88.201604     -2400.0877
   1   2.0000     -18.700868      -508.8765
   2   2.0000     -18.685016      -508.4451
   3   2.0000     -18.684816      -508.4397
   4   2.0000     -14.093475      -383.5030
   5   2.0000     -14.089816      -383.4034
   6   2.0000     -14.057379      -382.5207
   7   2.0000     -10.079253      -274.2704
   8   2.0000      -9.959510      -271.0120
   9   2.0000      -9.912765      -269.7400
  10   2.0000      -9.897356      -269.3207
  11   2.0000      -7.805172      -212.3895
  12   2.0000      -5.832796      -158.7185
  13   2.0000      -5.831679      -158.6880
  14   2.0000      -5.831279      -158.6772
  15   2.0000      -0.990412       -26.9505
  16   2.0000      -0.982813       -26.7437
  17   2.0000      -0.882288       -24.0083
  18   2.0000      -0.866457       -23.5775
  19   2.0000      -0.848150       -23.0793
  20   2.0000      -0.845727       -23.0134
  21   2.0000      -0.734317       -19.9818
  22   2.0000      -0.669956       -18.2304
  23   2.0000      -0.623706       -16.9719
  24   2.0000      -0.596656       -16.2358
  25   2.0000      -0.582242       -15.8436
  26   2.0000      -0.549389       -14.9496
  27   2.0000      -0.514981       -14.0134
  28   2.0000      -0.500609       -13.6223
  29   2.0000      -0.477383       -12.9903
  30   2.0000      -0.458445       -12.4749
  31   2.0000      -0.439529       -11.9602
  32   2.0000      -0.425340       -11.5741
  33   2.0000      -0.405587       -11.0366
  34   2.0000      -0.390082       -10.6147
  35   2.0000      -0.371473       -10.1083
  36   2.0000      -0.351428        -9.5628
  37   2.0000      -0.338756        -9.2180
  38   2.0000      -0.332487        -9.0474
  39   2.0000      -0.320901        -8.7322
  40   2.0000      -0.299292        -8.1442
  41   2.0000      -0.275411        -7.4943
  42   2.0000      -0.255731        -6.9588
  43   2.0000      -0.247929        -6.7465
  44   2.0000      -0.220885        -6.0106
  45   2.0000      -0.210645        -5.7319
  46   2.0000      -0.207128        -5.6362
  47   2.0000      -0.171820        -4.6755
  48   0.0000      -0.065558        -1.7839
  49   0.0000      -0.061923        -1.6850
  50   0.0000      -0.027190        -0.7399
  51   0.0000      -0.009722        -0.2646
  52   0.0000       0.015503         0.4219

MULLIKEN ATOMIC CHARGES
-----------------------
   0 C :    0.955485
   1 N :   -0.542646
   2 C :    0.169322
   3 C :    0.112503
   4 H :    0.080005
   5 H :   -0.187546
   6 S :    1.307200
   7 C :    1.425418
   8 N :   -0.060354
   9 N :    0.351206
  10 H :   -0.285591
  11 H :   -0.173463
  12 H :   -0.251799
  13 H :   -0.122951
  14 H :   -0.059097
  15 O :   -0.714994
  16 O :   -0.755207
  17 O :   -0.896887
  18 H :    0.025052
  19 H :   -0.055366
  20 H :    0.008146
  21 H :   -0.328435
Sum of atomic charges:    0.0000000

LOEWDIN ATOMIC CHARGES
----------------------
   0 C :    0.083627
   1 N :    0.050748
   2 C :   -0.021964
   3 C :   -0.080306
   4 H :    0.000309
   5 H :    0.018194
   6 S :    0.882415
   7 C :   -0.065062
   8 N :    0.244601
   9 N :    0.320254
  10 H :   -0.136154
  11 H :    0.034198
  12 H :    0.044991
  13 H :    0.013762
  14 H :    0.016005
  15 O :   -0.502039
  16 O :   -0.493272
  17 O :   -0.510290
  18 H :    0.036904
  19 H :    0.021657
  20 H :    0.011018
  21 H :    0.030404

  Mayer bond orders larger than 0.100000
B(  0-C ,  1-N ) :   0.9129 B(  0-C ,  2-C ) :   1.1301 B(  0-C , 12-H ) :  -0.1990
B(  0-C , 18-H ) :   0.1532 B(  0-C , 19-H ) :   0.1441 B(  0-C , 20-H ) :   0.7106
B(  0-C , 21-H ) :   0.7927 B(  1-N ,  7-C ) :   0.8696 B(  1-N ,  8-N ) :   0.3055
B(  1-N ,  9-N ) :   0.2408 B(  1-N , 12-H ) :   1.3457 B(  1-N , 20-H ) :   0.1992
B(  1-N , 21-H ) :   0.1658 B(  2-C ,  3-C ) :   1.2675 B(  2-C ,  4-H ) :   0.1442
B(  2-C ,  5-H ) :   0.1741 B(  2-C , 18-H ) :   0.8074 B(  2-C , 19-H ) :   0.7566
B(  2-C , 20-H ) :   0.1488 B(  3-C ,  4-H ) :   0.9029 B(  3-C ,  5-H ) :   0.8166
B(  3-C ,  6-S ) :   0.8798 B(  3-C , 15-O ) :   0.1069 B(  3-C , 16-O ) :   0.1058
B(  3-C , 17-O ) :   0.1868 B(  3-C , 18-H ) :   0.1727 B(  3-C , 19-H ) :   0.1395
B(  5-H ,  6-S ) :   0.1053 B(  6-S , 15-O ) :   1.3682 B(  6-S , 16-O ) :   1.3595
B(  6-S , 17-O ) :   1.1296 B(  7-C ,  8-N ) :   0.7426 B(  7-C ,  9-N ) :   1.0468
B(  7-C , 10-H ) :  -0.2887 B(  7-C , 11-H ) :  -0.1880 B(  7-C , 12-H ) :  -0.2568
B(  7-C , 13-H ) :  -0.1885 B(  7-C , 14-H ) :  -0.1027 B(  8-N ,  9-N ) :   0.2089
B(  8-N , 13-H ) :   1.2366 B(  8-N , 14-H ) :   1.1882 B(  9-N , 10-H ) :   1.1102
B(  9-N , 11-H ) :   1.2326 B( 10-H , 11-H ) :  -0.2609 B( 10-H , 17-O ) :   0.1979
B( 13-H , 14-H ) :  -0.1785 B( 17-O , 20-H ) :   0.1044 B( 20-H , 21-H ) :  -0.1475

Dispersion correction           -0.025202895
FINAL SINGLE POINT ENERGY      -945.885453102135

DIPOLE MOMENT
-------------
                                X             Y             Z
Electronic contribution:     -7.18820      -3.19490      -2.43984
Nuclear contribution   :     13.40759       3.44219       2.21042
                        -----------------------------------------
Total Dipole Moment    :      6.21939       0.24729      -0.22942
                        -----------------------------------------
Magnitude (a.u.)       :      6.22853
Magnitude (Debye)      :     15.83168

Rotational constants in cm-1:     0.059860     0.020817     0.017914
Rotational constants in MHz :  1794.564877   624.092098   537.039275

                             ****ORCA TERMINATED NORMALLY****
TOTAL RUN TIME: 0 days 0 hours 0 minutes 23 seconds 823 msec
