                         Program Version 5.0.0 -  RELEASE  -
|  1> !PBE D3BJ RIJCOSX def2-SVPD def2/J TightSCF
|  2> *xyz 0 1
|  3> C          3.38093        2.08304       -3.35013
|  4> C          2.49556        1.81615       -2.13636
|  5> C          1.87218        0.42790       -2.07750
|  6> H          2.61427       -0.36583       -2.19889
|  7> H          1.38995        0.27309       -1.11236
|  8> S          0.57902        0.14047       -3.29794
|  9> F          0.22886       -1.24687       -3.12787
| 10> O         -0.43927        1.11897       -3.01455
| 11> O          1.24788        0.40347       -4.59565
| 12> H          1.69700        2.56197       -2.14111
| 13> H          3.08079        1.98744       -1.22584
| 14> H          2.81820        1.91840       -4.24519
| 15> H          4.22171        1.42153       -3.33067
| 16> H          3.72372        3.09635       -3.32565
| 17> *
| 18>
| 19> %MaxCore 64000
| 20>
| 21> %pal nprocs 8
| 22> end
| 23>
| 24> %scf
| 25>   MaxIter 150
| 26> end
| 27>
| 28>
| 29>                          ****END OF INPUT****

CARTESIAN COORDINATES (ANGSTROEM)
---------------------------------
  C      3.380930    2.083040   -3.350130
  C      2.495560    1.816150   -2.136360
  C      1.872180    0.427900   -2.077500
  H      2.614270   -0.365830   -2.198890
  H      1.389950    0.273090   -1.112360
  S      0.579020    0.140470   -3.297940
  F      0.228860   -1.246870   -3.127870
  O     -0.439270    1.118970   -3.014550
  O      1.247880    0.403470   -4.595650
  H      1.697000    2.561970   -2.141110
  H      3.080790    1.987440   -1.225840
  H      2.818200    1.918400   -4.245190
  H      4.221710    1.421530   -3.330670
  H      3.723720    3.096350   -3.325650

 Total Charge           Charge          ....    0
 Multiplicity           Mult            ....    1
 Number of Electrons    NEL             ....   66
 Basis Dimension        Dim             ....  212

ORBITAL ENERGIES
----------------

  NO   OCC          E(Eh)            E(eV)
   0   2.0000     -88.310194     -2403.0425
   1   2.0000     -24.390176      -663.6904
   2   2.0000     -18.779763      -511.0233
   3   2.0000     -18.766063      -510.6505
   4   2.0000      -9.953295      -270.8429
   5   2.0000      -9.922069      -269.9932
   6   2.0000      -9.883154      -268.9343
   7   2.0000      -7.915370      -215.3882
   8   2.0000      -5.946633      -161.8161
   9   2.0000      -5.940195      -161.6409
  10   2.0000      -5.938471      -161.5940
  11   2.0000      -1.273624       -34.6571
  12   2.0000      -1.021622       -27.7997
  13   2.0000      -0.919763       -25.0280
  14   2.0000      -0.751818       -20.4580
  15   2.0000      -0.685396       -18.6506
  16   2.0000      -0.640653       -17.4330
  17   2.0000      -0.569740       -15.5034
  18   2.0000      -0.525596       -14.3022
  19   2.0000      -0.518128       -14.0990
  20   2.0000      -0.499904       -13.6031
  21   2.0000      -0.442460       -12.0400
  22   2.0000      -0.436630       -11.8813
  23   2.0000      -0.404738       -11.0135
  24   2.0000      -0.394670       -10.7395
  25   2.0000      -0.386816       -10.5258
  26   2.0000      -0.343532        -9.3480
  27   2.0000      -0.330290        -8.9877
  28   2.0000      -0.327377        -8.9084
  29   2.0000      -0.315195        -8.5769
  30   2.0000      -0.293399        -7.9838
  31   2.0000      -0.272401        -7.4124
  32   2.0000      -0.261940        -7.1278
  33   0.0000      -0.028207        -0.7676
  34   0.0000      -0.005547        -0.1509
  35   0.0000       0.014995         0.4080
  36   0.0000       0.020296         0.5523
  37   0.0000       0.022408         0.6097

MULLIKEN ATOMIC CHARGES
-----------------------
   0 C :    0.880051
   1 C :   -0.273380
   2 C :    0.010382
   3 H :    0.020124
   4 H :    0.032260
   5 S :    1.433683
   6 F :   -0.384874
   7 O :   -0.608171
   8 O :   -0.692808
   9 H :   -0.001004
  10 H :   -0.122480
  11 H :   -0.250738
  12 H :   -0.010174
  13 H :   -0.032872
Sum of atomic charges:   -0.0000000

LOEWDIN ATOMIC CHARGES
----------------------
   0 C :    0.137290
   1 C :   -0.067376
   2 C :   -0.068042
   3 H :    0.024668
   4 H :    0.018727
   5 S :    1.079717
   6 F :   -0.239177
   7 O :   -0.434783
   8 O :   -0.451735
   9 H :    0.031543
  10 H :    0.034443
  11 H :   -0.044917
  12 H :   -0.009839
  13 H :   -0.010518

  Mayer bond orders larger than 0.100000
B(  0-C ,  1-C ) :   1.3220 B(  0-C ,  9-H ) :   0.1066 B(  0-C , 11-H ) :   0.8126
B(  0-C , 12-H ) :   0.7140 B(  0-C , 13-H ) :   0.6955 B(  1-C ,  2-C ) :   1.2877
B(  1-C ,  3-H ) :   0.1296 B(  1-C ,  4-H ) :   0.1408 B(  1-C ,  9-H ) :   0.8682
B(  1-C , 10-H ) :   0.8847 B(  1-C , 11-H ) :   0.2670 B(  1-C , 12-H ) :   0.2215
B(  1-C , 13-H ) :   0.2179 B(  2-C ,  3-H ) :   0.9230 B(  2-C ,  4-H ) :   0.8636
B(  2-C ,  5-S ) :   0.9437 B(  2-C ,  9-H ) :   0.1359 B(  2-C , 10-H ) :   0.1115
B(  5-S ,  6-F ) :   0.7163 B(  5-S ,  7-O ) :   1.5197 B(  5-S ,  8-O ) :   1.4644
B(  7-O ,  8-O ) :   0.1005 B(  8-O , 11-H ) :   0.1026 B( 11-H , 12-H ) :   0.1160
B( 11-H , 13-H ) :   0.1092

Dispersion correction           -0.012914693
FINAL SINGLE POINT ENERGY      -765.990580871601

DIPOLE MOMENT
-------------
                                X             Y             Z
Electronic contribution:    -10.71461      -8.86218      -2.88983
Nuclear contribution   :     11.47400       8.34657       4.07449
                        -----------------------------------------
Total Dipole Moment    :      0.75938      -0.51560       1.18467
                        -----------------------------------------
Magnitude (a.u.)       :      1.49865
Magnitude (Debye)      :      3.80926

Rotational constants in cm-1:     0.134491     0.052696     0.050832
Rotational constants in MHz :  4031.952949  1579.780527  1523.918863

                             ****ORCA TERMINATED NORMALLY****
TOTAL RUN TIME: 0 days 0 hours 0 minutes 5 seconds 828 msec
