                         Program Version 5.0.0 -  RELEASE  -
|  1> !PBE D3BJ RIJCOSX def2-SVPD def2/J TightSCF
|  2> *xyz 0 1
|  3> C          3.38093        2.08304       -3.35013
|  4> C          4.53592        1.18245       -3.42852
|  5> C          2.49556        1.81615       -2.13636
|  6> C          1.87218        0.42790       -2.07750
|  7> C          4.67196        0.12227       -4.22060
|  8> N          5.86602       -0.50785       -4.22428
|  9> N          3.69888       -0.31284       -4.98699
| 10> H          2.73141       -0.05009       -4.84900
| 11> H          3.89005       -1.05517       -5.64373
| 12> H          5.25193        1.30346       -2.72101
| 13> H          6.69516       -0.06232       -3.85160
| 14> H          5.97538       -1.39688       -4.69141
| 15> H          1.69700        2.56197       -2.14111
| 16> H          3.08079        1.98744       -1.22584
| 17> H          2.80646        1.98651       -4.26848
| 18> H          3.77871        3.09828       -3.30738
| 19> H          1.29954        0.25615       -2.96490
| 20> H          1.23321        0.35984       -1.22194
| 21> H          2.64581       -0.30765       -2.00430
| 22> *
| 23>
| 24> %MaxCore 64000
| 25>
| 26> %pal nprocs 8
| 27> end
| 28>
| 29> %scf
| 30>   MaxIter 150
| 31> end
| 32>
| 33>
| 34>                          ****END OF INPUT****

CARTESIAN COORDINATES (ANGSTROEM)
---------------------------------
  C      3.380930    2.083040   -3.350130
  C      4.535920    1.182450   -3.428520
  C      2.495560    1.816150   -2.136360
  C      1.872180    0.427900   -2.077500
  C      4.671960    0.122270   -4.220600
  N      5.866020   -0.507850   -4.224280
  N      3.698880   -0.312840   -4.986990
  H      2.731410   -0.050090   -4.849000
  H      3.890050   -1.055170   -5.643730
  H      5.251930    1.303460   -2.721010
  H      6.695160   -0.062320   -3.851600
  H      5.975380   -1.396880   -4.691410
  H      1.697000    2.561970   -2.141110
  H      3.080790    1.987440   -1.225840
  H      2.806460    1.986510   -4.268480
  H      3.778710    3.098280   -3.307380
  H      1.299540    0.256150   -2.964900
  H      1.233210    0.359840   -1.221940
  H      2.645810   -0.307650   -2.004300

 Total Charge           Charge          ....    0
 Multiplicity           Mult            ....    1
 Number of Electrons    NEL             ....   56
 Basis Dimension        Dim             ....  236

ORBITAL ENERGIES
----------------

  NO   OCC          E(Eh)            E(eV)
   0   2.0000     -14.004303      -381.0765
   1   2.0000     -13.997913      -380.9026
   2   2.0000      -9.933145      -270.2946
   3   2.0000      -9.873100      -268.6607
   4   2.0000      -9.869279      -268.5567
   5   2.0000      -9.866863      -268.4910
   6   2.0000      -9.820472      -267.2286
   7   2.0000      -0.871990       -23.7281
   8   2.0000      -0.785711       -21.3803
   9   2.0000      -0.705546       -19.1989
  10   2.0000      -0.646097       -17.5812
  11   2.0000      -0.591211       -16.0877
  12   2.0000      -0.539894       -14.6913
  13   2.0000      -0.505181       -13.7467
  14   2.0000      -0.491218       -13.3667
  15   2.0000      -0.454176       -12.3588
  16   2.0000      -0.433673       -11.8008
  17   2.0000      -0.395907       -10.7732
  18   2.0000      -0.385333       -10.4854
  19   2.0000      -0.368181       -10.0187
  20   2.0000      -0.338546        -9.2123
  21   2.0000      -0.330935        -9.0052
  22   2.0000      -0.307406        -8.3649
  23   2.0000      -0.291631        -7.9357
  24   2.0000      -0.275178        -7.4880
  25   2.0000      -0.268929        -7.3179
  26   2.0000      -0.222635        -6.0582
  27   2.0000      -0.129479        -3.5233
  28   0.0000      -0.006835        -0.1860
  29   0.0000       0.015348         0.4176
  30   0.0000       0.029451         0.8014
  31   0.0000       0.040881         1.1124
  32   0.0000       0.043986         1.1969

MULLIKEN ATOMIC CHARGES
-----------------------
   0 C :    0.273465
   1 C :   -0.307475
   2 C :   -0.359605
   3 C :    0.790990
   4 C :    1.059168
   5 N :   -0.042808
   6 N :    0.105375
   7 H :   -0.139916
   8 H :   -0.277571
   9 H :   -0.264886
  10 H :   -0.103305
  11 H :   -0.146422
  12 H :   -0.074285
  13 H :   -0.055147
  14 H :   -0.108617
  15 H :   -0.097442
  16 H :   -0.071923
  17 H :   -0.166074
  18 H :   -0.013523
Sum of atomic charges:    0.0000000

LOEWDIN ATOMIC CHARGES
----------------------
   0 C :   -0.060671
   1 C :   -0.028495
   2 C :   -0.085645
   3 C :    0.115563
   4 C :   -0.234469
   5 N :    0.191747
   6 N :    0.213592
   7 H :   -0.013108
   8 H :   -0.009450
   9 H :   -0.045644
  10 H :   -0.000408
  11 H :   -0.021014
  12 H :    0.012326
  13 H :    0.021908
  14 H :    0.004330
  15 H :    0.013425
  16 H :   -0.029042
  17 H :   -0.022761
  18 H :   -0.022185

  Mayer bond orders larger than 0.100000
B(  0-C ,  1-C ) :   1.1541 B(  0-C ,  2-C ) :   1.1548 B(  0-C ,  9-H ) :   0.2602
B(  0-C , 12-H ) :   0.1538 B(  0-C , 13-H ) :   0.1598 B(  0-C , 14-H ) :   0.7802
B(  0-C , 15-H ) :   0.8407 B(  1-C ,  2-C ) :   0.1126 B(  1-C ,  4-C ) :   1.5223
B(  1-C ,  5-N ) :   0.4762 B(  1-C ,  6-N ) :   0.3052 B(  1-C ,  9-H ) :   0.8618
B(  1-C , 14-H ) :   0.2509 B(  1-C , 15-H ) :   0.1462 B(  2-C ,  3-C ) :   1.3570
B(  2-C , 12-H ) :   0.8876 B(  2-C , 13-H ) :   0.8874 B(  2-C , 14-H ) :   0.1369
B(  2-C , 16-H ) :   0.2425 B(  2-C , 17-H ) :   0.2410 B(  2-C , 18-H ) :   0.2602
B(  3-C , 12-H ) :   0.1231 B(  3-C , 13-H ) :   0.1052 B(  3-C , 16-H ) :   0.7753
B(  3-C , 17-H ) :   0.7568 B(  3-C , 18-H ) :   0.7542 B(  4-C ,  5-N ) :   0.6767
B(  4-C ,  6-N ) :   0.9603 B(  4-C ,  8-H ) :  -0.2413 B(  4-C ,  9-H ) :   0.1261
B(  4-C , 10-H ) :  -0.1634 B(  4-C , 14-H ) :  -0.1246 B(  5-N ,  6-N ) :   0.1396
B(  5-N , 10-H ) :   1.2309 B(  5-N , 11-H ) :   1.1862 B(  6-N ,  7-H ) :   1.1308
B(  6-N ,  8-H ) :   1.4010 B(  7-H ,  8-H ) :  -0.2284 B( 10-H , 11-H ) :  -0.1671
B( 16-H , 18-H ) :   0.1055

Dispersion correction           -0.016553411
FINAL SINGLE POINT ENERGY      -306.636124598091

DIPOLE MOMENT
-------------
                                X             Y             Z
Electronic contribution:      4.25336      -1.64386      -3.47606
Nuclear contribution   :     -4.04774       0.83876       2.94666
                        -----------------------------------------
Total Dipole Moment    :      0.20562      -0.80509      -0.52940
                        -----------------------------------------
Magnitude (a.u.)       :      0.98525
Magnitude (Debye)      :      2.50431

Rotational constants in cm-1:     0.155283     0.051523     0.046710
Rotational constants in MHz :  4655.262593  1544.606434  1400.328421

                             ****ORCA TERMINATED NORMALLY****
TOTAL RUN TIME: 0 days 0 hours 0 minutes 6 seconds 473 msec
