                         Program Version 5.0.0 -  RELEASE  -
|  1> !PBE D3BJ RIJCOSX def2-SVPD def2/J TightSCF
|  2> *xyz 0 1
|  3> C          3.38093        2.08304       -3.35013
|  4> C          2.49556        1.81615       -2.13636
|  5> C          1.87218        0.42790       -2.07750
|  6> H          2.61427       -0.36583       -2.19889
|  7> H          1.38995        0.27309       -1.11236
|  8> S          0.57902        0.14047       -3.29794
|  9> O          0.22886       -1.24687       -3.12787
| 10> F         -0.43927        1.11897       -3.01455
| 11> O          1.24788        0.40347       -4.59565
| 12> H          1.69700        2.56197       -2.14111
| 13> H          3.08079        1.98744       -1.22584
| 14> H          2.81820        1.91840       -4.24519
| 15> H          4.22171        1.42153       -3.33067
| 16> H          3.72372        3.09635       -3.32565
| 17> *
| 18>
| 19> %MaxCore 64000
| 20>
| 21> %pal nprocs 8
| 22> end
| 23>
| 24> %scf
| 25>   MaxIter 150
| 26> end
| 27>
| 28>
| 29>                          ****END OF INPUT****

CARTESIAN COORDINATES (ANGSTROEM)
---------------------------------
  C      3.380930    2.083040   -3.350130
  C      2.495560    1.816150   -2.136360
  C      1.872180    0.427900   -2.077500
  H      2.614270   -0.365830   -2.198890
  H      1.389950    0.273090   -1.112360
  S      0.579020    0.140470   -3.297940
  O      0.228860   -1.246870   -3.127870
  F     -0.439270    1.118970   -3.014550
  O      1.247880    0.403470   -4.595650
  H      1.697000    2.561970   -2.141110
  H      3.080790    1.987440   -1.225840
  H      2.818200    1.918400   -4.245190
  H      4.221710    1.421530   -3.330670
  H      3.723720    3.096350   -3.325650

 Total Charge           Charge          ....    0
 Multiplicity           Mult            ....    1
 Number of Electrons    NEL             ....   66
 Basis Dimension        Dim             ....  212

ORBITAL ENERGIES
----------------

  NO   OCC          E(Eh)            E(eV)
   0   2.0000     -88.310708     -2403.0565
   1   2.0000     -24.390788      -663.7071
   2   2.0000     -18.779947      -511.0283
   3   2.0000     -18.766770      -510.6698
   4   2.0000      -9.953259      -270.8420
   5   2.0000      -9.924736      -270.0658
   6   2.0000      -9.885786      -269.0059
   7   2.0000      -7.915792      -215.3996
   8   2.0000      -5.947151      -161.8302
   9   2.0000      -5.940570      -161.6511
  10   2.0000      -5.938870      -161.6049
  11   2.0000      -1.274579       -34.6830
  12   2.0000      -1.021041       -27.7839
  13   2.0000      -0.920982       -25.0612
  14   2.0000      -0.754937       -20.5429
  15   2.0000      -0.682666       -18.5763
  16   2.0000      -0.643848       -17.5200
  17   2.0000      -0.569760       -15.5040
  18   2.0000      -0.534140       -14.5347
  19   2.0000      -0.523972       -14.2580
  20   2.0000      -0.491772       -13.3818
  21   2.0000      -0.439927       -11.9710
  22   2.0000      -0.437740       -11.9115
  23   2.0000      -0.409527       -11.1438
  24   2.0000      -0.398158       -10.8344
  25   2.0000      -0.386740       -10.5237
  26   2.0000      -0.344464        -9.3733
  27   2.0000      -0.333857        -9.0847
  28   2.0000      -0.331221        -9.0130
  29   2.0000      -0.317888        -8.6502
  30   2.0000      -0.291719        -7.9381
  31   2.0000      -0.274820        -7.4782
  32   2.0000      -0.261823        -7.1246
  33   0.0000      -0.032506        -0.8845
  34   0.0000      -0.000809        -0.0220
  35   0.0000       0.010742         0.2923
  36   0.0000       0.017986         0.4894
  37   0.0000       0.020184         0.5492

MULLIKEN ATOMIC CHARGES
-----------------------
   0 C :    0.884598
   1 C :   -0.229867
   2 C :    0.032714
   3 H :    0.008531
   4 H :    0.017073
   5 S :    1.393020
   6 O :   -0.612130
   7 F :   -0.359693
   8 O :   -0.679833
   9 H :   -0.030550
  10 H :   -0.128472
  11 H :   -0.254653
  12 H :   -0.008101
  13 H :   -0.032637
Sum of atomic charges:    0.0000000

LOEWDIN ATOMIC CHARGES
----------------------
   0 C :    0.134905
   1 C :   -0.082943
   2 C :   -0.057120
   3 H :    0.039051
   4 H :    0.019119
   5 S :    1.077543
   6 O :   -0.434793
   7 F :   -0.236469
   8 O :   -0.446742
   9 H :    0.024165
  10 H :    0.030975
  11 H :   -0.048443
  12 H :   -0.007808
  13 H :   -0.011440

  Mayer bond orders larger than 0.100000
B(  0-C ,  1-C ) :   1.3314 B(  0-C ,  9-H ) :   0.1084 B(  0-C , 11-H ) :   0.8071
B(  0-C , 12-H ) :   0.7161 B(  0-C , 13-H ) :   0.7004 B(  1-C ,  2-C ) :   1.2397
B(  1-C ,  3-H ) :   0.1244 B(  1-C ,  4-H ) :   0.1287 B(  1-C ,  9-H ) :   0.8624
B(  1-C , 10-H ) :   0.8841 B(  1-C , 11-H ) :   0.2742 B(  1-C , 12-H ) :   0.2230
B(  1-C , 13-H ) :   0.2159 B(  2-C ,  3-H ) :   0.9359 B(  2-C ,  4-H ) :   0.8892
B(  2-C ,  5-S ) :   0.9729 B(  2-C ,  9-H ) :   0.1286 B(  2-C , 10-H ) :   0.1053
B(  5-S ,  6-O ) :   1.5859 B(  5-S ,  7-F ) :   0.6929 B(  5-S ,  8-O ) :   1.4989
B(  8-O , 11-H ) :   0.1005 B( 11-H , 12-H ) :   0.1148 B( 11-H , 13-H ) :   0.1093

Dispersion correction           -0.012853310
FINAL SINGLE POINT ENERGY      -765.990147652335

DIPOLE MOMENT
-------------
                                X             Y             Z
Electronic contribution:    -11.82504      -4.87938      -2.70041
Nuclear contribution   :     12.19253       5.80225       3.95262
                        -----------------------------------------
Total Dipole Moment    :      0.36749       0.92287       1.25222
                        -----------------------------------------
Magnitude (a.u.)       :      1.59837
Magnitude (Debye)      :      4.06274

Rotational constants in cm-1:     0.130581     0.053444     0.051914
Rotational constants in MHz :  3914.711139  1602.211061  1556.338643

                             ****ORCA TERMINATED NORMALLY****
TOTAL RUN TIME: 0 days 0 hours 0 minutes 5 seconds 817 msec
