                         Program Version 5.0.0 -  RELEASE  -
|  1> !PBE D3BJ RIJCOSX def2-SVPD def2/J TightSCF
|  2> *xyz 0 1
|  3> C          3.38093        2.08304       -3.35013
|  4> N          4.53592        1.18245       -3.42852
|  5> C          2.49556        1.81615       -2.13636
|  6> C          1.87218        0.42790       -2.07750
|  7> C          4.67196        0.12227       -4.22060
|  8> C          5.86602       -0.50785       -4.22428
|  9> N          3.69888       -0.31284       -4.98699
| 10> H          2.73141       -0.05009       -4.84900
| 11> H          3.89005       -1.05517       -5.64373
| 12> H          5.25193        1.30346       -2.72101
| 13> H          6.69516       -0.06232       -3.85160
| 14> H          5.97538       -1.39688       -4.69141
| 15> H          1.69700        2.56197       -2.14111
| 16> H          3.08079        1.98744       -1.22584
| 17> H          2.80646        1.98651       -4.26848
| 18> H          3.77871        3.09828       -3.30738
| 19> H          1.29954        0.25615       -2.96490
| 20> H          1.23321        0.35984       -1.22194
| 21> H          2.64581       -0.30765       -2.00430
| 22> *
| 23>
| 24> %MaxCore 64000
| 25>
| 26> %pal nprocs 8
| 27> end
| 28>
| 29> %scf
| 30>   MaxIter 150
| 31> end
| 32>
| 33>
| 34>                          ****END OF INPUT****

CARTESIAN COORDINATES (ANGSTROEM)
---------------------------------
  C      3.380930    2.083040   -3.350130
  N      4.535920    1.182450   -3.428520
  C      2.495560    1.816150   -2.136360
  C      1.872180    0.427900   -2.077500
  C      4.671960    0.122270   -4.220600
  C      5.866020   -0.507850   -4.224280
  N      3.698880   -0.312840   -4.986990
  H      2.731410   -0.050090   -4.849000
  H      3.890050   -1.055170   -5.643730
  H      5.251930    1.303460   -2.721010
  H      6.695160   -0.062320   -3.851600
  H      5.975380   -1.396880   -4.691410
  H      1.697000    2.561970   -2.141110
  H      3.080790    1.987440   -1.225840
  H      2.806460    1.986510   -4.268480
  H      3.778710    3.098280   -3.307380
  H      1.299540    0.256150   -2.964900
  H      1.233210    0.359840   -1.221940
  H      2.645810   -0.307650   -2.004300

 Total Charge           Charge          ....    0
 Multiplicity           Mult            ....    1
 Number of Electrons    NEL             ....   56
 Basis Dimension        Dim             ....  236

ORBITAL ENERGIES
----------------

  NO   OCC          E(Eh)            E(eV)
   0   2.0000     -14.002442      -381.0258
   1   2.0000     -14.001879      -381.0105
   2   2.0000      -9.935556      -270.3602
   3   2.0000      -9.932629      -270.2806
   4   2.0000      -9.899612      -269.3821
   5   2.0000      -9.885992      -269.0115
   6   2.0000      -9.805954      -266.8336
   7   2.0000      -0.878353       -23.9012
   8   2.0000      -0.803003       -21.8508
   9   2.0000      -0.713883       -19.4257
  10   2.0000      -0.648137       -17.6367
  11   2.0000      -0.599373       -16.3098
  12   2.0000      -0.545607       -14.8467
  13   2.0000      -0.533687       -14.5224
  14   2.0000      -0.491748       -13.3811
  15   2.0000      -0.448567       -12.2061
  16   2.0000      -0.428335       -11.6556
  17   2.0000      -0.413675       -11.2567
  18   2.0000      -0.402462       -10.9515
  19   2.0000      -0.360887        -9.8202
  20   2.0000      -0.349370        -9.5068
  21   2.0000      -0.343917        -9.3585
  22   2.0000      -0.326774        -8.8920
  23   2.0000      -0.310141        -8.4394
  24   2.0000      -0.304919        -8.2973
  25   2.0000      -0.301733        -8.2106
  26   2.0000      -0.213031        -5.7969
  27   2.0000      -0.127235        -3.4623
  28   0.0000      -0.008085        -0.2200
  29   0.0000       0.013850         0.3769
  30   0.0000       0.022992         0.6257
  31   0.0000       0.029951         0.8150
  32   0.0000       0.043572         1.1857

MULLIKEN ATOMIC CHARGES
-----------------------
   0 C :    0.820843
   1 N :   -0.410286
   2 C :   -0.349285
   3 C :    0.776594
   4 C :    0.732714
   5 C :    0.453313
   6 N :    0.179426
   7 H :   -0.237127
   8 H :   -0.144418
   9 H :   -0.290533
  10 H :   -0.407994
  11 H :   -0.331889
  12 H :   -0.045048
  13 H :   -0.063733
  14 H :   -0.101587
  15 H :   -0.322243
  16 H :   -0.050356
  17 H :   -0.220589
  18 H :    0.012200
Sum of atomic charges:   -0.0000000

LOEWDIN ATOMIC CHARGES
----------------------
   0 C :    0.046346
   1 N :    0.004586
   2 C :   -0.077796
   3 C :    0.120750
   4 C :   -0.255033
   5 C :    0.145731
   6 N :    0.210536
   7 H :   -0.026911
   8 H :    0.009435
   9 H :    0.035349
  10 H :   -0.107523
  11 H :   -0.110353
  12 H :    0.018354
  13 H :    0.021271
  14 H :    0.011797
  15 H :    0.015835
  16 H :   -0.026487
  17 H :   -0.018869
  18 H :   -0.017017

  Mayer bond orders larger than 0.100000
B(  0-C ,  1-N ) :   0.9731 B(  0-C ,  2-C ) :   1.1075 B(  0-C ,  9-H ) :  -0.2255
B(  0-C , 12-H ) :   0.1382 B(  0-C , 13-H ) :   0.1396 B(  0-C , 14-H ) :   0.7345
B(  0-C , 15-H ) :   0.8833 B(  1-N ,  4-C ) :   0.9544 B(  1-N ,  5-C ) :   0.2465
B(  1-N ,  6-N ) :   0.2587 B(  1-N ,  9-H ) :   1.2855 B(  1-N , 14-H ) :   0.1984
B(  1-N , 15-H ) :   0.1669 B(  2-C ,  3-C ) :   1.3480 B(  2-C , 12-H ) :   0.8860
B(  2-C , 13-H ) :   0.8912 B(  2-C , 14-H ) :   0.1297 B(  2-C , 16-H ) :   0.2408
B(  2-C , 17-H ) :   0.2369 B(  2-C , 18-H ) :   0.2396 B(  3-C , 12-H ) :   0.1078
B(  3-C , 16-H ) :   0.7734 B(  3-C , 17-H ) :   0.7849 B(  3-C , 18-H ) :   0.7655
B(  4-C ,  5-C ) :   1.3014 B(  4-C ,  6-N ) :   1.0211 B(  4-C ,  7-H ) :  -0.1136
B(  4-C ,  8-H ) :  -0.1208 B(  4-C ,  9-H ) :  -0.2343 B(  4-C , 11-H ) :   0.2184
B(  5-C ,  6-N ) :   0.2227 B(  5-C , 10-H ) :   0.8638 B(  5-C , 11-H ) :   0.7321
B(  6-N ,  7-H ) :   1.1621 B(  6-N ,  8-H ) :   1.2675 B(  6-N , 14-H ) :   0.1199
B(  7-H ,  8-H ) :  -0.2210 B( 14-H , 15-H ) :  -0.1411

Dispersion correction           -0.016393371
FINAL SINGLE POINT ENERGY      -306.624139811950

DIPOLE MOMENT
-------------
                                X             Y             Z
Electronic contribution:      2.73221      -0.00388      -2.61456
Nuclear contribution   :     -3.75638       0.46849       2.77235
                        -----------------------------------------
Total Dipole Moment    :     -1.02417       0.46462       0.15779
                        -----------------------------------------
Magnitude (a.u.)       :      1.13565
Magnitude (Debye)      :      2.88658

Rotational constants in cm-1:     0.154609     0.053528     0.048030
Rotational constants in MHz :  4635.053294  1604.739826  1439.897073

                             ****ORCA TERMINATED NORMALLY****
TOTAL RUN TIME: 0 days 0 hours 0 minutes 6 seconds 996 msec
