                         Program Version 5.0.0 -  RELEASE  -
|  1> !PBE D3BJ RIJCOSX def2-SVPD def2/J TightSCF
|  2> *xyz 0 1
|  3> C          3.38093        2.08304       -3.35013
|  4> C          2.49556        1.81615       -2.13636
|  5> C          1.87218        0.42790       -2.07750
|  6> H          2.61427       -0.36583       -2.19889
|  7> H          1.38995        0.27309       -1.11236
|  8> S          0.57902        0.14047       -3.29794
|  9> O          0.22886       -1.24687       -3.12787
| 10> O         -0.43927        1.11897       -3.01455
| 11> F          1.24788        0.40347       -4.59565
| 12> H          1.69700        2.56197       -2.14111
| 13> H          3.08079        1.98744       -1.22584
| 14> H          2.81820        1.91840       -4.24519
| 15> H          4.22171        1.42153       -3.33067
| 16> H          3.72372        3.09635       -3.32565
| 17> *
| 18>
| 19> %MaxCore 64000
| 20>
| 21> %pal nprocs 8
| 22> end
| 23>
| 24> %scf
| 25>   MaxIter 150
| 26> end
| 27>
| 28>
| 29>                          ****END OF INPUT****

CARTESIAN COORDINATES (ANGSTROEM)
---------------------------------
  C      3.380930    2.083040   -3.350130
  C      2.495560    1.816150   -2.136360
  C      1.872180    0.427900   -2.077500
  H      2.614270   -0.365830   -2.198890
  H      1.389950    0.273090   -1.112360
  S      0.579020    0.140470   -3.297940
  O      0.228860   -1.246870   -3.127870
  O     -0.439270    1.118970   -3.014550
  F      1.247880    0.403470   -4.595650
  H      1.697000    2.561970   -2.141110
  H      3.080790    1.987440   -1.225840
  H      2.818200    1.918400   -4.245190
  H      4.221710    1.421530   -3.330670
  H      3.723720    3.096350   -3.325650

 Total Charge           Charge          ....    0
 Multiplicity           Mult            ....    1
 Number of Electrons    NEL             ....   66
 Basis Dimension        Dim             ....  212

ORBITAL ENERGIES
----------------

  NO   OCC          E(Eh)            E(eV)
   0   2.0000     -88.307181     -2402.9606
   1   2.0000     -24.368955      -663.1130
   2   2.0000     -18.779537      -511.0172
   3   2.0000     -18.778953      -511.0013
   4   2.0000      -9.951915      -270.8054
   5   2.0000      -9.924818      -270.0680
   6   2.0000      -9.899925      -269.3907
   7   2.0000      -7.912416      -215.3078
   8   2.0000      -5.943496      -161.7307
   9   2.0000      -5.937406      -161.5650
  10   2.0000      -5.935707      -161.5188
  11   2.0000      -1.239157       -33.7192
  12   2.0000      -1.029971       -28.0269
  13   2.0000      -0.940064       -25.5804
  14   2.0000      -0.756369       -20.5818
  15   2.0000      -0.680245       -18.5104
  16   2.0000      -0.633453       -17.2371
  17   2.0000      -0.574234       -15.6257
  18   2.0000      -0.516366       -14.0510
  19   2.0000      -0.500761       -13.6264
  20   2.0000      -0.491126       -13.3642
  21   2.0000      -0.442063       -12.0292
  22   2.0000      -0.429745       -11.6939
  23   2.0000      -0.416085       -11.3222
  24   2.0000      -0.406623       -11.0648
  25   2.0000      -0.390389       -10.6230
  26   2.0000      -0.354456        -9.6452
  27   2.0000      -0.342520        -9.3205
  28   2.0000      -0.328231        -8.9316
  29   2.0000      -0.321529        -8.7493
  30   2.0000      -0.298106        -8.1119
  31   2.0000      -0.288494        -7.8503
  32   2.0000      -0.277128        -7.5410
  33   0.0000      -0.028045        -0.7631
  34   0.0000       0.001265         0.0344
  35   0.0000       0.014185         0.3860
  36   0.0000       0.018209         0.4955
  37   0.0000       0.022818         0.6209

MULLIKEN ATOMIC CHARGES
-----------------------
   0 C :    0.866850
   1 C :   -0.226576
   2 C :    0.024264
   3 H :    0.020520
   4 H :    0.020357
   5 S :    1.378796
   6 O :   -0.621879
   7 O :   -0.621473
   8 F :   -0.400963
   9 H :   -0.003562
  10 H :   -0.118873
  11 H :   -0.278630
  12 H :   -0.003473
  13 H :   -0.035358
Sum of atomic charges:   -0.0000000

LOEWDIN ATOMIC CHARGES
----------------------
   0 C :    0.133559
   1 C :   -0.081174
   2 C :   -0.056337
   3 H :    0.026954
   4 H :    0.033200
   5 S :    1.067102
   6 O :   -0.435507
   7 O :   -0.432999
   8 F :   -0.257538
   9 H :    0.028354
  10 H :    0.032621
  11 H :   -0.041141
  12 H :   -0.008811
  13 H :   -0.008282

  Mayer bond orders larger than 0.100000
B(  0-C ,  1-C ) :   1.3198 B(  0-C ,  9-H ) :   0.1052 B(  0-C , 11-H ) :   0.8052
B(  0-C , 12-H ) :   0.7260 B(  0-C , 13-H ) :   0.7093 B(  1-C ,  2-C ) :   1.2521
B(  1-C ,  3-H ) :   0.1323 B(  1-C ,  4-H ) :   0.1295 B(  1-C ,  9-H ) :   0.8779
B(  1-C , 10-H ) :   0.8741 B(  1-C , 11-H ) :   0.2597 B(  1-C , 12-H ) :   0.2184
B(  1-C , 13-H ) :   0.2152 B(  2-C ,  3-H ) :   0.9357 B(  2-C ,  4-H ) :   0.8804
B(  2-C ,  5-S ) :   0.9844 B(  2-C ,  9-H ) :   0.1385 B(  2-C , 10-H ) :   0.1159
B(  5-S ,  6-O ) :   1.5720 B(  5-S ,  7-O ) :   1.5353 B(  5-S ,  8-F ) :   0.6620
B(  6-O ,  7-O ) :   0.1094 B( 11-H , 12-H ) :   0.1065 B( 11-H , 13-H ) :   0.1080

Dispersion correction           -0.012795017
FINAL SINGLE POINT ENERGY      -766.008514472065

DIPOLE MOMENT
-------------
                                X             Y             Z
Electronic contribution:     -8.93760      -6.03960      -5.33259
Nuclear contribution   :     10.37810       6.57173       5.65300
                        -----------------------------------------
Total Dipole Moment    :      1.44050       0.53213       0.32041
                        -----------------------------------------
Magnitude (a.u.)       :      1.56872
Magnitude (Debye)      :      3.98736

Rotational constants in cm-1:     0.130522     0.054787     0.051463
Rotational constants in MHz :  3912.959799  1642.486768  1542.828917

                             ****ORCA TERMINATED NORMALLY****
TOTAL RUN TIME: 0 days 0 hours 0 minutes 5 seconds 467 msec
