                         Program Version 5.0.0 -  RELEASE  -
|  1> !PBE D3BJ RIJCOSX def2-SVPD def2/J TightSCF
|  2> *xyz 0 1
|  3> C          3.38093        2.08304       -3.35013
|  4> N          4.53592        1.18245       -3.42852
|  5> C          2.49556        1.81615       -2.13636
|  6> C          1.87218        0.42790       -2.07750
|  7> C          4.67196        0.12227       -4.22060
|  8> N          5.86602       -0.50785       -4.22428
|  9> C          3.69888       -0.31284       -4.98699
| 10> H          2.73141       -0.05009       -4.84900
| 11> H          3.89005       -1.05517       -5.64373
| 12> H          5.25193        1.30346       -2.72101
| 13> H          6.69516       -0.06232       -3.85160
| 14> H          5.97538       -1.39688       -4.69141
| 15> H          1.69700        2.56197       -2.14111
| 16> H          3.08079        1.98744       -1.22584
| 17> H          2.80646        1.98651       -4.26848
| 18> H          3.77871        3.09828       -3.30738
| 19> H          1.29954        0.25615       -2.96490
| 20> H          1.23321        0.35984       -1.22194
| 21> H          2.64581       -0.30765       -2.00430
| 22> *
| 23>
| 24> %MaxCore 64000
| 25>
| 26> %pal nprocs 8
| 27> end
| 28>
| 29> %scf
| 30>   MaxIter 150
| 31> end
| 32>
| 33>
| 34>                          ****END OF INPUT****

CARTESIAN COORDINATES (ANGSTROEM)
---------------------------------
  C      3.380930    2.083040   -3.350130
  N      4.535920    1.182450   -3.428520
  C      2.495560    1.816150   -2.136360
  C      1.872180    0.427900   -2.077500
  C      4.671960    0.122270   -4.220600
  N      5.866020   -0.507850   -4.224280
  C      3.698880   -0.312840   -4.986990
  H      2.731410   -0.050090   -4.849000
  H      3.890050   -1.055170   -5.643730
  H      5.251930    1.303460   -2.721010
  H      6.695160   -0.062320   -3.851600
  H      5.975380   -1.396880   -4.691410
  H      1.697000    2.561970   -2.141110
  H      3.080790    1.987440   -1.225840
  H      2.806460    1.986510   -4.268480
  H      3.778710    3.098280   -3.307380
  H      1.299540    0.256150   -2.964900
  H      1.233210    0.359840   -1.221940
  H      2.645810   -0.307650   -2.004300

 Total Charge           Charge          ....    0
 Multiplicity           Mult            ....    1
 Number of Electrons    NEL             ....   56
 Basis Dimension        Dim             ....  236

ORBITAL ENERGIES
----------------

  NO   OCC          E(Eh)            E(eV)
   0   2.0000     -14.003010      -381.0413
   1   2.0000     -13.997901      -380.9023
   2   2.0000      -9.933993      -270.3177
   3   2.0000      -9.924878      -270.0697
   4   2.0000      -9.892375      -269.1852
   5   2.0000      -9.873489      -268.6713
   6   2.0000      -9.810177      -266.9485
   7   2.0000      -0.873173       -23.7603
   8   2.0000      -0.795347       -21.6425
   9   2.0000      -0.700948       -19.0738
  10   2.0000      -0.643146       -17.5009
  11   2.0000      -0.615768       -16.7559
  12   2.0000      -0.540195       -14.6994
  13   2.0000      -0.506332       -13.7780
  14   2.0000      -0.488707       -13.2984
  15   2.0000      -0.462109       -12.5746
  16   2.0000      -0.418846       -11.3974
  17   2.0000      -0.408013       -11.1026
  18   2.0000      -0.384211       -10.4549
  19   2.0000      -0.364408        -9.9160
  20   2.0000      -0.343064        -9.3353
  21   2.0000      -0.341003        -9.2792
  22   2.0000      -0.325787        -8.8651
  23   2.0000      -0.303412        -8.2563
  24   2.0000      -0.300619        -8.1803
  25   2.0000      -0.289365        -7.8740
  26   2.0000      -0.206518        -5.6196
  27   2.0000      -0.139291        -3.7903
  28   0.0000      -0.004626        -0.1259
  29   0.0000       0.015868         0.4318
  30   0.0000       0.026118         0.7107
  31   0.0000       0.036227         0.9858
  32   0.0000       0.047214         1.2848

MULLIKEN ATOMIC CHARGES
-----------------------
   0 C :    0.846408
   1 N :   -0.517964
   2 C :   -0.399187
   3 C :    0.787876
   4 C :    0.993091
   5 N :    0.062349
   6 C :    0.261407
   7 H :   -0.317762
   8 H :   -0.471164
   9 H :   -0.354512
  10 H :   -0.191512
  11 H :   -0.039684
  12 H :   -0.063112
  13 H :   -0.066888
  14 H :    0.004466
  15 H :   -0.289736
  16 H :   -0.010513
  17 H :   -0.218012
  18 H :   -0.015551
Sum of atomic charges:   -0.0000000

LOEWDIN ATOMIC CHARGES
----------------------
   0 C :    0.054828
   1 N :   -0.004479
   2 C :   -0.075528
   3 C :    0.123233
   4 C :   -0.250862
   5 N :    0.194045
   6 C :    0.157602
   7 H :   -0.110132
   8 H :   -0.096685
   9 H :    0.019941
  10 H :   -0.017817
  11 H :   -0.001877
  12 H :    0.018286
  13 H :    0.017323
  14 H :    0.018157
  15 H :    0.016548
  16 H :   -0.021111
  17 H :   -0.021789
  18 H :   -0.019683

  Mayer bond orders larger than 0.100000
B(  0-C ,  1-N ) :   0.9110 B(  0-C ,  2-C ) :   1.0977 B(  0-C ,  9-H ) :  -0.2041
B(  0-C , 12-H ) :   0.1344 B(  0-C , 13-H ) :   0.1166 B(  0-C , 14-H ) :   0.7233
B(  0-C , 15-H ) :   0.8753 B(  1-N ,  2-C ) :   0.1142 B(  1-N ,  4-C ) :   0.8076
B(  1-N ,  5-N ) :   0.2248 B(  1-N ,  6-C ) :   0.4325 B(  1-N ,  9-H ) :   1.4203
B(  1-N , 14-H ) :   0.1512 B(  1-N , 15-H ) :   0.1639 B(  2-C ,  3-C ) :   1.3440
B(  2-C , 12-H ) :   0.9026 B(  2-C , 13-H ) :   0.9127 B(  2-C , 14-H ) :   0.1350
B(  2-C , 16-H ) :   0.2370 B(  2-C , 17-H ) :   0.2373 B(  2-C , 18-H ) :   0.2353
B(  3-C , 12-H ) :   0.1093 B(  3-C , 16-H ) :   0.7685 B(  3-C , 17-H ) :   0.7814
B(  3-C , 18-H ) :   0.7808 B(  4-C ,  5-N ) :   0.9024 B(  4-C ,  6-C ) :   1.3392
B(  4-C ,  8-H ) :   0.2916 B(  4-C ,  9-H ) :  -0.3083 B(  4-C , 10-H ) :  -0.1041
B(  5-N ,  6-C ) :   0.3444 B(  5-N ,  8-H ) :   0.1038 B(  5-N , 10-H ) :   1.2086
B(  5-N , 11-H ) :   1.1322 B(  6-C ,  7-H ) :   0.7020 B(  6-C ,  8-H ) :   0.8003
B(  7-H ,  8-H ) :  -0.1402 B( 10-H , 11-H ) :  -0.1762 B( 14-H , 15-H ) :  -0.1402

Dispersion correction           -0.016497183
FINAL SINGLE POINT ENERGY      -306.627585204502

DIPOLE MOMENT
-------------
                                X             Y             Z
Electronic contribution:      4.87814      -0.23631      -1.97947
Nuclear contribution   :     -4.23110       0.51121       2.60527
                        -----------------------------------------
Total Dipole Moment    :      0.64704       0.27490       0.62580
                        -----------------------------------------
Magnitude (a.u.)       :      0.94120
Magnitude (Debye)      :      2.39234

Rotational constants in cm-1:     0.158478     0.052124     0.047173
Rotational constants in MHz :  4751.056263  1562.646208  1414.197352

                             ****ORCA TERMINATED NORMALLY****
TOTAL RUN TIME: 0 days 0 hours 0 minutes 7 seconds 175 msec
