                         Program Version 5.0.0 -  RELEASE  -
|  1> !PBE D3BJ RIJCOSX def2-SVPD def2/J TightSCF xyzfile
|  2>
|  3> *xyzfile 0 1 D9.xyz
|  4>
|  5> %MaxCore 64000
|  6>
|  7> %pal nprocs 4
|  8> end
|  9>
| 10> %scf
| 11>   MaxIter 150
| 12> end
| 13>
| 14>
| 15>                          ****END OF INPUT****

CARTESIAN COORDINATES (ANGSTROEM)
---------------------------------
  C      3.380928    2.083045   -3.350127
  N      4.535924    1.182447   -3.428518
  C      2.495557    1.816150   -2.136364
  C      1.872181    0.427903   -2.077497
  H      2.614270   -0.365825   -2.198894
  H      1.389953    0.273087   -1.112360
  S      0.579024    0.140472   -3.297943
  C      4.671956    0.122273   -4.220598
  N      5.866023   -0.507849   -4.224284
  C      3.698881   -0.312844   -4.986988
  H      2.731405   -0.050091   -4.849000
  H      3.890046   -1.055172   -5.643730
  H      5.251933    1.303459   -2.721014
  H      6.695165   -0.062322   -3.851596
  H      5.975383   -1.396884   -4.691414
  O      0.228860   -1.246868   -3.127871
  O     -0.439269    1.118966   -3.014550
  F      1.247881    0.403474   -4.595647
  H      1.697003    2.561969   -2.141109
  H      3.080787    1.987436   -1.225838
  H      2.806463    1.986511   -4.268484
  H      3.778714    3.098282   -3.307383

 Total Charge           Charge          ....    0
 Multiplicity           Mult            ....    1
 Number of Electrons    NEL             ....   96
 Basis Dimension        Dim             ....  324

ORBITAL ENERGIES
----------------

  NO   OCC          E(Eh)            E(eV)
   0   2.0000     -88.305235     -2402.9076
   1   2.0000     -24.367319      -663.0685
   2   2.0000     -18.777046      -510.9494
   3   2.0000     -18.775433      -510.9055
   4   2.0000     -14.019147      -381.4804
   5   2.0000     -14.007581      -381.1657
   6   2.0000      -9.948649      -270.7165
   7   2.0000      -9.947283      -270.6793
   8   2.0000      -9.945478      -270.6302
   9   2.0000      -9.927201      -270.1329
  10   2.0000      -9.813938      -267.0508
  11   2.0000      -7.909854      -215.2381
  12   2.0000      -5.941062      -161.6645
  13   2.0000      -5.934820      -161.4947
  14   2.0000      -5.933152      -161.4493
  15   2.0000      -1.241195       -33.7746
  16   2.0000      -1.027515       -27.9601
  17   2.0000      -0.936724       -25.4896
  18   2.0000      -0.887371       -24.1466
  19   2.0000      -0.809899       -22.0385
  20   2.0000      -0.749101       -20.3841
  21   2.0000      -0.679580       -18.4923
  22   2.0000      -0.659922       -17.9574
  23   2.0000      -0.628821       -17.1111
  24   2.0000      -0.590574       -16.0703
  25   2.0000      -0.531466       -14.4619
  26   2.0000      -0.521349       -14.1866
  27   2.0000      -0.508299       -13.8315
  28   2.0000      -0.500218       -13.6116
  29   2.0000      -0.487245       -13.2586
  30   2.0000      -0.467129       -12.7112
  31   2.0000      -0.446840       -12.1591
  32   2.0000      -0.431395       -11.7389
  33   2.0000      -0.420008       -11.4290
  34   2.0000      -0.418847       -11.3974
  35   2.0000      -0.399086       -10.8597
  36   2.0000      -0.372598       -10.1389
  37   2.0000      -0.364364        -9.9148
  38   2.0000      -0.352176        -9.5832
  39   2.0000      -0.344416        -9.3720
  40   2.0000      -0.338069        -9.1993
  41   2.0000      -0.329190        -8.9577
  42   2.0000      -0.312079        -8.4921
  43   2.0000      -0.294290        -8.0080
  44   2.0000      -0.285751        -7.7757
  45   2.0000      -0.273723        -7.4484
  46   2.0000      -0.220886        -6.0106
  47   2.0000      -0.151233        -4.1153
  48   0.0000      -0.023043        -0.6270
  49   0.0000      -0.013639        -0.3711
  50   0.0000       0.004288         0.1167
  51   0.0000       0.014457         0.3934
  52   0.0000       0.021524         0.5857

MULLIKEN ATOMIC CHARGES
-----------------------
   0 C :    0.968819
   1 N :   -0.542753
   2 C :    0.146635
   3 C :    0.212637
   4 H :    0.089037
   5 H :   -0.166336
   6 S :    1.353114
   7 C :    1.037428
   8 N :    0.048208
   9 C :    0.705173
  10 H :   -0.673393
  11 H :   -0.400431
  12 H :   -0.331480
  13 H :   -0.174293
  14 H :   -0.036871
  15 O :   -0.629225
  16 O :   -0.672987
  17 F :   -0.557685
  18 H :    0.006468
  19 H :   -0.035622
  20 H :    0.001541
  21 H :   -0.347986
Sum of atomic charges:   -0.0000000

LOEWDIN ATOMIC CHARGES
----------------------
   0 C :    0.074104
   1 N :   -0.001194
   2 C :   -0.024846
   3 C :   -0.040160
   4 H :    0.020467
   5 H :    0.031328
   6 S :    1.076904
   7 C :   -0.238005
   8 N :    0.196829
   9 C :    0.187130
  10 H :   -0.174092
  11 H :   -0.081541
  12 H :    0.021637
  13 H :   -0.016343
  14 H :    0.001011
  15 O :   -0.426108
  16 O :   -0.429931
  17 F :   -0.275001
  18 H :    0.029212
  19 H :    0.031301
  20 H :    0.010881
  21 H :    0.026417

  Mayer bond orders larger than 0.100000
B(  0-C ,  1-N ) :   0.8892 B(  0-C ,  2-C ) :   1.1014 B(  0-C , 12-H ) :  -0.1936
B(  0-C , 18-H ) :   0.1469 B(  0-C , 19-H ) :   0.1340 B(  0-C , 20-H ) :   0.6981
B(  0-C , 21-H ) :   0.8350 B(  1-N ,  7-C ) :   0.8096 B(  1-N ,  8-N ) :   0.2366
B(  1-N ,  9-C ) :   0.3443 B(  1-N , 12-H ) :   1.4328 B(  1-N , 20-H ) :   0.1808
B(  1-N , 21-H ) :   0.1642 B(  2-C ,  3-C ) :   1.2709 B(  2-C ,  4-H ) :   0.1548
B(  2-C ,  5-H ) :   0.1848 B(  2-C , 18-H ) :   0.8265 B(  2-C , 19-H ) :   0.7740
B(  2-C , 20-H ) :   0.1394 B(  3-C ,  4-H ) :   0.9283 B(  3-C ,  5-H ) :   0.7225
B(  3-C ,  6-S ) :   0.9884 B(  3-C , 17-F ) :   0.1234 B(  3-C , 18-H ) :   0.1566
B(  3-C , 19-H ) :   0.1346 B(  5-H ,  6-S ) :   0.1051 B(  6-S , 15-O ) :   1.5371
B(  6-S , 16-O ) :   1.5116 B(  6-S , 17-F ) :   0.6755 B(  7-C ,  8-N ) :   0.8552
B(  7-C ,  9-C ) :   1.6173 B(  7-C , 10-H ) :  -0.1317 B(  7-C , 11-H ) :   0.3879
B(  7-C , 12-H ) :  -0.3255 B(  7-C , 20-H ) :  -0.1044 B(  8-N ,  9-C ) :   0.3856
B(  8-N , 11-H ) :   0.1065 B(  8-N , 13-H ) :   1.1924 B(  8-N , 14-H ) :   1.1384
B(  9-C , 11-H ) :   0.7634 B( 10-H , 11-H ) :  -0.1466 B( 10-H , 17-F ) :   0.2014
B( 10-H , 20-H ) :   0.1163 B( 13-H , 14-H ) :  -0.1740 B( 15-O , 16-O ) :   0.1079
B( 20-H , 21-H ) :  -0.1871

Dispersion correction           -0.025040027
FINAL SINGLE POINT ENERGY      -953.737939536582

DIPOLE MOMENT
-------------
                                X             Y             Z
Electronic contribution:    -12.66016      -2.66273      -2.43853
Nuclear contribution   :     14.72648       3.38697       3.27638
                        -----------------------------------------
Total Dipole Moment    :      2.06633       0.72424       0.83784
                        -----------------------------------------
Magnitude (a.u.)       :      2.34440
Magnitude (Debye)      :      5.95899

Rotational constants in cm-1:     0.059651     0.020833     0.018010
Rotational constants in MHz :  1788.283887   624.555661   539.921162

                             ****ORCA TERMINATED NORMALLY****
TOTAL RUN TIME: 0 days 0 hours 0 minutes 23 seconds 740 msec
