                         Program Version 5.0.0 -  RELEASE  -
|  1> !M062X D3Zero RIJCOSX def2-TZVP def2/J TightSCF
|  2> *xyz -1 1
|  3> C          1.44442        5.26658       -0.97546
|  4> O          1.56525        4.23349       -1.86489
|  5> C          0.14812        5.21087       -0.13809
|  6> H          1.47425        6.26464       -1.47692
|  7> H          2.28962        5.30327       -0.26445
|  8> H         -0.69779        5.17417       -0.79230
|  9> H          0.08430        6.08276        0.47887
| 10> H          0.15965        4.33708        0.47938
| 11> *
| 12> %MaxCore 64000
| 13>
| 14> %pal nprocs 4
| 15> end
| 16>
| 17> %scf
| 18>   MaxIter 150
| 19> end
| 20>
| 21>
| 22>                          ****END OF INPUT****

CARTESIAN COORDINATES (ANGSTROEM)
---------------------------------
  C      1.444420    5.266580   -0.975460
  O      1.565250    4.233490   -1.864890
  C      0.148120    5.210870   -0.138090
  H      1.474250    6.264640   -1.476920
  H      2.289620    5.303270   -0.264450
  H     -0.697790    5.174170   -0.792300
  H      0.084300    6.082760    0.478870
  H      0.159650    4.337080    0.479380

 Total Charge           Charge          ....   -1
 Multiplicity           Mult            ....    1
 Number of Electrons    NEL             ....   26
 Basis Dimension        Dim             ....  123

ORBITAL ENERGIES
----------------

  NO   OCC          E(Eh)            E(eV)
   0   2.0000     -19.267082      -524.2839
   1   2.0000     -10.337881      -281.3080
   2   2.0000     -10.317210      -280.7455
   3   2.0000      -0.778464       -21.1831
   4   2.0000      -0.613123       -16.6839
   5   2.0000      -0.447638       -12.1809
   6   2.0000      -0.310598        -8.4518
   7   2.0000      -0.288302        -7.8451
   8   2.0000      -0.227881        -6.2010
   9   2.0000      -0.212300        -5.7770
  10   2.0000      -0.166066        -4.5189
  11   2.0000      -0.022521        -0.6128
  12   2.0000      -0.019981        -0.5437
  13   0.0000       0.251649         6.8477
  14   0.0000       0.288488         7.8502
  15   0.0000       0.312734         8.5099
  16   0.0000       0.317877         8.6499
  17   0.0000       0.348058         9.4711

MULLIKEN ATOMIC CHARGES
-----------------------
   0 C :   -0.000135
   1 O :   -0.808728
   2 C :   -0.279046
   3 H :   -0.029970
   4 H :   -0.025702
   5 H :    0.064182
   6 H :    0.015793
   7 H :    0.063606
Sum of atomic charges:   -1.0000000

LOEWDIN ATOMIC CHARGES
----------------------
   0 C :   -0.556124
   1 O :   -0.448823
   2 C :   -0.367439
   3 H :    0.056499
   4 H :    0.058241
   5 H :    0.090173
   6 H :    0.077917
   7 H :    0.089555

  Mayer bond orders larger than 0.100000
B(  0-C ,  1-O ) :   1.5266 B(  0-C ,  2-C ) :   0.8778 B(  0-C ,  3-H ) :   0.9442
B(  0-C ,  4-H ) :   0.9424 B(  1-O ,  2-C ) :  -0.1749 B(  2-C ,  5-H ) :   0.9729
B(  2-C ,  6-H ) :   0.9483 B(  2-C ,  7-H ) :   0.9758

Dispersion correction           -0.000015293
FINAL SINGLE POINT ENERGY      -154.402033668327

DIPOLE MOMENT
-------------
                                X             Y             Z
Electronic contribution:      1.17697      -1.69043      -2.10049
Nuclear contribution   :     -1.83256       2.47114       3.17273
                        -----------------------------------------
Total Dipole Moment    :     -0.65559       0.78071       1.07225
                        -----------------------------------------
Magnitude (a.u.)       :      1.47954
Magnitude (Debye)      :      3.76068

Rotational constants in cm-1:     1.286062     0.322579     0.284728
Rotational constants in MHz : 38555.180127  9670.683110  8535.939140

                             ****ORCA TERMINATED NORMALLY****
TOTAL RUN TIME: 0 days 0 hours 0 minutes 10 seconds 953 msec
