                         Program Version 5.0.0 -  RELEASE  -
|  1> !M062X D3Zero RIJCOSX def2-TZVP def2/J TightSCF
|  2> *xyz 1 1
|  3> C         -0.70169        4.07250       -4.00392
|  4> N          0.68053        4.61482       -4.04800
|  5> H          0.69993        5.58489       -4.38827
|  6> H          1.27804        4.05598       -4.66824
|  7> H          1.08573        4.53358       -3.10652
|  8> C         -1.70347        5.09320       -3.47740
|  9> H         -0.99590        3.74039       -5.00065
| 10> H         -0.64358        3.20191       -3.35153
| 11> H         -1.73704        5.93384       -4.13853
| 12> H         -1.40338        5.41759       -2.50291
| 13> H         -2.67335        4.64479       -3.42108
| 14> *
| 15> %MaxCore 64000
| 16>
| 17> %pal nprocs 4
| 18> end
| 19>
| 20> %scf
| 21>   MaxIter 150
| 22> end
| 23>
| 24>
| 25>                          ****END OF INPUT****

CARTESIAN COORDINATES (ANGSTROEM)
---------------------------------
  C     -0.701690    4.072500   -4.003920
  N      0.680530    4.614820   -4.048000
  H      0.699930    5.584890   -4.388270
  H      1.278040    4.055980   -4.668240
  H      1.085730    4.533580   -3.106520
  C     -1.703470    5.093200   -3.477400
  H     -0.995900    3.740390   -5.000650
  H     -0.643580    3.201910   -3.351530
  H     -1.737040    5.933840   -4.138530
  H     -1.403380    5.417590   -2.502910
  H     -2.673350    4.644790   -3.421080

 Total Charge           Charge          ....    1
 Multiplicity           Mult            ....    1
 Number of Electrons    NEL             ....   26
 Basis Dimension        Dim             ....  141

ORBITAL ENERGIES
----------------

  NO   OCC          E(Eh)            E(eV)
   0   2.0000     -15.082187      -410.4072
   1   2.0000     -10.790323      -293.6196
   2   2.0000     -10.709289      -291.4146
   3   2.0000      -1.326852       -36.1055
   4   2.0000      -1.061884       -28.8953
   5   2.0000      -0.931151       -25.3379
   6   2.0000      -0.880382       -23.9564
   7   2.0000      -0.861795       -23.4506
   8   2.0000      -0.766262       -20.8510
   9   2.0000      -0.711936       -19.3728
  10   2.0000      -0.647304       -17.6140
  11   2.0000      -0.630502       -17.1568
  12   2.0000      -0.614638       -16.7251
  13   0.0000      -0.164502        -4.4763
  14   0.0000      -0.105069        -2.8591
  15   0.0000      -0.098708        -2.6860
  16   0.0000      -0.079206        -2.1553
  17   0.0000      -0.041594        -1.1318

MULLIKEN ATOMIC CHARGES
-----------------------
   0 C :   -0.231356
   1 N :   -0.328823
   2 H :    0.337867
   3 H :    0.343478
   4 H :    0.344179
   5 C :   -0.408353
   6 H :    0.207071
   7 H :    0.204472
   8 H :    0.171745
   9 H :    0.165085
  10 H :    0.194635
Sum of atomic charges:    1.0000000

LOEWDIN ATOMIC CHARGES
----------------------
   0 C :   -0.280599
   1 N :    0.166047
   2 H :    0.223728
   3 H :    0.224558
   4 H :    0.227773
   5 C :   -0.276746
   6 H :    0.153672
   7 H :    0.152283
   8 H :    0.131111
   9 H :    0.130425
  10 H :    0.147748

  Mayer bond orders larger than 0.100000
B(  0-C ,  1-N ) :   0.8310 B(  0-C ,  5-C ) :   0.9680 B(  0-C ,  6-H ) :   0.9559
B(  0-C ,  7-H ) :   0.9580 B(  1-N ,  2-H ) :   0.8680 B(  1-N ,  3-H ) :   0.8735
B(  1-N ,  4-H ) :   0.8722 B(  5-C ,  8-H ) :   0.9565 B(  5-C ,  9-H ) :   0.9552
B(  5-C , 10-H ) :   0.9584

Dispersion correction           -0.000054032
FINAL SINGLE POINT ENERGY      -135.507148813390

DIPOLE MOMENT
-------------
                                X             Y             Z
Electronic contribution:      1.76421      -0.33295      -0.45723
Nuclear contribution   :     -0.23930       0.27560       0.19485
                        -----------------------------------------
Total Dipole Moment    :      1.52490      -0.05734      -0.26238
                        -----------------------------------------
Magnitude (a.u.)       :      1.54837
Magnitude (Debye)      :      3.93566

Rotational constants in cm-1:     1.018556     0.279088     0.248454
Rotational constants in MHz : 30535.536069  8366.847891  7448.451392

                             ****ORCA TERMINATED NORMALLY****
TOTAL RUN TIME: 0 days 0 hours 0 minutes 12 seconds 401 msec
