                         Program Version 5.0.0 -  RELEASE  -
|  1> !M062X D3Zero RIJCOSX def2-TZVP def2/J TightSCF xyzfile
|  2>
|  3> *xyzfile 0 1 B.xyz
|  4>
|  5> %MaxCore 64000
|  6>
|  7> %pal nprocs 18
|  8> end
|  9>
| 10> %scf
| 11>   MaxIter 150
| 12> end
| 13>
| 14>
| 15>                          ****END OF INPUT****

CARTESIAN COORDINATES (ANGSTROEM)
---------------------------------
  C     -0.701686    4.072499   -4.003920
  N      0.680528    4.614820   -4.048005
  C      1.444422    5.266576   -0.975463
  O      1.565248    4.233493   -1.864885
  H      0.699926    5.584890   -4.388272
  H      1.278044    4.055977   -4.668235
  H      1.085729    4.533581   -3.106524
  C     -1.703475    5.093197   -3.477396
  H     -0.995895    3.740394   -5.000654
  H     -0.643580    3.201910   -3.351533
  C     -1.313997    5.785995   -2.169271
  H     -1.877057    5.850103   -4.251154
  H     -2.653264    4.564475   -3.354796
  H     -2.097137    6.509395   -1.929558
  H     -0.416875    6.387594   -2.339097
  C     -1.073895    4.844728   -0.979904
  H     -1.968893    4.809608   -0.352568
  C      0.148120    5.210874   -0.138092
  H     -0.909754    3.827531   -1.338975
  H      1.474250    6.264638   -1.476917
  H      2.289622    5.303267   -0.264450
  H      0.261827    4.450942    0.640711
  H     -0.002516    6.171031    0.371483

 Total Charge           Charge          ....    0
 Multiplicity           Mult            ....    1
 Number of Electrons    NEL             ....   66
 Basis Dimension        Dim             ....  338

ORBITAL ENERGIES
----------------

  NO   OCC          E(Eh)            E(eV)
   0   2.0000     -19.489288      -530.3305
   1   2.0000     -14.824784      -403.4029
   2   2.0000     -10.601894      -288.4922
   3   2.0000     -10.555407      -287.2272
   4   2.0000     -10.530202      -286.5414
   5   2.0000     -10.517359      -286.1919
   6   2.0000     -10.508083      -285.9395
   7   2.0000     -10.489069      -285.4221
   8   2.0000      -1.097869       -29.8745
   9   2.0000      -1.006423       -27.3862
  10   2.0000      -0.909058       -24.7367
  11   2.0000      -0.842665       -22.9301
  12   2.0000      -0.785811       -21.3830
  13   2.0000      -0.722813       -19.6688
  14   2.0000      -0.671854       -18.2821
  15   2.0000      -0.646149       -17.5826
  16   2.0000      -0.643563       -17.5122
  17   2.0000      -0.599250       -16.3064
  18   2.0000      -0.559176       -15.2159
  19   2.0000      -0.534132       -14.5345
  20   2.0000      -0.525103       -14.2888
  21   2.0000      -0.485400       -13.2084
  22   2.0000      -0.473320       -12.8797
  23   2.0000      -0.458716       -12.4823
  24   2.0000      -0.439168       -11.9504
  25   2.0000      -0.418123       -11.3777
  26   2.0000      -0.413231       -11.2446
  27   2.0000      -0.393535       -10.7086
  28   2.0000      -0.369259       -10.0481
  29   2.0000      -0.359701        -9.7880
  30   2.0000      -0.353381        -9.6160
  31   2.0000      -0.245481        -6.6799
  32   2.0000      -0.242025        -6.5858
  33   0.0000       0.022482         0.6118
  34   0.0000       0.063851         1.7375
  35   0.0000       0.071298         1.9401
  36   0.0000       0.092367         2.5134
  37   0.0000       0.099664         2.7120

MULLIKEN ATOMIC CHARGES
-----------------------
   0 C :   -0.247095
   1 N :   -0.379470
   2 C :   -0.100011
   3 O :   -0.722158
   4 H :    0.277555
   5 H :    0.286511
   6 H :    0.350345
   7 C :   -0.311050
   8 H :    0.159018
   9 H :    0.207392
  10 C :   -0.329198
  11 H :    0.157929
  12 H :    0.160327
  13 H :    0.145690
  14 H :    0.143334
  15 C :   -0.209759
  16 H :    0.128220
  17 C :   -0.228605
  18 H :    0.127029
  19 H :    0.068460
  20 H :    0.088866
  21 H :    0.118342
  22 H :    0.108328
Sum of atomic charges:   -0.0000000

LOEWDIN ATOMIC CHARGES
----------------------
   0 C :   -0.283592
   1 N :    0.134188
   2 C :   -0.484300
   3 O :   -0.283558
   4 H :    0.190627
   5 H :    0.194260
   6 H :    0.090294
   7 C :   -0.281329
   8 H :    0.130632
   9 H :    0.146256
  10 C :   -0.269258
  11 H :    0.137851
  12 H :    0.149434
  13 H :    0.138708
  14 H :    0.135872
  15 C :   -0.277133
  16 H :    0.131096
  17 C :   -0.289679
  18 H :    0.138748
  19 H :    0.084081
  20 H :    0.106940
  21 H :    0.132535
  22 H :    0.127327

  Mayer bond orders larger than 0.100000
B(  0-C ,  1-N ) :   0.8287 B(  0-C ,  7-C ) :   0.9326 B(  0-C ,  8-H ) :   0.9790
B(  0-C ,  9-H ) :   0.9760 B(  1-N ,  4-H ) :   0.8982 B(  1-N ,  5-H ) :   0.9073
B(  1-N ,  6-H ) :   0.5832 B(  2-C ,  3-O ) :   1.1596 B(  2-C , 17-C ) :   0.8818
B(  2-C , 19-H ) :   0.9969 B(  2-C , 20-H ) :   0.9830 B(  3-O ,  6-H ) :   0.4079
B(  7-C , 10-C ) :   0.9030 B(  7-C , 11-H ) :   0.9883 B(  7-C , 12-H ) :   0.9751
B( 10-C , 13-H ) :   0.9805 B( 10-C , 14-H ) :   0.9850 B( 10-C , 15-C ) :   0.8758
B( 15-C , 16-H ) :   0.9765 B( 15-C , 17-C ) :   0.9353 B( 15-C , 18-H ) :   0.9745
B( 17-C , 21-H ) :   0.9688 B( 17-C , 22-H ) :   0.9725

Dispersion correction           -0.000753177
FINAL SINGLE POINT ENERGY      -367.556640714213

DIPOLE MOMENT
-------------
                                X             Y             Z
Electronic contribution:      2.01080      -1.55473      -1.30486
Nuclear contribution   :     -3.16446       1.92310      -1.11926
                        -----------------------------------------
Total Dipole Moment    :     -1.15367       0.36838      -2.42412
                        -----------------------------------------
Magnitude (a.u.)       :      2.70980
Magnitude (Debye)      :      6.88776

Rotational constants in cm-1:     0.085554     0.055600     0.038553
Rotational constants in MHz :  2564.854379  1666.836664  1155.798427

                             ****ORCA TERMINATED NORMALLY****
TOTAL RUN TIME: 0 days 0 hours 0 minutes 35 seconds 322 msec
