                         Program Version 5.0.0 -  RELEASE  -
|  1> !M062X D3Zero RIJCOSX def2-TZVP def2/J TightSCF
|  2> *xyz 0 1
|  3> C          1.44442        5.26658       -0.97546
|  4> F          1.56525        4.23349       -1.86489
|  5> C          0.14812        5.21087       -0.13809
|  6> H          1.47425        6.26464       -1.47692
|  7> H          2.28962        5.30327       -0.26445
|  8> H         -0.69779        5.17417       -0.79230
|  9> H          0.08430        6.08276        0.47887
| 10> H          0.15965        4.33708        0.47938
| 11> *
| 12> %MaxCore 64000
| 13>
| 14> %pal nprocs 4
| 15> end
| 16>
| 17> %scf
| 18>   MaxIter 150
| 19> end
| 20>
| 21>
| 22>                          ****END OF INPUT****

CARTESIAN COORDINATES (ANGSTROEM)
---------------------------------
  C      1.444420    5.266580   -0.975460
  F      1.565250    4.233490   -1.864890
  C      0.148120    5.210870   -0.138090
  H      1.474250    6.264640   -1.476920
  H      2.289620    5.303270   -0.264450
  H     -0.697790    5.174170   -0.792300
  H      0.084300    6.082760    0.478870
  H      0.159650    4.337080    0.479380

 Total Charge           Charge          ....    0
 Multiplicity           Mult            ....    1
 Number of Electrons    NEL             ....   26
 Basis Dimension        Dim             ....  123

ORBITAL ENERGIES
----------------

  NO   OCC          E(Eh)            E(eV)
   0   2.0000     -25.231045      -686.5716
   1   2.0000     -10.614742      -288.8418
   2   2.0000     -10.529417      -286.5200
   3   2.0000      -1.341994       -36.5175
   4   2.0000      -0.861745       -23.4493
   5   2.0000      -0.723212       -19.6796
   6   2.0000      -0.589541       -16.0422
   7   2.0000      -0.580476       -15.7955
   8   2.0000      -0.545392       -14.8409
   9   2.0000      -0.482568       -13.1313
  10   2.0000      -0.468699       -12.7539
  11   2.0000      -0.404998       -11.0206
  12   2.0000      -0.398599       -10.8464
  13   0.0000       0.073926         2.0116
  14   0.0000       0.112682         3.0662
  15   0.0000       0.133080         3.6213
  16   0.0000       0.137272         3.7354
  17   0.0000       0.147973         4.0265

MULLIKEN ATOMIC CHARGES
-----------------------
   0 C :    0.000456
   1 F :   -0.236522
   2 C :   -0.391279
   3 H :    0.111117
   4 H :    0.110602
   5 H :    0.139108
   6 H :    0.128728
   7 H :    0.137789
Sum of atomic charges:   -0.0000000

LOEWDIN ATOMIC CHARGES
----------------------
   0 C :   -0.367944
   1 F :    0.088441
   2 C :   -0.310057
   3 H :    0.118279
   4 H :    0.116336
   5 H :    0.117400
   6 H :    0.121101
   7 H :    0.116445

  Mayer bond orders larger than 0.100000
B(  0-C ,  1-F ) :   0.9710 B(  0-C ,  2-C ) :   0.9696 B(  0-C ,  3-H ) :   0.9769
B(  0-C ,  4-H ) :   0.9760 B(  2-C ,  5-H ) :   0.9690 B(  2-C ,  6-H ) :   0.9597
B(  2-C ,  7-H ) :   0.9700

Dispersion correction           -0.000019424
FINAL SINGLE POINT ENERGY      -179.050675879188

DIPOLE MOMENT
-------------
                                X             Y             Z
Electronic contribution:      2.30197      -2.74099      -3.69927
Nuclear contribution   :     -2.43357       3.25919       4.19687
                        -----------------------------------------
Total Dipole Moment    :     -0.13160       0.51820       0.49760
                        -----------------------------------------
Magnitude (a.u.)       :      0.73038
Magnitude (Debye)      :      1.85648

Rotational constants in cm-1:     1.264662     0.300144     0.266170
Rotational constants in MHz : 37913.611527  8998.095216  7979.576054

                             ****ORCA TERMINATED NORMALLY****
TOTAL RUN TIME: 0 days 0 hours 0 minutes 9 seconds 362 msec
