                         Program Version 5.0.0 -  RELEASE  -
|  1> !M062X D3Zero RIJCOSX def2-TZVP def2/J TightSCF
|  2> *xyz 0 1
|  3> C         -0.70169        4.07250       -4.00392
|  4> C          0.68053        4.61482       -4.04800
|  5> H          0.69993        5.58489       -4.38827
|  6> H          1.27804        4.05598       -4.66824
|  7> H          1.08573        4.53358       -3.10652
|  8> C         -1.70347        5.09320       -3.47740
|  9> H         -0.99590        3.74039       -5.00065
| 10> H         -0.64358        3.20191       -3.35153
| 11> H         -1.73704        5.93384       -4.13853
| 12> H         -1.40338        5.41759       -2.50291
| 13> H         -2.67335        4.64479       -3.42108
| 14> *
| 15> %MaxCore 64000
| 16>
| 17> %pal nprocs 4
| 18> end
| 19>
| 20> %scf
| 21>   MaxIter 150
| 22> end
| 23>
| 24>
| 25>                          ****END OF INPUT****

CARTESIAN COORDINATES (ANGSTROEM)
---------------------------------
  C     -0.701690    4.072500   -4.003920
  C      0.680530    4.614820   -4.048000
  H      0.699930    5.584890   -4.388270
  H      1.278040    4.055980   -4.668240
  H      1.085730    4.533580   -3.106520
  C     -1.703470    5.093200   -3.477400
  H     -0.995900    3.740390   -5.000650
  H     -0.643580    3.201910   -3.351530
  H     -1.737040    5.933840   -4.138530
  H     -1.403380    5.417590   -2.502910
  H     -2.673350    4.644790   -3.421080

 Total Charge           Charge          ....    0
 Multiplicity           Mult            ....    1
 Number of Electrons    NEL             ....   26
 Basis Dimension        Dim             ....  141

ORBITAL ENERGIES
----------------

  NO   OCC          E(Eh)            E(eV)
   0   2.0000     -10.518868      -286.2330
   1   2.0000     -10.510628      -286.0087
   2   2.0000     -10.492322      -285.5106
   3   2.0000      -0.890956       -24.2441
   4   2.0000      -0.782864       -21.3028
   5   2.0000      -0.668183       -18.1822
   6   2.0000      -0.540627       -14.7112
   7   2.0000      -0.513676       -13.9778
   8   2.0000      -0.467642       -12.7252
   9   2.0000      -0.457028       -12.4364
  10   2.0000      -0.395896       -10.7729
  11   2.0000      -0.393536       -10.7086
  12   2.0000      -0.386316       -10.5122
  13   0.0000       0.072693         1.9781
  14   0.0000       0.115374         3.1395
  15   0.0000       0.122738         3.3399
  16   0.0000       0.127906         3.4805
  17   0.0000       0.146488         3.9862

MULLIKEN ATOMIC CHARGES
-----------------------
   0 C :   -0.210821
   1 C :   -0.385243
   2 H :    0.120386
   3 H :    0.129291
   4 H :    0.128948
   5 C :   -0.401560
   6 H :    0.115899
   7 H :    0.113677
   8 H :    0.130781
   9 H :    0.127878
  10 H :    0.130765
Sum of atomic charges:    0.0000000

LOEWDIN ATOMIC CHARGES
----------------------
   0 C :   -0.325706
   1 C :   -0.305328
   2 H :    0.108139
   3 H :    0.108965
   4 H :    0.111278
   5 C :   -0.308060
   6 H :    0.130606
   7 H :    0.133689
   8 H :    0.115461
   9 H :    0.116113
  10 H :    0.114845

  Mayer bond orders larger than 0.100000
B(  0-C ,  1-C ) :   0.9319 B(  0-C ,  5-C ) :   0.9503 B(  0-C ,  6-H ) :   0.9816
B(  0-C ,  7-H ) :   0.9805 B(  1-C ,  2-H ) :   0.9801 B(  1-C ,  3-H ) :   0.9850
B(  1-C ,  4-H ) :   0.9791 B(  5-C ,  8-H ) :   0.9760 B(  5-C ,  9-H ) :   0.9737
B(  5-C , 10-H ) :   0.9816

Dispersion correction           -0.000052614
FINAL SINGLE POINT ENERGY      -119.098312681856

DIPOLE MOMENT
-------------
                                X             Y             Z
Electronic contribution:     -0.13789      -0.31330      -0.13894
Nuclear contribution   :      0.16058       0.27975       0.12812
                        -----------------------------------------
Total Dipole Moment    :      0.02269      -0.03355      -0.01082
                        -----------------------------------------
Magnitude (a.u.)       :      0.04193
Magnitude (Debye)      :      0.10657

Rotational constants in cm-1:     1.027122     0.293327     0.260229
Rotational constants in MHz : 30792.337141  8793.723318  7801.458329

                             ****ORCA TERMINATED NORMALLY****
TOTAL RUN TIME: 0 days 0 hours 0 minutes 11 seconds 816 msec
