                         Program Version 5.0.0 -  RELEASE  -
|  1> !wB97X-D3 RIJCOSX def2-SVPD def2/J TightSCF CPCM(Water)
|  2> *xyz -1 1
|  3> C         -0.50835        1.72268       -4.12430
|  4> S         -1.32861        0.14674       -4.43578
|  5> O         -2.57135        0.47573       -5.06834
|  6> O         -1.51496       -0.40051       -3.06342
|  7> O         -0.37793       -0.62756       -5.20114
|  8> H         -0.31967        2.21655       -5.05456
|  9> H          0.41835        1.54859       -3.61852
| 10> H         -1.13714        2.33776       -3.51504
| 11> *
| 12> %MaxCore 64000
| 13>
| 14> %pal nprocs 18
| 15> end
| 16>
| 17> %scf
| 18>   MaxIter 150
| 19> end
| 20>
| 21>
| 22>                          ****END OF INPUT****

CARTESIAN COORDINATES (ANGSTROEM)
---------------------------------
  C     -0.508350    1.722680   -4.124300
  S     -1.328610    0.146740   -4.435780
  O     -2.571350    0.475730   -5.068340
  O     -1.514960   -0.400510   -3.063420
  O     -0.377930   -0.627560   -5.201140
  H     -0.319670    2.216550   -5.054560
  H      0.418350    1.548590   -3.618520
  H     -1.137140    2.337760   -3.515040

 Total Charge           Charge          ....   -1
 Multiplicity           Mult            ....    1
 Number of Electrons    NEL             ....   50
 Basis Dimension        Dim             ....  140

ORBITAL ENERGIES
----------------

  NO   OCC          E(Eh)            E(eV)
   0   2.0000     -89.156101     -2426.0608
   1   2.0000     -19.212233      -522.7914
   2   2.0000     -19.209784      -522.7248
   3   2.0000     -19.197097      -522.3796
   4   2.0000     -10.286357      -279.9060
   5   2.0000      -8.230275      -223.9572
   6   2.0000      -6.190050      -168.4398
   7   2.0000      -6.190008      -168.4387
   8   2.0000      -6.188648      -168.4017
   9   2.0000      -1.233596       -33.5679
  10   2.0000      -1.095565       -29.8118
  11   2.0000      -1.066715       -29.0268
  12   2.0000      -0.843458       -22.9517
  13   2.0000      -0.664895       -18.0927
  14   2.0000      -0.585960       -15.9448
  15   2.0000      -0.563461       -15.3326
  16   2.0000      -0.562481       -15.3059
  17   2.0000      -0.509408       -13.8617
  18   2.0000      -0.507551       -13.8112
  19   2.0000      -0.440688       -11.9917
  20   2.0000      -0.438428       -11.9302
  21   2.0000      -0.397783       -10.8242
  22   2.0000      -0.385610       -10.4930
  23   2.0000      -0.373992       -10.1769
  24   2.0000      -0.348703        -9.4887
  25   0.0000       0.079496         2.1632
  26   0.0000       0.103196         2.8081
  27   0.0000       0.103965         2.8290
  28   0.0000       0.104450         2.8422
  29   0.0000       0.153904         4.1879

MULLIKEN ATOMIC CHARGES
-----------------------
   0 C :    0.376267
   1 S :    1.078169
   2 O :   -0.771168
   3 O :   -0.843898
   4 O :   -0.788308
   5 H :   -0.021110
   6 H :   -0.014423
   7 H :   -0.015530
Sum of atomic charges:   -1.0000000

LOEWDIN ATOMIC CHARGES
----------------------
   0 C :    0.077460
   1 S :    0.831924
   2 O :   -0.599600
   3 O :   -0.643068
   4 O :   -0.607947
   5 H :   -0.020046
   6 H :   -0.019348
   7 H :   -0.019374

  Mayer bond orders larger than 0.100000
B(  0-C ,  1-S ) :   0.9698 B(  0-C ,  5-H ) :   0.9364 B(  0-C ,  6-H ) :   0.9346
B(  0-C ,  7-H ) :   0.9345 B(  1-S ,  2-O ) :   1.3546 B(  1-S ,  3-O ) :   1.2864
B(  1-S ,  4-O ) :   1.3393 B(  1-S ,  6-H ) :   0.1051 B(  1-S ,  7-H ) :   0.1037

Dispersion correction           -0.001526736
FINAL SINGLE POINT ENERGY      -663.516729231541

DIPOLE MOMENT
-------------
                                X             Y             Z
Electronic contribution:     -1.70829      -3.15821      -0.88231
Nuclear contribution   :      2.60425       5.03732       0.91691
                        -----------------------------------------
Total Dipole Moment    :      0.89595       1.87911       0.03460
                        -----------------------------------------
Magnitude (a.u.)       :      2.08206
Magnitude (Debye)      :      5.29217

Rotational constants in cm-1:     0.171343     0.157827     0.155747
Rotational constants in MHz :  5136.740483  4731.521814  4669.189064

                             ****ORCA TERMINATED NORMALLY****
TOTAL RUN TIME: 0 days 0 hours 0 minutes 7 seconds 130 msec
