                         Program Version 5.0.0 -  RELEASE  -
|  1> !wB97X-D3 RIJCOSX def2-SVPD def2/J TightSCF CPCM(Water)
|  2> *xyz 1 1
|  3> C          1.36401        0.46874       -2.81376
|  4> N          0.42884        0.32140       -1.65531
|  5> H          0.74858       -0.40054       -1.00134
|  6> H         -0.46105        0.02333       -2.07773
|  7> H          0.31026        1.20137       -1.13495
|  8> H          0.99872        1.22859       -3.47261
|  9> H          1.42772       -0.46011       -3.34109
| 10> H          2.33442        0.74312       -2.45611
| 11> *
| 12> %MaxCore 64000
| 13>
| 14> %pal nprocs 18
| 15> end
| 16>
| 17> %scf
| 18>   MaxIter 150
| 19> end
| 20>
| 21>
| 22>                          ****END OF INPUT****

CARTESIAN COORDINATES (ANGSTROEM)
---------------------------------
  C      1.364010    0.468740   -2.813760
  N      0.428840    0.321400   -1.655310
  H      0.748580   -0.400540   -1.001340
  H     -0.461050    0.023330   -2.077730
  H      0.310260    1.201370   -1.134950
  H      0.998720    1.228590   -3.472610
  H      1.427720   -0.460110   -3.341090
  H      2.334420    0.743120   -2.456110

 Total Charge           Charge          ....    1
 Multiplicity           Mult            ....    1
 Number of Electrons    NEL             ....   18
 Basis Dimension        Dim             ....   88

ORBITAL ENERGIES
----------------

  NO   OCC          E(Eh)            E(eV)
   0   2.0000     -14.559248      -396.1773
   1   2.0000     -10.342641      -281.4376
   2   2.0000      -1.106139       -30.0996
   3   2.0000      -0.833023       -22.6677
   4   2.0000      -0.688003       -18.7215
   5   2.0000      -0.683223       -18.5914
   6   2.0000      -0.595190       -16.1959
   7   2.0000      -0.518602       -14.1119
   8   2.0000      -0.516866       -14.0646
   9   0.0000       0.084388         2.2963
  10   0.0000       0.122047         3.3211
  11   0.0000       0.159098         4.3293
  12   0.0000       0.159542         4.3414
  13   0.0000       0.194862         5.3025

MULLIKEN ATOMIC CHARGES
-----------------------
   0 C :    0.712047
   1 N :   -0.910295
   2 H :    0.411607
   3 H :    0.448529
   4 H :    0.417234
   5 H :   -0.021724
   6 H :   -0.016699
   7 H :   -0.040699
Sum of atomic charges:    1.0000000

LOEWDIN ATOMIC CHARGES
----------------------
   0 C :    0.267976
   1 N :    0.333270
   2 H :    0.114691
   3 H :    0.114536
   4 H :    0.119476
   5 H :    0.017429
   6 H :    0.018067
   7 H :    0.014555

  Mayer bond orders larger than 0.100000
B(  0-C ,  1-N ) :   0.7998 B(  0-C ,  5-H ) :   0.9222 B(  0-C ,  6-H ) :   0.9198
B(  0-C ,  7-H ) :   0.9462 B(  1-N ,  2-H ) :   0.7421 B(  1-N ,  3-H ) :   0.6902
B(  1-N ,  4-H ) :   0.7335

Dispersion correction           -0.000499591
FINAL SINGLE POINT ENERGY       -96.240272842592

DIPOLE MOMENT
-------------
                                X             Y             Z
Electronic contribution:     -0.82987      -0.12236       1.05693
Nuclear contribution   :      0.14628      -0.00095      -0.25828
                        -----------------------------------------
Total Dipole Moment    :     -0.68359      -0.12330       0.79866
                        -----------------------------------------
Magnitude (a.u.)       :      1.05847
Magnitude (Debye)      :      2.69041

Rotational constants in cm-1:     2.853706     0.682028     0.680630
Rotational constants in MHz : 85551.942317 20446.672693 20404.761959

                             ****ORCA TERMINATED NORMALLY****
TOTAL RUN TIME: 0 days 0 hours 0 minutes 3 seconds 917 msec
