                         Program Version 5.0.0 -  RELEASE  -
|  1> !wB97X-D3 RIJCOSX def2-SVPD def2/J TightSCF CPCM(Water)
|  2> *xyz 0 1
|  3> C         -0.50835        1.72268       -4.12430
|  4> S         -1.32861        0.14674       -4.43578
|  5> F         -2.57135        0.47573       -5.06834
|  6> O         -1.51496       -0.40051       -3.06342
|  7> O         -0.37793       -0.62756       -5.20114
|  8> H         -0.31967        2.21655       -5.05456
|  9> H          0.41835        1.54859       -3.61852
| 10> H         -1.13714        2.33776       -3.51504
| 11> *
| 12> %MaxCore 64000
| 13>
| 14> %pal nprocs 18
| 15> end
| 16>
| 17> %scf
| 18>   MaxIter 150
| 19> end
| 20>
| 21>
| 22>                          ****END OF INPUT****

CARTESIAN COORDINATES (ANGSTROEM)
---------------------------------
  C     -0.508350    1.722680   -4.124300
  S     -1.328610    0.146740   -4.435780
  F     -2.571350    0.475730   -5.068340
  O     -1.514960   -0.400510   -3.063420
  O     -0.377930   -0.627560   -5.201140
  H     -0.319670    2.216550   -5.054560
  H      0.418350    1.548590   -3.618520
  H     -1.137140    2.337760   -3.515040

 Total Charge           Charge          ....    0
 Multiplicity           Mult            ....    1
 Number of Electrons    NEL             ....   50
 Basis Dimension        Dim             ....  140

ORBITAL ENERGIES
----------------

  NO   OCC          E(Eh)            E(eV)
   0   2.0000     -89.245771     -2428.5009
   1   2.0000     -24.923973      -678.2158
   2   2.0000     -19.271402      -524.4015
   3   2.0000     -19.257774      -524.0307
   4   2.0000     -10.328232      -281.0455
   5   2.0000      -8.319811      -226.3936
   6   2.0000      -6.283521      -170.9833
   7   2.0000      -6.277395      -170.8166
   8   2.0000      -6.275527      -170.7658
   9   2.0000      -1.500835       -40.8398
  10   2.0000      -1.233692       -33.5705
  11   2.0000      -1.128162       -30.6988
  12   2.0000      -0.901063       -24.5192
  13   2.0000      -0.826386       -22.4871
  14   2.0000      -0.708826       -19.2881
  15   2.0000      -0.700482       -19.0611
  16   2.0000      -0.667541       -18.1647
  17   2.0000      -0.580718       -15.8021
  18   2.0000      -0.572701       -15.5840
  19   2.0000      -0.549410       -14.9502
  20   2.0000      -0.536360       -14.5951
  21   2.0000      -0.495738       -13.4897
  22   2.0000      -0.443698       -12.0736
  23   2.0000      -0.428814       -11.6686
  24   2.0000      -0.416828       -11.3425
  25   0.0000       0.066277         1.8035
  26   0.0000       0.099286         2.7017
  27   0.0000       0.099491         2.7073
  28   0.0000       0.102490         2.7889
  29   0.0000       0.128496         3.4966

MULLIKEN ATOMIC CHARGES
-----------------------
   0 C :    0.278606
   1 S :    1.304112
   2 F :   -0.357586
   3 O :   -0.727868
   4 O :   -0.672241
   5 H :    0.056345
   6 H :    0.057134
   7 H :    0.061499
Sum of atomic charges:   -0.0000000

LOEWDIN ATOMIC CHARGES
----------------------
   0 C :    0.138872
   1 S :    1.121518
   2 F :   -0.234323
   3 O :   -0.533741
   4 O :   -0.500423
   5 H :   -0.000566
   6 H :    0.008352
   7 H :    0.000310

  Mayer bond orders larger than 0.100000
B(  0-C ,  1-S ) :   1.0189 B(  0-C ,  5-H ) :   0.9342 B(  0-C ,  6-H ) :   0.9288
B(  0-C ,  7-H ) :   0.9315 B(  1-S ,  2-F ) :   0.7339 B(  1-S ,  3-O ) :   1.4673
B(  1-S ,  4-O ) :   1.5158 B(  1-S ,  6-H ) :   0.1026

Dispersion correction           -0.001536738
FINAL SINGLE POINT ENERGY      -687.906011724314

DIPOLE MOMENT
-------------
                                X             Y             Z
Electronic contribution:     -4.11919      -2.69431      -2.13637
Nuclear contribution   :      3.90013       4.80063       1.59574
                        -----------------------------------------
Total Dipole Moment    :     -0.21906       2.10632      -0.54063
                        -----------------------------------------
Magnitude (a.u.)       :      2.18560
Magnitude (Debye)      :      5.55536

Rotational constants in cm-1:     0.163395     0.155047     0.147447
Rotational constants in MHz :  4898.460101  4648.206837  4420.340547

                             ****ORCA TERMINATED NORMALLY****
TOTAL RUN TIME: 0 days 0 hours 0 minutes 7 seconds 368 msec
