                         Program Version 5.0.0 -  RELEASE  -
|  1> !wB97X-D3 RIJCOSX def2-SVPD def2/J TightSCF CPCM(Water)
|  2> *xyz 0 1
|  3> C          1.36401        0.46874       -2.81376
|  4> C          0.42884        0.32140       -1.65531
|  5> H          0.74858       -0.40054       -1.00134
|  6> H         -0.46105        0.02333       -2.07773
|  7> H          0.31026        1.20137       -1.13495
|  8> H          0.99872        1.22859       -3.47261
|  9> H          1.42772       -0.46011       -3.34109
| 10> H          2.33442        0.74312       -2.45611
| 11> *
| 12> %MaxCore 64000
| 13>
| 14> %pal nprocs 18
| 15> end
| 16>
| 17> %scf
| 18>   MaxIter 150
| 19> end
| 20>
| 21>
| 22>                          ****END OF INPUT****

CARTESIAN COORDINATES (ANGSTROEM)
---------------------------------
  C      1.364010    0.468740   -2.813760
  C      0.428840    0.321400   -1.655310
  H      0.748580   -0.400540   -1.001340
  H     -0.461050    0.023330   -2.077730
  H      0.310260    1.201370   -1.134950
  H      0.998720    1.228590   -3.472610
  H      1.427720   -0.460110   -3.341090
  H      2.334420    0.743120   -2.456110

 Total Charge           Charge          ....    0
 Multiplicity           Mult            ....    1
 Number of Electrons    NEL             ....   18
 Basis Dimension        Dim             ....   88

ORBITAL ENERGIES
----------------

  NO   OCC          E(Eh)            E(eV)
   0   2.0000     -10.262350      -279.2527
   1   2.0000     -10.248807      -278.8842
   2   2.0000      -0.874561       -23.7980
   3   2.0000      -0.722079       -19.6488
   4   2.0000      -0.548109       -14.9148
   5   2.0000      -0.544285       -14.8108
   6   2.0000      -0.458901       -12.4873
   7   2.0000      -0.438354       -11.9282
   8   2.0000      -0.434463       -11.8223
   9   0.0000       0.102849         2.7987
  10   0.0000       0.130954         3.5634
  11   0.0000       0.186544         5.0761
  12   0.0000       0.187160         5.0929
  13   0.0000       0.206081         5.6078

MULLIKEN ATOMIC CHARGES
-----------------------
   0 C :    0.111440
   1 C :    0.444544
   2 H :   -0.157267
   3 H :   -0.112644
   4 H :   -0.147644
   5 H :   -0.042734
   6 H :   -0.038798
   7 H :   -0.056897
Sum of atomic charges:    0.0000000

LOEWDIN ATOMIC CHARGES
----------------------
   0 C :    0.068772
   1 C :    0.078471
   2 H :   -0.034455
   3 H :   -0.032902
   4 H :   -0.030555
   5 H :   -0.015344
   6 H :   -0.014791
   7 H :   -0.019196

  Mayer bond orders larger than 0.100000
B(  0-C ,  1-C ) :   1.4359 B(  0-C ,  2-H ) :   0.1454 B(  0-C ,  3-H ) :   0.1768
B(  0-C ,  4-H ) :   0.1409 B(  0-C ,  5-H ) :   0.8825 B(  0-C ,  6-H ) :   0.8798
B(  0-C ,  7-H ) :   0.9119 B(  1-C ,  2-H ) :   0.8264 B(  1-C ,  3-H ) :   0.8156
B(  1-C ,  4-H ) :   0.8367 B(  1-C ,  5-H ) :   0.1338 B(  1-C ,  6-H ) :   0.1361
B(  1-C ,  7-H ) :   0.1199

Dispersion correction           -0.000488400
FINAL SINGLE POINT ENERGY       -79.736815451069

DIPOLE MOMENT
-------------
                                X             Y             Z
Electronic contribution:     -0.00722       0.01589       0.07216
Nuclear contribution   :     -0.01491      -0.02598      -0.05743
                        -----------------------------------------
Total Dipole Moment    :     -0.02214      -0.01009       0.01474
                        -----------------------------------------
Magnitude (a.u.)       :      0.02844
Magnitude (Debye)      :      0.07230

Rotational constants in cm-1:     2.853707     0.712330     0.710805
Rotational constants in MHz : 85551.986377 21355.123158 21309.410122

                             ****ORCA TERMINATED NORMALLY****
TOTAL RUN TIME: 0 days 0 hours 0 minutes 3 seconds 884 msec
