                         Program Version 5.0.0 -  RELEASE  -
|  1> !wB97X-D3 RIJCOSX def2-SVPD def2/J TightSCF CPCM(Water)
|  2> *xyz 0 1
|  3> C         -0.50835        1.72268       -4.12430
|  4> S         -1.32861        0.14674       -4.43578
|  5> O         -2.57135        0.47573       -5.06834
|  6> F         -1.51496       -0.40051       -3.06342
|  7> O         -0.37793       -0.62756       -5.20114
|  8> H         -0.31967        2.21655       -5.05456
|  9> H          0.41835        1.54859       -3.61852
| 10> H         -1.13714        2.33776       -3.51504
| 11> *
| 12> %MaxCore 64000
| 13>
| 14> %pal nprocs 18
| 15> end
| 16>
| 17> %scf
| 18>   MaxIter 150
| 19> end
| 20>
| 21>
| 22>                          ****END OF INPUT****

CARTESIAN COORDINATES (ANGSTROEM)
---------------------------------
  C     -0.508350    1.722680   -4.124300
  S     -1.328610    0.146740   -4.435780
  O     -2.571350    0.475730   -5.068340
  F     -1.514960   -0.400510   -3.063420
  O     -0.377930   -0.627560   -5.201140
  H     -0.319670    2.216550   -5.054560
  H      0.418350    1.548590   -3.618520
  H     -1.137140    2.337760   -3.515040

 Total Charge           Charge          ....    0
 Multiplicity           Mult            ....    1
 Number of Electrons    NEL             ....   50
 Basis Dimension        Dim             ....  140

ORBITAL ENERGIES
----------------

  NO   OCC          E(Eh)            E(eV)
   0   2.0000     -89.241899     -2428.3955
   1   2.0000     -24.898691      -677.5278
   2   2.0000     -19.273133      -524.4486
   3   2.0000     -19.270483      -524.3765
   4   2.0000     -10.326995      -281.0118
   5   2.0000      -8.315945      -226.2884
   6   2.0000      -6.279415      -170.8716
   7   2.0000      -6.273751      -170.7174
   8   2.0000      -6.271889      -170.6668
   9   2.0000      -1.456042       -39.6209
  10   2.0000      -1.247126       -33.9360
  11   2.0000      -1.152540       -31.3622
  12   2.0000      -0.897968       -24.4350
  13   2.0000      -0.806089       -21.9348
  14   2.0000      -0.687869       -18.7179
  15   2.0000      -0.671495       -18.2723
  16   2.0000      -0.664520       -18.0825
  17   2.0000      -0.583540       -15.8789
  18   2.0000      -0.575648       -15.6642
  19   2.0000      -0.546898       -14.8819
  20   2.0000      -0.540819       -14.7164
  21   2.0000      -0.502452       -13.6724
  22   2.0000      -0.453165       -12.3312
  23   2.0000      -0.438820       -11.9409
  24   2.0000      -0.432719       -11.7749
  25   0.0000       0.067518         1.8373
  26   0.0000       0.099767         2.7148
  27   0.0000       0.100151         2.7253
  28   0.0000       0.102474         2.7885
  29   0.0000       0.125791         3.4230

MULLIKEN ATOMIC CHARGES
-----------------------
   0 C :    0.275089
   1 S :    1.300591
   2 O :   -0.669214
   3 F :   -0.392935
   4 O :   -0.685285
   5 H :    0.050217
   6 H :    0.060904
   7 H :    0.060632
Sum of atomic charges:   -0.0000000

LOEWDIN ATOMIC CHARGES
----------------------
   0 C :    0.138781
   1 S :    1.114118
   2 O :   -0.492539
   3 F :   -0.267542
   4 O :   -0.500557
   5 H :    0.007645
   6 H :   -0.000020
   7 H :    0.000115

  Mayer bond orders larger than 0.100000
B(  0-C ,  1-S ) :   1.0177 B(  0-C ,  5-H ) :   0.9294 B(  0-C ,  6-H ) :   0.9336
B(  0-C ,  7-H ) :   0.9337 B(  1-S ,  2-O ) :   1.5274 B(  1-S ,  3-F ) :   0.6711
B(  1-S ,  4-O ) :   1.5127

Dispersion correction           -0.001538143
FINAL SINGLE POINT ENERGY      -687.927233491949

DIPOLE MOMENT
-------------
                                X             Y             Z
Electronic contribution:     -2.15506      -4.35792       1.65947
Nuclear contribution   :      2.84473       5.67605      -0.40731
                        -----------------------------------------
Total Dipole Moment    :      0.68967       1.31813       1.25217
                        -----------------------------------------
Magnitude (a.u.)       :      1.94449
Magnitude (Debye)      :      4.94250

Rotational constants in cm-1:     0.162669     0.154016     0.148818
Rotational constants in MHz :  4876.699308  4617.284822  4461.441982

                             ****ORCA TERMINATED NORMALLY****
TOTAL RUN TIME: 0 days 0 hours 0 minutes 7 seconds 379 msec
