                         Program Version 5.0.0 -  RELEASE  -
|  1> !wB97X-D3 RIJCOSX def2-SVPD def2/J TightSCF CPCM(Water)
|  2> *xyz 0 1
|  3> C         -0.50835        1.72268       -4.12430
|  4> S         -1.32861        0.14674       -4.43578
|  5> O         -2.57135        0.47573       -5.06834
|  6> O         -1.51496       -0.40051       -3.06342
|  7> F         -0.37793       -0.62756       -5.20114
|  8> H         -0.31967        2.21655       -5.05456
|  9> H          0.41835        1.54859       -3.61852
| 10> H         -1.13714        2.33776       -3.51504
| 11> *
| 12> %MaxCore 64000
| 13>
| 14> %pal nprocs 18
| 15> end
| 16>
| 17> %scf
| 18>   MaxIter 150
| 19> end
| 20>
| 21>
| 22>                          ****END OF INPUT****

CARTESIAN COORDINATES (ANGSTROEM)
---------------------------------
  C     -0.508350    1.722680   -4.124300
  S     -1.328610    0.146740   -4.435780
  O     -2.571350    0.475730   -5.068340
  O     -1.514960   -0.400510   -3.063420
  F     -0.377930   -0.627560   -5.201140
  H     -0.319670    2.216550   -5.054560
  H      0.418350    1.548590   -3.618520
  H     -1.137140    2.337760   -3.515040

 Total Charge           Charge          ....    0
 Multiplicity           Mult            ....    1
 Number of Electrons    NEL             ....   50
 Basis Dimension        Dim             ....  140

ORBITAL ENERGIES
----------------

  NO   OCC          E(Eh)            E(eV)
   0   2.0000     -89.244858     -2428.4761
   1   2.0000     -24.919269      -678.0878
   2   2.0000     -19.273879      -524.4689
   3   2.0000     -19.257572      -524.0252
   4   2.0000     -10.328155      -281.0434
   5   2.0000      -8.318942      -226.3699
   6   2.0000      -6.282573      -170.9575
   7   2.0000      -6.276590      -170.7947
   8   2.0000      -6.274704      -170.7434
   9   2.0000      -1.491001       -40.5722
  10   2.0000      -1.239156       -33.7191
  11   2.0000      -1.130808       -30.7709
  12   2.0000      -0.900474       -24.5031
  13   2.0000      -0.822435       -22.3796
  14   2.0000      -0.703861       -19.1530
  15   2.0000      -0.694225       -18.8908
  16   2.0000      -0.667060       -18.1516
  17   2.0000      -0.582362       -15.8469
  18   2.0000      -0.573588       -15.6081
  19   2.0000      -0.549251       -14.9459
  20   2.0000      -0.537304       -14.6208
  21   2.0000      -0.498132       -13.5549
  22   2.0000      -0.446657       -12.1542
  23   2.0000      -0.429187       -11.6788
  24   2.0000      -0.418583       -11.3902
  25   0.0000       0.066225         1.8021
  26   0.0000       0.099392         2.7046
  27   0.0000       0.099526         2.7082
  28   0.0000       0.102530         2.7900
  29   0.0000       0.127218         3.4618

MULLIKEN ATOMIC CHARGES
-----------------------
   0 C :    0.277570
   1 S :    1.302575
   2 O :   -0.657574
   3 O :   -0.729526
   4 F :   -0.367642
   5 H :    0.056251
   6 H :    0.061922
   7 H :    0.056424
Sum of atomic charges:   -0.0000000

LOEWDIN ATOMIC CHARGES
----------------------
   0 C :    0.138945
   1 S :    1.120314
   2 O :   -0.492438
   3 O :   -0.533709
   4 F :   -0.241239
   5 H :   -0.000556
   6 H :    0.000195
   7 H :    0.008487

  Mayer bond orders larger than 0.100000
B(  0-C ,  1-S ) :   1.0188 B(  0-C ,  5-H ) :   0.9349 B(  0-C ,  6-H ) :   0.9314
B(  0-C ,  7-H ) :   0.9288 B(  1-S ,  2-O ) :   1.5302 B(  1-S ,  3-O ) :   1.4667
B(  1-S ,  4-F ) :   0.7190 B(  1-S ,  7-H ) :   0.1022

Dispersion correction           -0.001537386
FINAL SINGLE POINT ENERGY      -687.909856047769

DIPOLE MOMENT
-------------
                                X             Y             Z
Electronic contribution:     -0.01660      -4.76044      -2.38755
Nuclear contribution   :      1.70876       5.90289       1.72841
                        -----------------------------------------
Total Dipole Moment    :      1.69217       1.14245      -0.65914
                        -----------------------------------------
Magnitude (a.u.)       :      2.14548
Magnitude (Debye)      :      5.45339

Rotational constants in cm-1:     0.163253     0.155214     0.147311
Rotational constants in MHz :  4894.200006  4653.189727  4416.272537

                             ****ORCA TERMINATED NORMALLY****
TOTAL RUN TIME: 0 days 0 hours 0 minutes 7 seconds 602 msec
