                         Program Version 5.0.0 -  RELEASE  -
|  1> !wB97X-D3 RIJCOSX def2-SVPD def2/J TightSCF CPCM(Water) xyzfile
|  2>
|  3> *xyzfile 0 1 D1.xyz
|  4>
|  5> %MaxCore 64000
|  6>
|  7> %pal nprocs 18
|  8> end
|  9>
| 10> %scf
| 11>   MaxIter 150
| 12> end
| 13>
| 14>
| 15>                          ****END OF INPUT****

CARTESIAN COORDINATES (ANGSTROEM)
---------------------------------
  C      1.364014    0.468742   -2.813764
  C      0.428844    0.321402   -1.655312
  C      0.968045    1.630639   -3.715749
  C     -0.508347    1.722679   -4.124300
  S     -1.328608    0.146737   -4.435781
  H     -0.591511    2.294958   -5.047219
  H     -1.114114    2.235610   -3.374362
  H      0.748578   -0.400542   -1.001345
  H     -0.461053    0.023332   -2.077731
  H      0.310258    1.201375   -1.134948
  F     -2.571347    0.475733   -5.068341
  O     -1.514963   -0.400512   -3.063420
  H      1.294847   -0.468742   -3.364684
  H      2.376216    0.597400   -2.431495
  H      1.578688    1.520652   -4.612733
  H      1.266653    2.575988   -3.250448
  O     -0.377928   -0.627558   -5.201141

 Total Charge           Charge          ....    0
 Multiplicity           Mult            ....    1
 Number of Electrons    NEL             ....   74
 Basis Dimension        Dim             ....  248

ORBITAL ENERGIES
----------------

  NO   OCC          E(Eh)            E(eV)
   0   2.0000     -89.243777     -2428.4466
   1   2.0000     -24.923337      -678.1985
   2   2.0000     -19.270610      -524.3800
   3   2.0000     -19.257198      -524.0150
   4   2.0000     -10.336959      -281.2829
   5   2.0000     -10.300415      -280.2885
   6   2.0000     -10.273914      -279.5674
   7   2.0000     -10.219881      -278.0971
   8   2.0000      -8.317724      -226.3368
   9   2.0000      -6.281365      -170.9246
  10   2.0000      -6.275535      -170.7660
  11   2.0000      -6.273248      -170.7038
  12   2.0000      -1.499484       -40.8030
  13   2.0000      -1.236208       -33.6389
  14   2.0000      -1.134401       -30.8686
  15   2.0000      -0.935207       -25.4483
  16   2.0000      -0.883550       -24.0426
  17   2.0000      -0.827712       -22.5232
  18   2.0000      -0.782240       -21.2858
  19   2.0000      -0.713248       -19.4085
  20   2.0000      -0.700764       -19.0687
  21   2.0000      -0.682673       -18.5765
  22   2.0000      -0.649192       -17.6654
  23   2.0000      -0.610086       -16.6013
  24   2.0000      -0.588702       -16.0194
  25   2.0000      -0.566783       -15.4229
  26   2.0000      -0.561828       -15.2881
  27   2.0000      -0.518339       -14.1047
  28   2.0000      -0.500084       -13.6080
  29   2.0000      -0.495731       -13.4895
  30   2.0000      -0.485481       -13.2106
  31   2.0000      -0.453318       -12.3354
  32   2.0000      -0.444061       -12.0835
  33   2.0000      -0.421001       -11.4560
  34   2.0000      -0.412807       -11.2331
  35   2.0000      -0.409901       -11.1540
  36   2.0000      -0.374474       -10.1900
  37   0.0000       0.070773         1.9258
  38   0.0000       0.093715         2.5501
  39   0.0000       0.096594         2.6285
  40   0.0000       0.100699         2.7402
  41   0.0000       0.117045         3.1850

MULLIKEN ATOMIC CHARGES
-----------------------
   0 C :   -0.406414
   1 C :    1.964077
   2 C :    0.175125
   3 C :   -0.053891
   4 S :    1.687313
   5 H :   -0.083858
   6 H :    0.303894
   7 H :   -0.094020
   8 H :   -1.200196
   9 H :   -0.114893
  10 F :   -0.487358
  11 O :   -0.892456
  12 H :    0.084937
  13 H :   -0.271531
  14 H :    0.059201
  15 H :    0.043475
  16 O :   -0.713403
Sum of atomic charges:    0.0000000

LOEWDIN ATOMIC CHARGES
----------------------
   0 C :   -0.051941
   1 C :    0.130307
   2 C :   -0.013447
   3 C :   -0.017251
   4 S :    1.190194
   5 H :    0.030634
   6 H :    0.039960
   7 H :   -0.024807
   8 H :   -0.181467
   9 H :   -0.018299
  10 F :   -0.228381
  11 O :   -0.484169
  12 H :    0.010930
  13 H :    0.025496
  14 H :    0.029557
  15 H :    0.045218
  16 O :   -0.482534

  Mayer bond orders larger than 0.100000
B(  0-C ,  1-C ) :   0.9787 B(  0-C ,  2-C ) :   1.1957 B(  0-C ,  7-H ) :   0.2268
B(  0-C ,  8-H ) :   0.5363 B(  0-C ,  9-H ) :   0.2714 B(  0-C , 12-H ) :   0.8325
B(  0-C , 13-H ) :   1.0083 B(  0-C , 14-H ) :   0.1376 B(  0-C , 15-H ) :   0.1545
B(  1-C ,  7-H ) :   0.4893 B(  1-C ,  8-H ) :  -0.6191 B(  1-C ,  9-H ) :   0.2687
B(  1-C , 11-O ) :  -0.1834 B(  1-C , 12-H ) :   0.1314 B(  2-C ,  3-C ) :   1.3072
B(  2-C ,  5-H ) :   0.1961 B(  2-C , 12-H ) :   0.1320 B(  2-C , 14-H ) :   0.8482
B(  2-C , 15-H ) :   0.8062 B(  3-C ,  4-S ) :   0.9647 B(  3-C ,  5-H ) :   0.9132
B(  3-C ,  6-H ) :   0.8278 B(  3-C ,  8-H ) :   0.1227 B(  3-C , 11-O ) :   0.1303
B(  3-C , 14-H ) :   0.1253 B(  4-S ,  8-H ) :  -0.1438 B(  4-S , 10-F ) :   0.6653
B(  4-S , 11-O ) :   1.3220 B(  4-S , 16-O ) :   1.4694 B(  7-H ,  8-H ) :   0.2794
B(  7-H ,  9-H ) :  -0.1850 B(  8-H ,  9-H ) :   0.5081 B(  8-H , 11-O ) :   0.3210

Dispersion correction           -0.006515488
FINAL SINGLE POINT ENERGY      -805.694495809233

DIPOLE MOMENT
-------------
                                X             Y             Z
Electronic contribution:    -12.54896      -3.47263      -9.89325
Nuclear contribution   :     12.25227       5.48563       9.26621
                        -----------------------------------------
Total Dipole Moment    :     -0.29669       2.01300      -0.62704
                        -----------------------------------------
Magnitude (a.u.)       :      2.12917
Magnitude (Debye)      :      5.41193

Rotational constants in cm-1:     0.103176     0.044975     0.040960
Rotational constants in MHz :  3093.138469  1348.317425  1227.945122

                             ****ORCA TERMINATED NORMALLY****
TOTAL RUN TIME: 0 days 0 hours 0 minutes 19 seconds 833 msec
