                         Program Version 5.0.0 -  RELEASE  -
|  1> !wB97X-D3 RIJCOSX def2-SVPD def2/J TightSCF CPCM(Water) xyzfile
|  2>
|  3> *xyzfile 0 1 D2.xyz
|  4>
|  5> %MaxCore 64000
|  6>
|  7> %pal nprocs 18
|  8> end
|  9>
| 10> %scf
| 11>   MaxIter 150
| 12> end
| 13>
| 14>
| 15>                          ****END OF INPUT****

CARTESIAN COORDINATES (ANGSTROEM)
---------------------------------
  C      1.364014    0.468742   -2.813764
  C      0.428844    0.321402   -1.655312
  C      0.968045    1.630639   -3.715749
  C     -0.508347    1.722679   -4.124300
  S     -1.328608    0.146737   -4.435781
  H     -0.591511    2.294958   -5.047219
  H     -1.114114    2.235610   -3.374362
  H      0.748578   -0.400542   -1.001345
  H     -0.461053    0.023332   -2.077731
  H      0.310258    1.201375   -1.134948
  O     -2.571347    0.475733   -5.068341
  F     -1.514963   -0.400512   -3.063420
  H      1.294847   -0.468742   -3.364684
  H      2.376216    0.597400   -2.431495
  H      1.578688    1.520652   -4.612733
  H      1.266653    2.575988   -3.250448
  O     -0.377928   -0.627558   -5.201141

 Total Charge           Charge          ....    0
 Multiplicity           Mult            ....    1
 Number of Electrons    NEL             ....   74
 Basis Dimension        Dim             ....  248

ORBITAL ENERGIES
----------------

  NO   OCC          E(Eh)            E(eV)
   0   2.0000     -89.241088     -2428.3735
   1   2.0000     -24.902622      -677.6348
   2   2.0000     -19.274560      -524.4874
   3   2.0000     -19.270618      -524.3802
   4   2.0000     -10.336698      -281.2759
   5   2.0000     -10.298439      -280.2348
   6   2.0000     -10.278420      -279.6900
   7   2.0000     -10.235617      -278.5253
   8   2.0000      -8.315101      -226.2654
   9   2.0000      -6.278777      -170.8542
  10   2.0000      -6.272841      -170.6927
  11   2.0000      -6.270774      -170.6364
  12   2.0000      -1.466698       -39.9109
  13   2.0000      -1.249050       -33.9884
  14   2.0000      -1.153243       -31.3813
  15   2.0000      -0.939939       -25.5770
  16   2.0000      -0.882917       -24.0254
  17   2.0000      -0.819710       -22.3054
  18   2.0000      -0.794760       -21.6265
  19   2.0000      -0.700477       -19.0610
  20   2.0000      -0.689576       -18.7643
  21   2.0000      -0.674969       -18.3669
  22   2.0000      -0.656516       -17.8647
  23   2.0000      -0.597291       -16.2531
  24   2.0000      -0.576217       -15.6797
  25   2.0000      -0.573125       -15.5955
  26   2.0000      -0.570177       -15.5153
  27   2.0000      -0.524282       -14.2664
  28   2.0000      -0.503181       -13.6923
  29   2.0000      -0.493713       -13.4346
  30   2.0000      -0.492320       -13.3967
  31   2.0000      -0.455538       -12.3958
  32   2.0000      -0.447957       -12.1895
  33   2.0000      -0.433008       -11.7827
  34   2.0000      -0.421969       -11.4823
  35   2.0000      -0.416112       -11.3230
  36   2.0000      -0.407286       -11.0828
  37   0.0000       0.070286         1.9126
  38   0.0000       0.093891         2.5549
  39   0.0000       0.096206         2.6179
  40   0.0000       0.104868         2.8536
  41   0.0000       0.117477         3.1967

MULLIKEN ATOMIC CHARGES
-----------------------
   0 C :   -0.424363
   1 C :    2.002069
   2 C :    0.214089
   3 C :   -0.022935
   4 S :    1.530496
   5 H :   -0.106037
   6 H :    0.298151
   7 H :   -0.059658
   8 H :   -1.195305
   9 H :   -0.085196
  10 O :   -0.740386
  11 F :   -0.601480
  12 H :    0.074630
  13 H :   -0.261456
  14 H :    0.059868
  15 H :    0.047195
  16 O :   -0.729682
Sum of atomic charges:    0.0000000

LOEWDIN ATOMIC CHARGES
----------------------
   0 C :   -0.054105
   1 C :    0.146974
   2 C :   -0.022849
   3 C :   -0.015564
   4 S :    1.146848
   5 H :    0.038351
   6 H :    0.040126
   7 H :   -0.019189
   8 H :   -0.131106
   9 H :   -0.012438
  10 O :   -0.478273
  11 F :   -0.269474
  12 H :    0.010052
  13 H :    0.028572
  14 H :    0.029396
  15 H :    0.042259
  16 O :   -0.479582

  Mayer bond orders larger than 0.100000
B(  0-C ,  1-C ) :   0.9871 B(  0-C ,  2-C ) :   1.1919 B(  0-C ,  7-H ) :   0.2280
B(  0-C ,  8-H ) :   0.5043 B(  0-C ,  9-H ) :   0.2668 B(  0-C , 12-H ) :   0.8487
B(  0-C , 13-H ) :   1.0162 B(  0-C , 14-H ) :   0.1355 B(  0-C , 15-H ) :   0.1557
B(  1-C ,  7-H ) :   0.5060 B(  1-C ,  8-H ) :  -0.7246 B(  1-C ,  9-H ) :   0.2473
B(  1-C , 11-F ) :  -0.2026 B(  1-C , 12-H ) :   0.1245 B(  2-C ,  3-C ) :   1.2868
B(  2-C ,  5-H ) :   0.1746 B(  2-C , 12-H ) :   0.1233 B(  2-C , 14-H ) :   0.8484
B(  2-C , 15-H ) :   0.7988 B(  3-C ,  4-S ) :   0.9959 B(  3-C ,  5-H ) :   0.9391
B(  3-C ,  6-H ) :   0.8386 B(  3-C , 11-F ) :   0.1219 B(  3-C , 14-H ) :   0.1326
B(  4-S ,  8-H ) :  -0.1246 B(  4-S , 10-O ) :   1.5503 B(  4-S , 11-F ) :   0.6424
B(  4-S , 16-O ) :   1.4961 B(  7-H ,  8-H ) :   0.2487 B(  7-H ,  9-H ) :  -0.1890
B(  8-H ,  9-H ) :   0.5565 B(  8-H , 11-F ) :   0.3443

Dispersion correction           -0.006502806
FINAL SINGLE POINT ENERGY      -805.716126829412

DIPOLE MOMENT
-------------
                                X             Y             Z
Electronic contribution:    -10.38378      -5.19071      -5.86445
Nuclear contribution   :     11.08796       6.45140       7.05645
                        -----------------------------------------
Total Dipole Moment    :      0.70419       1.26068       1.19201
                        -----------------------------------------
Magnitude (a.u.)       :      1.87245
Magnitude (Debye)      :      4.75939

Rotational constants in cm-1:     0.100113     0.046890     0.041843
Rotational constants in MHz :  3001.313402  1405.711946  1254.411771

                             ****ORCA TERMINATED NORMALLY****
TOTAL RUN TIME: 0 days 0 hours 0 minutes 21 seconds 572 msec
