                         Program Version 5.0.0 -  RELEASE  -
|  1> !wB97X-D3 RIJCOSX def2-TZVP def2/J TightSCF
|  2> *xyz -1 1
|  3> C          0.70466        1.44313       -4.50363
|  4> C          1.72854        1.42432       -5.63944
|  5> H          2.64672        1.95379       -5.38105
|  6> H          1.29992        1.93061       -6.50361
|  7> S          2.25263       -0.18811       -6.27184
|  8> O          3.56261       -0.44446       -5.63155
|  9> O          2.34494       -0.03374       -7.69650
| 10> C          1.05255        0.69566       -3.21491
| 11> H         -0.23248        1.03293       -4.88445
| 12> H          0.51170        2.49579       -4.26797
| 13> O          1.26606       -1.15918       -5.80536
| 14> H          1.24200       -0.33323       -3.43942
| 15> H          0.23391        0.76629       -2.52954
| 16> H          1.92506        1.13113       -2.77446
| 17> *
| 18>
| 19> %MaxCore 64000
| 20>
| 21> %pal nprocs 8
| 22> end
| 23>
| 24> %scf
| 25>   MaxIter 150
| 26> end
| 27>
| 28>
| 29>                          ****END OF INPUT****

CARTESIAN COORDINATES (ANGSTROEM)
---------------------------------
  C      0.704660    1.443130   -4.503630
  C      1.728540    1.424320   -5.639440
  H      2.646720    1.953790   -5.381050
  H      1.299920    1.930610   -6.503610
  S      2.252630   -0.188110   -6.271840
  O      3.562610   -0.444460   -5.631550
  O      2.344940   -0.033740   -7.696500
  C      1.052550    0.695660   -3.214910
  H     -0.232480    1.032930   -4.884450
  H      0.511700    2.495790   -4.267970
  O      1.266060   -1.159180   -5.805360
  H      1.242000   -0.333230   -3.439420
  H      0.233910    0.766290   -2.529540
  H      1.925060    1.131130   -2.774460

 Total Charge           Charge          ....   -1
 Multiplicity           Mult            ....    1
 Number of Electrons    NEL             ....   66
 Basis Dimension        Dim             ....  265

ORBITAL ENERGIES
----------------

  NO   OCC          E(Eh)            E(eV)
   0   2.0000     -88.931217     -2419.9414
   1   2.0000     -19.007349      -517.2163
   2   2.0000     -19.001622      -517.0604
   3   2.0000     -18.991097      -516.7740
   4   2.0000     -10.144766      -276.0531
   5   2.0000     -10.134493      -275.7736
   6   2.0000     -10.124345      -275.4974
   7   2.0000      -7.993879      -217.5245
   8   2.0000      -5.948226      -161.8594
   9   2.0000      -5.946868      -161.8225
  10   2.0000      -5.946517      -161.8130
  11   2.0000      -1.035669       -28.1820
  12   2.0000      -0.903537       -24.5865
  13   2.0000      -0.880111       -23.9490
  14   2.0000      -0.771198       -20.9854
  15   2.0000      -0.679710       -18.4958
  16   2.0000      -0.579789       -15.7769
  17   2.0000      -0.483418       -13.1545
  18   2.0000      -0.432277       -11.7628
  19   2.0000      -0.416801       -11.3417
  20   2.0000      -0.389263       -10.5924
  21   2.0000      -0.376287       -10.2393
  22   2.0000      -0.357635        -9.7317
  23   2.0000      -0.346569        -9.4306
  24   2.0000      -0.316388        -8.6094
  25   2.0000      -0.309241        -8.4149
  26   2.0000      -0.295615        -8.0441
  27   2.0000      -0.244884        -6.6636
  28   2.0000      -0.242874        -6.6089
  29   2.0000      -0.206999        -5.6327
  30   2.0000      -0.197936        -5.3861
  31   2.0000      -0.188902        -5.1403
  32   2.0000      -0.153891        -4.1876
  33   0.0000       0.238639         6.4937
  34   0.0000       0.278763         7.5855
  35   0.0000       0.288637         7.8542
  36   0.0000       0.307376         8.3641
  37   0.0000       0.315969         8.5980

MULLIKEN ATOMIC CHARGES
-----------------------
   0 C :   -0.142824
   1 C :   -0.267947
   2 H :    0.090290
   3 H :    0.095687
   4 S :    0.868817
   5 O :   -0.604127
   6 O :   -0.563306
   7 C :   -0.329963
   8 H :    0.083951
   9 H :    0.049270
  10 O :   -0.580181
  11 H :    0.157815
  12 H :    0.066142
  13 H :    0.076374
Sum of atomic charges:   -1.0000000

LOEWDIN ATOMIC CHARGES
----------------------
   0 C :   -0.324238
   1 C :   -0.401934
   2 H :    0.121181
   3 H :    0.122208
   4 S :    0.422446
   5 O :   -0.433661
   6 O :   -0.373375
   7 C :   -0.316406
   8 H :    0.131707
   9 H :    0.118421
  10 O :   -0.396595
  11 H :    0.123922
  12 H :    0.100028
  13 H :    0.106295

  Mayer bond orders larger than 0.100000
B(  0-C ,  1-C ) :   0.9809 B(  0-C ,  7-C ) :   0.9820 B(  0-C ,  8-H ) :   0.9756
B(  0-C ,  9-H ) :   0.9671 B(  1-C ,  2-H ) :   0.9639 B(  1-C ,  3-H ) :   0.9596
B(  1-C ,  4-S ) :   0.8841 B(  4-S ,  5-O ) :   1.7443 B(  4-S ,  6-O ) :   1.8172
B(  4-S , 10-O ) :   1.7426 B(  7-C , 11-H ) :   0.9672 B(  7-C , 12-H ) :   0.9762
B(  7-C , 13-H ) :   0.9778

Dispersion correction           -0.004507072
FINAL SINGLE POINT ENERGY      -742.532770417355

DIPOLE MOMENT
-------------
                                X             Y             Z
Electronic contribution:      4.43282      -5.69466      -8.08462
Nuclear contribution   :     -5.44810       7.35485       9.25157
                        -----------------------------------------
Total Dipole Moment    :     -1.01529       1.66018       1.16695
                        -----------------------------------------
Magnitude (a.u.)       :      2.26909
Magnitude (Debye)      :      5.76758

Rotational constants in cm-1:     0.135801     0.054229     0.051056
Rotational constants in MHz :  4071.225075  1625.746654  1530.611411

                             ****ORCA TERMINATED NORMALLY****
TOTAL RUN TIME: 0 days 0 hours 0 minutes 30 seconds 478 msec
