                         Program Version 5.0.0 -  RELEASE  -
|  1> !wB97X-D3 RIJCOSX def2-TZVP def2/J TightSCF
|  2> *xyz 1 1
|  3> C          2.91632       -1.24259       -1.54313
|  4> C          3.46659       -1.59097       -2.88908
|  5> N          4.65227       -1.14316       -3.25969
|  6> N          2.75226       -2.29204       -3.72803
|  7> H          1.77836       -2.48960       -3.51274
|  8> H          2.94861       -2.20854       -4.71681
|  9> H          5.14672       -0.51251       -2.63385
| 10> H          4.78303       -1.00720       -4.25350
| 11> C          2.80408        0.29070       -1.35924
| 12> C          2.38838        1.09367       -2.59711
| 13> H          3.76342        0.67472       -0.99989
| 14> H          2.09479        0.46122       -0.54576
| 15> H          1.94047       -1.71653       -1.44116
| 16> H          3.55857       -1.66343       -0.76637
| 17> H          3.08894        0.91965       -3.38694
| 18> H          2.37301        2.13633       -2.35728
| 19> H          1.41303        0.78551       -2.91115
| 20> *
| 21>
| 22> %MaxCore 64000
| 23>
| 24> %pal nprocs 8
| 25> end
| 26>
| 27> %scf
| 28>   MaxIter 150
| 29> end
| 30>
| 31>
| 32>                          ****END OF INPUT****

CARTESIAN COORDINATES (ANGSTROEM)
---------------------------------
  C      2.916320   -1.242590   -1.543130
  C      3.466590   -1.590970   -2.889080
  N      4.652270   -1.143160   -3.259690
  N      2.752260   -2.292040   -3.728030
  H      1.778360   -2.489600   -3.512740
  H      2.948610   -2.208540   -4.716810
  H      5.146720   -0.512510   -2.633850
  H      4.783030   -1.007200   -4.253500
  C      2.804080    0.290700   -1.359240
  C      2.388380    1.093670   -2.597110
  H      3.763420    0.674720   -0.999890
  H      2.094790    0.461220   -0.545760
  H      1.940470   -1.716530   -1.441160
  H      3.558570   -1.663430   -0.766370
  H      3.088940    0.919650   -3.386940
  H      2.373010    2.136330   -2.357280
  H      1.413030    0.785510   -2.911150

 Total Charge           Charge          ....    1
 Multiplicity           Mult            ....    1
 Number of Electrons    NEL             ....   48
 Basis Dimension        Dim             ....  252

ORBITAL ENERGIES
----------------

  NO   OCC          E(Eh)            E(eV)
   0   2.0000     -14.667086      -399.1117
   1   2.0000     -14.661130      -398.9496
   2   2.0000     -10.598918      -288.4112
   3   2.0000     -10.472186      -284.9627
   4   2.0000     -10.441940      -284.1396
   5   2.0000     -10.408527      -283.2304
   6   2.0000      -1.326538       -36.0969
   7   2.0000      -1.224659       -33.3247
   8   2.0000      -1.092580       -29.7306
   9   2.0000      -1.006496       -27.3882
  10   2.0000      -0.944104       -25.6904
  11   2.0000      -0.892364       -24.2825
  12   2.0000      -0.868824       -23.6419
  13   2.0000      -0.839537       -22.8450
  14   2.0000      -0.794042       -21.6070
  15   2.0000      -0.767077       -20.8732
  16   2.0000      -0.731556       -19.9067
  17   2.0000      -0.690458       -18.7883
  18   2.0000      -0.674635       -18.3577
  19   2.0000      -0.663071       -18.0431
  20   2.0000      -0.605794       -16.4845
  21   2.0000      -0.601885       -16.3781
  22   2.0000      -0.592647       -16.1267
  23   2.0000      -0.584004       -15.8915
  24   0.0000      -0.134520        -3.6605
  25   0.0000      -0.073206        -1.9920
  26   0.0000      -0.033384        -0.9084
  27   0.0000      -0.029343        -0.7985
  28   0.0000       0.004499         0.1224

MULLIKEN ATOMIC CHARGES
-----------------------
   0 C :   -0.238524
   1 C :    0.287493
   2 N :   -0.361472
   3 N :   -0.349968
   4 H :    0.309313
   5 H :    0.286885
   6 H :    0.312928
   7 H :    0.290390
   8 C :   -0.273692
   9 C :   -0.317487
  10 H :    0.146895
  11 H :    0.166186
  12 H :    0.150130
  13 H :    0.198665
  14 H :    0.084531
  15 H :    0.171759
  16 H :    0.135968
Sum of atomic charges:    1.0000000

LOEWDIN ATOMIC CHARGES
----------------------
   0 C :   -0.196601
   1 C :   -0.292613
   2 N :    0.103361
   3 N :    0.117778
   4 H :    0.210992
   5 H :    0.201301
   6 H :    0.210681
   7 H :    0.200326
   8 C :   -0.266278
   9 C :   -0.288191
  10 H :    0.142944
  11 H :    0.156484
  12 H :    0.159165
  13 H :    0.173239
  14 H :    0.108887
  15 H :    0.135347
  16 H :    0.123177

  Mayer bond orders larger than 0.100000
B(  0-C ,  1-C ) :   0.9634 B(  0-C ,  8-C ) :   0.9328 B(  0-C , 12-H ) :   0.9695
B(  0-C , 13-H ) :   0.9436 B(  1-C ,  2-N ) :   1.4140 B(  1-C ,  3-N ) :   1.4722
B(  2-N ,  6-H ) :   0.8840 B(  2-N ,  7-H ) :   0.8872 B(  3-N ,  4-H ) :   0.8803
B(  3-N ,  5-H ) :   0.8878 B(  8-C ,  9-C ) :   0.9552 B(  8-C , 10-H ) :   0.9700
B(  8-C , 11-H ) :   0.9639 B(  9-C , 14-H ) :   0.9610 B(  9-C , 15-H ) :   0.9658
B(  9-C , 16-H ) :   0.9746

Dispersion correction           -0.004872023
FINAL SINGLE POINT ENERGY      -268.367235728572

DIPOLE MOMENT
-------------
                                X             Y             Z
Electronic contribution:      2.02566      -4.55103      -1.88887
Nuclear contribution   :     -1.81078       3.96608       0.97433
                        -----------------------------------------
Total Dipole Moment    :      0.21489      -0.58495      -0.91454
                        -----------------------------------------
Magnitude (a.u.)       :      1.10667
Magnitude (Debye)      :      2.81294

Rotational constants in cm-1:     0.170042     0.080945     0.078209
Rotational constants in MHz :  5097.737821  2426.678005  2344.636232

                             ****ORCA TERMINATED NORMALLY****
TOTAL RUN TIME: 0 days 0 hours 0 minutes 29 seconds 369 msec
