                         Program Version 5.0.0 -  RELEASE  -
|  1> !wB97X-D3 RIJCOSX def2-TZVP def2/J TightSCF xyzfile
|  2>
|  3> *xyzfile 0 1 B.xyz
|  4>
|  5> %MaxCore 64000
|  6>
|  7> %pal nprocs 18
|  8> end
|  9>
| 10> %scf
| 11>   MaxIter 150
| 12> end
| 13>
| 14>
| 15>                          ****END OF INPUT****

CARTESIAN COORDINATES (ANGSTROEM)
---------------------------------
  C      2.916324   -1.242589   -1.543125
  C      0.704661    1.443129   -4.503630
  C      1.728539    1.424320   -5.639443
  H      2.646718    1.953794   -5.381054
  H      1.299916    1.930613   -6.503614
  S      2.252625   -0.188115   -6.271840
  C      3.466585   -1.590971   -2.889082
  N      4.652275   -1.143164   -3.259692
  N      2.752264   -2.292043   -3.728029
  H      1.778364   -2.489604   -3.512738
  H      2.948612   -2.208544   -4.716813
  H      5.146723   -0.512508   -2.633852
  H      4.783030   -1.007203   -4.253498
  O      3.562607   -0.444464   -5.631552
  O      2.344944   -0.033742   -7.696501
  C      2.804084    0.290698   -1.359243
  C      1.052550    0.695659   -3.214915
  H     -0.232483    1.032925   -4.884449
  H      0.511700    2.495794   -4.267966
  C      2.388380    1.093669   -2.597108
  H      3.763425    0.674718   -0.999889
  H      2.094788    0.461222   -0.545756
  O      1.266058   -1.159177   -5.805365
  H      3.167316    1.013242   -3.359430
  H      2.357690    2.149375   -2.310997
  H      1.039284   -0.368429   -3.449329
  H      0.250787    0.865605   -2.488283
  H      1.940472   -1.716529   -1.441161
  H      3.558569   -1.663433   -0.766371

 Total Charge           Charge          ....    0
 Multiplicity           Mult            ....    1
 Number of Electrons    NEL             ....  112
 Basis Dimension        Dim             ....  505

ORBITAL ENERGIES
----------------

  NO   OCC          E(Eh)            E(eV)
   0   2.0000     -89.086992     -2424.1803
   1   2.0000     -19.167586      -521.5765
   2   2.0000     -19.160107      -521.3730
   3   2.0000     -19.150534      -521.1125
   4   2.0000     -14.494341      -394.4111
   5   2.0000     -14.493862      -394.3980
   6   2.0000     -10.438452      -284.0447
   7   2.0000     -10.341187      -281.3980
   8   2.0000     -10.319662      -280.8123
   9   2.0000     -10.290511      -280.0190
  10   2.0000     -10.277384      -279.6618
  11   2.0000     -10.273040      -279.5436
  12   2.0000     -10.270588      -279.4769
  13   2.0000      -8.150048      -221.7741
  14   2.0000      -6.104088      -166.1007
  15   2.0000      -6.103708      -166.0903
  16   2.0000      -6.102186      -166.0489
  17   2.0000      -1.194708       -32.5097
  18   2.0000      -1.160426       -31.5768
  19   2.0000      -1.059872       -28.8406
  20   2.0000      -1.054374       -28.6910
  21   2.0000      -1.051071       -28.6011
  22   2.0000      -0.965819       -26.2813
  23   2.0000      -0.918054       -24.9815
  24   2.0000      -0.869465       -23.6594
  25   2.0000      -0.814479       -22.1631
  26   2.0000      -0.782415       -21.2906
  27   2.0000      -0.747675       -20.3453
  28   2.0000      -0.707956       -19.2645
  29   2.0000      -0.698746       -19.0138
  30   2.0000      -0.688326       -18.7303
  31   2.0000      -0.640877       -17.4391
  32   2.0000      -0.626656       -17.0522
  33   2.0000      -0.619834       -16.8665
  34   2.0000      -0.599322       -16.3084
  35   2.0000      -0.572617       -15.5817
  36   2.0000      -0.566294       -15.4096
  37   2.0000      -0.546399       -14.8683
  38   2.0000      -0.533361       -14.5135
  39   2.0000      -0.530624       -14.4390
  40   2.0000      -0.525586       -14.3019
  41   2.0000      -0.513038       -13.9605
  42   2.0000      -0.502881       -13.6841
  43   2.0000      -0.481305       -13.0970
  44   2.0000      -0.473282       -12.8787
  45   2.0000      -0.468438       -12.7468
  46   2.0000      -0.441126       -12.0036
  47   2.0000      -0.432516       -11.7694
  48   2.0000      -0.419317       -11.4102
  49   2.0000      -0.418089       -11.3768
  50   2.0000      -0.401186       -10.9168
  51   2.0000      -0.398665       -10.8482
  52   2.0000      -0.361401        -9.8342
  53   2.0000      -0.354836        -9.6556
  54   2.0000      -0.344717        -9.3802
  55   2.0000      -0.317332        -8.6350
  56   0.0000       0.023313         0.6344
  57   0.0000       0.067664         1.8412
  58   0.0000       0.097083         2.6418
  59   0.0000       0.115611         3.1459
  60   0.0000       0.126795         3.4503

MULLIKEN ATOMIC CHARGES
-----------------------
   0 C :   -0.235707
   1 C :   -0.158794
   2 C :   -0.327808
   3 H :    0.126365
   4 H :    0.154188
   5 S :    0.927656
   6 C :    0.273482
   7 N :   -0.378372
   8 N :   -0.323840
   9 H :    0.283143
  10 H :    0.289370
  11 H :    0.271970
  12 H :    0.314353
  13 O :   -0.666726
  14 O :   -0.504347
  15 C :   -0.290437
  16 C :   -0.215397
  17 H :    0.126489
  18 H :    0.101717
  19 C :   -0.165055
  20 H :    0.137370
  21 H :    0.129939
  22 O :   -0.588888
  23 H :    0.118942
  24 H :    0.118590
  25 H :    0.071550
  26 H :    0.103307
  27 H :    0.143850
  28 H :    0.163089
Sum of atomic charges:   -0.0000000

LOEWDIN ATOMIC CHARGES
----------------------
   0 C :   -0.208225
   1 C :   -0.285591
   2 C :   -0.382571
   3 H :    0.127366
   4 H :    0.138699
   5 S :    0.446915
   6 C :   -0.312400
   7 N :    0.084998
   8 N :    0.120858
   9 H :    0.195617
  10 H :    0.188777
  11 H :    0.191532
  12 H :    0.189075
  13 O :   -0.427939
  14 O :   -0.320595
  15 C :   -0.252565
  16 C :   -0.272484
  17 H :    0.145563
  18 H :    0.137610
  19 C :   -0.268425
  20 H :    0.136853
  21 H :    0.145639
  22 O :   -0.376883
  23 H :    0.140032
  24 H :    0.141668
  25 H :    0.130746
  26 H :    0.135346
  27 H :    0.152423
  28 H :    0.157958

  Mayer bond orders larger than 0.100000
B(  0-C ,  6-C ) :   0.9798 B(  0-C , 15-C ) :   0.9200 B(  0-C , 27-H ) :   0.9756
B(  0-C , 28-H ) :   0.9616 B(  1-C ,  2-C ) :   0.9601 B(  1-C , 16-C ) :   0.9925
B(  1-C , 17-H ) :   0.9704 B(  1-C , 18-H ) :   0.9684 B(  2-C ,  3-H ) :   0.9654
B(  2-C ,  4-H ) :   0.9586 B(  2-C ,  5-S ) :   0.9030 B(  5-S , 13-O ) :   1.5131
B(  5-S , 14-O ) :   1.9234 B(  5-S , 22-O ) :   1.6798 B(  6-C ,  7-N ) :   1.3945
B(  6-C ,  8-N ) :   1.5163 B(  7-N , 11-H ) :   0.9058 B(  7-N , 12-H ) :   0.8504
B(  8-N ,  9-H ) :   0.8937 B(  8-N , 10-H ) :   0.8470 B( 15-C , 19-C ) :   0.9472
B( 15-C , 20-H ) :   0.9937 B( 15-C , 21-H ) :   0.9684 B( 16-C , 19-C ) :   0.9283
B( 16-C , 25-H ) :   0.9629 B( 16-C , 26-H ) :   0.9669 B( 19-C , 23-H ) :   0.9753
B( 19-C , 24-H ) :   0.9653

Dispersion correction           -0.016427544
FINAL SINGLE POINT ENERGY     -1009.868297069951

DIPOLE MOMENT
-------------
                                X             Y             Z
Electronic contribution:      2.77545      -6.30469     -13.30223
Nuclear contribution   :     -1.90023       6.18953      17.82209
                        -----------------------------------------
Total Dipole Moment    :      0.87522      -0.11517       4.51986
                        -----------------------------------------
Magnitude (a.u.)       :      4.60526
Magnitude (Debye)      :     11.70564

Rotational constants in cm-1:     0.036337     0.018755     0.015005
Rotational constants in MHz :  1089.341704   562.266628   449.834770

                             ****ORCA TERMINATED NORMALLY****
TOTAL RUN TIME: 0 days 0 hours 1 minutes 4 seconds 649 msec
