                         Program Version 5.0.0 -  RELEASE  -
|  1> !wB97X-D3 RIJCOSX def2-TZVP def2/J TightSCF
|  2> *xyz 0 1
|  3> C          0.70466        1.44313       -4.50363
|  4> C          1.72854        1.42432       -5.63944
|  5> H          2.64672        1.95379       -5.38105
|  6> H          1.29992        1.93061       -6.50361
|  7> S          2.25263       -0.18811       -6.27184
|  8> F          3.56261       -0.44446       -5.63155
|  9> O          2.34494       -0.03374       -7.69650
| 10> C          1.05255        0.69566       -3.21491
| 11> H         -0.23248        1.03293       -4.88445
| 12> H          0.51170        2.49579       -4.26797
| 13> O          1.26606       -1.15918       -5.80536
| 14> H          1.24200       -0.33323       -3.43942
| 15> H          0.23391        0.76629       -2.52954
| 16> H          1.92506        1.13113       -2.77446
| 17> *
| 18>
| 19> %MaxCore 64000
| 20>
| 21> %pal nprocs 8
| 22> end
| 23>
| 24> %scf
| 25>   MaxIter 150
| 26> end
| 27>
| 28>
| 29>                          ****END OF INPUT****

CARTESIAN COORDINATES (ANGSTROEM)
---------------------------------
  C      0.704660    1.443130   -4.503630
  C      1.728540    1.424320   -5.639440
  H      2.646720    1.953790   -5.381050
  H      1.299920    1.930610   -6.503610
  S      2.252630   -0.188110   -6.271840
  F      3.562610   -0.444460   -5.631550
  O      2.344940   -0.033740   -7.696500
  C      1.052550    0.695660   -3.214910
  H     -0.232480    1.032930   -4.884450
  H      0.511700    2.495790   -4.267970
  O      1.266060   -1.159180   -5.805360
  H      1.242000   -0.333230   -3.439420
  H      0.233910    0.766290   -2.529540
  H      1.925060    1.131130   -2.774460

 Total Charge           Charge          ....    0
 Multiplicity           Mult            ....    1
 Number of Electrons    NEL             ....   66
 Basis Dimension        Dim             ....  265

ORBITAL ENERGIES
----------------

  NO   OCC          E(Eh)            E(eV)
   0   2.0000     -89.193342     -2427.0742
   1   2.0000     -24.886428      -677.1941
   2   2.0000     -19.244786      -523.6773
   3   2.0000     -19.237676      -523.4838
   4   2.0000     -10.335355      -281.2393
   5   2.0000     -10.302558      -280.3469
   6   2.0000     -10.270200      -279.4664
   7   2.0000      -8.256649      -224.6748
   8   2.0000      -6.214114      -169.0946
   9   2.0000      -6.207864      -168.9246
  10   2.0000      -6.207041      -168.9022
  11   2.0000      -1.468241       -39.9529
  12   2.0000      -1.227526       -33.4027
  13   2.0000      -1.133375       -30.8407
  14   2.0000      -0.946308       -25.7504
  15   2.0000      -0.864946       -23.5364
  16   2.0000      -0.808560       -22.0020
  17   2.0000      -0.742047       -20.1921
  18   2.0000      -0.673796       -18.3349
  19   2.0000      -0.667827       -18.1725
  20   2.0000      -0.654990       -17.8232
  21   2.0000      -0.598212       -16.2782
  22   2.0000      -0.580930       -15.8079
  23   2.0000      -0.552493       -15.0341
  24   2.0000      -0.545633       -14.8474
  25   2.0000      -0.534867       -14.5545
  26   2.0000      -0.492259       -13.3951
  27   2.0000      -0.477200       -12.9853
  28   2.0000      -0.467811       -12.7298
  29   2.0000      -0.453769       -12.3477
  30   2.0000      -0.430379       -11.7112
  31   2.0000      -0.420534       -11.4433
  32   2.0000      -0.411349       -11.1934
  33   0.0000       0.098434         2.6785
  34   0.0000       0.114979         3.1287
  35   0.0000       0.136470         3.7135
  36   0.0000       0.147473         4.0130
  37   0.0000       0.159637         4.3439

MULLIKEN ATOMIC CHARGES
-----------------------
   0 C :   -0.176103
   1 C :   -0.293961
   2 H :    0.144572
   3 H :    0.174637
   4 S :    0.897211
   5 F :   -0.126669
   6 O :   -0.423586
   7 C :   -0.364966
   8 H :    0.127568
   9 H :    0.114210
  10 O :   -0.445198
  11 H :    0.143473
  12 H :    0.123209
  13 H :    0.105604
Sum of atomic charges:    0.0000000

LOEWDIN ATOMIC CHARGES
----------------------
   0 C :   -0.306527
   1 C :   -0.368594
   2 H :    0.136469
   3 H :    0.150999
   4 S :    0.550973
   5 F :    0.050533
   6 O :   -0.262119
   7 C :   -0.304681
   8 H :    0.144570
   9 H :    0.142183
  10 O :   -0.286569
  11 H :    0.118833
  12 H :    0.120389
  13 H :    0.113541

  Mayer bond orders larger than 0.100000
B(  0-C ,  1-C ) :   0.9730 B(  0-C ,  7-C ) :   0.9741 B(  0-C ,  8-H ) :   0.9688
B(  0-C ,  9-H ) :   0.9566 B(  1-C ,  2-H ) :   0.9467 B(  1-C ,  3-H ) :   0.9442
B(  1-C ,  4-S ) :   0.9065 B(  4-S ,  5-F ) :   1.1064 B(  4-S ,  6-O ) :   1.9412
B(  4-S , 10-O ) :   1.8826 B(  7-C , 11-H ) :   0.9736 B(  7-C , 12-H ) :   0.9746
B(  7-C , 13-H ) :   0.9747

Dispersion correction           -0.004443396
FINAL SINGLE POINT ENERGY      -767.068868900255

DIPOLE MOMENT
-------------
                                X             Y             Z
Electronic contribution:      7.40528      -6.72882      -8.24021
Nuclear contribution   :     -7.21372       8.00417       9.21533
                        -----------------------------------------
Total Dipole Moment    :      0.19156       1.27535       0.97512
                        -----------------------------------------
Magnitude (a.u.)       :      1.61681
Magnitude (Debye)      :      4.10960

Rotational constants in cm-1:     0.129205     0.053290     0.050128
Rotational constants in MHz :  3873.458819  1597.595736  1502.810344

                             ****ORCA TERMINATED NORMALLY****
TOTAL RUN TIME: 0 days 0 hours 0 minutes 29 seconds 874 msec
