                         Program Version 5.0.0 -  RELEASE  -
|  1> !wB97X-D3 RIJCOSX def2-TZVP def2/J TightSCF
|  2> *xyz 0 1
|  3> C          2.91632       -1.24259       -1.54313
|  4> C          3.46659       -1.59097       -2.88908
|  5> C          4.65227       -1.14316       -3.25969
|  6> N          2.75226       -2.29204       -3.72803
|  7> H          1.77836       -2.48960       -3.51274
|  8> H          2.94861       -2.20854       -4.71681
|  9> H          5.14672       -0.51251       -2.63385
| 10> H          4.78303       -1.00720       -4.25350
| 11> C          2.80408        0.29070       -1.35924
| 12> C          2.38838        1.09367       -2.59711
| 13> H          3.76342        0.67472       -0.99989
| 14> H          2.09479        0.46122       -0.54576
| 15> H          1.94047       -1.71653       -1.44116
| 16> H          3.55857       -1.66343       -0.76637
| 17> H          3.08894        0.91965       -3.38694
| 18> H          2.37301        2.13633       -2.35728
| 19> H          1.41303        0.78551       -2.91115
| 20> *
| 21>
| 22> %MaxCore 64000
| 23>
| 24> %pal nprocs 8
| 25> end
| 26>
| 27> %scf
| 28>   MaxIter 150
| 29> end
| 30>
| 31>
| 32>                          ****END OF INPUT****

CARTESIAN COORDINATES (ANGSTROEM)
---------------------------------
  C      2.916320   -1.242590   -1.543130
  C      3.466590   -1.590970   -2.889080
  C      4.652270   -1.143160   -3.259690
  N      2.752260   -2.292040   -3.728030
  H      1.778360   -2.489600   -3.512740
  H      2.948610   -2.208540   -4.716810
  H      5.146720   -0.512510   -2.633850
  H      4.783030   -1.007200   -4.253500
  C      2.804080    0.290700   -1.359240
  C      2.388380    1.093670   -2.597110
  H      3.763420    0.674720   -0.999890
  H      2.094790    0.461220   -0.545760
  H      1.940470   -1.716530   -1.441160
  H      3.558570   -1.663430   -0.766370
  H      3.088940    0.919650   -3.386940
  H      2.373010    2.136330   -2.357280
  H      1.413030    0.785510   -2.911150

 Total Charge           Charge          ....    0
 Multiplicity           Mult            ....    1
 Number of Electrons    NEL             ....   48
 Basis Dimension        Dim             ....  252

ORBITAL ENERGIES
----------------

  NO   OCC          E(Eh)            E(eV)
   0   2.0000     -14.423219      -392.4757
   1   2.0000     -10.295671      -280.1595
   2   2.0000     -10.276235      -279.6306
   3   2.0000     -10.272699      -279.5344
   4   2.0000     -10.250788      -278.9381
   5   2.0000     -10.198165      -277.5062
   6   2.0000      -1.054706       -28.7000
   7   2.0000      -0.911817       -24.8118
   8   2.0000      -0.843006       -22.9394
   9   2.0000      -0.802071       -21.8254
  10   2.0000      -0.717412       -19.5218
  11   2.0000      -0.664834       -18.0911
  12   2.0000      -0.621101       -16.9010
  13   2.0000      -0.585116       -15.9218
  14   2.0000      -0.556840       -15.1524
  15   2.0000      -0.535247       -14.5648
  16   2.0000      -0.498787       -13.5727
  17   2.0000      -0.484916       -13.1952
  18   2.0000      -0.462569       -12.5871
  19   2.0000      -0.458767       -12.4837
  20   2.0000      -0.430080       -11.7031
  21   2.0000      -0.419338       -11.4108
  22   2.0000      -0.416185       -11.3250
  23   2.0000      -0.276569        -7.5258
  24   0.0000       0.103615         2.8195
  25   0.0000       0.110842         3.0162
  26   0.0000       0.142402         3.8750
  27   0.0000       0.149489         4.0678
  28   0.0000       0.163082         4.4377

MULLIKEN ATOMIC CHARGES
-----------------------
   0 C :   -0.200863
   1 C :    0.186111
   2 C :   -0.406963
   3 N :   -0.468797
   4 H :    0.233028
   5 H :    0.238555
   6 H :    0.094455
   7 H :    0.083547
   8 C :   -0.207352
   9 C :   -0.316979
  10 H :    0.108636
  11 H :    0.098456
  12 H :    0.088034
  13 H :    0.130643
  14 H :    0.124162
  15 H :    0.117570
  16 H :    0.097755
Sum of atomic charges:   -0.0000000

LOEWDIN ATOMIC CHARGES
----------------------
   0 C :   -0.213525
   1 C :   -0.373446
   2 C :   -0.284308
   3 N :    0.005962
   4 H :    0.168400
   5 H :    0.175186
   6 H :    0.105154
   7 H :    0.098871
   8 C :   -0.277415
   9 C :   -0.301985
  10 H :    0.134069
  11 H :    0.131225
  12 H :    0.133316
  13 H :    0.151130
  14 H :    0.120350
  15 H :    0.115157
  16 H :    0.111858

  Mayer bond orders larger than 0.100000
B(  0-C ,  1-C ) :   0.9196 B(  0-C ,  8-C ) :   0.9677 B(  0-C , 12-H ) :   0.9853
B(  0-C , 13-H ) :   0.9774 B(  1-C ,  2-C ) :   1.7447 B(  1-C ,  3-N ) :   1.1718
B(  2-C ,  6-H ) :   1.0121 B(  2-C ,  7-H ) :   0.9960 B(  3-N ,  4-H ) :   0.9236
B(  3-N ,  5-H ) :   0.9190 B(  8-C ,  9-C ) :   0.9739 B(  8-C , 10-H ) :   0.9772
B(  8-C , 11-H ) :   0.9789 B(  9-C , 14-H ) :   0.9727 B(  9-C , 15-H ) :   0.9779
B(  9-C , 16-H ) :   0.9820

Dispersion correction           -0.004829793
FINAL SINGLE POINT ENERGY      -251.889068583825

DIPOLE MOMENT
-------------
                                X             Y             Z
Electronic contribution:      0.55139      -3.81780      -0.94561
Nuclear contribution   :     -1.45921       3.88617       0.81775
                        -----------------------------------------
Total Dipole Moment    :     -0.90783       0.06836      -0.12787
                        -----------------------------------------
Magnitude (a.u.)       :      0.91933
Magnitude (Debye)      :      2.33676

Rotational constants in cm-1:     0.176264     0.082132     0.079980
Rotational constants in MHz :  5284.261828  2462.256672  2397.741351

                             ****ORCA TERMINATED NORMALLY****
TOTAL RUN TIME: 0 days 0 hours 0 minutes 31 seconds 963 msec
