                         Program Version 5.0.0 -  RELEASE  -
|  1> !wB97X-D3 RIJCOSX def2-TZVP def2/J TightSCF
|  2> *xyz 0 1
|  3> C          0.70466        1.44313       -4.50363
|  4> C          1.72854        1.42432       -5.63944
|  5> H          2.64672        1.95379       -5.38105
|  6> H          1.29992        1.93061       -6.50361
|  7> S          2.25263       -0.18811       -6.27184
|  8> O          3.56261       -0.44446       -5.63155
|  9> F          2.34494       -0.03374       -7.69650
| 10> C          1.05255        0.69566       -3.21491
| 11> H         -0.23248        1.03293       -4.88445
| 12> H          0.51170        2.49579       -4.26797
| 13> O          1.26606       -1.15918       -5.80536
| 14> H          1.24200       -0.33323       -3.43942
| 15> H          0.23391        0.76629       -2.52954
| 16> H          1.92506        1.13113       -2.77446
| 17> *
| 18>
| 19> %MaxCore 64000
| 20>
| 21> %pal nprocs 8
| 22> end
| 23>
| 24> %scf
| 25>   MaxIter 150
| 26> end
| 27>
| 28>
| 29>                          ****END OF INPUT****

CARTESIAN COORDINATES (ANGSTROEM)
---------------------------------
  C      0.704660    1.443130   -4.503630
  C      1.728540    1.424320   -5.639440
  H      2.646720    1.953790   -5.381050
  H      1.299920    1.930610   -6.503610
  S      2.252630   -0.188110   -6.271840
  O      3.562610   -0.444460   -5.631550
  F      2.344940   -0.033740   -7.696500
  C      1.052550    0.695660   -3.214910
  H     -0.232480    1.032930   -4.884450
  H      0.511700    2.495790   -4.267970
  O      1.266060   -1.159180   -5.805360
  H      1.242000   -0.333230   -3.439420
  H      0.233910    0.766290   -2.529540
  H      1.925060    1.131130   -2.774460

 Total Charge           Charge          ....    0
 Multiplicity           Mult            ....    1
 Number of Electrons    NEL             ....   66
 Basis Dimension        Dim             ....  265

ORBITAL ENERGIES
----------------

  NO   OCC          E(Eh)            E(eV)
   0   2.0000     -89.195462     -2427.1319
   1   2.0000     -24.910297      -677.8436
   2   2.0000     -19.238106      -523.4955
   3   2.0000     -19.229196      -523.2530
   4   2.0000     -10.336062      -281.2585
   5   2.0000     -10.302797      -280.3533
   6   2.0000     -10.263351      -279.2800
   7   2.0000      -8.258801      -224.7334
   8   2.0000      -6.216066      -169.1478
   9   2.0000      -6.209854      -168.9787
  10   2.0000      -6.209389      -168.9661
  11   2.0000      -1.506310       -40.9888
  12   2.0000      -1.213338       -33.0166
  13   2.0000      -1.113323       -30.2951
  14   2.0000      -0.945330       -25.7237
  15   2.0000      -0.870305       -23.6822
  16   2.0000      -0.819766       -22.3070
  17   2.0000      -0.745629       -20.2896
  18   2.0000      -0.696569       -18.9546
  19   2.0000      -0.688779       -18.7426
  20   2.0000      -0.655852       -17.8466
  21   2.0000      -0.592919       -16.1342
  22   2.0000      -0.582638       -15.8544
  23   2.0000      -0.555487       -15.1156
  24   2.0000      -0.541780       -14.7426
  25   2.0000      -0.519599       -14.1390
  26   2.0000      -0.484610       -13.1869
  27   2.0000      -0.469317       -12.7708
  28   2.0000      -0.465393       -12.6640
  29   2.0000      -0.449402       -12.2288
  30   2.0000      -0.422259       -11.4903
  31   2.0000      -0.411619       -11.2007
  32   2.0000      -0.396630       -10.7928
  33   0.0000       0.098376         2.6770
  34   0.0000       0.110807         3.0152
  35   0.0000       0.138350         3.7647
  36   0.0000       0.148951         4.0532
  37   0.0000       0.153946         4.1891

MULLIKEN ATOMIC CHARGES
-----------------------
   0 C :   -0.190192
   1 C :   -0.279828
   2 H :    0.162017
   3 H :    0.142034
   4 S :    0.887176
   5 O :   -0.453676
   6 F :   -0.097279
   7 C :   -0.346707
   8 H :    0.119175
   9 H :    0.116130
  10 O :   -0.437479
  11 H :    0.151746
  12 H :    0.118117
  13 H :    0.108766
Sum of atomic charges:    0.0000000

LOEWDIN ATOMIC CHARGES
----------------------
   0 C :   -0.303770
   1 C :   -0.371382
   2 H :    0.144652
   3 H :    0.135869
   4 S :    0.543125
   5 O :   -0.314732
   6 F :    0.105138
   7 C :   -0.298684
   8 H :    0.142499
   9 H :    0.143086
  10 O :   -0.283740
  11 H :    0.123107
  12 H :    0.118550
  13 H :    0.116284

  Mayer bond orders larger than 0.100000
B(  0-C ,  1-C ) :   0.9786 B(  0-C ,  7-C ) :   0.9861 B(  0-C ,  8-H ) :   0.9708
B(  0-C ,  9-H ) :   0.9576 B(  1-C ,  2-H ) :   0.9406 B(  1-C ,  3-H ) :   0.9464
B(  1-C ,  4-S ) :   0.9099 B(  4-S ,  5-O ) :   1.8836 B(  4-S ,  6-F ) :   1.1524
B(  4-S , 10-O ) :   1.8890 B(  7-C , 11-H ) :   0.9721 B(  7-C , 12-H ) :   0.9737
B(  7-C , 13-H ) :   0.9732

Dispersion correction           -0.004500499
FINAL SINGLE POINT ENERGY      -767.049222718419

DIPOLE MOMENT
-------------
                                X             Y             Z
Electronic contribution:      5.28382      -6.02723     -11.84586
Nuclear contribution   :     -5.90419       7.56246      11.43606
                        -----------------------------------------
Total Dipole Moment    :     -0.62036       1.53523      -0.40979
                        -----------------------------------------
Magnitude (a.u.)       :      1.70579
Magnitude (Debye)      :      4.33577

Rotational constants in cm-1:     0.133686     0.052402     0.049175
Rotational constants in MHz :  4007.807944  1570.986792  1474.216272

                             ****ORCA TERMINATED NORMALLY****
TOTAL RUN TIME: 0 days 0 hours 0 minutes 32 seconds 171 msec
