                         Program Version 5.0.0 -  RELEASE  -
|  1> !wB97X-D3 RIJCOSX def2-TZVP def2/J TightSCF
|  2> *xyz 0 1
|  3> C          2.91632       -1.24259       -1.54313
|  4> C          3.46659       -1.59097       -2.88908
|  5> N          4.65227       -1.14316       -3.25969
|  6> C          2.75226       -2.29204       -3.72803
|  7> H          1.77836       -2.48960       -3.51274
|  8> H          2.94861       -2.20854       -4.71681
|  9> H          5.14672       -0.51251       -2.63385
| 10> H          4.78303       -1.00720       -4.25350
| 11> C          2.80408        0.29070       -1.35924
| 12> C          2.38838        1.09367       -2.59711
| 13> H          3.76342        0.67472       -0.99989
| 14> H          2.09479        0.46122       -0.54576
| 15> H          1.94047       -1.71653       -1.44116
| 16> H          3.55857       -1.66343       -0.76637
| 17> H          3.08894        0.91965       -3.38694
| 18> H          2.37301        2.13633       -2.35728
| 19> H          1.41303        0.78551       -2.91115
| 20> *
| 21>
| 22> %MaxCore 64000
| 23>
| 24> %pal nprocs 8
| 25> end
| 26>
| 27> %scf
| 28>   MaxIter 150
| 29> end
| 30>
| 31>
| 32>                          ****END OF INPUT****

CARTESIAN COORDINATES (ANGSTROEM)
---------------------------------
  C      2.916320   -1.242590   -1.543130
  C      3.466590   -1.590970   -2.889080
  N      4.652270   -1.143160   -3.259690
  C      2.752260   -2.292040   -3.728030
  H      1.778360   -2.489600   -3.512740
  H      2.948610   -2.208540   -4.716810
  H      5.146720   -0.512510   -2.633850
  H      4.783030   -1.007200   -4.253500
  C      2.804080    0.290700   -1.359240
  C      2.388380    1.093670   -2.597110
  H      3.763420    0.674720   -0.999890
  H      2.094790    0.461220   -0.545760
  H      1.940470   -1.716530   -1.441160
  H      3.558570   -1.663430   -0.766370
  H      3.088940    0.919650   -3.386940
  H      2.373010    2.136330   -2.357280
  H      1.413030    0.785510   -2.911150

 Total Charge           Charge          ....    0
 Multiplicity           Mult            ....    1
 Number of Electrons    NEL             ....   48
 Basis Dimension        Dim             ....  252

ORBITAL ENERGIES
----------------

  NO   OCC          E(Eh)            E(eV)
   0   2.0000     -14.419537      -392.3756
   1   2.0000     -10.294051      -280.1154
   2   2.0000     -10.276757      -279.6448
   3   2.0000     -10.274219      -279.5757
   4   2.0000     -10.255438      -279.0647
   5   2.0000     -10.202987      -277.6374
   6   2.0000      -1.050123       -28.5753
   7   2.0000      -0.909768       -24.7560
   8   2.0000      -0.853341       -23.2206
   9   2.0000      -0.800455       -21.7815
  10   2.0000      -0.712024       -19.3752
  11   2.0000      -0.667263       -18.1572
  12   2.0000      -0.627711       -17.0809
  13   2.0000      -0.569981       -15.5100
  14   2.0000      -0.559998       -15.2383
  15   2.0000      -0.552188       -15.0258
  16   2.0000      -0.491401       -13.3717
  17   2.0000      -0.488190       -13.2843
  18   2.0000      -0.471732       -12.8365
  19   2.0000      -0.459443       -12.5021
  20   2.0000      -0.428073       -11.6485
  21   2.0000      -0.424012       -11.5379
  22   2.0000      -0.410171       -11.1613
  23   2.0000      -0.284739        -7.7482
  24   0.0000       0.099615         2.7107
  25   0.0000       0.113102         3.0777
  26   0.0000       0.146867         3.9965
  27   0.0000       0.153237         4.1698
  28   0.0000       0.161594         4.3972

MULLIKEN ATOMIC CHARGES
-----------------------
   0 C :   -0.198885
   1 C :    0.175289
   2 N :   -0.479191
   3 C :   -0.374223
   4 H :    0.089325
   5 H :    0.075321
   6 H :    0.240486
   7 H :    0.242595
   8 C :   -0.230111
   9 C :   -0.303914
  10 H :    0.099699
  11 H :    0.106661
  12 H :    0.113429
  13 H :    0.117134
  14 H :    0.096829
  15 H :    0.117551
  16 H :    0.112006
Sum of atomic charges:    0.0000000

LOEWDIN ATOMIC CHARGES
----------------------
   0 C :   -0.213828
   1 C :   -0.374133
   2 N :   -0.004218
   3 C :   -0.269920
   4 H :    0.105701
   5 H :    0.099837
   6 H :    0.170744
   7 H :    0.175209
   8 C :   -0.285524
   9 C :   -0.300766
  10 H :    0.127748
  11 H :    0.134475
  12 H :    0.147706
  13 H :    0.140960
  14 H :    0.113579
  15 H :    0.114574
  16 H :    0.117856

  Mayer bond orders larger than 0.100000
B(  0-C ,  1-C ) :   0.9512 B(  0-C ,  8-C ) :   0.9480 B(  0-C , 12-H ) :   0.9813
B(  0-C , 13-H ) :   0.9804 B(  1-C ,  2-N ) :   1.1268 B(  1-C ,  3-C ) :   1.8126
B(  2-N ,  6-H ) :   0.9282 B(  2-N ,  7-H ) :   0.9204 B(  3-C ,  4-H ) :   0.9977
B(  3-C ,  5-H ) :   0.9861 B(  8-C ,  9-C ) :   0.9708 B(  8-C , 10-H ) :   0.9829
B(  8-C , 11-H ) :   0.9762 B(  9-C , 14-H ) :   0.9764 B(  9-C , 15-H ) :   0.9776
B(  9-C , 16-H ) :   0.9767

Dispersion correction           -0.004878269
FINAL SINGLE POINT ENERGY      -251.893606492154

DIPOLE MOMENT
-------------
                                X             Y             Z
Electronic contribution:      2.20648      -2.80733      -0.53767
Nuclear contribution   :     -1.90863       3.61442       0.70697
                        -----------------------------------------
Total Dipole Moment    :      0.29785       0.80709       0.16930
                        -----------------------------------------
Magnitude (a.u.)       :      0.87679
Magnitude (Debye)      :      2.22863

Rotational constants in cm-1:     0.173428     0.083686     0.080523
Rotational constants in MHz :  5199.232598  2508.829970  2414.016775

                             ****ORCA TERMINATED NORMALLY****
TOTAL RUN TIME: 0 days 0 hours 0 minutes 30 seconds 972 msec
