                         Program Version 5.0.0 -  RELEASE  -
|  1> !wB97X-D3 RIJCOSX def2-TZVP def2/J TightSCF
|  2> *xyz 0 1
|  3> C          0.70466        1.44313       -4.50363
|  4> C          1.72854        1.42432       -5.63944
|  5> H          2.64672        1.95379       -5.38105
|  6> H          1.29992        1.93061       -6.50361
|  7> S          2.25263       -0.18811       -6.27184
|  8> O          3.56261       -0.44446       -5.63155
|  9> O          2.34494       -0.03374       -7.69650
| 10> C          1.05255        0.69566       -3.21491
| 11> H         -0.23248        1.03293       -4.88445
| 12> H          0.51170        2.49579       -4.26797
| 13> F          1.26606       -1.15918       -5.80536
| 14> H          1.24200       -0.33323       -3.43942
| 15> H          0.23391        0.76629       -2.52954
| 16> H          1.92506        1.13113       -2.77446
| 17> *
| 18>
| 19> %MaxCore 64000
| 20>
| 21> %pal nprocs 8
| 22> end
| 23>
| 24> %scf
| 25>   MaxIter 150
| 26> end
| 27>
| 28>
| 29>                          ****END OF INPUT****

CARTESIAN COORDINATES (ANGSTROEM)
---------------------------------
  C      0.704660    1.443130   -4.503630
  C      1.728540    1.424320   -5.639440
  H      2.646720    1.953790   -5.381050
  H      1.299920    1.930610   -6.503610
  S      2.252630   -0.188110   -6.271840
  O      3.562610   -0.444460   -5.631550
  O      2.344940   -0.033740   -7.696500
  C      1.052550    0.695660   -3.214910
  H     -0.232480    1.032930   -4.884450
  H      0.511700    2.495790   -4.267970
  F      1.266060   -1.159180   -5.805360
  H      1.242000   -0.333230   -3.439420
  H      0.233910    0.766290   -2.529540
  H      1.925060    1.131130   -2.774460

 Total Charge           Charge          ....    0
 Multiplicity           Mult            ....    1
 Number of Electrons    NEL             ....   66
 Basis Dimension        Dim             ....  265

ORBITAL ENERGIES
----------------

  NO   OCC          E(Eh)            E(eV)
   0   2.0000     -89.193240     -2427.0715
   1   2.0000     -24.897632      -677.4990
   2   2.0000     -19.244222      -523.6619
   3   2.0000     -19.227949      -523.2191
   4   2.0000     -10.334848      -281.2255
   5   2.0000     -10.309750      -280.5426
   6   2.0000     -10.278253      -279.6855
   7   2.0000      -8.256613      -224.6738
   8   2.0000      -6.214127      -169.0950
   9   2.0000      -6.207557      -168.9162
  10   2.0000      -6.207138      -168.9048
  11   2.0000      -1.485159       -40.4132
  12   2.0000      -1.222417       -33.2636
  13   2.0000      -1.120387       -30.4873
  14   2.0000      -0.951349       -25.8875
  15   2.0000      -0.867656       -23.6101
  16   2.0000      -0.816884       -22.2286
  17   2.0000      -0.749619       -20.3982
  18   2.0000      -0.692072       -18.8322
  19   2.0000      -0.681409       -18.5421
  20   2.0000      -0.645158       -17.5556
  21   2.0000      -0.595933       -16.2162
  22   2.0000      -0.579281       -15.7630
  23   2.0000      -0.564429       -15.3589
  24   2.0000      -0.546147       -14.8614
  25   2.0000      -0.531468       -14.4620
  26   2.0000      -0.492234       -13.3944
  27   2.0000      -0.482902       -13.1404
  28   2.0000      -0.473564       -12.8863
  29   2.0000      -0.459960       -12.5161
  30   2.0000      -0.425710       -11.5842
  31   2.0000      -0.412505       -11.2248
  32   2.0000      -0.402024       -10.9396
  33   0.0000       0.086572         2.3557
  34   0.0000       0.123823         3.3694
  35   0.0000       0.139827         3.8049
  36   0.0000       0.145499         3.9592
  37   0.0000       0.150482         4.0948

MULLIKEN ATOMIC CHARGES
-----------------------
   0 C :   -0.224064
   1 C :   -0.269622
   2 H :    0.166261
   3 H :    0.164626
   4 S :    0.890866
   5 O :   -0.461265
   6 O :   -0.419930
   7 C :   -0.333753
   8 H :    0.118488
   9 H :    0.119932
  10 F :   -0.113957
  11 H :    0.116517
  12 H :    0.125252
  13 H :    0.120650
Sum of atomic charges:   -0.0000000

LOEWDIN ATOMIC CHARGES
----------------------
   0 C :   -0.314679
   1 C :   -0.362393
   2 H :    0.149466
   3 H :    0.145019
   4 S :    0.546658
   5 O :   -0.318336
   6 O :   -0.260350
   7 C :   -0.300833
   8 H :    0.137946
   9 H :    0.144072
  10 F :    0.079498
  11 H :    0.113790
  12 H :    0.120028
  13 H :    0.120115

  Mayer bond orders larger than 0.100000
B(  0-C ,  1-C ) :   0.9807 B(  0-C ,  7-C ) :   0.9768 B(  0-C ,  8-H ) :   0.9751
B(  0-C ,  9-H ) :   0.9599 B(  1-C ,  2-H ) :   0.9416 B(  1-C ,  3-H ) :   0.9466
B(  1-C ,  4-S ) :   0.9114 B(  4-S ,  5-O ) :   1.8744 B(  4-S ,  6-O ) :   1.9426
B(  4-S , 10-F ) :   1.1184 B(  7-C , 11-H ) :   0.9780 B(  7-C , 12-H ) :   0.9737
B(  7-C , 13-H ) :   0.9723

Dispersion correction           -0.004474632
FINAL SINGLE POINT ENERGY      -767.058480492511

DIPOLE MOMENT
-------------
                                X             Y             Z
Electronic contribution:      3.39897      -7.90999      -8.50692
Nuclear contribution   :     -4.74391       8.77281       9.40225
                        -----------------------------------------
Total Dipole Moment    :     -1.34494       0.86281       0.89533
                        -----------------------------------------
Magnitude (a.u.)       :      1.83165
Magnitude (Debye)      :      4.65568

Rotational constants in cm-1:     0.129476     0.053470     0.050698
Rotational constants in MHz :  3881.594668  1602.990831  1519.898630

                             ****ORCA TERMINATED NORMALLY****
TOTAL RUN TIME: 0 days 0 hours 0 minutes 32 seconds 796 msec
