                         Program Version 5.0.0 -  RELEASE  -
|  1> !wB97X-D3 RIJCOSX def2-TZVP def2/J TightSCF xyzfile
|  2>
|  3> *xyzfile 0 1 D6.xyz
|  4>
|  5> %MaxCore 64000
|  6>
|  7> %pal nprocs 18
|  8> end
|  9>
| 10> %scf
| 11>   MaxIter 150
| 12> end
| 13>
| 14>
| 15>                          ****END OF INPUT****

CARTESIAN COORDINATES (ANGSTROEM)
---------------------------------
  C      2.916324   -1.242589   -1.543125
  C      0.704661    1.443129   -4.503630
  C      1.728539    1.424320   -5.639443
  H      2.646718    1.953794   -5.381054
  H      1.299916    1.930613   -6.503614
  S      2.252625   -0.188115   -6.271840
  C      3.466585   -1.590971   -2.889082
  N      4.652275   -1.143164   -3.259692
  C      2.752264   -2.292043   -3.728029
  H      1.778364   -2.489604   -3.512738
  H      2.948612   -2.208544   -4.716813
  H      5.146723   -0.512508   -2.633852
  H      4.783030   -1.007203   -4.253498
  O      3.562607   -0.444464   -5.631552
  O      2.344944   -0.033742   -7.696501
  C      2.804084    0.290698   -1.359243
  C      1.052550    0.695659   -3.214915
  H     -0.232483    1.032925   -4.884449
  H      0.511700    2.495794   -4.267966
  C      2.388380    1.093669   -2.597108
  H      3.763425    0.674718   -0.999889
  H      2.094788    0.461222   -0.545756
  F      1.266058   -1.159177   -5.805365
  H      3.167316    1.013242   -3.359430
  H      2.357690    2.149375   -2.310997
  H      1.039284   -0.368429   -3.449329
  H      0.250787    0.865605   -2.488283
  H      1.940472   -1.716529   -1.441161
  H      3.558569   -1.663433   -0.766371

 Total Charge           Charge          ....    0
 Multiplicity           Mult            ....    1
 Number of Electrons    NEL             ....  112
 Basis Dimension        Dim             ....  505

ORBITAL ENERGIES
----------------

  NO   OCC          E(Eh)            E(eV)
   0   2.0000     -89.201447     -2427.2948
   1   2.0000     -24.900257      -677.5704
   2   2.0000     -19.250794      -523.8407
   3   2.0000     -19.237264      -523.4726
   4   2.0000     -14.399110      -391.8197
   5   2.0000     -10.338187      -281.3164
   6   2.0000     -10.307694      -280.4866
   7   2.0000     -10.283591      -279.8308
   8   2.0000     -10.282547      -279.8023
   9   2.0000     -10.279894      -279.7301
  10   2.0000     -10.277612      -279.6680
  11   2.0000     -10.271716      -279.5076
  12   2.0000     -10.190723      -277.3037
  13   2.0000      -8.264710      -224.8942
  14   2.0000      -6.222120      -169.3125
  15   2.0000      -6.215732      -169.1387
  16   2.0000      -6.215307      -169.1271
  17   2.0000      -1.488542       -40.5053
  18   2.0000      -1.230557       -33.4852
  19   2.0000      -1.132458       -30.8158
  20   2.0000      -1.034410       -28.1477
  21   2.0000      -0.960142       -26.1268
  22   2.0000      -0.917311       -24.9613
  23   2.0000      -0.873654       -23.7733
  24   2.0000      -0.845180       -22.9985
  25   2.0000      -0.819742       -22.3063
  26   2.0000      -0.791160       -21.5285
  27   2.0000      -0.742643       -20.2084
  28   2.0000      -0.706712       -19.2306
  29   2.0000      -0.690146       -18.7798
  30   2.0000      -0.681520       -18.5451
  31   2.0000      -0.665638       -18.1129
  32   2.0000      -0.645467       -17.5640
  33   2.0000      -0.611339       -16.6354
  34   2.0000      -0.598350       -16.2819
  35   2.0000      -0.595493       -16.2042
  36   2.0000      -0.576639       -15.6912
  37   2.0000      -0.566232       -15.4080
  38   2.0000      -0.557883       -15.1808
  39   2.0000      -0.542892       -14.7729
  40   2.0000      -0.537053       -14.6140
  41   2.0000      -0.513809       -13.9815
  42   2.0000      -0.502999       -13.6873
  43   2.0000      -0.491682       -13.3793
  44   2.0000      -0.481909       -13.1134
  45   2.0000      -0.478525       -13.0213
  46   2.0000      -0.460995       -12.5443
  47   2.0000      -0.454926       -12.3792
  48   2.0000      -0.444896       -12.1062
  49   2.0000      -0.429060       -11.6753
  50   2.0000      -0.425115       -11.5680
  51   2.0000      -0.416814       -11.3421
  52   2.0000      -0.416020       -11.3205
  53   2.0000      -0.399817       -10.8796
  54   2.0000      -0.399056       -10.8589
  55   2.0000      -0.271693        -7.3931
  56   0.0000       0.085006         2.3131
  57   0.0000       0.105222         2.8632
  58   0.0000       0.113985         3.1017
  59   0.0000       0.126154         3.4328
  60   0.0000       0.130130         3.5410

MULLIKEN ATOMIC CHARGES
-----------------------
   0 C :   -0.213577
   1 C :   -0.210392
   2 C :   -0.311918
   3 H :    0.175595
   4 H :    0.179418
   5 S :    0.936459
   6 C :    0.205351
   7 N :   -0.462302
   8 C :   -0.438713
   9 H :    0.091295
  10 H :    0.080515
  11 H :    0.227441
  12 H :    0.262203
  13 O :   -0.492677
  14 O :   -0.419023
  15 C :   -0.280004
  16 C :   -0.244501
  17 H :    0.135658
  18 H :    0.123421
  19 C :   -0.143434
  20 H :    0.121635
  21 H :    0.107608
  22 F :   -0.107176
  23 H :    0.104529
  24 H :    0.105836
  25 H :    0.107515
  26 H :    0.111746
  27 H :    0.122477
  28 H :    0.125015
Sum of atomic charges:   -0.0000000

LOEWDIN ATOMIC CHARGES
----------------------
   0 C :   -0.214048
   1 C :   -0.287936
   2 C :   -0.356597
   3 H :    0.148630
   4 H :    0.146095
   5 S :    0.568147
   6 C :   -0.379551
   7 N :    0.002178
   8 C :   -0.291504
   9 H :    0.096159
  10 H :    0.089824
  11 H :    0.165431
  12 H :    0.170800
  13 O :   -0.304526
  14 O :   -0.253275
  15 C :   -0.259255
  16 C :   -0.269803
  17 H :    0.141869
  18 H :    0.146961
  19 C :   -0.267833
  20 H :    0.133680
  21 H :    0.136756
  22 F :    0.098812
  23 H :    0.136408
  24 H :    0.135751
  25 H :    0.138835
  26 H :    0.139401
  27 H :    0.146626
  28 H :    0.141966

  Mayer bond orders larger than 0.100000
B(  0-C ,  6-C ) :   0.9519 B(  0-C , 15-C ) :   0.9306 B(  0-C , 27-H ) :   0.9874
B(  0-C , 28-H ) :   0.9820 B(  1-C ,  2-C ) :   0.9632 B(  1-C , 16-C ) :   0.9579
B(  1-C , 17-H ) :   0.9848 B(  1-C , 18-H ) :   0.9592 B(  2-C ,  3-H ) :   0.9453
B(  2-C ,  4-H ) :   0.9491 B(  2-C ,  5-S ) :   0.9163 B(  5-S , 13-O ) :   1.7754
B(  5-S , 14-O ) :   1.9746 B(  5-S , 22-F ) :   1.1268 B(  6-C ,  7-N ) :   1.1539
B(  6-C ,  8-C ) :   1.7091 B(  7-N , 11-H ) :   0.9320 B(  7-N , 12-H ) :   0.9037
B(  8-C ,  9-H ) :   1.0230 B(  8-C , 10-H ) :   1.0179 B( 15-C , 19-C ) :   0.9586
B( 15-C , 20-H ) :   0.9924 B( 15-C , 21-H ) :   0.9737 B( 16-C , 19-C ) :   0.8969
B( 16-C , 25-H ) :   0.9948 B( 16-C , 26-H ) :   0.9674 B( 19-C , 23-H ) :   0.9749
B( 19-C , 24-H ) :   0.9689

Dispersion correction           -0.016292960
FINAL SINGLE POINT ENERGY     -1017.748274099154

DIPOLE MOMENT
-------------
                                X             Y             Z
Electronic contribution:     -0.45020      -5.32280     -18.67115
Nuclear contribution   :     -0.51418       6.96452      19.50670
                        -----------------------------------------
Total Dipole Moment    :     -0.96438       1.64172       0.83555
                        -----------------------------------------
Magnitude (a.u.)       :      2.07928
Magnitude (Debye)      :      5.28511

Rotational constants in cm-1:     0.036455     0.018603     0.015008
Rotational constants in MHz :  1092.895336   557.693628   449.926016

                             ****ORCA TERMINATED NORMALLY****
TOTAL RUN TIME: 0 days 0 hours 1 minutes 10 seconds 180 msec
