                         Program Version 5.0.0 -  RELEASE  -
|  1> !CAM-B3LYP RIJCOSX def2-SVPD def2/J TightSCF
|  2> *xyz -1 1
|  3> C          2.49670       -1.84416       -5.73570
|  4> O          2.45973       -0.50920       -5.50576
|  5> H          2.07863       -2.36209       -4.89793
|  6> H          3.51118       -2.15388       -5.87645
|  7> H          1.92949       -2.07059       -6.61428
|  8> *
|  9>
| 10> %MaxCore 64000
| 11>
| 12> %pal nprocs 4
| 13> end
| 14>
| 15> %scf
| 16>   MaxIter 150
| 17> end
| 18>
| 19>
| 20>                          ****END OF INPUT****

CARTESIAN COORDINATES (ANGSTROEM)
---------------------------------
  C      2.496700   -1.844160   -5.735700
  O      2.459730   -0.509200   -5.505760
  H      2.078630   -2.362090   -4.897930
  H      3.511180   -2.153880   -5.876450
  H      1.929490   -2.070590   -6.614280

 Total Charge           Charge          ....   -1
 Multiplicity           Mult            ....    1
 Number of Electrons    NEL             ....   18
 Basis Dimension        Dim             ....   67

ORBITAL ENERGIES
----------------

  NO   OCC          E(Eh)            E(eV)
   0   2.0000     -18.856804      -513.1197
   1   2.0000     -10.043984      -273.3107
   2   2.0000      -0.734493       -19.9866
   3   2.0000      -0.465864       -12.6768
   4   2.0000      -0.266787        -7.2596
   5   2.0000      -0.266778        -7.2594
   6   2.0000      -0.166420        -4.5285
   7   2.0000      -0.012570        -0.3421
   8   2.0000      -0.012553        -0.3416
   9   0.0000       0.226283         6.1575
  10   0.0000       0.299973         8.1627
  11   0.0000       0.299976         8.1628
  12   0.0000       0.309230         8.4146
  13   0.0000       0.345367         9.3979

MULLIKEN ATOMIC CHARGES
-----------------------
   0 C :    0.971967
   1 O :   -1.005597
   2 H :   -0.322231
   3 H :   -0.322095
   4 H :   -0.322044
Sum of atomic charges:   -1.0000000

LOEWDIN ATOMIC CHARGES
----------------------
   0 C :   -0.123388
   1 O :   -0.646129
   2 H :   -0.076855
   3 H :   -0.076829
   4 H :   -0.076800

  Mayer bond orders larger than 0.100000
B(  0-C ,  1-O ) :   1.2067 B(  0-C ,  2-H ) :   0.8725 B(  0-C ,  3-H ) :   0.8728
B(  0-C ,  4-H ) :   0.8728

FINAL SINGLE POINT ENERGY      -114.968068072912

DIPOLE MOMENT
-------------
                                X             Y             Z
Electronic contribution:     -0.04934       1.78117       0.30659
Nuclear contribution   :      0.07809      -2.81948      -0.48564
                        -----------------------------------------
Total Dipole Moment    :      0.02875      -1.03831      -0.17905
                        -----------------------------------------
Magnitude (a.u.)       :      1.05403
Magnitude (Debye)      :      2.67912

Rotational constants in cm-1:     5.477724     0.956378     0.956377
Rotational constants in MHz : 164218.041992 28671.483536 28671.460928

                             ****ORCA TERMINATED NORMALLY****
TOTAL RUN TIME: 0 days 0 hours 0 minutes 4 seconds 653 msec
