                         Program Version 5.0.0 -  RELEASE  -
|  1> !CAM-B3LYP RIJCOSX def2-SVPD def2/J TightSCF
|  2> *xyz 1 1
|  3> C          4.99986       -1.59613       -5.92488
|  4> N          5.28156       -1.97413       -4.53576
|  5> C          4.79250       -1.36132       -3.45730
|  6> N          3.93990       -0.37492       -3.55736
|  7> N          5.25986       -1.75422       -2.23913
|  8> H          5.92282       -2.52145       -2.18672
|  9> H          4.65468       -1.64040       -1.44202
| 10> H          5.70914       -2.87560       -4.38702
| 11> H          3.33010       -0.31764       -4.36125
| 12> H          3.69849        0.11447       -2.70833
| 13> H          5.52133       -2.25562       -6.58673
| 14> H          5.32493       -0.59081       -6.09388
| 15> H          3.94785       -1.66624       -6.10727
| 16> *
| 17>
| 18> %MaxCore 64000
| 19>
| 20> %pal nprocs 4
| 21> end
| 22>
| 23> %scf
| 24>   MaxIter 150
| 25> end
| 26>
| 27>
| 28>                          ****END OF INPUT****

CARTESIAN COORDINATES (ANGSTROEM)
---------------------------------
  C      4.999860   -1.596130   -5.924880
  N      5.281560   -1.974130   -4.535760
  C      4.792500   -1.361320   -3.457300
  N      3.939900   -0.374920   -3.557360
  N      5.259860   -1.754220   -2.239130
  H      5.922820   -2.521450   -2.186720
  H      4.654680   -1.640400   -1.442020
  H      5.709140   -2.875600   -4.387020
  H      3.330100   -0.317640   -4.361250
  H      3.698490    0.114470   -2.708330
  H      5.521330   -2.255620   -6.586730
  H      5.324930   -0.590810   -6.093880
  H      3.947850   -1.666240   -6.107270

 Total Charge           Charge          ....    1
 Multiplicity           Mult            ....    1
 Number of Electrons    NEL             ....   40
 Basis Dimension        Dim             ....  164

ORBITAL ENERGIES
----------------

  NO   OCC          E(Eh)            E(eV)
   0   2.0000     -14.639821      -398.3698
   1   2.0000     -14.636623      -398.2828
   2   2.0000     -14.628804      -398.0700
   3   2.0000     -10.604894      -288.5738
   4   2.0000     -10.466035      -284.7953
   5   2.0000      -1.297996       -35.3203
   6   2.0000      -1.185821       -32.2678
   7   2.0000      -1.169374       -31.8203
   8   2.0000      -0.982160       -26.7259
   9   2.0000      -0.905806       -24.6482
  10   2.0000      -0.867357       -23.6020
  11   2.0000      -0.824312       -22.4307
  12   2.0000      -0.776103       -21.1188
  13   2.0000      -0.768047       -20.8996
  14   2.0000      -0.726859       -19.7788
  15   2.0000      -0.705267       -19.1913
  16   2.0000      -0.663208       -18.0468
  17   2.0000      -0.649611       -17.6768
  18   2.0000      -0.552634       -15.0379
  19   2.0000      -0.524992       -14.2858
  20   0.0000      -0.136043        -3.7019
  21   0.0000      -0.122021        -3.3204
  22   0.0000      -0.087433        -2.3792
  23   0.0000      -0.080373        -2.1871
  24   0.0000      -0.055597        -1.5129

MULLIKEN ATOMIC CHARGES
-----------------------
   0 C :    1.257767
   1 N :   -0.439166
   2 C :    0.988757
   3 N :    0.134156
   4 N :    0.061683
   5 H :   -0.056439
   6 H :   -0.059011
   7 H :   -0.228453
   8 H :   -0.040503
   9 H :   -0.098547
  10 H :   -0.368477
  11 H :   -0.065313
  12 H :   -0.086455
Sum of atomic charges:    1.0000000

LOEWDIN ATOMIC CHARGES
----------------------
   0 C :    0.253498
   1 N :    0.025524
   2 C :   -0.043279
   3 N :    0.287975
   4 N :    0.264382
   5 H :    0.033426
   6 H :    0.027636
   7 H :    0.051358
   8 H :    0.036199
   9 H :    0.045244
  10 H :    0.012057
  11 H :    0.009035
  12 H :   -0.003057

  Mayer bond orders larger than 0.100000
B(  0-C ,  1-N ) :   0.9491 B(  0-C ,  7-H ) :  -0.1172 B(  0-C , 10-H ) :   0.7802
B(  0-C , 11-H ) :   0.7906 B(  0-C , 12-H ) :   0.8041 B(  1-N ,  2-C ) :   1.1140
B(  1-N ,  3-N ) :   0.2192 B(  1-N ,  4-N ) :   0.1842 B(  1-N ,  7-H ) :   1.2379
B(  1-N , 10-H ) :   0.1830 B(  1-N , 11-H ) :   0.1588 B(  1-N , 12-H ) :   0.1338
B(  2-C ,  3-N ) :   1.1260 B(  2-C ,  4-N ) :   0.9340 B(  2-C ,  5-H ) :  -0.1028
B(  2-C ,  7-H ) :  -0.1806 B(  2-C ,  8-H ) :  -0.1115 B(  3-N ,  4-N ) :   0.1325
B(  3-N ,  8-H ) :   1.1308 B(  3-N ,  9-H ) :   1.1691 B(  4-N ,  5-H ) :   1.0926
B(  4-N ,  6-H ) :   1.1513 B(  5-H ,  6-H ) :  -0.1303 B(  8-H ,  9-H ) :  -0.1792

FINAL SINGLE POINT ENERGY      -244.798001591929

DIPOLE MOMENT
-------------
                                X             Y             Z
Electronic contribution:      0.16338       0.11520       2.67470
Nuclear contribution   :     -0.59263      -0.40751      -2.24260
                        -----------------------------------------
Total Dipole Moment    :     -0.42925      -0.29232       0.43210
                        -----------------------------------------
Magnitude (a.u.)       :      0.67558
Magnitude (Debye)      :      1.71720

Rotational constants in cm-1:     0.316984     0.131419     0.095004
Rotational constants in MHz :  9502.926758  3939.829875  2848.138998

                             ****ORCA TERMINATED NORMALLY****
TOTAL RUN TIME: 0 days 0 hours 0 minutes 23 seconds 159 msec
