                         Program Version 5.0.0 -  RELEASE  -
|  1> !CAM-B3LYP RIJCOSX def2-SVPD def2/J TightSCF
|  2> *xyz 0 1
|  3> C          2.49670       -1.84416       -5.73570
|  4> F          2.45973       -0.50920       -5.50576
|  5> H          2.07863       -2.36209       -4.89793
|  6> H          3.51118       -2.15388       -5.87645
|  7> H          1.92949       -2.07059       -6.61428
|  8> *
|  9>
| 10> %MaxCore 64000
| 11>
| 12> %pal nprocs 4
| 13> end
| 14>
| 15> %scf
| 16>   MaxIter 150
| 17> end
| 18>
| 19>
| 20>                          ****END OF INPUT****

CARTESIAN COORDINATES (ANGSTROEM)
---------------------------------
  C      2.496700   -1.844160   -5.735700
  F      2.459730   -0.509200   -5.505760
  H      2.078630   -2.362090   -4.897930
  H      3.511180   -2.153880   -5.876450
  H      1.929490   -2.070590   -6.614280

 Total Charge           Charge          ....    0
 Multiplicity           Mult            ....    1
 Number of Electrons    NEL             ....   18
 Basis Dimension        Dim             ....   67

ORBITAL ENERGIES
----------------

  NO   OCC          E(Eh)            E(eV)
   0   2.0000     -24.759697      -673.7456
   1   2.0000     -10.330861      -281.1170
   2   2.0000      -1.271020       -34.5862
   3   2.0000      -0.781990       -21.2790
   4   2.0000      -0.574793       -15.6409
   5   2.0000      -0.569979       -15.5099
   6   2.0000      -0.569967       -15.5096
   7   2.0000      -0.421680       -11.4745
   8   2.0000      -0.421661       -11.4740
   9   0.0000       0.053634         1.4595
  10   0.0000       0.100565         2.7365
  11   0.0000       0.132538         3.6066
  12   0.0000       0.132544         3.6067
  13   0.0000       0.174465         4.7474

MULLIKEN ATOMIC CHARGES
-----------------------
   0 C :    1.048964
   1 F :   -0.469477
   2 H :   -0.193176
   3 H :   -0.193247
   4 H :   -0.193063
Sum of atomic charges:   -0.0000000

LOEWDIN ATOMIC CHARGES
----------------------
   0 C :    0.259089
   1 F :   -0.246627
   2 H :   -0.004167
   3 H :   -0.004162
   4 H :   -0.004134

  Mayer bond orders larger than 0.100000
B(  0-C ,  1-F ) :   0.8608 B(  0-C ,  2-H ) :   0.9074 B(  0-C ,  3-H ) :   0.9079
B(  0-C ,  4-H ) :   0.9079

FINAL SINGLE POINT ENERGY      -139.595224380407

DIPOLE MOMENT
-------------
                                X             Y             Z
Electronic contribution:     -0.07920       2.86090       0.49264
Nuclear contribution   :      0.09898      -3.57380      -0.61557
                        -----------------------------------------
Total Dipole Moment    :      0.01978      -0.71290      -0.12292
                        -----------------------------------------
Magnitude (a.u.)       :      0.72369
Magnitude (Debye)      :      1.83947

Rotational constants in cm-1:     5.477724     0.890368     0.890367
Rotational constants in MHz : 164218.041992 26692.553985 26692.534390

                             ****ORCA TERMINATED NORMALLY****
TOTAL RUN TIME: 0 days 0 hours 0 minutes 4 seconds 151 msec
