                         Program Version 5.0.0 -  RELEASE  -
|  1> !CAM-B3LYP RIJCOSX def2-SVPD def2/J TightSCF
|  2> *xyz 0 1
|  3> C          4.99986       -1.59613       -5.92488
|  4> C          5.28156       -1.97413       -4.53576
|  5> C          4.79250       -1.36132       -3.45730
|  6> N          3.93990       -0.37492       -3.55736
|  7> N          5.25986       -1.75422       -2.23913
|  8> H          5.92282       -2.52145       -2.18672
|  9> H          4.65468       -1.64040       -1.44202
| 10> H          5.70914       -2.87560       -4.38702
| 11> H          3.33010       -0.31764       -4.36125
| 12> H          3.69849        0.11447       -2.70833
| 13> H          5.52133       -2.25562       -6.58673
| 14> H          5.32493       -0.59081       -6.09388
| 15> H          3.94785       -1.66624       -6.10727
| 16> *
| 17>
| 18> %MaxCore 64000
| 19>
| 20> %pal nprocs 4
| 21> end
| 22>
| 23> %scf
| 24>   MaxIter 150
| 25> end
| 26>
| 27>
| 28>                          ****END OF INPUT****

CARTESIAN COORDINATES (ANGSTROEM)
---------------------------------
  C      4.999860   -1.596130   -5.924880
  C      5.281560   -1.974130   -4.535760
  C      4.792500   -1.361320   -3.457300
  N      3.939900   -0.374920   -3.557360
  N      5.259860   -1.754220   -2.239130
  H      5.922820   -2.521450   -2.186720
  H      4.654680   -1.640400   -1.442020
  H      5.709140   -2.875600   -4.387020
  H      3.330100   -0.317640   -4.361250
  H      3.698490    0.114470   -2.708330
  H      5.521330   -2.255620   -6.586730
  H      5.324930   -0.590810   -6.093880
  H      3.947850   -1.666240   -6.107270

 Total Charge           Charge          ....    0
 Multiplicity           Mult            ....    1
 Number of Electrons    NEL             ....   40
 Basis Dimension        Dim             ....  164

ORBITAL ENERGIES
----------------

  NO   OCC          E(Eh)            E(eV)
   0   2.0000     -14.410001      -392.1160
   1   2.0000     -14.399926      -391.8419
   2   2.0000     -10.301119      -280.3077
   3   2.0000     -10.223336      -278.1911
   4   2.0000     -10.183394      -277.1042
   5   2.0000      -1.037480       -28.2313
   6   2.0000      -0.942908       -25.6578
   7   2.0000      -0.826194       -22.4819
   8   2.0000      -0.728547       -19.8248
   9   2.0000      -0.656793       -17.8722
  10   2.0000      -0.616670       -16.7805
  11   2.0000      -0.573637       -15.6095
  12   2.0000      -0.547249       -14.8914
  13   2.0000      -0.499891       -13.6027
  14   2.0000      -0.476446       -12.9648
  15   2.0000      -0.442464       -12.0401
  16   2.0000      -0.426254       -11.5989
  17   2.0000      -0.404458       -11.0059
  18   2.0000      -0.332211        -9.0399
  19   2.0000      -0.219081        -5.9615
  20   0.0000       0.047881         1.3029
  21   0.0000       0.073953         2.0124
  22   0.0000       0.085774         2.3340
  23   0.0000       0.111764         3.0412
  24   0.0000       0.116703         3.1757

MULLIKEN ATOMIC CHARGES
-----------------------
   0 C :    0.961733
   1 C :   -0.636882
   2 C :    0.739978
   3 N :    0.209530
   4 N :    0.093042
   5 H :   -0.069492
   6 H :   -0.144776
   7 H :   -0.516312
   8 H :   -0.088737
   9 H :   -0.247705
  10 H :   -0.147888
  11 H :   -0.043098
  12 H :   -0.109395
Sum of atomic charges:   -0.0000000

LOEWDIN ATOMIC CHARGES
----------------------
   0 C :    0.086111
   1 C :   -0.059660
   2 C :   -0.239401
   3 N :    0.201922
   4 N :    0.180321
   5 H :   -0.002026
   6 H :   -0.025304
   7 H :   -0.063565
   8 H :    0.001421
   9 H :   -0.004889
  10 H :   -0.020810
  11 H :   -0.021189
  12 H :   -0.032931

  Mayer bond orders larger than 0.100000
B(  0-C ,  1-C ) :   1.2357 B(  0-C ,  7-H ) :   0.1710 B(  0-C , 10-H ) :   0.6869
B(  0-C , 11-H ) :   0.6260 B(  0-C , 12-H ) :   0.7235 B(  1-C ,  2-C ) :   1.4640
B(  1-C ,  3-N ) :   0.3121 B(  1-C ,  4-N ) :   0.3241 B(  1-C ,  7-H ) :   0.9484
B(  1-C , 10-H ) :   0.3300 B(  1-C , 11-H ) :   0.3379 B(  1-C , 12-H ) :   0.2063
B(  2-C ,  3-N ) :   1.0889 B(  2-C ,  4-N ) :   0.8759 B(  3-N ,  8-H ) :   1.1161
B(  3-N ,  9-H ) :   1.2252 B(  4-N ,  5-H ) :   1.0836 B(  4-N ,  6-H ) :   1.1243
B(  5-H ,  6-H ) :  -0.1142 B(  7-H , 10-H ) :  -0.1275 B(  8-H ,  9-H ) :  -0.1678
B( 10-H , 11-H ) :   0.1142

FINAL SINGLE POINT ENERGY      -228.332738535384

DIPOLE MOMENT
-------------
                                X             Y             Z
Electronic contribution:     -0.14134       0.59280       3.07354
Nuclear contribution   :     -0.50372      -0.52081      -2.36443
                        -----------------------------------------
Total Dipole Moment    :     -0.64506       0.07199       0.70912
                        -----------------------------------------
Magnitude (a.u.)       :      0.96132
Magnitude (Debye)      :      2.44347

Rotational constants in cm-1:     0.322219     0.132365     0.095965
Rotational constants in MHz :  9659.878542  3968.206057  2876.950547

                             ****ORCA TERMINATED NORMALLY****
TOTAL RUN TIME: 0 days 0 hours 0 minutes 24 seconds 337 msec
