                         Program Version 5.0.0 -  RELEASE  -
|  1> !CAM-B3LYP RIJCOSX def2-SVPD def2/J TightSCF
|  2> *xyz 0 1
|  3> C          4.99986       -1.59613       -5.92488
|  4> N          5.28156       -1.97413       -4.53576
|  5> C          4.79250       -1.36132       -3.45730
|  6> C          3.93990       -0.37492       -3.55736
|  7> N          5.25986       -1.75422       -2.23913
|  8> H          5.92282       -2.52145       -2.18672
|  9> H          4.65468       -1.64040       -1.44202
| 10> H          5.70914       -2.87560       -4.38702
| 11> H          3.33010       -0.31764       -4.36125
| 12> H          3.69849        0.11447       -2.70833
| 13> H          5.52133       -2.25562       -6.58673
| 14> H          5.32493       -0.59081       -6.09388
| 15> H          3.94785       -1.66624       -6.10727
| 16> *
| 17>
| 18> %MaxCore 64000
| 19>
| 20> %pal nprocs 4
| 21> end
| 22>
| 23> %scf
| 24>   MaxIter 150
| 25> end
| 26>
| 27>
| 28>                          ****END OF INPUT****

CARTESIAN COORDINATES (ANGSTROEM)
---------------------------------
  C      4.999860   -1.596130   -5.924880
  N      5.281560   -1.974130   -4.535760
  C      4.792500   -1.361320   -3.457300
  C      3.939900   -0.374920   -3.557360
  N      5.259860   -1.754220   -2.239130
  H      5.922820   -2.521450   -2.186720
  H      4.654680   -1.640400   -1.442020
  H      5.709140   -2.875600   -4.387020
  H      3.330100   -0.317640   -4.361250
  H      3.698490    0.114470   -2.708330
  H      5.521330   -2.255620   -6.586730
  H      5.324930   -0.590810   -6.093880
  H      3.947850   -1.666240   -6.107270

 Total Charge           Charge          ....    0
 Multiplicity           Mult            ....    1
 Number of Electrons    NEL             ....   40
 Basis Dimension        Dim             ....  164

ORBITAL ENERGIES
----------------

  NO   OCC          E(Eh)            E(eV)
   0   2.0000     -14.407895      -392.0587
   1   2.0000     -14.402455      -391.9107
   2   2.0000     -10.305444      -280.4254
   3   2.0000     -10.284431      -279.8536
   4   2.0000     -10.173718      -276.8409
   5   2.0000      -1.037791       -28.2397
   6   2.0000      -0.950810       -25.8729
   7   2.0000      -0.800635       -21.7864
   8   2.0000      -0.771812       -21.0021
   9   2.0000      -0.639162       -17.3925
  10   2.0000      -0.615603       -16.7514
  11   2.0000      -0.583378       -15.8745
  12   2.0000      -0.528480       -14.3807
  13   2.0000      -0.506071       -13.7709
  14   2.0000      -0.487245       -13.2586
  15   2.0000      -0.452737       -12.3196
  16   2.0000      -0.451703       -12.2915
  17   2.0000      -0.424203       -11.5432
  18   2.0000      -0.315851        -8.5947
  19   2.0000      -0.234007        -6.3677
  20   0.0000       0.047324         1.2877
  21   0.0000       0.068023         1.8510
  22   0.0000       0.084341         2.2950
  23   0.0000       0.111773         3.0415
  24   0.0000       0.116055         3.1580

MULLIKEN ATOMIC CHARGES
-----------------------
   0 C :    1.244411
   1 N :   -0.422782
   2 C :    0.520878
   3 C :    0.448838
   4 N :    0.124665
   5 H :   -0.188452
   6 H :   -0.076042
   7 H :   -0.358254
   8 H :   -0.268093
   9 H :   -0.455909
  10 H :   -0.454938
  11 H :   -0.078423
  12 H :   -0.035898
Sum of atomic charges:    0.0000000

LOEWDIN ATOMIC CHARGES
----------------------
   0 C :    0.206417
   1 N :   -0.045744
   2 C :   -0.244142
   3 C :    0.154991
   4 N :    0.186579
   5 H :   -0.016873
   6 H :   -0.007027
   7 H :    0.008551
   8 H :   -0.100936
   9 H :   -0.095707
  10 H :   -0.016262
  11 H :   -0.009827
  12 H :   -0.020021

  Mayer bond orders larger than 0.100000
B(  0-C ,  1-N ) :   0.9438 B(  0-C ,  7-H ) :  -0.1256 B(  0-C , 10-H ) :   0.7838
B(  0-C , 11-H ) :   0.7943 B(  0-C , 12-H ) :   0.8105 B(  1-N ,  2-C ) :   1.0529
B(  1-N ,  3-C ) :   0.3547 B(  1-N ,  4-N ) :   0.1311 B(  1-N ,  7-H ) :   1.2987
B(  1-N , 10-H ) :   0.1745 B(  1-N , 11-H ) :   0.1581 B(  1-N , 12-H ) :   0.1165
B(  2-C ,  3-C ) :   1.6937 B(  2-C ,  4-N ) :   0.9420 B(  2-C ,  7-H ) :  -0.1878
B(  2-C ,  8-H ) :   0.2130 B(  2-C ,  9-H ) :   0.2773 B(  3-C ,  4-N ) :   0.2424
B(  3-C ,  8-H ) :   0.7105 B(  3-C ,  9-H ) :   0.6870 B(  4-N ,  5-H ) :   1.0998
B(  4-N ,  6-H ) :   1.1171 B(  5-H ,  6-H ) :  -0.1208 B(  8-H ,  9-H ) :   0.1248

FINAL SINGLE POINT ENERGY      -228.323913001962

DIPOLE MOMENT
-------------
                                X             Y             Z
Electronic contribution:      1.10105      -0.86534       2.11092
Nuclear contribution   :     -0.77547      -0.19690      -2.16626
                        -----------------------------------------
Total Dipole Moment    :      0.32559      -1.06224      -0.05534
                        -----------------------------------------
Magnitude (a.u.)       :      1.11239
Magnitude (Debye)      :      2.82748

Rotational constants in cm-1:     0.340409     0.131955     0.097296
Rotational constants in MHz : 10205.195281  3955.909122  2916.861706

                             ****ORCA TERMINATED NORMALLY****
TOTAL RUN TIME: 0 days 0 hours 0 minutes 23 seconds 518 msec
