                         Program Version 5.0.0 -  RELEASE  -
|  1> !CAM-B3LYP RIJCOSX def2-SVPD def2/J TightSCF
|  2> *xyz 0 1
|  3> C          4.99986       -1.59613       -5.92488
|  4> N          5.28156       -1.97413       -4.53576
|  5> C          4.79250       -1.36132       -3.45730
|  6> N          3.93990       -0.37492       -3.55736
|  7> C          5.25986       -1.75422       -2.23913
|  8> H          5.92282       -2.52145       -2.18672
|  9> H          4.65468       -1.64040       -1.44202
| 10> H          5.70914       -2.87560       -4.38702
| 11> H          3.33010       -0.31764       -4.36125
| 12> H          3.69849        0.11447       -2.70833
| 13> H          5.52133       -2.25562       -6.58673
| 14> H          5.32493       -0.59081       -6.09388
| 15> H          3.94785       -1.66624       -6.10727
| 16> *
| 17>
| 18> %MaxCore 64000
| 19>
| 20> %pal nprocs 4
| 21> end
| 22>
| 23> %scf
| 24>   MaxIter 150
| 25> end
| 26>
| 27>
| 28>                          ****END OF INPUT****

CARTESIAN COORDINATES (ANGSTROEM)
---------------------------------
  C      4.999860   -1.596130   -5.924880
  N      5.281560   -1.974130   -4.535760
  C      4.792500   -1.361320   -3.457300
  N      3.939900   -0.374920   -3.557360
  C      5.259860   -1.754220   -2.239130
  H      5.922820   -2.521450   -2.186720
  H      4.654680   -1.640400   -1.442020
  H      5.709140   -2.875600   -4.387020
  H      3.330100   -0.317640   -4.361250
  H      3.698490    0.114470   -2.708330
  H      5.521330   -2.255620   -6.586730
  H      5.324930   -0.590810   -6.093880
  H      3.947850   -1.666240   -6.107270

 Total Charge           Charge          ....    0
 Multiplicity           Mult            ....    1
 Number of Electrons    NEL             ....   40
 Basis Dimension        Dim             ....  164

ORBITAL ENERGIES
----------------

  NO   OCC          E(Eh)            E(eV)
   0   2.0000     -14.411027      -392.1440
   1   2.0000     -14.407191      -392.0396
   2   2.0000     -10.310107      -280.5523
   3   2.0000     -10.293157      -280.0911
   4   2.0000     -10.167149      -276.6622
   5   2.0000      -1.048329       -28.5265
   6   2.0000      -0.962280       -26.1850
   7   2.0000      -0.815219       -22.1832
   8   2.0000      -0.737561       -20.0701
   9   2.0000      -0.677481       -18.4352
  10   2.0000      -0.617375       -16.7996
  11   2.0000      -0.567346       -15.4383
  12   2.0000      -0.551125       -14.9969
  13   2.0000      -0.524030       -14.2596
  14   2.0000      -0.474910       -12.9230
  15   2.0000      -0.459270       -12.4974
  16   2.0000      -0.450328       -12.2541
  17   2.0000      -0.419890       -11.4258
  18   2.0000      -0.323746        -8.8096
  19   2.0000      -0.217921        -5.9299
  20   0.0000       0.041518         1.1298
  21   0.0000       0.077581         2.1111
  22   0.0000       0.079354         2.1593
  23   0.0000       0.104315         2.8385
  24   0.0000       0.117159         3.1881

MULLIKEN ATOMIC CHARGES
-----------------------
   0 C :    1.294050
   1 N :   -0.377286
   2 C :    0.374118
   3 N :    0.187185
   4 C :    0.593769
   5 H :   -0.343178
   6 H :   -0.522104
   7 H :   -0.279724
   8 H :   -0.118335
   9 H :   -0.107443
  10 H :   -0.431194
  11 H :   -0.119495
  12 H :   -0.150362
Sum of atomic charges:   -0.0000000

LOEWDIN ATOMIC CHARGES
----------------------
   0 C :    0.200971
   1 N :   -0.032696
   2 C :   -0.242771
   3 N :    0.201039
   4 C :    0.137973
   5 H :   -0.113174
   6 H :   -0.119916
   7 H :    0.023948
   8 H :   -0.008980
   9 H :    0.012079
  10 H :   -0.014290
  11 H :   -0.015913
  12 H :   -0.028270

  Mayer bond orders larger than 0.100000
B(  0-C ,  1-N ) :   0.9434 B(  0-C ,  7-H ) :  -0.1362 B(  0-C , 10-H ) :   0.7567
B(  0-C , 11-H ) :   0.7989 B(  0-C , 12-H ) :   0.7998 B(  1-N ,  2-C ) :   1.1249
B(  1-N ,  3-N ) :   0.1694 B(  1-N ,  4-C ) :   0.2169 B(  1-N ,  7-H ) :   1.2092
B(  1-N , 10-H ) :   0.1840 B(  1-N , 11-H ) :   0.1474 B(  1-N , 12-H ) :   0.1636
B(  2-C ,  3-N ) :   1.1193 B(  2-C ,  4-C ) :   1.6467 B(  2-C ,  5-H ) :   0.2017
B(  2-C ,  6-H ) :   0.2106 B(  2-C ,  7-H ) :  -0.1396 B(  3-N ,  4-C ) :   0.2070
B(  3-N ,  8-H ) :   1.1167 B(  3-N ,  9-H ) :   1.1582 B(  4-C ,  5-H ) :   0.7260
B(  4-C ,  6-H ) :   0.6825 B(  5-H ,  6-H ) :   0.1578 B(  8-H ,  9-H ) :  -0.1730

FINAL SINGLE POINT ENERGY      -228.317029449847

DIPOLE MOMENT
-------------
                                X             Y             Z
Electronic contribution:     -0.16172       0.48503       0.77309
Nuclear contribution   :     -0.50812      -0.47627      -1.89926
                        -----------------------------------------
Total Dipole Moment    :     -0.66984       0.00877      -1.12616
                        -----------------------------------------
Magnitude (a.u.)       :      1.31035
Magnitude (Debye)      :      3.33063

Rotational constants in cm-1:     0.323645     0.137193     0.098606
Rotational constants in MHz :  9702.637007  4112.943433  2956.125886

                             ****ORCA TERMINATED NORMALLY****
TOTAL RUN TIME: 0 days 0 hours 0 minutes 25 seconds 122 msec
