                         Program Version 5.0.0 -  RELEASE  -
|  1> !B3LYP D3BJ RIJCOSX def2-TZVPD def2/J TightSCF
|  2> *xyz -1 1
|  3> C         -5.57236       -5.80780       -0.81644
|  4> S         -6.90318       -4.61903       -0.52846
|  5> O         -8.11485       -5.25093       -0.95701
|  6> O         -6.53271       -3.42684       -1.31485
|  7> O         -6.86563       -4.29496        0.91412
|  8> C         -4.45780       -5.94187        0.22919
|  9> H         -5.17735       -5.54257       -1.79771
| 10> H         -6.07420       -6.76889       -0.92127
| 11> H         -3.75515       -6.68239       -0.09144
| 12> H         -4.88182       -6.23486        1.16689
| 13> H         -3.95908       -5.00189        0.34143
| 14> *
| 15> %MaxCore 64000
| 16>
| 17> %pal nprocs 4
| 18> end
| 19>
| 20> %scf
| 21>   MaxIter 150
| 22> end
| 23>
| 24>                          ****END OF INPUT****

CARTESIAN COORDINATES (ANGSTROEM)
---------------------------------
  C     -5.572360   -5.807800   -0.816440
  S     -6.903180   -4.619030   -0.528460
  O     -8.114850   -5.250930   -0.957010
  O     -6.532710   -3.426840   -1.314850
  O     -6.865630   -4.294960    0.914120
  C     -4.457800   -5.941870    0.229190
  H     -5.177350   -5.542570   -1.797710
  H     -6.074200   -6.768890   -0.921270
  H     -3.755150   -6.682390   -0.091440
  H     -4.881820   -6.234860    1.166890
  H     -3.959080   -5.001890    0.341430

 Total Charge           Charge          ....   -1
 Multiplicity           Mult            ....    1
 Number of Electrons    NEL             ....   58
 Basis Dimension        Dim             ....  285

ORBITAL ENERGIES
----------------

  NO   OCC          E(Eh)            E(eV)
   0   2.0000     -88.838894     -2417.4292
   1   2.0000     -18.909579      -514.5558
   2   2.0000     -18.896024      -514.1869
   3   2.0000     -18.895217      -514.1650
   4   2.0000     -10.031413      -272.9686
   5   2.0000     -10.027110      -272.8515
   6   2.0000      -7.882209      -214.4858
   7   2.0000      -5.845756      -159.0711
   8   2.0000      -5.844695      -159.0422
   9   2.0000      -5.844491      -159.0367
  10   2.0000      -0.921083       -25.0639
  11   2.0000      -0.791518       -21.5383
  12   2.0000      -0.768366       -20.9083
  13   2.0000      -0.631378       -17.1807
  14   2.0000      -0.509527       -13.8649
  15   2.0000      -0.380830       -10.3629
  16   2.0000      -0.318659        -8.6711
  17   2.0000      -0.310995        -8.4626
  18   2.0000      -0.274567        -7.4714
  19   2.0000      -0.257927        -7.0186
  20   2.0000      -0.256704        -6.9853
  21   2.0000      -0.226274        -6.1572
  22   2.0000      -0.220691        -6.0053
  23   2.0000      -0.150343        -4.0911
  24   2.0000      -0.147873        -4.0238
  25   2.0000      -0.116834        -3.1792
  26   2.0000      -0.105658        -2.8751
  27   2.0000      -0.099667        -2.7121
  28   2.0000      -0.062958        -1.7132
  29   0.0000       0.120042         3.2665
  30   0.0000       0.144791         3.9400
  31   0.0000       0.152292         4.1441
  32   0.0000       0.162135         4.4119
  33   0.0000       0.176693         4.8081

MULLIKEN ATOMIC CHARGES
-----------------------
   0 C :   -0.402221
   1 S :    1.252327
   2 O :   -0.703792
   3 O :   -0.748414
   4 O :   -0.751448
   5 C :   -0.969584
   6 H :    0.251093
   7 H :    0.248673
   8 H :    0.300227
   9 H :    0.257885
  10 H :    0.265254
Sum of atomic charges:   -1.0000000

LOEWDIN ATOMIC CHARGES
----------------------
   0 C :   -0.315320
   1 S :    0.365748
   2 O :   -0.384680
   3 O :   -0.421038
   4 O :   -0.413922
   5 C :   -0.138979
   6 H :    0.075377
   7 H :    0.071528
   8 H :    0.046341
   9 H :    0.054947
  10 H :    0.059999

  Mayer bond orders larger than 0.100000
B(  0-C ,  1-S ) :   0.9019 B(  0-C ,  2-O ) :   0.1330 B(  0-C ,  3-O ) :   0.1304
B(  0-C ,  5-C ) :   0.5988 B(  0-C ,  6-H ) :   0.9813 B(  0-C ,  7-H ) :   0.9721
B(  1-S ,  2-O ) :   1.4983 B(  1-S ,  3-O ) :   1.4660 B(  1-S ,  4-O ) :   1.4504
B(  5-C ,  8-H ) :   0.9389 B(  5-C ,  9-H ) :   1.0048 B(  5-C , 10-H ) :   0.9883

Dispersion correction           -0.016451882
FINAL SINGLE POINT ENERGY      -703.119526836475

DIPOLE MOMENT
-------------
                                X             Y             Z
Electronic contribution:     -6.68240       4.31596      -0.91632
Nuclear contribution   :      8.13140      -5.68016       0.80206
                        -----------------------------------------
Total Dipole Moment    :      1.44900      -1.36420      -0.11426
                        -----------------------------------------
Magnitude (a.u.)       :      1.99342
Magnitude (Debye)      :      5.06686

Rotational constants in cm-1:     0.162101     0.080498     0.079099
Rotational constants in MHz :  4859.669771  2413.267251  2371.338602

                             ****ORCA TERMINATED NORMALLY****
TOTAL RUN TIME: 0 days 0 hours 0 minutes 36 seconds 735 msec
