                         Program Version 5.0.0 -  RELEASE  -
|  1> !B3LYP D3BJ RIJCOSX def2-TZVPD def2/J TightSCF
|  2> *xyz 1 1
|  3> C         -4.38262       -1.67089        1.21620
|  4> N         -5.76354       -1.91517        0.70501
|  5> C         -3.28173       -2.19127        0.29436
|  6> H         -5.84081       -2.11520       -0.30065
|  7> H         -6.40882       -1.14866        0.93612
|  8> H         -6.17478       -2.79061        1.05143
|  9> H         -4.32862       -2.13922        2.19810
| 10> H         -4.26158       -0.59740        1.35725
| 11> H         -3.36057       -1.71407       -0.66008
| 12> H         -3.38775       -3.24919        0.17403
| 13> H         -2.32559       -1.97514        0.72329
| 14> *
| 15> %MaxCore 64000
| 16>
| 17> %pal nprocs 4
| 18> end
| 19>
| 20> %scf
| 21>   MaxIter 150
| 22> end
| 23>
| 24>                          ****END OF INPUT****

CARTESIAN COORDINATES (ANGSTROEM)
---------------------------------
  C     -4.382620   -1.670890    1.216200
  N     -5.763540   -1.915170    0.705010
  C     -3.281730   -2.191270    0.294360
  H     -5.840810   -2.115200   -0.300650
  H     -6.408820   -1.148660    0.936120
  H     -6.174780   -2.790610    1.051430
  H     -4.328620   -2.139220    2.198100
  H     -4.261580   -0.597400    1.357250
  H     -3.360570   -1.714070   -0.660080
  H     -3.387750   -3.249190    0.174030
  H     -2.325590   -1.975140    0.723290

 Total Charge           Charge          ....    1
 Multiplicity           Mult            ....    1
 Number of Electrons    NEL             ....   26
 Basis Dimension        Dim             ....  183

ORBITAL ENERGIES
----------------

  NO   OCC          E(Eh)            E(eV)
   0   2.0000     -14.649961      -398.6457
   1   2.0000     -10.423065      -283.6260
   2   2.0000     -10.342182      -281.4251
   3   2.0000      -1.215488       -33.0751
   4   2.0000      -0.966545       -26.3010
   5   2.0000      -0.849555       -23.1176
   6   2.0000      -0.797043       -21.6886
   7   2.0000      -0.775909       -21.1136
   8   2.0000      -0.702845       -19.1254
   9   2.0000      -0.640847       -17.4383
  10   2.0000      -0.584140       -15.8952
  11   2.0000      -0.567427       -15.4405
  12   2.0000      -0.550072       -14.9682
  13   0.0000      -0.203804        -5.5458
  14   0.0000      -0.147054        -4.0015
  15   0.0000      -0.145451        -3.9579
  16   0.0000      -0.132047        -3.5932
  17   0.0000      -0.105862        -2.8807

MULLIKEN ATOMIC CHARGES
-----------------------
   0 C :   -0.251546
   1 N :   -0.274448
   2 C :   -1.090775
   3 H :    0.323554
   4 H :    0.337674
   5 H :    0.359220
   6 H :    0.285489
   7 H :    0.289016
   8 H :    0.356853
   9 H :    0.349720
  10 H :    0.315244
Sum of atomic charges:    1.0000000

LOEWDIN ATOMIC CHARGES
----------------------
   0 C :   -0.186962
   1 N :    0.183138
   2 C :   -0.048974
   3 H :    0.176879
   4 H :    0.181388
   5 H :    0.178775
   6 H :    0.132892
   7 H :    0.131710
   8 H :    0.080704
   9 H :    0.080042
  10 H :    0.090408

  Mayer bond orders larger than 0.100000
B(  0-C ,  1-N ) :   0.9729 B(  0-C ,  2-C ) :   0.6593 B(  0-C ,  6-H ) :   0.9409
B(  0-C ,  7-H ) :   0.9114 B(  1-N ,  3-H ) :   0.8696 B(  1-N ,  4-H ) :   0.8701
B(  1-N ,  5-H ) :   0.8537 B(  2-C ,  8-H ) :   0.9261 B(  2-C ,  9-H ) :   0.9476
B(  2-C , 10-H ) :   0.9618

Dispersion correction           -0.009932320
FINAL SINGLE POINT ENERGY      -135.501990441340

DIPOLE MOMENT
-------------
                                X             Y             Z
Electronic contribution:     -1.77989       0.24088       0.30834
Nuclear contribution   :      0.19437      -0.25358      -0.32106
                        -----------------------------------------
Total Dipole Moment    :     -1.58552      -0.01271      -0.01272
                        -----------------------------------------
Magnitude (a.u.)       :      1.58563
Magnitude (Debye)      :      4.03034

Rotational constants in cm-1:     1.030014     0.272489     0.242697
Rotational constants in MHz : 30879.030706  8169.007780  7275.865152

                             ****ORCA TERMINATED NORMALLY****
TOTAL RUN TIME: 0 days 0 hours 0 minutes 16 seconds 43 msec
