                         Program Version 5.0.0 -  RELEASE  -
|  1> !B3LYP D3BJ RIJCOSX def2-TZVPD def2/J TightSCF xyzfile
|  2>
|  3> *xyzfile 0 1 B.xyz
|  4>
|  5> %MaxCore 64000
|  6>
|  7> %pal nprocs 4
|  8> end
|  9>
| 10> %scf
| 11>   MaxIter 150
| 12> end
| 13>
| 14>
| 15>                          ****END OF INPUT****

CARTESIAN COORDINATES (ANGSTROEM)
---------------------------------
  C     -4.382623   -1.670889    1.216201
  N     -5.763539   -1.915170    0.705012
  C     -3.281728   -2.191272    0.294361
  C     -5.572364   -5.807798   -0.816445
  S     -6.903179   -4.619033   -0.528458
  H     -5.840812   -2.115205   -0.300646
  H     -6.408823   -1.148656    0.936124
  H     -6.174781   -2.790606    1.051433
  O     -8.114853   -5.250932   -0.957007
  O     -6.532715   -3.426838   -1.314848
  H     -4.328618   -2.139223    2.198103
  H     -4.261583   -0.597399    1.357248
  O     -6.865632   -4.294957    0.914118
  C     -3.474641   -3.605898   -0.259608
  H     -2.354548   -2.127602    0.871433
  H     -3.166611   -1.499693   -0.545037
  C     -3.827078   -4.661097    0.786174
  H     -2.560559   -3.889391   -0.788050
  H     -4.255932   -3.570040   -1.019300
  C     -4.457800   -5.941875    0.229195
  H     -5.177347   -5.542575   -1.797714
  H     -6.074202   -6.768894   -0.921272
  H     -4.530506   -4.253640    1.511979
  H     -2.933400   -4.932302    1.356825
  H     -3.681064   -6.562236   -0.229885
  H     -4.843942   -6.512728    1.075805

 Total Charge           Charge          ....    0
 Multiplicity           Mult            ....    1
 Number of Electrons    NEL             ....   98
 Basis Dimension        Dim             ....  560

ORBITAL ENERGIES
----------------

  NO   OCC          E(Eh)            E(eV)
   0   2.0000     -89.008386     -2422.0413
   1   2.0000     -19.080707      -519.2124
   2   2.0000     -19.076713      -519.1038
   3   2.0000     -19.065319      -518.7937
   4   2.0000     -14.420336      -392.3973
   5   2.0000     -10.256343      -279.0893
   6   2.0000     -10.203221      -277.6438
   7   2.0000     -10.177342      -276.9396
   8   2.0000     -10.174549      -276.8636
   9   2.0000     -10.172868      -276.8178
  10   2.0000     -10.171461      -276.7795
  11   2.0000      -8.052471      -219.1189
  12   2.0000      -6.016018      -163.7042
  13   2.0000      -6.015340      -163.6857
  14   2.0000      -6.014123      -163.6526
  15   2.0000      -1.096693       -29.8425
  16   2.0000      -1.006809       -27.3967
  17   2.0000      -0.960413       -26.1342
  18   2.0000      -0.957257       -26.0483
  19   2.0000      -0.831106       -22.6155
  20   2.0000      -0.791143       -21.5281
  21   2.0000      -0.741713       -20.1830
  22   2.0000      -0.690862       -18.7993
  23   2.0000      -0.637545       -17.3485
  24   2.0000      -0.600617       -16.3436
  25   2.0000      -0.587245       -15.9798
  26   2.0000      -0.574964       -15.6456
  27   2.0000      -0.538956       -14.6657
  28   2.0000      -0.512463       -13.9448
  29   2.0000      -0.489144       -13.3103
  30   2.0000      -0.483622       -13.1600
  31   2.0000      -0.468340       -12.7442
  32   2.0000      -0.448496       -12.2042
  33   2.0000      -0.439649       -11.9635
  34   2.0000      -0.431566       -11.7435
  35   2.0000      -0.421454       -11.4683
  36   2.0000      -0.417124       -11.3505
  37   2.0000      -0.388873       -10.5818
  38   2.0000      -0.377918       -10.2837
  39   2.0000      -0.373701       -10.1689
  40   2.0000      -0.346981        -9.4418
  41   2.0000      -0.340656        -9.2697
  42   2.0000      -0.333644        -9.0789
  43   2.0000      -0.323653        -8.8071
  44   2.0000      -0.317941        -8.6516
  45   2.0000      -0.282270        -7.6810
  46   2.0000      -0.276840        -7.5332
  47   2.0000      -0.269712        -7.3392
  48   2.0000      -0.245638        -6.6841
  49   0.0000      -0.031938        -0.8691
  50   0.0000      -0.000096        -0.0026
  51   0.0000       0.006124         0.1666
  52   0.0000       0.010470         0.2849
  53   0.0000       0.028822         0.7843

MULLIKEN ATOMIC CHARGES
-----------------------
   0 C :   -0.680820
   1 N :   -0.173003
   2 C :   -0.455218
   3 C :   -0.790094
   4 S :    1.375224
   5 H :    0.336753
   6 H :    0.319592
   7 H :    0.331279
   8 O :   -0.631953
   9 O :   -0.872214
  10 H :    0.349512
  11 H :    0.260505
  12 O :   -0.880712
  13 C :   -0.557807
  14 H :    0.249532
  15 H :    0.255163
  16 C :   -0.350138
  17 H :    0.307643
  18 H :    0.423383
  19 C :   -0.543414
  20 H :    0.367027
  21 H :    0.260348
  22 H :    0.310682
  23 H :    0.279348
  24 H :    0.235487
  25 H :    0.273895
Sum of atomic charges:   -0.0000000

LOEWDIN ATOMIC CHARGES
----------------------
   0 C :   -0.156706
   1 N :    0.156633
   2 C :   -0.175821
   3 C :   -0.231302
   4 S :    0.471299
   5 H :    0.100648
   6 H :    0.170372
   7 H :    0.062243
   8 O :   -0.309824
   9 O :   -0.388226
  10 H :    0.121680
  11 H :    0.118497
  12 O :   -0.369644
  13 C :   -0.196238
  14 H :    0.115661
  15 H :    0.113916
  16 C :   -0.206057
  17 H :    0.119103
  18 H :    0.084857
  19 C :   -0.209303
  20 H :    0.094715
  21 H :    0.094139
  22 H :    0.083297
  23 H :    0.115140
  24 H :    0.110009
  25 H :    0.110911

  Mayer bond orders larger than 0.100000
B(  0-C ,  1-N ) :   0.9835 B(  0-C ,  2-C ) :   0.8520 B(  0-C , 10-H ) :   0.9080
B(  0-C , 11-H ) :   0.9247 B(  0-C , 16-C ) :   0.1701 B(  1-N ,  5-H ) :   0.8191
B(  1-N ,  6-H ) :   0.8368 B(  1-N ,  7-H ) :   0.8628 B(  2-C , 13-C ) :   0.9012
B(  2-C , 14-H ) :   0.9503 B(  2-C , 15-H ) :   0.9648 B(  3-C ,  4-S ) :   0.8882
B(  3-C ,  8-O ) :   0.1882 B(  3-C ,  9-O ) :   0.1403 B(  3-C , 13-C ) :   0.1026
B(  3-C , 19-C ) :   0.8336 B(  3-C , 20-H ) :   0.8706 B(  3-C , 21-H ) :   0.9994
B(  4-S ,  8-O ) :   1.3510 B(  4-S ,  9-O ) :   1.3223 B(  4-S , 12-O ) :   1.3481
B(  9-O , 12-O ) :   0.1248 B(  9-O , 18-H ) :  -0.1070 B( 13-C , 16-C ) :   0.4207
B( 13-C , 17-H ) :   0.8971 B( 13-C , 18-H ) :   0.9832 B( 13-C , 19-C ) :   0.1973
B( 13-C , 22-H ) :  -0.1130 B( 16-C , 19-C ) :   0.9719 B( 16-C , 22-H ) :   0.9828
B( 16-C , 23-H ) :   0.9041 B( 19-C , 24-H ) :   0.9609 B( 19-C , 25-H ) :   0.9287

Dispersion correction           -0.051495159
FINAL SINGLE POINT ENERGY      -916.216491309152

DIPOLE MOMENT
-------------
                                X             Y             Z
Electronic contribution:    -13.53680      -2.93883      -3.68065
Nuclear contribution   :     16.18863       5.15617       4.97370
                        -----------------------------------------
Total Dipole Moment    :      2.65183       2.21734       1.29305
                        -----------------------------------------
Magnitude (a.u.)       :      3.69063
Magnitude (Debye)      :      9.38084

Rotational constants in cm-1:     0.048546     0.025588     0.020102
Rotational constants in MHz :  1455.374030   767.095631   602.645620

                             ****ORCA TERMINATED NORMALLY****
TOTAL RUN TIME: 0 days 0 hours 3 minutes 47 seconds 224 msec
