                         Program Version 5.0.0 -  RELEASE  -
|  1> !B3LYP D3BJ RIJCOSX def2-TZVPD def2/J TightSCF
|  2> *xyz 0 1
|  3> C         -5.57236       -5.80780       -0.81644
|  4> S         -6.90318       -4.61903       -0.52846
|  5> F         -8.11485       -5.25093       -0.95701
|  6> O         -6.53271       -3.42684       -1.31485
|  7> O         -6.86563       -4.29496        0.91412
|  8> C         -4.45780       -5.94187        0.22919
|  9> H         -5.17735       -5.54257       -1.79771
| 10> H         -6.07420       -6.76889       -0.92127
| 11> H         -3.75515       -6.68239       -0.09144
| 12> H         -4.88182       -6.23486        1.16689
| 13> H         -3.95908       -5.00189        0.34143
| 14> *
| 15> %MaxCore 64000
| 16>
| 17> %pal nprocs 4
| 18> end
| 19>
| 20> %scf
| 21>   MaxIter 150
| 22> end
| 23>
| 24>                          ****END OF INPUT****

CARTESIAN COORDINATES (ANGSTROEM)
---------------------------------
  C     -5.572360   -5.807800   -0.816440
  S     -6.903180   -4.619030   -0.528460
  F     -8.114850   -5.250930   -0.957010
  O     -6.532710   -3.426840   -1.314850
  O     -6.865630   -4.294960    0.914120
  C     -4.457800   -5.941870    0.229190
  H     -5.177350   -5.542570   -1.797710
  H     -6.074200   -6.768890   -0.921270
  H     -3.755150   -6.682390   -0.091440
  H     -4.881820   -6.234860    1.166890
  H     -3.959080   -5.001890    0.341430

 Total Charge           Charge          ....    0
 Multiplicity           Mult            ....    1
 Number of Electrons    NEL             ....   58
 Basis Dimension        Dim             ....  285

ORBITAL ENERGIES
----------------

  NO   OCC          E(Eh)            E(eV)
   0   2.0000     -89.101211     -2424.5672
   1   2.0000     -24.808861      -675.0834
   2   2.0000     -19.129931      -520.5519
   3   2.0000     -19.129788      -520.5480
   4   2.0000     -10.233155      -278.4583
   5   2.0000     -10.189116      -277.2599
   6   2.0000      -8.144960      -221.6356
   7   2.0000      -6.111721      -166.3084
   8   2.0000      -6.105402      -166.1364
   9   2.0000      -6.105049      -166.1268
  10   2.0000      -1.394597       -37.9489
  11   2.0000      -1.094015       -29.7697
  12   2.0000      -0.997745       -27.1500
  13   2.0000      -0.821558       -22.3557
  14   2.0000      -0.742437       -20.2028
  15   2.0000      -0.680719       -18.5233
  16   2.0000      -0.595168       -16.1953
  17   2.0000      -0.592983       -16.1359
  18   2.0000      -0.556090       -15.1320
  19   2.0000      -0.494291       -13.4503
  20   2.0000      -0.479548       -13.0492
  21   2.0000      -0.445160       -12.1134
  22   2.0000      -0.430235       -11.7073
  23   2.0000      -0.407364       -11.0849
  24   2.0000      -0.393262       -10.7012
  25   2.0000      -0.380192       -10.3456
  26   2.0000      -0.326715        -8.8904
  27   2.0000      -0.324151        -8.8206
  28   2.0000      -0.301945        -8.2163
  29   0.0000      -0.012674        -0.3449
  30   0.0000       0.003037         0.0826
  31   0.0000       0.022707         0.6179
  32   0.0000       0.024651         0.6708
  33   0.0000       0.040063         1.0902

MULLIKEN ATOMIC CHARGES
-----------------------
   0 C :   -0.396566
   1 S :    1.197175
   2 F :   -0.131684
   3 O :   -0.591703
   4 O :   -0.599187
   5 C :   -1.018642
   6 H :    0.303699
   7 H :    0.318734
   8 H :    0.315438
   9 H :    0.294472
  10 H :    0.308264
Sum of atomic charges:   -0.0000000

LOEWDIN ATOMIC CHARGES
----------------------
   0 C :   -0.273019
   1 S :    0.613008
   2 F :   -0.048766
   3 O :   -0.301195
   4 O :   -0.299201
   5 C :   -0.094624
   6 H :    0.096400
   7 H :    0.088643
   8 H :    0.072610
   9 H :    0.070028
  10 H :    0.076116

  Mayer bond orders larger than 0.100000
B(  0-C ,  1-S ) :   0.8911 B(  0-C ,  3-O ) :   0.1005 B(  0-C ,  5-C ) :   0.6767
B(  0-C ,  6-H ) :   0.9519 B(  0-C ,  7-H ) :   0.8820 B(  1-S ,  2-F ) :   1.0286
B(  1-S ,  3-O ) :   1.6631 B(  1-S ,  4-O ) :   1.6491 B(  5-C ,  8-H ) :   0.9302
B(  5-C ,  9-H ) :   0.9726 B(  5-C , 10-H ) :   0.9589

Dispersion correction           -0.015710489
FINAL SINGLE POINT ENERGY      -727.632047431289

DIPOLE MOMENT
-------------
                                X             Y             Z
Electronic contribution:     -9.38816       3.58072      -1.85219
Nuclear contribution   :      9.80704      -5.24335       1.35017
                        -----------------------------------------
Total Dipole Moment    :      0.41887      -1.66263      -0.50201
                        -----------------------------------------
Magnitude (a.u.)       :      1.78656
Magnitude (Debye)      :      4.54108

Rotational constants in cm-1:     0.156316     0.078308     0.076228
Rotational constants in MHz :  4686.224999  2347.601204  2285.245115

                             ****ORCA TERMINATED NORMALLY****
TOTAL RUN TIME: 0 days 0 hours 0 minutes 43 seconds 738 msec
