                         Program Version 5.0.0 -  RELEASE  -
|  1> !B3LYP D3BJ RIJCOSX def2-TZVPD def2/J TightSCF
|  2> *xyz 0 1
|  3> C         -4.38262       -1.67089        1.21620
|  4> C         -5.76354       -1.91517        0.70501
|  5> C         -3.28173       -2.19127        0.29436
|  6> H         -5.84081       -2.11520       -0.30065
|  7> H         -6.40882       -1.14866        0.93612
|  8> H         -6.17478       -2.79061        1.05143
|  9> H         -4.32862       -2.13922        2.19810
| 10> H         -4.26158       -0.59740        1.35725
| 11> H         -3.36057       -1.71407       -0.66008
| 12> H         -3.38775       -3.24919        0.17403
| 13> H         -2.32559       -1.97514        0.72329
| 14> *
| 15> %MaxCore 64000
| 16>
| 17> %pal nprocs 4
| 18> end
| 19>
| 20> %scf
| 21>   MaxIter 150
| 22> end
| 23>
| 24>                          ****END OF INPUT****

CARTESIAN COORDINATES (ANGSTROEM)
---------------------------------
  C     -4.382620   -1.670890    1.216200
  C     -5.763540   -1.915170    0.705010
  C     -3.281730   -2.191270    0.294360
  H     -5.840810   -2.115200   -0.300650
  H     -6.408820   -1.148660    0.936120
  H     -6.174780   -2.790610    1.051430
  H     -4.328620   -2.139220    2.198100
  H     -4.261580   -0.597400    1.357250
  H     -3.360570   -1.714070   -0.660080
  H     -3.387750   -3.249190    0.174030
  H     -2.325590   -1.975140    0.723290

 Total Charge           Charge          ....    0
 Multiplicity           Mult            ....    1
 Number of Electrons    NEL             ....   26
 Basis Dimension        Dim             ....  183

ORBITAL ENERGIES
----------------

  NO   OCC          E(Eh)            E(eV)
   0   2.0000     -10.154899      -276.3288
   1   2.0000     -10.145490      -276.0728
   2   2.0000     -10.126437      -275.5544
   3   2.0000      -0.786740       -21.4083
   4   2.0000      -0.691312       -18.8116
   5   2.0000      -0.589545       -16.0423
   6   2.0000      -0.461749       -12.5648
   7   2.0000      -0.440812       -11.9951
   8   2.0000      -0.409528       -11.1438
   9   2.0000      -0.385382       -10.4868
  10   2.0000      -0.340947        -9.2776
  11   2.0000      -0.333738        -9.0815
  12   2.0000      -0.322151        -8.7662
  13   0.0000       0.012413         0.3378
  14   0.0000       0.036304         0.9879
  15   0.0000       0.039331         1.0703
  16   0.0000       0.060036         1.6337
  17   0.0000       0.083828         2.2811

MULLIKEN ATOMIC CHARGES
-----------------------
   0 C :    0.087759
   1 C :   -1.286291
   2 C :   -1.109096
   3 H :    0.366760
   4 H :    0.314840
   5 H :    0.347470
   6 H :    0.194941
   7 H :    0.213725
   8 H :    0.297479
   9 H :    0.289439
  10 H :    0.282974
Sum of atomic charges:    0.0000000

LOEWDIN ATOMIC CHARGES
----------------------
   0 C :   -0.301858
   1 C :   -0.121823
   2 C :   -0.110064
   3 H :    0.049816
   4 H :    0.050685
   5 H :    0.049669
   6 H :    0.099620
   7 H :    0.097987
   8 H :    0.063848
   9 H :    0.064093
  10 H :    0.058025

  Mayer bond orders larger than 0.100000
B(  0-C ,  1-C ) :   0.6630 B(  0-C ,  2-C ) :   0.5975 B(  0-C ,  6-H ) :   0.9864
B(  0-C ,  7-H ) :   0.9780 B(  1-C ,  2-C ) :   0.1672 B(  1-C ,  3-H ) :   0.8953
B(  1-C ,  4-H ) :   0.9383 B(  1-C ,  5-H ) :   0.9493 B(  2-C ,  8-H ) :   0.9820
B(  2-C ,  9-H ) :   0.9904 B(  2-C , 10-H ) :   0.9851

Dispersion correction           -0.010011161
FINAL SINGLE POINT ENERGY      -119.090914530311

DIPOLE MOMENT
-------------
                                X             Y             Z
Electronic contribution:      0.18800       0.23941       0.33963
Nuclear contribution   :     -0.21528      -0.24783      -0.32864
                        -----------------------------------------
Total Dipole Moment    :     -0.02727      -0.00842       0.01098
                        -----------------------------------------
Magnitude (a.u.)       :      0.03058
Magnitude (Debye)      :      0.07773

Rotational constants in cm-1:     1.037566     0.286459     0.254172
Rotational constants in MHz : 31105.431429  8587.814531  7619.871198

                             ****ORCA TERMINATED NORMALLY****
TOTAL RUN TIME: 0 days 0 hours 0 minutes 17 seconds 840 msec
