                         Program Version 5.0.0 -  RELEASE  -
|  1> !B3LYP D3BJ RIJCOSX def2-TZVPD def2/J TightSCF
|  2> *xyz 0 1
|  3> C         -5.57236       -5.80780       -0.81644
|  4> S         -6.90318       -4.61903       -0.52846
|  5> O         -8.11485       -5.25093       -0.95701
|  6> F         -6.53271       -3.42684       -1.31485
|  7> O         -6.86563       -4.29496        0.91412
|  8> C         -4.45780       -5.94187        0.22919
|  9> H         -5.17735       -5.54257       -1.79771
| 10> H         -6.07420       -6.76889       -0.92127
| 11> H         -3.75515       -6.68239       -0.09144
| 12> H         -4.88182       -6.23486        1.16689
| 13> H         -3.95908       -5.00189        0.34143
| 14> *
| 15> %MaxCore 64000
| 16>
| 17> %pal nprocs 4
| 18> end
| 19>
| 20> %scf
| 21>   MaxIter 150
| 22> end
| 23>
| 24>                          ****END OF INPUT****

CARTESIAN COORDINATES (ANGSTROEM)
---------------------------------
  C     -5.572360   -5.807800   -0.816440
  S     -6.903180   -4.619030   -0.528460
  O     -8.114850   -5.250930   -0.957010
  F     -6.532710   -3.426840   -1.314850
  O     -6.865630   -4.294960    0.914120
  C     -4.457800   -5.941870    0.229190
  H     -5.177350   -5.542570   -1.797710
  H     -6.074200   -6.768890   -0.921270
  H     -3.755150   -6.682390   -0.091440
  H     -4.881820   -6.234860    1.166890
  H     -3.959080   -5.001890    0.341430

 Total Charge           Charge          ....    0
 Multiplicity           Mult            ....    1
 Number of Electrons    NEL             ....   58
 Basis Dimension        Dim             ....  285

ORBITAL ENERGIES
----------------

  NO   OCC          E(Eh)            E(eV)
   0   2.0000     -89.098853     -2424.5031
   1   2.0000     -24.786660      -674.4793
   2   2.0000     -19.143873      -520.9313
   3   2.0000     -19.129549      -520.5415
   4   2.0000     -10.232480      -278.4399
   5   2.0000     -10.188600      -277.2459
   6   2.0000      -8.142658      -221.5730
   7   2.0000      -6.109513      -166.2483
   8   2.0000      -6.103217      -166.0770
   9   2.0000      -6.102677      -166.0623
  10   2.0000      -1.357932       -36.9512
  11   2.0000      -1.111269       -30.2392
  12   2.0000      -1.013089       -27.5675
  13   2.0000      -0.821132       -22.3441
  14   2.0000      -0.728172       -19.8146
  15   2.0000      -0.673009       -18.3135
  16   2.0000      -0.578322       -15.7369
  17   2.0000      -0.567651       -15.4466
  18   2.0000      -0.551781       -15.0147
  19   2.0000      -0.492970       -13.4144
  20   2.0000      -0.480893       -13.0858
  21   2.0000      -0.455496       -12.3947
  22   2.0000      -0.433368       -11.7926
  23   2.0000      -0.405020       -11.0212
  24   2.0000      -0.401301       -10.9200
  25   2.0000      -0.384809       -10.4712
  26   2.0000      -0.340011        -9.2522
  27   2.0000      -0.327932        -8.9235
  28   2.0000      -0.314465        -8.5570
  29   0.0000      -0.012789        -0.3480
  30   0.0000       0.008040         0.2188
  31   0.0000       0.021579         0.5872
  32   0.0000       0.024231         0.6594
  33   0.0000       0.039081         1.0634

MULLIKEN ATOMIC CHARGES
-----------------------
   0 C :   -0.399028
   1 S :    1.200637
   2 O :   -0.565337
   3 F :   -0.173909
   4 O :   -0.600765
   5 C :   -0.993219
   6 H :    0.335630
   7 H :    0.288813
   8 H :    0.315301
   9 H :    0.293292
  10 H :    0.298584
Sum of atomic charges:    0.0000000

LOEWDIN ATOMIC CHARGES
----------------------
   0 C :   -0.267890
   1 S :    0.613784
   2 O :   -0.268744
   3 F :   -0.083630
   4 O :   -0.298196
   5 C :   -0.100251
   6 H :    0.092654
   7 H :    0.098453
   8 H :    0.071385
   9 H :    0.071223
  10 H :    0.071211

  Mayer bond orders larger than 0.100000
B(  0-C ,  1-S ) :   0.8910 B(  0-C ,  2-O ) :   0.1114 B(  0-C ,  5-C ) :   0.6612
B(  0-C ,  6-H ) :   0.8796 B(  0-C ,  7-H ) :   0.9525 B(  1-S ,  2-O ) :   1.6937
B(  1-S ,  3-F ) :   0.9889 B(  1-S ,  4-O ) :   1.6445 B(  2-O ,  4-O ) :   0.1005
B(  5-C ,  8-H ) :   0.9397 B(  5-C ,  9-H ) :   0.9890 B(  5-C , 10-H ) :   0.9506

Dispersion correction           -0.015687011
FINAL SINGLE POINT ENERGY      -727.650406039839

DIPOLE MOMENT
-------------
                                X             Y             Z
Electronic contribution:     -6.71859       6.67444      -2.47640
Nuclear contribution   :      8.15840      -7.14411       1.72305
                        -----------------------------------------
Total Dipole Moment    :      1.43981      -0.46966      -0.75335
                        -----------------------------------------
Magnitude (a.u.)       :      1.69150
Magnitude (Debye)      :      4.29944

Rotational constants in cm-1:     0.153926     0.078297     0.077402
Rotational constants in MHz :  4614.585804  2347.272644  2320.438903

                             ****ORCA TERMINATED NORMALLY****
TOTAL RUN TIME: 0 days 0 hours 0 minutes 40 seconds 367 msec
