                         Program Version 5.0.0 -  RELEASE  -
|  1> !B3LYP D3BJ RIJCOSX def2-TZVPD def2/J TightSCF
|  2> *xyz 0 1
|  3> C         -5.57236       -5.80780       -0.81644
|  4> S         -6.90318       -4.61903       -0.52846
|  5> O         -8.11485       -5.25093       -0.95701
|  6> O         -6.53271       -3.42684       -1.31485
|  7> F         -6.86563       -4.29496        0.91412
|  8> C         -4.45780       -5.94187        0.22919
|  9> H         -5.17735       -5.54257       -1.79771
| 10> H         -6.07420       -6.76889       -0.92127
| 11> H         -3.75515       -6.68239       -0.09144
| 12> H         -4.88182       -6.23486        1.16689
| 13> H         -3.95908       -5.00189        0.34143
| 14> *
| 15> %MaxCore 64000
| 16>
| 17> %pal nprocs 4
| 18> end
| 19>
| 20> %scf
| 21>   MaxIter 150
| 22> end
| 23>
| 24>                          ****END OF INPUT****

CARTESIAN COORDINATES (ANGSTROEM)
---------------------------------
  C     -5.572360   -5.807800   -0.816440
  S     -6.903180   -4.619030   -0.528460
  O     -8.114850   -5.250930   -0.957010
  O     -6.532710   -3.426840   -1.314850
  F     -6.865630   -4.294960    0.914120
  C     -4.457800   -5.941870    0.229190
  H     -5.177350   -5.542570   -1.797710
  H     -6.074200   -6.768890   -0.921270
  H     -3.755150   -6.682390   -0.091440
  H     -4.881820   -6.234860    1.166890
  H     -3.959080   -5.001890    0.341430

 Total Charge           Charge          ....    0
 Multiplicity           Mult            ....    1
 Number of Electrons    NEL             ....   58
 Basis Dimension        Dim             ....  285

ORBITAL ENERGIES
----------------

  NO   OCC          E(Eh)            E(eV)
   0   2.0000     -89.098380     -2424.4902
   1   2.0000     -24.785432      -674.4459
   2   2.0000     -19.143614      -520.9242
   3   2.0000     -19.128881      -520.5233
   4   2.0000     -10.231771      -278.4206
   5   2.0000     -10.195622      -277.4370
   6   2.0000      -8.142223      -221.5611
   7   2.0000      -6.109162      -166.2388
   8   2.0000      -6.102577      -166.0596
   9   2.0000      -6.102374      -166.0540
  10   2.0000      -1.355194       -36.8767
  11   2.0000      -1.111861       -30.2553
  12   2.0000      -1.013784       -27.5865
  13   2.0000      -0.823933       -22.4203
  14   2.0000      -0.725512       -19.7422
  15   2.0000      -0.677216       -18.4280
  16   2.0000      -0.583426       -15.8758
  17   2.0000      -0.566718       -15.4212
  18   2.0000      -0.544563       -14.8183
  19   2.0000      -0.497471       -13.5369
  20   2.0000      -0.474886       -12.9223
  21   2.0000      -0.451834       -12.2950
  22   2.0000      -0.446432       -12.1480
  23   2.0000      -0.414201       -11.2710
  24   2.0000      -0.400074       -10.8866
  25   2.0000      -0.387444       -10.5429
  26   2.0000      -0.340647        -9.2695
  27   2.0000      -0.326396        -8.8817
  28   2.0000      -0.314107        -8.5473
  29   0.0000      -0.018141        -0.4936
  30   0.0000       0.016107         0.4383
  31   0.0000       0.020045         0.5454
  32   0.0000       0.026960         0.7336
  33   0.0000       0.038998         1.0612

MULLIKEN ATOMIC CHARGES
-----------------------
   0 C :   -0.319130
   1 S :    1.210028
   2 O :   -0.563474
   3 O :   -0.600828
   4 F :   -0.186547
   5 C :   -1.075003
   6 H :    0.293075
   7 H :    0.299663
   8 H :    0.303648
   9 H :    0.317960
  10 H :    0.320607
Sum of atomic charges:    0.0000000

LOEWDIN ATOMIC CHARGES
----------------------
   0 C :   -0.264122
   1 S :    0.612713
   2 O :   -0.268523
   3 O :   -0.302723
   4 F :   -0.082710
   5 C :   -0.102981
   6 H :    0.102691
   7 H :    0.094449
   8 H :    0.072011
   9 H :    0.067084
  10 H :    0.072110

  Mayer bond orders larger than 0.100000
B(  0-C ,  1-S ) :   0.8720 B(  0-C ,  2-O ) :   0.1053 B(  0-C ,  5-C ) :   0.6087
B(  0-C ,  6-H ) :   0.9443 B(  0-C ,  7-H ) :   0.9372 B(  1-S ,  2-O ) :   1.6935
B(  1-S ,  3-O ) :   1.6561 B(  1-S ,  4-F ) :   0.9848 B(  5-C ,  8-H ) :   0.9591
B(  5-C ,  9-H ) :   0.9446 B(  5-C , 10-H ) :   0.9555

Dispersion correction           -0.015613804
FINAL SINGLE POINT ENERGY      -727.650606561382

DIPOLE MOMENT
-------------
                                X             Y             Z
Electronic contribution:     -7.26295       5.17334       1.29708
Nuclear contribution   :      8.50531      -6.23950      -0.59960
                        -----------------------------------------
Total Dipole Moment    :      1.24236      -1.06616       0.69748
                        -----------------------------------------
Magnitude (a.u.)       :      1.77950
Magnitude (Debye)      :      4.52313

Rotational constants in cm-1:     0.152799     0.080212     0.076962
Rotational constants in MHz :  4580.804531  2404.707790  2307.252710

                             ****ORCA TERMINATED NORMALLY****
TOTAL RUN TIME: 0 days 0 hours 0 minutes 40 seconds 172 msec
