                         Program Version 5.0.0 -  RELEASE  -
|  1> !B3LYP D3BJ RIJCOSX def2-TZVPD def2/J TightSCF xyzfile
|  2>
|  3> *xyzfile 0 1 D1.xyz
|  4>
|  5> %MaxCore 64000
|  6>
|  7> %pal nprocs 4
|  8> end
|  9>
| 10> %scf
| 11>   MaxIter 150
| 12> end
| 13>
| 14>
| 15>                          ****END OF INPUT****

CARTESIAN COORDINATES (ANGSTROEM)
---------------------------------
  C     -4.382623   -1.670889    1.216201
  C     -5.763539   -1.915170    0.705012
  C     -3.281728   -2.191272    0.294361
  C     -5.572364   -5.807798   -0.816445
  S     -6.903179   -4.619033   -0.528458
  H     -5.840812   -2.115205   -0.300646
  H     -6.408823   -1.148656    0.936124
  H     -6.174781   -2.790606    1.051433
  F     -8.114853   -5.250932   -0.957007
  O     -6.532715   -3.426838   -1.314848
  H     -4.328618   -2.139223    2.198103
  H     -4.261583   -0.597399    1.357248
  O     -6.865632   -4.294957    0.914118
  C     -3.474641   -3.605898   -0.259608
  H     -2.354548   -2.127602    0.871433
  H     -3.166611   -1.499693   -0.545037
  C     -3.827078   -4.661097    0.786174
  H     -2.560559   -3.889391   -0.788050
  H     -4.255932   -3.570040   -1.019300
  C     -4.457800   -5.941875    0.229195
  H     -5.177347   -5.542575   -1.797714
  H     -6.074202   -6.768894   -0.921272
  H     -4.530506   -4.253640    1.511979
  H     -2.933400   -4.932302    1.356825
  H     -3.681064   -6.562236   -0.229885
  H     -4.843942   -6.512728    1.075805

 Total Charge           Charge          ....    0
 Multiplicity           Mult            ....    1
 Number of Electrons    NEL             ....   98
 Basis Dimension        Dim             ....  560

ORBITAL ENERGIES
----------------

  NO   OCC          E(Eh)            E(eV)
   0   2.0000     -89.107694     -2424.7436
   1   2.0000     -24.813041      -675.1972
   2   2.0000     -19.137624      -520.7612
   3   2.0000     -19.136447      -520.7292
   4   2.0000     -10.233795      -278.4757
   5   2.0000     -10.196762      -277.4680
   6   2.0000     -10.164056      -276.5780
   7   2.0000     -10.153360      -276.2870
   8   2.0000     -10.145216      -276.0653
   9   2.0000     -10.130907      -275.6760
  10   2.0000     -10.073318      -274.1089
  11   2.0000      -8.151805      -221.8219
  12   2.0000      -6.118459      -166.4917
  13   2.0000      -6.112283      -166.3237
  14   2.0000      -6.111930      -166.3141
  15   2.0000      -1.399101       -38.0715
  16   2.0000      -1.107340       -30.1323
  17   2.0000      -1.011223       -27.5168
  18   2.0000      -0.834667       -22.7124
  19   2.0000      -0.794373       -21.6160
  20   2.0000      -0.754798       -20.5391
  21   2.0000      -0.728413       -19.8211
  22   2.0000      -0.691944       -18.8287
  23   2.0000      -0.645306       -17.5597
  24   2.0000      -0.612265       -16.6606
  25   2.0000      -0.601285       -16.3618
  26   2.0000      -0.587028       -15.9738
  27   2.0000      -0.555648       -15.1199
  28   2.0000      -0.540095       -14.6967
  29   2.0000      -0.494908       -13.4671
  30   2.0000      -0.493791       -13.4367
  31   2.0000      -0.469977       -12.7887
  32   2.0000      -0.467090       -12.7102
  33   2.0000      -0.440641       -11.9905
  34   2.0000      -0.433181       -11.7874
  35   2.0000      -0.415176       -11.2975
  36   2.0000      -0.410626       -11.1737
  37   2.0000      -0.387176       -10.5356
  38   2.0000      -0.379097       -10.3158
  39   2.0000      -0.375726       -10.2240
  40   2.0000      -0.346332        -9.4242
  41   2.0000      -0.341956        -9.3051
  42   2.0000      -0.337076        -9.1723
  43   2.0000      -0.332993        -9.0612
  44   2.0000      -0.324896        -8.8409
  45   2.0000      -0.311561        -8.4780
  46   2.0000      -0.294979        -8.0268
  47   2.0000      -0.288972        -7.8633
  48   2.0000      -0.267547        -7.2803
  49   0.0000      -0.015185        -0.4132
  50   0.0000      -0.000646        -0.0176
  51   0.0000       0.015254         0.4151
  52   0.0000       0.018959         0.5159
  53   0.0000       0.028969         0.7883

MULLIKEN ATOMIC CHARGES
-----------------------
   0 C :   -0.152991
   1 C :   -1.712412
   2 C :   -0.671271
   3 C :   -0.807717
   4 S :    1.201651
   5 H :    0.593849
   6 H :    0.404881
   7 H :    0.586612
   8 F :   -0.073280
   9 O :   -0.682118
  10 H :    0.244825
  11 H :    0.199418
  12 O :   -0.692178
  13 C :   -0.400053
  14 H :    0.203411
  15 H :    0.242479
  16 C :   -0.385592
  17 H :    0.293396
  18 H :    0.305234
  19 C :   -0.499949
  20 H :    0.377155
  21 H :    0.330200
  22 H :    0.314055
  23 H :    0.274526
  24 H :    0.237655
  25 H :    0.268215
Sum of atomic charges:   -0.0000000

LOEWDIN ATOMIC CHARGES
----------------------
   0 C :   -0.236952
   1 C :   -0.122550
   2 C :   -0.199303
   3 C :   -0.213079
   4 S :    0.672442
   5 H :    0.020896
   6 H :    0.065105
   7 H :   -0.008083
   8 F :   -0.036502
   9 O :   -0.304532
  10 H :    0.100964
  11 H :    0.101327
  12 O :   -0.294231
  13 C :   -0.197559
  14 H :    0.102599
  15 H :    0.110112
  16 C :   -0.195502
  17 H :    0.112157
  18 H :    0.083382
  19 C :   -0.199412
  20 H :    0.103097
  21 H :    0.094735
  22 H :    0.093215
  23 H :    0.118415
  24 H :    0.117223
  25 H :    0.112037

  Mayer bond orders larger than 0.100000
B(  0-C ,  1-C ) :   0.4042 B(  0-C ,  2-C ) :   0.8705 B(  0-C , 10-H ) :   0.9077
B(  0-C , 11-H ) :   0.9906 B(  0-C , 16-C ) :   0.1541 B(  1-C ,  2-C ) :   0.1199
B(  1-C ,  5-H ) :   0.7086 B(  1-C ,  6-H ) :   0.8262 B(  1-C ,  7-H ) :   0.8365
B(  1-C ,  9-O ) :   0.1167 B(  1-C , 12-O ) :   0.1397 B(  2-C , 13-C ) :   0.9502
B(  2-C , 14-H ) :   0.9679 B(  2-C , 15-H ) :   0.9398 B(  2-C , 16-C ) :   0.1609
B(  2-C , 18-H ) :   0.1022 B(  3-C ,  4-S ) :   0.8993 B(  3-C ,  9-O ) :   0.1323
B(  3-C , 13-C ) :   0.1336 B(  3-C , 19-C ) :   0.8601 B(  3-C , 20-H ) :   0.8672
B(  3-C , 21-H ) :   0.9029 B(  4-S ,  8-F ) :   0.8697 B(  4-S ,  9-O ) :   1.6645
B(  4-S , 12-O ) :   1.7082 B(  5-H ,  9-O ) :  -0.1347 B(  7-H , 12-O ) :  -0.2454
B(  9-O , 12-O ) :   0.1802 B( 13-C , 16-C ) :   0.4609 B( 13-C , 17-H ) :   0.9025
B( 13-C , 18-H ) :   1.0203 B( 13-C , 19-C ) :   0.1711 B( 16-C , 19-C ) :   0.9235
B( 16-C , 22-H ) :   0.9911 B( 16-C , 23-H ) :   0.9038 B( 19-C , 24-H ) :   0.9534
B( 19-C , 25-H ) :   0.9272

Dispersion correction           -0.050893907
FINAL SINGLE POINT ENERGY      -924.096794044821

DIPOLE MOMENT
-------------
                                X             Y             Z
Electronic contribution:    -18.95889      -8.64876      -6.72114
Nuclear contribution   :     19.08524       6.89775       6.14221
                        -----------------------------------------
Total Dipole Moment    :      0.12634      -1.75101      -0.57893
                        -----------------------------------------
Magnitude (a.u.)       :      1.84855
Magnitude (Debye)      :      4.69865

Rotational constants in cm-1:     0.049343     0.024787     0.019726
Rotational constants in MHz :  1479.262779   743.087234   591.370705

                             ****ORCA TERMINATED NORMALLY****
TOTAL RUN TIME: 0 days 0 hours 3 minutes 50 seconds 266 msec
