                         Program Version 5.0.0 -  RELEASE  -
|  1> !B3LYP D3BJ RIJCOSX def2-TZVPD def2/J TightSCF xyzfile
|  2>
|  3> *xyzfile 0 1 D2.xyz
|  4>
|  5> %MaxCore 64000
|  6>
|  7> %pal nprocs 4
|  8> end
|  9>
| 10> %scf
| 11>   MaxIter 150
| 12> end
| 13>
| 14>
| 15>                          ****END OF INPUT****

CARTESIAN COORDINATES (ANGSTROEM)
---------------------------------
  C     -4.382623   -1.670889    1.216201
  C     -5.763539   -1.915170    0.705012
  C     -3.281728   -2.191272    0.294361
  C     -5.572364   -5.807798   -0.816445
  S     -6.903179   -4.619033   -0.528458
  H     -5.840812   -2.115205   -0.300646
  H     -6.408823   -1.148656    0.936124
  H     -6.174781   -2.790606    1.051433
  O     -8.114853   -5.250932   -0.957007
  F     -6.532715   -3.426838   -1.314848
  H     -4.328618   -2.139223    2.198103
  H     -4.261583   -0.597399    1.357248
  O     -6.865632   -4.294957    0.914118
  C     -3.474641   -3.605898   -0.259608
  H     -2.354548   -2.127602    0.871433
  H     -3.166611   -1.499693   -0.545037
  C     -3.827078   -4.661097    0.786174
  H     -2.560559   -3.889391   -0.788050
  H     -4.255932   -3.570040   -1.019300
  C     -4.457800   -5.941875    0.229195
  H     -5.177347   -5.542575   -1.797714
  H     -6.074202   -6.768894   -0.921272
  H     -4.530506   -4.253640    1.511979
  H     -2.933400   -4.932302    1.356825
  H     -3.681064   -6.562236   -0.229885
  H     -4.843942   -6.512728    1.075805

 Total Charge           Charge          ....    0
 Multiplicity           Mult            ....    1
 Number of Electrons    NEL             ....   98
 Basis Dimension        Dim             ....  560

ORBITAL ENERGIES
----------------

  NO   OCC          E(Eh)            E(eV)
   0   2.0000     -89.102884     -2424.6127
   1   2.0000     -24.789840      -674.5658
   2   2.0000     -19.147137      -521.0201
   3   2.0000     -19.133055      -520.6369
   4   2.0000     -10.232237      -278.4333
   5   2.0000     -10.196528      -277.4616
   6   2.0000     -10.171124      -276.7703
   7   2.0000     -10.169524      -276.7268
   8   2.0000     -10.158920      -276.4383
   9   2.0000     -10.145812      -276.0816
  10   2.0000     -10.095526      -274.7132
  11   2.0000      -8.147070      -221.6930
  12   2.0000      -6.113868      -166.3668
  13   2.0000      -6.107615      -166.1967
  14   2.0000      -6.107034      -166.1808
  15   2.0000      -1.365652       -37.1613
  16   2.0000      -1.117024       -30.3958
  17   2.0000      -1.022905       -27.8347
  18   2.0000      -0.837227       -22.7821
  19   2.0000      -0.803239       -21.8573
  20   2.0000      -0.756036       -20.5728
  21   2.0000      -0.730586       -19.8802
  22   2.0000      -0.694359       -18.8945
  23   2.0000      -0.656168       -17.8552
  24   2.0000      -0.616729       -16.7820
  25   2.0000      -0.583216       -15.8701
  26   2.0000      -0.572157       -15.5692
  27   2.0000      -0.556030       -15.1304
  28   2.0000      -0.554344       -15.0845
  29   2.0000      -0.498172       -13.5560
  30   2.0000      -0.489565       -13.3217
  31   2.0000      -0.470930       -12.8146
  32   2.0000      -0.464373       -12.6362
  33   2.0000      -0.455851       -12.4043
  34   2.0000      -0.438223       -11.9247
  35   2.0000      -0.424734       -11.5576
  36   2.0000      -0.405595       -11.0368
  37   2.0000      -0.396725       -10.7954
  38   2.0000      -0.391738       -10.6597
  39   2.0000      -0.387615       -10.5475
  40   2.0000      -0.360181        -9.8010
  41   2.0000      -0.355271        -9.6674
  42   2.0000      -0.353628        -9.6227
  43   2.0000      -0.337710        -9.1896
  44   2.0000      -0.329394        -8.9633
  45   2.0000      -0.322216        -8.7679
  46   2.0000      -0.312482        -8.5031
  47   2.0000      -0.311555        -8.4778
  48   2.0000      -0.277806        -7.5595
  49   0.0000      -0.010223        -0.2782
  50   0.0000       0.003468         0.0944
  51   0.0000       0.010283         0.2798
  52   0.0000       0.015302         0.4164
  53   0.0000       0.028605         0.7784

MULLIKEN ATOMIC CHARGES
-----------------------
   0 C :   -0.144036
   1 C :   -1.822677
   2 C :   -0.670952
   3 C :   -0.786307
   4 S :    1.211387
   5 H :    0.584574
   6 H :    0.403471
   7 H :    0.686208
   8 O :   -0.550334
   9 F :   -0.247945
  10 H :    0.252661
  11 H :    0.198837
  12 O :   -0.674777
  13 C :   -0.388285
  14 H :    0.203750
  15 H :    0.244198
  16 C :   -0.383863
  17 H :    0.296476
  18 H :    0.257306
  19 C :   -0.482018
  20 H :    0.429349
  21 H :    0.258611
  22 H :    0.320854
  23 H :    0.270032
  24 H :    0.250633
  25 H :    0.282847
Sum of atomic charges:   -0.0000000

LOEWDIN ATOMIC CHARGES
----------------------
   0 C :   -0.233897
   1 C :   -0.120002
   2 C :   -0.199643
   3 C :   -0.209511
   4 S :    0.655835
   5 H :    0.031733
   6 H :    0.067243
   7 H :   -0.009360
   8 O :   -0.252485
   9 F :   -0.105354
  10 H :    0.104250
  11 H :    0.103256
  12 O :   -0.291740
  13 C :   -0.199022
  14 H :    0.105375
  15 H :    0.109985
  16 C :   -0.197286
  17 H :    0.114463
  18 H :    0.081345
  19 C :   -0.201565
  20 H :    0.099553
  21 H :    0.104238
  22 H :    0.093206
  23 H :    0.119478
  24 H :    0.115769
  25 H :    0.114138

  Mayer bond orders larger than 0.100000
B(  0-C ,  1-C ) :   0.4054 B(  0-C ,  2-C ) :   0.8718 B(  0-C , 10-H ) :   0.9077
B(  0-C , 11-H ) :   0.9955 B(  0-C , 16-C ) :   0.1573 B(  1-C ,  2-C ) :   0.1340
B(  1-C ,  4-S ) :   0.1149 B(  1-C ,  5-H ) :   0.6667 B(  1-C ,  6-H ) :   0.8229
B(  1-C ,  7-H ) :   0.6783 B(  1-C ,  9-F ) :   0.1699 B(  1-C , 12-O ) :   0.1976
B(  2-C , 13-C ) :   0.9481 B(  2-C , 14-H ) :   0.9598 B(  2-C , 15-H ) :   0.9444
B(  2-C , 16-C ) :   0.1523 B(  3-C ,  4-S ) :   0.9012 B(  3-C ,  8-O ) :   0.1557
B(  3-C , 13-C ) :   0.1258 B(  3-C , 19-C ) :   0.8207 B(  3-C , 20-H ) :   0.7863
B(  3-C , 21-H ) :   0.9984 B(  4-S ,  8-O ) :   1.4390 B(  4-S ,  9-F ) :   1.0212
B(  4-S , 12-O ) :   1.6576 B(  5-H ,  9-F ) :  -0.1096 B(  7-H , 12-O ) :  -0.2588
B( 13-C , 16-C ) :   0.4743 B( 13-C , 17-H ) :   0.8976 B( 13-C , 18-H ) :   1.0462
B( 13-C , 19-C ) :   0.1506 B( 16-C , 18-H ) :  -0.1114 B( 16-C , 19-C ) :   0.9314
B( 16-C , 22-H ) :   0.9851 B( 16-C , 23-H ) :   0.8965 B( 19-C , 24-H ) :   0.9639
B( 19-C , 25-H ) :   0.9251

Dispersion correction           -0.050390772
FINAL SINGLE POINT ENERGY      -924.114144911400

DIPOLE MOMENT
-------------
                                X             Y             Z
Electronic contribution:    -15.98335      -5.36269      -7.20493
Nuclear contribution   :     17.25367       4.78608       6.55647
                        -----------------------------------------
Total Dipole Moment    :      1.27032      -0.57661      -0.64846
                        -----------------------------------------
Magnitude (a.u.)       :      1.53841
Magnitude (Debye)      :      3.91032

Rotational constants in cm-1:     0.048508     0.025517     0.020225
Rotational constants in MHz :  1454.219007   764.979652   606.316599

                             ****ORCA TERMINATED NORMALLY****
TOTAL RUN TIME: 0 days 0 hours 4 minutes 16 seconds 820 msec
