                         Program Version 5.0.0 -  RELEASE  -
|  1> !B3LYP D3BJ RIJCOSX def2-TZVPD def2/J TightSCF xyzfile
|  2>
|  3> *xyzfile 0 1 D3.xyz
|  4>
|  5> %MaxCore 64000
|  6>
|  7> %pal nprocs 4
|  8> end
|  9>
| 10> %scf
| 11>   MaxIter 150
| 12> end
| 13>
| 14>
| 15>                          ****END OF INPUT****

CARTESIAN COORDINATES (ANGSTROEM)
---------------------------------
  C     -4.382623   -1.670889    1.216201
  C     -5.763539   -1.915170    0.705012
  C     -3.281728   -2.191272    0.294361
  C     -5.572364   -5.807798   -0.816445
  S     -6.903179   -4.619033   -0.528458
  H     -5.840812   -2.115205   -0.300646
  H     -6.408823   -1.148656    0.936124
  H     -6.174781   -2.790606    1.051433
  O     -8.114853   -5.250932   -0.957007
  O     -6.532715   -3.426838   -1.314848
  H     -4.328618   -2.139223    2.198103
  H     -4.261583   -0.597399    1.357248
  F     -6.865632   -4.294957    0.914118
  C     -3.474641   -3.605898   -0.259608
  H     -2.354548   -2.127602    0.871433
  H     -3.166611   -1.499693   -0.545037
  C     -3.827078   -4.661097    0.786174
  H     -2.560559   -3.889391   -0.788050
  H     -4.255932   -3.570040   -1.019300
  C     -4.457800   -5.941875    0.229195
  H     -5.177347   -5.542575   -1.797714
  H     -6.074202   -6.768894   -0.921272
  H     -4.530506   -4.253640    1.511979
  H     -2.933400   -4.932302    1.356825
  H     -3.681064   -6.562236   -0.229885
  H     -4.843942   -6.512728    1.075805

 Total Charge           Charge          ....    0
 Multiplicity           Mult            ....    1
 Number of Electrons    NEL             ....   98
 Basis Dimension        Dim             ....  560

ORBITAL ENERGIES
----------------

  NO   OCC          E(Eh)            E(eV)
   0   2.0000     -89.102085     -2424.5910
   1   2.0000     -24.789922      -674.5681
   2   2.0000     -19.146794      -521.0108
   3   2.0000     -19.131233      -520.5873
   4   2.0000     -10.231398      -278.4105
   5   2.0000     -10.201138      -277.5871
   6   2.0000     -10.177763      -276.9510
   7   2.0000     -10.162815      -276.5443
   8   2.0000     -10.156160      -276.3632
   9   2.0000     -10.146199      -276.0921
  10   2.0000     -10.097404      -274.7643
  11   2.0000      -8.146351      -221.6735
  12   2.0000      -6.113293      -166.3512
  13   2.0000      -6.106662      -166.1707
  14   2.0000      -6.106395      -166.1634
  15   2.0000      -1.365351       -37.1531
  16   2.0000      -1.117110       -30.3981
  17   2.0000      -1.021669       -27.8010
  18   2.0000      -0.839993       -22.8574
  19   2.0000      -0.802106       -21.8264
  20   2.0000      -0.755843       -20.5675
  21   2.0000      -0.730290       -19.8722
  22   2.0000      -0.695273       -18.9193
  23   2.0000      -0.655996       -17.8505
  24   2.0000      -0.620515       -16.8851
  25   2.0000      -0.586065       -15.9476
  26   2.0000      -0.580139       -15.7864
  27   2.0000      -0.552742       -15.0409
  28   2.0000      -0.545367       -14.8402
  29   2.0000      -0.496583       -13.5127
  30   2.0000      -0.489972       -13.3328
  31   2.0000      -0.474720       -12.9178
  32   2.0000      -0.460240       -12.5238
  33   2.0000      -0.451487       -12.2856
  34   2.0000      -0.445981       -12.1358
  35   2.0000      -0.427182       -11.6242
  36   2.0000      -0.405363       -11.0305
  37   2.0000      -0.395864       -10.7720
  38   2.0000      -0.390567       -10.6279
  39   2.0000      -0.389666       -10.6034
  40   2.0000      -0.361711        -9.8427
  41   2.0000      -0.355400        -9.6709
  42   2.0000      -0.347934        -9.4678
  43   2.0000      -0.335375        -9.1260
  44   2.0000      -0.332724        -9.0539
  45   2.0000      -0.323906        -8.8139
  46   2.0000      -0.307600        -8.3702
  47   2.0000      -0.305321        -8.3082
  48   2.0000      -0.288826        -7.8594
  49   0.0000      -0.016382        -0.4458
  50   0.0000       0.009245         0.2516
  51   0.0000       0.010396         0.2829
  52   0.0000       0.014005         0.3811
  53   0.0000       0.029192         0.7944

MULLIKEN ATOMIC CHARGES
-----------------------
   0 C :   -0.116276
   1 C :   -1.871824
   2 C :   -0.688301
   3 C :   -0.687806
   4 S :    1.242651
   5 H :    0.692611
   6 H :    0.425426
   7 H :    0.581990
   8 O :   -0.561468
   9 O :   -0.671061
  10 H :    0.248383
  11 H :    0.199974
  12 F :   -0.266588
  13 C :   -0.362046
  14 H :    0.208848
  15 H :    0.250351
  16 C :   -0.364243
  17 H :    0.291086
  18 H :    0.321548
  19 C :   -0.583790
  20 H :    0.379243
  21 H :    0.264279
  22 H :    0.273500
  23 H :    0.270837
  24 H :    0.242252
  25 H :    0.280424
Sum of atomic charges:    0.0000000

LOEWDIN ATOMIC CHARGES
----------------------
   0 C :   -0.235906
   1 C :   -0.118181
   2 C :   -0.197470
   3 C :   -0.203734
   4 S :    0.654440
   5 H :    0.021141
   6 H :    0.067456
   7 H :    0.008757
   8 O :   -0.252395
   9 O :   -0.304679
  10 H :    0.100555
  11 H :    0.104073
  12 F :   -0.101314
  13 C :   -0.197514
  14 H :    0.104044
  15 H :    0.111985
  16 C :   -0.198882
  17 H :    0.114533
  18 H :    0.084179
  19 C :   -0.207874
  20 H :    0.109510
  21 H :    0.100266
  22 H :    0.090871
  23 H :    0.119505
  24 H :    0.116365
  25 H :    0.110268

  Mayer bond orders larger than 0.100000
B(  0-C ,  1-C ) :   0.3836 B(  0-C ,  2-C ) :   0.8651 B(  0-C , 10-H ) :   0.9093
B(  0-C , 11-H ) :   0.9869 B(  0-C , 16-C ) :   0.1348 B(  1-C ,  2-C ) :   0.1298
B(  1-C ,  4-S ) :   0.1052 B(  1-C ,  5-H ) :   0.5517 B(  1-C ,  6-H ) :   0.7751
B(  1-C ,  7-H ) :   0.7910 B(  1-C ,  9-O ) :   0.1880 B(  1-C , 12-F ) :   0.1929
B(  2-C , 13-C ) :   0.9560 B(  2-C , 14-H ) :   0.9683 B(  2-C , 15-H ) :   0.9343
B(  2-C , 16-C ) :   0.1815 B(  3-C ,  4-S ) :   0.8582 B(  3-C ,  8-O ) :   0.1640
B(  3-C ,  9-O ) :   0.1406 B(  3-C , 13-C ) :   0.1106 B(  3-C , 19-C ) :   0.8292
B(  3-C , 20-H ) :   0.8525 B(  3-C , 21-H ) :   1.0259 B(  4-S ,  8-O ) :   1.4359
B(  4-S ,  9-O ) :   1.6148 B(  4-S , 12-F ) :   1.0843 B(  5-H ,  9-O ) :  -0.1730
B(  7-H , 12-F ) :  -0.1987 B( 13-C , 16-C ) :   0.4291 B( 13-C , 17-H ) :   0.8993
B( 13-C , 18-H ) :   1.0224 B( 13-C , 19-C ) :   0.1514 B( 16-C , 19-C ) :   0.8687
B( 16-C , 22-H ) :   1.0103 B( 16-C , 23-H ) :   0.9097 B( 19-C , 24-H ) :   0.9469
B( 19-C , 25-H ) :   0.9588

Dispersion correction           -0.050329783
FINAL SINGLE POINT ENERGY      -924.113372013051

DIPOLE MOMENT
-------------
                                X             Y             Z
Electronic contribution:    -16.54207      -6.83861      -3.45303
Nuclear contribution   :     17.63907       5.79106       3.97609
                        -----------------------------------------
Total Dipole Moment    :      1.09700      -1.04755       0.52306
                        -----------------------------------------
Magnitude (a.u.)       :      1.60448
Magnitude (Debye)      :      4.07827

Rotational constants in cm-1:     0.048663     0.025472     0.020259
Rotational constants in MHz :  1458.892793   763.621130   607.350055

                             ****ORCA TERMINATED NORMALLY****
TOTAL RUN TIME: 0 days 0 hours 3 minutes 45 seconds 687 msec
