                         Program Version 5.0.0 -  RELEASE  -
|  1> !wB97X-D3 RIJCOSX def2-SVPD def2/J TightSCF CPCM(Water)
|  2> *xyz -1 1
|  3> C         -2.45380        0.05510        6.94145
|  4> C         -2.07842        1.48042        6.56410
|  5> O         -0.90125        1.85816        6.82810
|  6> O         -2.93658        2.17731        5.96415
|  7> H         -3.47026       -0.13135        6.66407
|  8> H         -2.34265       -0.07527        7.99765
|  9> H         -1.81248       -0.63046        6.42801
| 10> *
| 11> %MaxCore 64000
| 12>
| 13> %pal nprocs 18
| 14> end
| 15>
| 16> %scf
| 17>   MaxIter 150
| 18> end
| 19>
| 20>
| 21>                          ****END OF INPUT****

CARTESIAN COORDINATES (ANGSTROEM)
---------------------------------
  C     -2.453800    0.055100    6.941450
  C     -2.078420    1.480420    6.564100
  O     -0.901250    1.858160    6.828100
  O     -2.936580    2.177310    5.964150
  H     -3.470260   -0.131350    6.664070
  H     -2.342650   -0.075270    7.997650
  H     -1.812480   -0.630460    6.428010

 Total Charge           Charge          ....   -1
 Multiplicity           Mult            ....    1
 Number of Electrons    NEL             ....   32
 Basis Dimension        Dim             ....  110

ORBITAL ENERGIES
----------------

  NO   OCC          E(Eh)            E(eV)
   0   2.0000     -19.179436      -521.8990
   1   2.0000     -19.177281      -521.8404
   2   2.0000     -10.370409      -282.1932
   3   2.0000     -10.261347      -279.2254
   4   2.0000      -1.122333       -30.5402
   5   2.0000      -1.026527       -27.9332
   6   2.0000      -0.819244       -22.2928
   7   2.0000      -0.589797       -16.0492
   8   2.0000      -0.532074       -14.4785
   9   2.0000      -0.522980       -14.2310
  10   2.0000      -0.520912       -14.1747
  11   2.0000      -0.469287       -12.7700
  12   2.0000      -0.448385       -12.2012
  13   2.0000      -0.343802        -9.3553
  14   2.0000      -0.334455        -9.1010
  15   2.0000      -0.323253        -8.7962
  16   0.0000       0.096785         2.6337
  17   0.0000       0.130203         3.5430
  18   0.0000       0.133616         3.6359
  19   0.0000       0.149794         4.0761
  20   0.0000       0.171513         4.6671

MULLIKEN ATOMIC CHARGES
-----------------------
   0 C :    0.408648
   1 C :    0.018764
   2 O :   -0.707143
   3 O :   -0.675077
   4 H :   -0.047735
   5 H :    0.001132
   6 H :    0.001411
Sum of atomic charges:   -1.0000000

LOEWDIN ATOMIC CHARGES
----------------------
   0 C :    0.156326
   1 C :   -0.349759
   2 O :   -0.383199
   3 O :   -0.372919
   4 H :   -0.025148
   5 H :   -0.013491
   6 H :   -0.011810

  Mayer bond orders larger than 0.100000
B(  0-C ,  1-C ) :   1.2275 B(  0-C ,  4-H ) :   0.8805 B(  0-C ,  5-H ) :   0.8177
B(  0-C ,  6-H ) :   0.8255 B(  1-C ,  2-O ) :   1.4945 B(  1-C ,  3-O ) :   1.5170
B(  1-C ,  4-H ) :   0.2172 B(  1-C ,  5-H ) :   0.1519 B(  1-C ,  6-H ) :   0.1451

Dispersion correction           -0.000905266
FINAL SINGLE POINT ENERGY      -228.415937135779

DIPOLE MOMENT
-------------
                                X             Y             Z
Electronic contribution:      0.70676       2.76244      -0.73902
Nuclear contribution   :     -1.26064      -4.68337       1.27880
                        -----------------------------------------
Total Dipole Moment    :     -0.55388      -1.92093       0.53978
                        -----------------------------------------
Magnitude (a.u.)       :      2.07078
Magnitude (Debye)      :      5.26350

Rotational constants in cm-1:     0.391994     0.333933     0.186475
Rotational constants in MHz : 11751.676689 10011.065304  5590.392476

                             ****ORCA TERMINATED NORMALLY****
TOTAL RUN TIME: 0 days 0 hours 0 minutes 5 seconds 616 msec
