                         Program Version 5.0.0 -  RELEASE  -
|  1> !wB97X-D3 RIJCOSX def2-SVPD def2/J TightSCF CPCM(Water)
|  2> *xyz 1 1
|  3> C         -0.69912        3.48945        3.75516
|  4> N         -1.08067        3.79296        5.15686
|  5> H         -0.87449        4.76274        5.42734
|  6> H         -0.68079        3.13476        5.83900
|  7> H         -2.05755        3.53169        5.34620
|  8> H         -1.14600        4.20803        3.10030
|  9> H         -1.04188        2.50941        3.49644
| 10> H          0.36562        3.53208        3.65813
| 11> *
| 12> %MaxCore 64000
| 13>
| 14> %pal nprocs 18
| 15> end
| 16>
| 17> %scf
| 18>   MaxIter 150
| 19> end
| 20>
| 21>
| 22>                          ****END OF INPUT****

CARTESIAN COORDINATES (ANGSTROEM)
---------------------------------
  C     -0.699120    3.489450    3.755160
  N     -1.080670    3.792960    5.156860
  H     -0.874490    4.762740    5.427340
  H     -0.680790    3.134760    5.839000
  H     -2.057550    3.531690    5.346200
  H     -1.146000    4.208030    3.100300
  H     -1.041880    2.509410    3.496440
  H      0.365620    3.532080    3.658130

 Total Charge           Charge          ....    1
 Multiplicity           Mult            ....    1
 Number of Electrons    NEL             ....   18
 Basis Dimension        Dim             ....   88

ORBITAL ENERGIES
----------------

  NO   OCC          E(Eh)            E(eV)
   0   2.0000     -14.558798      -396.1650
   1   2.0000     -10.342773      -281.4412
   2   2.0000      -1.108191       -30.1554
   3   2.0000      -0.838135       -22.8068
   4   2.0000      -0.698770       -19.0145
   5   2.0000      -0.662306       -18.0223
   6   2.0000      -0.603425       -16.4200
   7   2.0000      -0.520275       -14.1574
   8   2.0000      -0.513059       -13.9610
   9   0.0000       0.085215         2.3188
  10   0.0000       0.121369         3.3026
  11   0.0000       0.157705         4.2914
  12   0.0000       0.158485         4.3126
  13   0.0000       0.195435         5.3181

MULLIKEN ATOMIC CHARGES
-----------------------
   0 C :    0.763500
   1 N :   -0.946046
   2 H :    0.430596
   3 H :    0.399569
   4 H :    0.414037
   5 H :   -0.023887
   6 H :   -0.020622
   7 H :   -0.017147
Sum of atomic charges:    1.0000000

LOEWDIN ATOMIC CHARGES
----------------------
   0 C :    0.269805
   1 N :    0.323152
   2 H :    0.121183
   3 H :    0.117121
   4 H :    0.116409
   5 H :    0.017253
   6 H :    0.018558
   7 H :    0.016519

  Mayer bond orders larger than 0.100000
B(  0-C ,  1-N ) :   0.7344 B(  0-C ,  5-H ) :   0.9200 B(  0-C ,  6-H ) :   0.9186
B(  0-C ,  7-H ) :   0.9230 B(  1-N ,  2-H ) :   0.7058 B(  1-N ,  3-H ) :   0.7684
B(  1-N ,  4-H ) :   0.7421

Dispersion correction           -0.000518568
FINAL SINGLE POINT ENERGY       -96.237659542222

DIPOLE MOMENT
-------------
                                X             Y             Z
Electronic contribution:     -0.31836       0.31315       1.22598
Nuclear contribution   :     -0.00699      -0.18064      -0.14199
                        -----------------------------------------
Total Dipole Moment    :     -0.32535       0.13251       1.08400
                        -----------------------------------------
Magnitude (a.u.)       :      1.13950
Magnitude (Debye)      :      2.89638

Rotational constants in cm-1:     2.906310     0.688008     0.676648
Rotational constants in MHz : 87128.982229 20625.947414 20285.402367

                             ****ORCA TERMINATED NORMALLY****
TOTAL RUN TIME: 0 days 0 hours 0 minutes 4 seconds 41 msec
