                         Program Version 5.0.0 -  RELEASE  -
|  1> !wB97X-D3 RIJCOSX def2-SVPD def2/J TightSCF CPCM(Water)
|  2> *xyz 0 1
|  3> C         -2.45380        0.05510        6.94145
|  4> C         -2.07842        1.48042        6.56410
|  5> F         -0.90125        1.85816        6.82810
|  6> O         -2.93658        2.17731        5.96415
|  7> H         -3.47026       -0.13135        6.66407
|  8> H         -2.34265       -0.07527        7.99765
|  9> H         -1.81248       -0.63046        6.42801
| 10> *
| 11> %MaxCore 64000
| 12>
| 13> %pal nprocs 18
| 14> end
| 15>
| 16> %scf
| 17>   MaxIter 150
| 18> end
| 19>
| 20>
| 21>                          ****END OF INPUT****

CARTESIAN COORDINATES (ANGSTROEM)
---------------------------------
  C     -2.453800    0.055100    6.941450
  C     -2.078420    1.480420    6.564100
  F     -0.901250    1.858160    6.828100
  O     -2.936580    2.177310    5.964150
  H     -3.470260   -0.131350    6.664070
  H     -2.342650   -0.075270    7.997650
  H     -1.812480   -0.630460    6.428010

 Total Charge           Charge          ....    0
 Multiplicity           Mult            ....    1
 Number of Electrons    NEL             ....   32
 Basis Dimension        Dim             ....  110

ORBITAL ENERGIES
----------------

  NO   OCC          E(Eh)            E(eV)
   0   2.0000     -24.875203      -676.8887
   1   2.0000     -19.264553      -524.2151
   2   2.0000     -10.484988      -285.3110
   3   2.0000     -10.302233      -280.3380
   4   2.0000      -1.421552       -38.6824
   5   2.0000      -1.150946       -31.3188
   6   2.0000      -0.875014       -23.8104
   7   2.0000      -0.765153       -20.8209
   8   2.0000      -0.655668       -17.8416
   9   2.0000      -0.648254       -17.6399
  10   2.0000      -0.613788       -16.7020
  11   2.0000      -0.531959       -14.4753
  12   2.0000      -0.523725       -14.2513
  13   2.0000      -0.505372       -13.7519
  14   2.0000      -0.461845       -12.5674
  15   2.0000      -0.403595       -10.9824
  16   0.0000       0.051669         1.4060
  17   0.0000       0.089878         2.4457
  18   0.0000       0.130973         3.5640
  19   0.0000       0.153852         4.1865
  20   0.0000       0.161390         4.3917

MULLIKEN ATOMIC CHARGES
-----------------------
   0 C :    0.247505
   1 C :    0.442941
   2 F :   -0.382331
   3 O :   -0.511596
   4 H :    0.006339
   5 H :    0.097247
   6 H :    0.099895
Sum of atomic charges:   -0.0000000

LOEWDIN ATOMIC CHARGES
----------------------
   0 C :    0.218874
   1 C :   -0.015869
   2 F :   -0.042398
   3 O :   -0.190167
   4 H :    0.004138
   5 H :    0.011714
   6 H :    0.013708

  Mayer bond orders larger than 0.100000
B(  0-C ,  1-C ) :   1.2677 B(  0-C ,  4-H ) :   0.9097 B(  0-C ,  5-H ) :   0.8135
B(  0-C ,  6-H ) :   0.8175 B(  1-C ,  2-F ) :   0.7608 B(  1-C ,  3-O ) :   1.8150
B(  1-C ,  4-H ) :   0.1834 B(  1-C ,  5-H ) :   0.1169 B(  1-C ,  6-H ) :   0.1130

Dispersion correction           -0.000899388
FINAL SINGLE POINT ENERGY      -252.848844381863

DIPOLE MOMENT
-------------
                                X             Y             Z
Electronic contribution:      2.96558       3.84504      -0.32904
Nuclear contribution   :     -2.49112      -5.16552       1.01592
                        -----------------------------------------
Total Dipole Moment    :      0.47446      -1.32048       0.68687
                        -----------------------------------------
Magnitude (a.u.)       :      1.56224
Magnitude (Debye)      :      3.97089

Rotational constants in cm-1:     0.367635     0.321184     0.176974
Rotational constants in MHz : 11021.414238  9628.842971  5305.560130

                             ****ORCA TERMINATED NORMALLY****
TOTAL RUN TIME: 0 days 0 hours 0 minutes 6 seconds 25 msec
