                         Program Version 5.0.0 -  RELEASE  -
|  1> !wB97X-D3 RIJCOSX def2-SVPD def2/J TightSCF CPCM(Water)
|  2> *xyz 0 1
|  3> C         -0.69912        3.48945        3.75516
|  4> C         -1.08067        3.79296        5.15686
|  5> H         -0.87449        4.76274        5.42734
|  6> H         -0.68079        3.13476        5.83900
|  7> H         -2.05755        3.53169        5.34620
|  8> H         -1.14600        4.20803        3.10030
|  9> H         -1.04188        2.50941        3.49644
| 10> H          0.36562        3.53208        3.65813
| 11> *
| 12> %MaxCore 64000
| 13>
| 14> %pal nprocs 18
| 15> end
| 16>
| 17> %scf
| 18>   MaxIter 150
| 19> end
| 20>
| 21>
| 22>                          ****END OF INPUT****

CARTESIAN COORDINATES (ANGSTROEM)
---------------------------------
  C     -0.699120    3.489450    3.755160
  C     -1.080670    3.792960    5.156860
  H     -0.874490    4.762740    5.427340
  H     -0.680790    3.134760    5.839000
  H     -2.057550    3.531690    5.346200
  H     -1.146000    4.208030    3.100300
  H     -1.041880    2.509410    3.496440
  H      0.365620    3.532080    3.658130

 Total Charge           Charge          ....    0
 Multiplicity           Mult            ....    1
 Number of Electrons    NEL             ....   18
 Basis Dimension        Dim             ....   88

ORBITAL ENERGIES
----------------

  NO   OCC          E(Eh)            E(eV)
   0   2.0000     -10.262966      -279.2695
   1   2.0000     -10.248310      -278.8707
   2   2.0000      -0.875595       -23.8262
   3   2.0000      -0.727228       -19.7889
   4   2.0000      -0.554463       -15.0877
   5   2.0000      -0.533655       -14.5215
   6   2.0000      -0.466607       -12.6970
   7   2.0000      -0.444733       -12.1018
   8   2.0000      -0.422197       -11.4886
   9   0.0000       0.102607         2.7921
  10   0.0000       0.130414         3.5487
  11   0.0000       0.184175         5.0117
  12   0.0000       0.188287         5.1236
  13   0.0000       0.206210         5.6112

MULLIKEN ATOMIC CHARGES
-----------------------
   0 C :    0.183843
   1 C :    0.431266
   2 H :   -0.160440
   3 H :   -0.184407
   4 H :   -0.175281
   5 H :   -0.038647
   6 H :   -0.020434
   7 H :   -0.035901
Sum of atomic charges:    0.0000000

LOEWDIN ATOMIC CHARGES
----------------------
   0 C :    0.073614
   1 C :    0.070180
   2 H :   -0.028143
   3 H :   -0.035495
   4 H :   -0.035470
   5 H :   -0.015188
   6 H :   -0.013328
   7 H :   -0.016169

  Mayer bond orders larger than 0.100000
B(  0-C ,  1-C ) :   1.4123 B(  0-C ,  2-H ) :   0.1460 B(  0-C ,  3-H ) :   0.1290
B(  0-C ,  4-H ) :   0.1322 B(  0-C ,  5-H ) :   0.8753 B(  0-C ,  6-H ) :   0.8814
B(  0-C ,  7-H ) :   0.8774 B(  1-C ,  2-H ) :   0.8426 B(  1-C ,  3-H ) :   0.7771
B(  1-C ,  4-H ) :   0.7769 B(  1-C ,  5-H ) :   0.1371 B(  1-C ,  6-H ) :   0.1405
B(  1-C ,  7-H ) :   0.1336 B(  3-H ,  4-H ) :   0.2704

Dispersion correction           -0.000507793
FINAL SINGLE POINT ENERGY       -79.733242968608

DIPOLE MOMENT
-------------
                                X             Y             Z
Electronic contribution:      0.04609       0.09359      -0.04958
Nuclear contribution   :     -0.07174      -0.12630       0.09844
                        -----------------------------------------
Total Dipole Moment    :     -0.02565      -0.03272       0.04886
                        -----------------------------------------
Magnitude (a.u.)       :      0.06416
Magnitude (Debye)      :      0.16307

Rotational constants in cm-1:     2.906543     0.717882     0.705537
Rotational constants in MHz : 87135.978289 21521.550473 21151.459355

                             ****ORCA TERMINATED NORMALLY****
TOTAL RUN TIME: 0 days 0 hours 0 minutes 4 seconds 239 msec
