                         Program Version 5.0.0 -  RELEASE  -
|  1> !wB97X-D3 RIJCOSX def2-SVPD def2/J TightSCF CPCM(Water)
|  2> *xyz 0 1
|  3> C         -2.45380        0.05510        6.94145
|  4> C         -2.07842        1.48042        6.56410
|  5> O         -0.90125        1.85816        6.82810
|  6> F         -2.93658        2.17731        5.96415
|  7> H         -3.47026       -0.13135        6.66407
|  8> H         -2.34265       -0.07527        7.99765
|  9> H         -1.81248       -0.63046        6.42801
| 10> *
| 11> %MaxCore 64000
| 12>
| 13> %pal nprocs 18
| 14> end
| 15>
| 16> %scf
| 17>   MaxIter 150
| 18> end
| 19>
| 20>
| 21>                          ****END OF INPUT****

CARTESIAN COORDINATES (ANGSTROEM)
---------------------------------
  C     -2.453800    0.055100    6.941450
  C     -2.078420    1.480420    6.564100
  O     -0.901250    1.858160    6.828100
  F     -2.936580    2.177310    5.964150
  H     -3.470260   -0.131350    6.664070
  H     -2.342650   -0.075270    7.997650
  H     -1.812480   -0.630460    6.428010

 Total Charge           Charge          ....    0
 Multiplicity           Mult            ....    1
 Number of Electrons    NEL             ....   32
 Basis Dimension        Dim             ....  110

ORBITAL ENERGIES
----------------

  NO   OCC          E(Eh)            E(eV)
   0   2.0000     -24.877852      -676.9608
   1   2.0000     -19.263021      -524.1734
   2   2.0000     -10.485823      -285.3338
   3   2.0000     -10.302467      -280.3444
   4   2.0000      -1.426505       -38.8172
   5   2.0000      -1.146915       -31.2091
   6   2.0000      -0.874980       -23.8094
   7   2.0000      -0.768065       -20.9001
   8   2.0000      -0.657953       -17.9038
   9   2.0000      -0.651047       -17.7159
  10   2.0000      -0.613488       -16.6938
  11   2.0000      -0.534314       -14.5394
  12   2.0000      -0.521818       -14.1994
  13   2.0000      -0.504931       -13.7399
  14   2.0000      -0.456637       -12.4257
  15   2.0000      -0.403542       -10.9809
  16   0.0000       0.048176         1.3109
  17   0.0000       0.091041         2.4774
  18   0.0000       0.131104         3.5675
  19   0.0000       0.152573         4.1517
  20   0.0000       0.161334         4.3901

MULLIKEN ATOMIC CHARGES
-----------------------
   0 C :    0.232061
   1 C :    0.440178
   2 O :   -0.543364
   3 F :   -0.353704
   4 H :    0.041429
   5 H :    0.089636
   6 H :    0.093766
Sum of atomic charges:    0.0000000

LOEWDIN ATOMIC CHARGES
----------------------
   0 C :    0.218883
   1 C :   -0.013598
   2 O :   -0.197375
   3 F :   -0.036933
   4 H :   -0.000673
   5 H :    0.014210
   6 H :    0.015485

  Mayer bond orders larger than 0.100000
B(  0-C ,  1-C ) :   1.2806 B(  0-C ,  4-H ) :   0.8965 B(  0-C ,  5-H ) :   0.8159
B(  0-C ,  6-H ) :   0.8225 B(  1-C ,  2-O ) :   1.7749 B(  1-C ,  3-F ) :   0.8080
B(  1-C ,  4-H ) :   0.1393 B(  1-C ,  5-H ) :   0.1312 B(  1-C ,  6-H ) :   0.1225

Dispersion correction           -0.000909221
FINAL SINGLE POINT ENERGY      -252.846299173058

DIPOLE MOMENT
-------------
                                X             Y             Z
Electronic contribution:     -0.75851       4.43029      -1.91030
Nuclear contribution   :     -0.38801      -5.49530       1.90863
                        -----------------------------------------
Total Dipole Moment    :     -1.14652      -1.06501      -0.00167
                        -----------------------------------------
Magnitude (a.u.)       :      1.56485
Magnitude (Debye)      :      3.97754

Rotational constants in cm-1:     0.368583     0.320435     0.176966
Rotational constants in MHz : 11049.843408  9606.394840  5305.299921

                             ****ORCA TERMINATED NORMALLY****
TOTAL RUN TIME: 0 days 0 hours 0 minutes 5 seconds 881 msec
