                         Program Version 5.0.0 -  RELEASE  -
|  1> !wB97X-D3 RIJCOSX def2-SVPD def2/J TightSCF CPCM(Water) xyzfile
|  2>
|  3> *xyzfile 0 1 D1.xyz
|  4>
|  5> %MaxCore 64000
|  6>
|  7> %pal nprocs 18
|  8> end
|  9>
| 10> %scf
| 11>   MaxIter 150
| 12> end
| 13>
| 14>
| 15>                          ****END OF INPUT****

CARTESIAN COORDINATES (ANGSTROEM)
---------------------------------
  C     -0.699123    3.489451    3.755163
  H     -0.966716    4.349013    3.140491
  C     -1.080669    3.792957    5.156857
  C      0.776956    3.138391    3.617408
  H     -1.331455    2.656510    3.446323
  H      1.371398    3.888342    4.149744
  H      1.046926    3.232057    2.561331
  C      1.118917    1.731170    4.115155
  H      2.200573    1.654226    4.254882
  C      0.659466    0.635182    3.153306
  H      0.677024    1.576674    5.103150
  H      1.312288    0.638870    2.274207
  H     -0.339563    0.868049    2.772876
  C      0.639957   -0.771175    3.755619
  C     -0.341821   -0.965537    4.915046
  H      1.648266   -1.028665    4.097015
  H      0.398568   -1.482386    2.958453
  H     -0.279892   -2.005646    5.252547
  C     -1.789164   -0.639231    4.557496
  H     -0.032380   -0.352918    5.765118
  H     -2.107151   -1.270102    3.719619
  H     -1.856352    0.391636    4.197604
  C     -2.790700   -0.785275    5.702812
  H     -2.867308   -1.835651    6.001675
  H     -3.774554   -0.486577    5.334807
  C     -2.453797    0.055101    6.941445
  C     -2.078419    1.480421    6.564098
  H     -1.625584   -0.382163    7.498914
  H     -3.325274    0.087746    7.599175
  H     -0.874488    4.762737    5.427344
  H     -0.680793    3.134762    5.839000
  H     -2.057550    3.531691    5.346197
  F     -0.901252    1.858156    6.828104
  O     -2.936582    2.177309    5.964151

 Total Charge           Charge          ....    0
 Multiplicity           Mult            ....    1
 Number of Electrons    NEL             ....  104
 Basis Dimension        Dim             ....  434

ORBITAL ENERGIES
----------------

  NO   OCC          E(Eh)            E(eV)
   0   2.0000     -24.879437      -677.0039
   1   2.0000     -19.262525      -524.1599
   2   2.0000     -10.484950      -285.3100
   3   2.0000     -10.310235      -280.5557
   4   2.0000     -10.294389      -280.1246
   5   2.0000     -10.281616      -279.7770
   6   2.0000     -10.278590      -279.6947
   7   2.0000     -10.276729      -279.6440
   8   2.0000     -10.273168      -279.5471
   9   2.0000     -10.272691      -279.5341
  10   2.0000     -10.270096      -279.4635
  11   2.0000     -10.262968      -279.2696
  12   2.0000     -10.212367      -277.8926
  13   2.0000      -1.431325       -38.9483
  14   2.0000      -1.156551       -31.4714
  15   2.0000      -0.933727       -25.4080
  16   2.0000      -0.917254       -24.9598
  17   2.0000      -0.885642       -24.0995
  18   2.0000      -0.856009       -23.2932
  19   2.0000      -0.812867       -22.1192
  20   2.0000      -0.789852       -21.4930
  21   2.0000      -0.761599       -20.7242
  22   2.0000      -0.730877       -19.8882
  23   2.0000      -0.708712       -19.2850
  24   2.0000      -0.668892       -18.2015
  25   2.0000      -0.665836       -18.1183
  26   2.0000      -0.656738       -17.8707
  27   2.0000      -0.642358       -17.4794
  28   2.0000      -0.618193       -16.8219
  29   2.0000      -0.575951       -15.6724
  30   2.0000      -0.571085       -15.5400
  31   2.0000      -0.559560       -15.2264
  32   2.0000      -0.556592       -15.1456
  33   2.0000      -0.530644       -14.4396
  34   2.0000      -0.529589       -14.4108
  35   2.0000      -0.512655       -13.9501
  36   2.0000      -0.503815       -13.7095
  37   2.0000      -0.490086       -13.3359
  38   2.0000      -0.483825       -13.1656
  39   2.0000      -0.473500       -12.8846
  40   2.0000      -0.461624       -12.5614
  41   2.0000      -0.454728       -12.3738
  42   2.0000      -0.441233       -12.0066
  43   2.0000      -0.433102       -11.7853
  44   2.0000      -0.430704       -11.7200
  45   2.0000      -0.417073       -11.3491
  46   2.0000      -0.413904       -11.2629
  47   2.0000      -0.400532       -10.8990
  48   2.0000      -0.397198       -10.8083
  49   2.0000      -0.389948       -10.6110
  50   2.0000      -0.389539       -10.5999
  51   2.0000      -0.365186        -9.9372
  52   0.0000       0.041058         1.1172
  53   0.0000       0.093348         2.5401
  54   0.0000       0.105575         2.8728
  55   0.0000       0.108557         2.9540
  56   0.0000       0.111952         3.0464

MULLIKEN ATOMIC CHARGES
-----------------------
   0 C :   -0.007550
   1 H :   -0.274350
   2 C :    1.892835
   3 C :    0.506399
   4 H :   -0.216928
   5 H :   -0.069427
   6 H :   -0.097682
   7 C :    0.593044
   8 H :    0.019984
   9 C :   -0.012169
  10 H :   -0.725287
  11 H :   -0.211154
  12 H :   -0.112036
  13 C :    0.656053
  14 C :   -0.038705
  15 H :   -0.106409
  16 H :    0.057283
  17 H :   -0.252824
  18 C :    0.283936
  19 H :   -0.018169
  20 H :   -0.040908
  21 H :   -0.545689
  22 C :    0.402090
  23 H :   -0.122478
  24 H :    0.092146
  25 C :    0.187890
  26 C :    0.575862
  27 H :    0.200691
  28 H :   -0.083182
  29 H :   -0.256030
  30 H :   -0.793066
  31 H :   -0.357450
  32 F :   -0.545851
  33 O :   -0.580868
Sum of atomic charges:    0.0000000

LOEWDIN ATOMIC CHARGES
----------------------
   0 C :   -0.041632
   1 H :    0.021200
   2 C :    0.126093
   3 C :   -0.030312
   4 H :    0.005163
   5 H :    0.024153
   6 H :    0.017779
   7 C :   -0.015151
   8 H :    0.026709
   9 C :   -0.033127
  10 H :   -0.013232
  11 H :    0.025428
  12 H :    0.000700
  13 C :   -0.029474
  14 C :   -0.026063
  15 H :    0.024413
  16 H :    0.024127
  17 H :    0.030344
  18 C :   -0.024721
  19 H :   -0.001812
  20 H :    0.036353
  21 H :   -0.001741
  22 C :   -0.006682
  23 H :    0.033964
  24 H :    0.029844
  25 C :    0.064635
  26 C :    0.059738
  27 H :    0.033791
  28 H :    0.050630
  29 H :   -0.019006
  30 H :   -0.094727
  31 H :   -0.105087
  32 F :   -0.045943
  33 O :   -0.146355

  Mayer bond orders larger than 0.100000
B(  0-C ,  1-H ) :   0.9146 B(  0-C ,  2-C ) :   0.8236 B(  0-C ,  3-C ) :   1.1590
B(  0-C ,  4-H ) :   0.7476 B(  0-C ,  5-H ) :   0.1486 B(  0-C ,  6-H ) :   0.1575
B(  0-C ,  7-C ) :   0.1436 B(  0-C , 10-H ) :  -0.1355 B(  0-C , 29-H ) :   0.1320
B(  0-C , 30-H ) :   0.5691 B(  0-C , 31-H ) :   0.3411 B(  1-H , 30-H ) :   0.1212
B(  2-C ,  4-H ) :   0.1964 B(  2-C , 29-H ) :   0.5514 B(  2-C , 30-H ) :  -0.4057
B(  2-C , 31-H ) :   0.2760 B(  2-C , 32-F ) :  -0.1074 B(  3-C ,  4-H ) :   0.1118
B(  3-C ,  5-H ) :   0.7157 B(  3-C ,  6-H ) :   0.7547 B(  3-C ,  7-C ) :   1.1726
B(  3-C , 10-H ) :   0.1776 B(  3-C , 30-H ) :  -0.1410 B(  4-H , 12-H ) :   0.1057
B(  4-H , 21-H ) :   0.1687 B(  5-H ,  6-H ) :  -0.1241 B(  5-H ,  7-C ) :   0.1499
B(  5-H , 10-H ) :   0.1073 B(  6-H ,  7-C ) :   0.1248 B(  7-C ,  8-H ) :   0.6935
B(  7-C ,  9-C ) :   1.1128 B(  7-C , 10-H ) :   0.4869 B(  7-C , 11-H ) :   0.1924
B(  8-H ,  9-C ) :   0.1992 B(  9-C , 10-H ) :   0.2349 B(  9-C , 11-H ) :   0.9034
B(  9-C , 12-H ) :   0.9102 B(  9-C , 13-C ) :   1.1780 B(  9-C , 15-H ) :   0.1400
B(  9-C , 16-H ) :   0.2198 B( 10-H , 19-H ) :   0.1153 B( 10-H , 30-H ) :   0.1113
B( 13-C , 14-C ) :   1.1305 B( 13-C , 15-H ) :   0.7019 B( 13-C , 16-H ) :   0.6998
B( 14-C , 15-H ) :   0.2700 B( 14-C , 17-H ) :   0.9618 B( 14-C , 18-C ) :   1.1400
B( 14-C , 19-H ) :   0.8733 B( 14-C , 20-H ) :   0.1645 B( 14-C , 21-H ) :   0.2343
B( 15-H , 16-H ) :  -0.1173 B( 17-H , 18-C ) :   0.1490 B( 18-C , 20-H ) :   0.7165
B( 18-C , 21-H ) :   0.7177 B( 18-C , 22-C ) :   1.2447 B( 18-C , 23-H ) :   0.1535
B( 18-C , 24-H ) :   0.2375 B( 20-H , 21-H ) :   0.1219 B( 21-H , 22-C ) :   0.1128
B( 22-C , 23-H ) :   0.8333 B( 22-C , 24-H ) :   0.7015 B( 22-C , 25-C ) :   1.1537
B( 22-C , 28-H ) :   0.1685 B( 23-H , 24-H ) :  -0.1261 B( 23-H , 25-C ) :   0.1198
B( 25-C , 26-C ) :   1.2514 B( 25-C , 27-H ) :   0.8031 B( 25-C , 28-H ) :   0.7013
B( 26-C , 27-H ) :   0.1298 B( 26-C , 28-H ) :   0.2800 B( 26-C , 30-H ) :   0.1144
B( 26-C , 32-F ) :   0.6181 B( 26-C , 33-O ) :   1.6521 B( 29-H , 30-H ) :   0.1868
B( 30-H , 31-H ) :   0.4134 B( 30-H , 32-F ) :   0.2779 B( 31-H , 33-O ) :   0.2238

Dispersion correction           -0.017256555
FINAL SINGLE POINT ENERGY      -606.295911927932

DIPOLE MOMENT
-------------
                                X             Y             Z
Electronic contribution:     -5.33526       2.07779      11.06950
Nuclear contribution   :      5.54676      -3.70047     -10.28793
                        -----------------------------------------
Total Dipole Moment    :      0.21150      -1.62268       0.78157
                        -----------------------------------------
Magnitude (a.u.)       :      1.81346
Magnitude (Debye)      :      4.60946

Rotational constants in cm-1:     0.028503     0.023389     0.015214
Rotational constants in MHz :   854.502405   701.197575   456.108322

                             ****ORCA TERMINATED NORMALLY****
TOTAL RUN TIME: 0 days 0 hours 1 minutes 25 seconds 375 msec
