                         Program Version 5.0.0 -  RELEASE  -
|  1> !wB97X-D3 RIJCOSX def2-SVPD def2/J TightSCF CPCM(Water)
|  2> *xyz -1 1
|  3> C         -0.47749        0.60819       -4.10105
|  4> C          0.18467       -0.50664       -4.91676
|  5> O         -0.15869       -1.70109       -4.65798
|  6> O          1.05594       -0.17441       -5.74037
|  7> H         -0.09903        1.55672       -4.42038
|  8> H         -0.25931        0.46828       -3.06292
|  9> H         -1.53664        0.57826       -4.25010
| 10> *
| 11>
| 12> %MaxCore 64000
| 13>
| 14> %pal nprocs 18
| 15> end
| 16>
| 17> %scf
| 18>   MaxIter 150
| 19> end
| 20>
| 21>
| 22>                          ****END OF INPUT****

CARTESIAN COORDINATES (ANGSTROEM)
---------------------------------
  C     -0.477490    0.608190   -4.101050
  C      0.184670   -0.506640   -4.916760
  O     -0.158690   -1.701090   -4.657980
  O      1.055940   -0.174410   -5.740370
  H     -0.099030    1.556720   -4.420380
  H     -0.259310    0.468280   -3.062920
  H     -1.536640    0.578260   -4.250100

 Total Charge           Charge          ....   -1
 Multiplicity           Mult            ....    1
 Number of Electrons    NEL             ....   32
 Basis Dimension        Dim             ....  110

ORBITAL ENERGIES
----------------

  NO   OCC          E(Eh)            E(eV)
   0   2.0000     -19.180331      -521.9233
   1   2.0000     -19.176036      -521.8065
   2   2.0000     -10.369946      -282.1806
   3   2.0000     -10.260911      -279.2136
   4   2.0000      -1.124743       -30.6058
   5   2.0000      -1.027927       -27.9713
   6   2.0000      -0.816924       -22.2296
   7   2.0000      -0.588838       -16.0231
   8   2.0000      -0.531329       -14.4582
   9   2.0000      -0.523167       -14.2361
  10   2.0000      -0.520461       -14.1625
  11   2.0000      -0.469917       -12.7871
  12   2.0000      -0.449681       -12.2364
  13   2.0000      -0.344147        -9.3647
  14   2.0000      -0.333128        -9.0649
  15   2.0000      -0.323793        -8.8109
  16   0.0000       0.096902         2.6368
  17   0.0000       0.131927         3.5899
  18   0.0000       0.133680         3.6376
  19   0.0000       0.149853         4.0777
  20   0.0000       0.172154         4.6845

MULLIKEN ATOMIC CHARGES
-----------------------
   0 C :    0.408593
   1 C :    0.009359
   2 O :   -0.715658
   3 O :   -0.650206
   4 H :   -0.049162
   5 H :   -0.001164
   6 H :   -0.001762
Sum of atomic charges:   -1.0000000

LOEWDIN ATOMIC CHARGES
----------------------
   0 C :    0.157919
   1 C :   -0.350974
   2 O :   -0.389518
   3 O :   -0.361210
   4 H :   -0.026340
   5 H :   -0.014109
   6 H :   -0.015767

  Mayer bond orders larger than 0.100000
B(  0-C ,  1-C ) :   1.2239 B(  0-C ,  4-H ) :   0.8841 B(  0-C ,  5-H ) :   0.8285
B(  0-C ,  6-H ) :   0.8213 B(  1-C ,  2-O ) :   1.4829 B(  1-C ,  3-O ) :   1.5368
B(  1-C ,  4-H ) :   0.2158 B(  1-C ,  5-H ) :   0.1426 B(  1-C ,  6-H ) :   0.1498

Dispersion correction           -0.000907159
FINAL SINGLE POINT ENERGY      -228.415649913949

DIPOLE MOMENT
-------------
                                X             Y             Z
Electronic contribution:      1.33314      -2.11590      -1.62594
Nuclear contribution   :     -2.19461       3.67480       2.63888
                        -----------------------------------------
Total Dipole Moment    :     -0.86147       1.55890       1.01295
                        -----------------------------------------
Magnitude (a.u.)       :      2.04899
Magnitude (Debye)      :      5.20813

Rotational constants in cm-1:     0.393152     0.332423     0.186264
Rotational constants in MHz : 11786.395082  9965.786704  5584.045355

                             ****ORCA TERMINATED NORMALLY****
TOTAL RUN TIME: 0 days 0 hours 0 minutes 5 seconds 694 msec
