                         Program Version 5.0.0 -  RELEASE  -
|  1> !wB97X-D3 RIJCOSX def2-SVPD def2/J TightSCF CPCM(Water)
|  2> *xyz 1 1
|  3> C          2.48645       -2.67712       -2.56345
|  4> C          3.03764       -2.36672       -3.92351
|  5> N          2.28036       -2.45441       -4.96769
|  6> N          4.32174       -2.01793       -4.01664
|  7> H          4.87994       -1.91167       -3.17382
|  8> H          4.71015       -1.67088       -4.88356
|  9> H          1.27042       -2.41265       -4.86614
| 10> H          2.58183       -2.05528       -5.84688
| 11> H          1.45238       -2.93848       -2.64882
| 12> H          2.58636       -1.81799       -1.93352
| 13> H          3.02742       -3.49632       -2.13781
| 14> *
| 15>
| 16> %MaxCore 64000
| 17>
| 18> %pal nprocs 18
| 19> end
| 20>
| 21> %scf
| 22>   MaxIter 150
| 23> end
| 24>
| 25>
| 26>                          ****END OF INPUT****

CARTESIAN COORDINATES (ANGSTROEM)
---------------------------------
  C      2.486450   -2.677120   -2.563450
  C      3.037640   -2.366720   -3.923510
  N      2.280360   -2.454410   -4.967690
  N      4.321740   -2.017930   -4.016640
  H      4.879940   -1.911670   -3.173820
  H      4.710150   -1.670880   -4.883560
  H      1.270420   -2.412650   -4.866140
  H      2.581830   -2.055280   -5.846880
  H      1.452380   -2.938480   -2.648820
  H      2.586360   -1.817990   -1.933520
  H      3.027420   -3.496320   -2.137810

 Total Charge           Charge          ....    1
 Multiplicity           Mult            ....    1
 Number of Electrons    NEL             ....   32
 Basis Dimension        Dim             ....  136

ORBITAL ENERGIES
----------------

  NO   OCC          E(Eh)            E(eV)
   0   2.0000     -14.501047      -394.5936
   1   2.0000     -14.496868      -394.4798
   2   2.0000     -10.441209      -284.1197
   3   2.0000     -10.310657      -280.5672
   4   2.0000      -1.134731       -30.8776
   5   2.0000      -1.033798       -28.1311
   6   2.0000      -0.883652       -24.0454
   7   2.0000      -0.763771       -20.7833
   8   2.0000      -0.695432       -18.9237
   9   2.0000      -0.682699       -18.5772
  10   2.0000      -0.614455       -16.7202
  11   2.0000      -0.582929       -15.8623
  12   2.0000      -0.530735       -14.4420
  13   2.0000      -0.521414       -14.1884
  14   2.0000      -0.495734       -13.4896
  15   2.0000      -0.408374       -11.1124
  16   0.0000       0.046596         1.2679
  17   0.0000       0.089240         2.4283
  18   0.0000       0.129290         3.5182
  19   0.0000       0.136957         3.7268
  20   0.0000       0.157091         4.2747

MULLIKEN ATOMIC CHARGES
-----------------------
   0 C :    0.445192
   1 C :    0.215086
   2 N :    0.040065
   3 N :    0.001993
   4 H :    0.065389
   5 H :   -0.063446
   6 H :    0.076140
   7 H :   -0.015245
   8 H :    0.098906
   9 H :    0.064469
  10 H :    0.071450
Sum of atomic charges:    1.0000000

LOEWDIN ATOMIC CHARGES
----------------------
   0 C :    0.222246
   1 C :   -0.059863
   2 N :    0.277344
   3 N :    0.275881
   4 H :    0.060278
   5 H :    0.052509
   6 H :    0.066296
   7 H :    0.061320
   8 H :    0.005978
   9 H :    0.019196
  10 H :    0.018814

  Mayer bond orders larger than 0.100000
B(  0-C ,  1-C ) :   1.3058 B(  0-C ,  8-H ) :   0.7885 B(  0-C ,  9-H ) :   0.8095
B(  0-C , 10-H ) :   0.7630 B(  1-C ,  2-N ) :   1.1280 B(  1-C ,  3-N ) :   1.1240
B(  1-C ,  5-H ) :  -0.1281 B(  1-C ,  7-H ) :  -0.1043 B(  1-C ,  8-H ) :   0.2346
B(  1-C ,  9-H ) :   0.1584 B(  1-C , 10-H ) :   0.1804 B(  2-N ,  3-N ) :   0.1362
B(  2-N ,  6-H ) :   1.0367 B(  2-N ,  7-H ) :   1.1777 B(  3-N ,  4-H ) :   1.1028
B(  3-N ,  5-H ) :   1.2319 B(  4-H ,  5-H ) :  -0.1472 B(  6-H ,  7-H ) :  -0.1154

Dispersion correction           -0.001683817
FINAL SINGLE POINT ENERGY      -189.639731434144

DIPOLE MOMENT
-------------
                                X             Y             Z
Electronic contribution:      0.82504       0.39099      -2.13831
Nuclear contribution   :     -0.70516       0.22720       1.57908
                        -----------------------------------------
Total Dipole Moment    :      0.11988       0.61820      -0.55923
                        -----------------------------------------
Magnitude (a.u.)       :      0.84219
Magnitude (Debye)      :      2.14067

Rotational constants in cm-1:     0.330529     0.301293     0.162717
Rotational constants in MHz :  9909.000224  9032.538169  4878.126278

                             ****ORCA TERMINATED NORMALLY****
TOTAL RUN TIME: 0 days 0 hours 0 minutes 6 seconds 931 msec
