                         Program Version 5.0.0 -  RELEASE  -
|  1> !wB97X-D3 RIJCOSX def2-SVPD def2/J TightSCF CPCM(Water) xyzfile
|  2>
|  3> *xyzfile 0 1 B.xyz
|  4>
|  5> %MaxCore 64000
|  6>
|  7> %pal nprocs 18
|  8> end
|  9>
| 10> %scf
| 11>   MaxIter 150
| 12> end
| 13>
| 14>
| 15>                          ****END OF INPUT****

CARTESIAN COORDINATES (ANGSTROEM)
---------------------------------
  C      2.486452   -2.677121   -2.563447
  C     -0.870963    0.248043   -2.662804
  C     -0.477492    0.608191   -4.101052
  H      0.206773    1.458299   -4.118748
  H     -1.368442    0.929419   -4.647855
  C      0.184673   -0.506640   -4.916760
  C      3.037640   -2.366715   -3.923509
  N      2.280360   -2.454408   -4.967692
  N      4.321736   -2.017932   -4.016641
  H      4.879940   -1.911668   -3.173823
  H      4.710148   -1.670882   -4.883561
  H      1.270423   -2.412650   -4.866143
  H      2.581829   -2.055282   -5.846878
  O     -0.158685   -1.701088   -4.657981
  O      1.055938   -0.174410   -5.740373
  C      2.497991   -1.469464   -1.610303
  C      1.582841   -0.321986   -2.042619
  H      2.193083   -1.833912   -0.625420
  H      3.523356   -1.103982   -1.490392
  C      0.100160   -0.673551   -1.915815
  H      1.822311   -0.040361   -3.072834
  H      1.813180    0.557019   -1.433266
  H     -0.063284   -1.679120   -2.301112
  H     -0.168820   -0.691680   -0.853831
  H     -1.001048    1.181040   -2.104071
  H     -1.844645   -0.246592   -2.663281
  H      1.472592   -3.051527   -2.694366
  H      3.083201   -3.490638   -2.141472

 Total Charge           Charge          ....    0
 Multiplicity           Mult            ....    1
 Number of Electrons    NEL             ....   94
 Basis Dimension        Dim             ....  374

ORBITAL ENERGIES
----------------

  NO   OCC          E(Eh)            E(eV)
   0   2.0000     -19.191709      -522.2330
   1   2.0000     -19.189713      -522.1786
   2   2.0000     -14.483043      -394.1036
   3   2.0000     -14.463723      -393.5779
   4   2.0000     -10.418032      -283.4891
   5   2.0000     -10.379143      -282.4308
   6   2.0000     -10.309540      -280.5368
   7   2.0000     -10.295375      -280.1514
   8   2.0000     -10.280599      -279.7493
   9   2.0000     -10.276858      -279.6475
  10   2.0000     -10.274038      -279.5708
  11   2.0000     -10.271527      -279.5025
  12   2.0000      -1.144338       -31.1390
  13   2.0000      -1.112981       -30.2858
  14   2.0000      -1.045968       -28.4622
  15   2.0000      -1.013381       -27.5755
  16   2.0000      -0.927332       -25.2340
  17   2.0000      -0.889584       -24.2068
  18   2.0000      -0.839693       -22.8492
  19   2.0000      -0.784062       -21.3354
  20   2.0000      -0.750974       -20.4350
  21   2.0000      -0.711484       -19.3605
  22   2.0000      -0.683329       -18.5943
  23   2.0000      -0.673594       -18.3294
  24   2.0000      -0.647412       -17.6170
  25   2.0000      -0.611319       -16.6348
  26   2.0000      -0.595220       -16.1968
  27   2.0000      -0.580437       -15.7945
  28   2.0000      -0.561952       -15.2915
  29   2.0000      -0.553566       -15.0633
  30   2.0000      -0.552485       -15.0339
  31   2.0000      -0.524624       -14.2757
  32   2.0000      -0.519172       -14.1274
  33   2.0000      -0.509500       -13.8642
  34   2.0000      -0.501204       -13.6385
  35   2.0000      -0.482837       -13.1387
  36   2.0000      -0.477592       -12.9959
  37   2.0000      -0.448700       -12.2098
  38   2.0000      -0.445039       -12.1101
  39   2.0000      -0.437084       -11.8937
  40   2.0000      -0.413811       -11.2604
  41   2.0000      -0.410134       -11.1603
  42   2.0000      -0.399796       -10.8790
  43   2.0000      -0.386781       -10.5248
  44   2.0000      -0.357792        -9.7360
  45   2.0000      -0.340287        -9.2597
  46   2.0000      -0.333771        -9.0824
  47   0.0000       0.059279         1.6131
  48   0.0000       0.091279         2.4838
  49   0.0000       0.101623         2.7653
  50   0.0000       0.112149         3.0517
  51   0.0000       0.114053         3.1035

MULLIKEN ATOMIC CHARGES
-----------------------
   0 C :    0.151853
   1 C :    0.441715
   2 C :    0.212117
   3 H :    0.205817
   4 H :   -0.232903
   5 C :    0.202545
   6 C :    0.573050
   7 N :    0.252109
   8 N :   -0.024584
   9 H :    0.054958
  10 H :   -0.063955
  11 H :   -0.241403
  12 H :    0.040541
  13 O :   -0.821663
  14 O :   -0.619970
  15 C :    0.211692
  16 C :    0.122350
  17 H :   -0.016075
  18 H :   -0.041980
  19 C :   -0.001725
  20 H :   -0.139641
  21 H :   -0.155489
  22 H :    0.021229
  23 H :   -0.164757
  24 H :   -0.106303
  25 H :    0.047458
  26 H :    0.096497
  27 H :   -0.003482
Sum of atomic charges:    0.0000000

LOEWDIN ATOMIC CHARGES
----------------------
   0 C :    0.060463
   1 C :   -0.021451
   2 C :    0.023337
   3 H :    0.018461
   4 H :    0.030710
   5 C :   -0.249784
   6 C :   -0.037199
   7 N :    0.291847
   8 N :    0.274819
   9 H :    0.045042
  10 H :    0.047904
  11 H :   -0.104445
  12 H :    0.039130
  13 O :   -0.287317
  14 O :   -0.300709
  15 C :   -0.005481
  16 C :   -0.011270
  17 H :    0.033872
  18 H :    0.022636
  19 C :   -0.030328
  20 H :    0.005845
  21 H :    0.030764
  22 H :   -0.015117
  23 H :    0.026265
  24 H :    0.020783
  25 H :    0.020570
  26 H :    0.021801
  27 H :    0.048852

  Mayer bond orders larger than 0.100000
B(  0-C ,  6-C ) :   1.1126 B(  0-C ,  7-N ) :   0.1061 B(  0-C , 15-C ) :   1.1777
B(  0-C , 17-H ) :   0.1375 B(  0-C , 18-H ) :   0.1549 B(  0-C , 26-H ) :   0.7746
B(  0-C , 27-H ) :   0.7724 B(  1-C ,  2-C ) :   1.1828 B(  1-C ,  4-H ) :   0.1127
B(  1-C , 19-C ) :   1.2868 B(  1-C , 24-H ) :   0.7965 B(  1-C , 25-H ) :   0.6882
B(  2-C ,  3-H ) :   0.7531 B(  2-C ,  4-H ) :   0.7856 B(  2-C ,  5-C ) :   1.1931
B(  2-C , 24-H ) :   0.1374 B(  3-H ,  5-C ) :   0.2530 B(  4-H ,  5-C ) :   0.2684
B(  5-C , 13-O ) :   1.2683 B(  5-C , 14-O ) :   1.5758 B(  6-C ,  7-N ) :   1.1790
B(  6-C ,  8-N ) :   1.0190 B(  6-C , 12-H ) :  -0.1297 B(  6-C , 26-H ) :   0.1652
B(  6-C , 27-H ) :   0.1618 B(  7-N ,  8-N ) :   0.1812 B(  7-N , 11-H ) :   0.9877
B(  7-N , 12-H ) :   1.0830 B(  8-N ,  9-H ) :   1.1224 B(  8-N , 10-H ) :   1.2448
B(  9-H , 10-H ) :  -0.1716 B( 11-H , 12-H ) :  -0.1322 B( 11-H , 13-O ) :   0.2692
B( 13-O , 14-O ) :   0.1039 B( 15-C , 16-C ) :   1.2098 B( 15-C , 17-H ) :   0.8783
B( 15-C , 18-H ) :   0.7474 B( 15-C , 20-H ) :   0.1572 B( 15-C , 26-H ) :   0.1471
B( 15-C , 27-H ) :   0.1208 B( 16-C , 17-H ) :   0.1140 B( 16-C , 18-H ) :   0.1875
B( 16-C , 19-C ) :   1.1755 B( 16-C , 20-H ) :   0.8607 B( 16-C , 21-H ) :   0.8967
B( 16-C , 22-H ) :   0.1137 B( 16-C , 23-H ) :   0.2301 B( 19-C , 20-H ) :   0.1214
B( 19-C , 21-H ) :   0.1107 B( 19-C , 22-H ) :   0.8608 B( 19-C , 23-H ) :   0.8373
B( 19-C , 24-H ) :   0.1924 B( 19-C , 25-H ) :   0.2128 B( 22-H , 26-H ) :   0.1076

Dispersion correction           -0.013688326
FINAL SINGLE POINT ENERGY      -573.980929795730

DIPOLE MOMENT
-------------
                                X             Y             Z
Electronic contribution:      2.64808      -3.05474      -8.18247
Nuclear contribution   :      1.39386       1.90489      10.36520
                        -----------------------------------------
Total Dipole Moment    :      4.04194      -1.14985       2.18274
                        -----------------------------------------
Magnitude (a.u.)       :      4.73538
Magnitude (Debye)      :     12.03637

Rotational constants in cm-1:     0.041165     0.025922     0.019001
Rotational constants in MHz :  1234.086888   777.109255   569.639629

                             ****ORCA TERMINATED NORMALLY****
TOTAL RUN TIME: 0 days 0 hours 0 minutes 54 seconds 811 msec
