                         Program Version 5.0.0 -  RELEASE  -
|  1> !wB97X-D3 RIJCOSX def2-SVPD def2/J TightSCF CPCM(Water)
|  2> *xyz 0 1
|  3> C         -0.47749        0.60819       -4.10105
|  4> C          0.18467       -0.50664       -4.91676
|  5> F         -0.15869       -1.70109       -4.65798
|  6> O          1.05594       -0.17441       -5.74037
|  7> H         -0.09903        1.55672       -4.42038
|  8> H         -0.25931        0.46828       -3.06292
|  9> H         -1.53664        0.57826       -4.25010
| 10> *
| 11>
| 12> %MaxCore 64000
| 13>
| 14> %pal nprocs 18
| 15> end
| 16>
| 17> %scf
| 18>   MaxIter 150
| 19> end
| 20>
| 21>
| 22>                          ****END OF INPUT****

CARTESIAN COORDINATES (ANGSTROEM)
---------------------------------
  C     -0.477490    0.608190   -4.101050
  C      0.184670   -0.506640   -4.916760
  F     -0.158690   -1.701090   -4.657980
  O      1.055940   -0.174410   -5.740370
  H     -0.099030    1.556720   -4.420380
  H     -0.259310    0.468280   -3.062920
  H     -1.536640    0.578260   -4.250100

 Total Charge           Charge          ....    0
 Multiplicity           Mult            ....    1
 Number of Electrons    NEL             ....   32
 Basis Dimension        Dim             ....  110

ORBITAL ENERGIES
----------------

  NO   OCC          E(Eh)            E(eV)
   0   2.0000     -24.873075      -676.8308
   1   2.0000     -19.265485      -524.2405
   2   2.0000     -10.483650      -285.2746
   3   2.0000     -10.302032      -280.3325
   4   2.0000      -1.417437       -38.5704
   5   2.0000      -1.158631       -31.5279
   6   2.0000      -0.871772       -23.7221
   7   2.0000      -0.763141       -20.7661
   8   2.0000      -0.653426       -17.7806
   9   2.0000      -0.646413       -17.5898
  10   2.0000      -0.614002       -16.7078
  11   2.0000      -0.531258       -14.4563
  12   2.0000      -0.524498       -14.2723
  13   2.0000      -0.505235       -13.7481
  14   2.0000      -0.465625       -12.6703
  15   2.0000      -0.404204       -10.9990
  16   0.0000       0.054570         1.4849
  17   0.0000       0.089878         2.4457
  18   0.0000       0.130976         3.5640
  19   0.0000       0.153705         4.1825
  20   0.0000       0.161189         4.3862

MULLIKEN ATOMIC CHARGES
-----------------------
   0 C :    0.249842
   1 C :    0.435170
   2 F :   -0.387964
   3 O :   -0.491821
   4 H :    0.004766
   5 H :    0.096936
   6 H :    0.093072
Sum of atomic charges:   -0.0000000

LOEWDIN ATOMIC CHARGES
----------------------
   0 C :    0.220681
   1 C :   -0.016902
   2 F :   -0.046547
   3 O :   -0.180529
   4 H :    0.002697
   5 H :    0.011309
   6 H :    0.009292

  Mayer bond orders larger than 0.100000
B(  0-C ,  1-C ) :   1.2580 B(  0-C ,  4-H ) :   0.9134 B(  0-C ,  5-H ) :   0.8213
B(  0-C ,  6-H ) :   0.8184 B(  1-C ,  2-F ) :   0.7529 B(  1-C ,  3-O ) :   1.8320
B(  1-C ,  4-H ) :   0.1808 B(  1-C ,  5-H ) :   0.1104 B(  1-C ,  6-H ) :   0.1145

Dispersion correction           -0.000898239
FINAL SINGLE POINT ENERGY      -252.850269341702

DIPOLE MOMENT
-------------
                                X             Y             Z
Electronic contribution:      0.85371      -4.62506      -1.38300
Nuclear contribution   :     -1.87439       4.97468       2.43802
                        -----------------------------------------
Total Dipole Moment    :     -1.02068       0.34962       1.05502
                        -----------------------------------------
Magnitude (a.u.)       :      1.50900
Magnitude (Debye)      :      3.83558

Rotational constants in cm-1:     0.370842     0.317886     0.176700
Rotational constants in MHz : 11117.569466  9529.969862  5297.328364

                             ****ORCA TERMINATED NORMALLY****
TOTAL RUN TIME: 0 days 0 hours 0 minutes 5 seconds 785 msec
