                         Program Version 5.0.0 -  RELEASE  -
|  1> !wB97X-D3 RIJCOSX def2-SVPD def2/J TightSCF CPCM(Water)
|  2> *xyz 0 1
|  3> C          2.48645       -2.67712       -2.56345
|  4> C          3.03764       -2.36672       -3.92351
|  5> C          2.28036       -2.45441       -4.96769
|  6> N          4.32174       -2.01793       -4.01664
|  7> H          4.87994       -1.91167       -3.17382
|  8> H          4.71015       -1.67088       -4.88356
|  9> H          1.27042       -2.41265       -4.86614
| 10> H          2.58183       -2.05528       -5.84688
| 11> H          1.45238       -2.93848       -2.64882
| 12> H          2.58636       -1.81799       -1.93352
| 13> H          3.02742       -3.49632       -2.13781
| 14> *
| 15>
| 16> %MaxCore 64000
| 17>
| 18> %pal nprocs 18
| 19> end
| 20>
| 21> %scf
| 22>   MaxIter 150
| 23> end
| 24>
| 25>
| 26>                          ****END OF INPUT****

CARTESIAN COORDINATES (ANGSTROEM)
---------------------------------
  C      2.486450   -2.677120   -2.563450
  C      3.037640   -2.366720   -3.923510
  C      2.280360   -2.454410   -4.967690
  N      4.321740   -2.017930   -4.016640
  H      4.879940   -1.911670   -3.173820
  H      4.710150   -1.670880   -4.883560
  H      1.270420   -2.412650   -4.866140
  H      2.581830   -2.055280   -5.846880
  H      1.452380   -2.938480   -2.648820
  H      2.586360   -1.817990   -1.933520
  H      3.027420   -3.496320   -2.137810

 Total Charge           Charge          ....    0
 Multiplicity           Mult            ....    1
 Number of Electrons    NEL             ....   32
 Basis Dimension        Dim             ....  136

ORBITAL ENERGIES
----------------

  NO   OCC          E(Eh)            E(eV)
   0   2.0000     -14.432680      -392.7332
   1   2.0000     -10.318759      -280.7877
   2   2.0000     -10.275274      -279.6044
   3   2.0000     -10.222284      -278.1625
   4   2.0000      -1.031231       -28.0612
   5   2.0000      -0.869133       -23.6503
   6   2.0000      -0.801525       -21.8106
   7   2.0000      -0.672068       -18.2879
   8   2.0000      -0.619298       -16.8519
   9   2.0000      -0.578955       -15.7542
  10   2.0000      -0.532211       -14.4822
  11   2.0000      -0.494034       -13.4433
  12   2.0000      -0.488135       -13.2828
  13   2.0000      -0.443678       -12.0731
  14   2.0000      -0.430480       -11.7140
  15   2.0000      -0.291027        -7.9193
  16   0.0000       0.096994         2.6393
  17   0.0000       0.117812         3.2058
  18   0.0000       0.133707         3.6384
  19   0.0000       0.140258         3.8166
  20   0.0000       0.168888         4.5957

MULLIKEN ATOMIC CHARGES
-----------------------
   0 C :    0.684725
   1 C :   -0.569039
   2 C :    0.321809
   3 N :    0.124572
   4 H :   -0.106616
   5 H :   -0.111259
   6 H :   -0.085521
   7 H :   -0.337592
   8 H :    0.066672
   9 H :   -0.008509
  10 H :    0.020759
Sum of atomic charges:    0.0000000

LOEWDIN ATOMIC CHARGES
----------------------
   0 C :    0.163096
   1 C :   -0.299506
   2 C :    0.125071
   3 N :    0.168899
   4 H :    0.016640
   5 H :    0.015868
   6 H :   -0.082977
   7 H :   -0.086050
   8 H :   -0.011429
   9 H :   -0.004461
  10 H :   -0.005150

  Mayer bond orders larger than 0.100000
B(  0-C ,  1-C ) :   1.3665 B(  0-C ,  8-H ) :   0.7970 B(  0-C ,  9-H ) :   0.6512
B(  0-C , 10-H ) :   0.7279 B(  1-C ,  2-C ) :   2.0033 B(  1-C ,  3-N ) :   1.1715
B(  1-C ,  7-H ) :   0.2370 B(  1-C ,  8-H ) :   0.2149 B(  1-C ,  9-H ) :   0.3134
B(  1-C , 10-H ) :   0.2225 B(  2-C ,  3-N ) :   0.2408 B(  2-C ,  6-H ) :   0.8405
B(  2-C ,  7-H ) :   0.7326 B(  3-N ,  4-H ) :   1.1693 B(  3-N ,  5-H ) :   1.1764
B(  4-H ,  5-H ) :  -0.1326 B(  6-H ,  7-H ) :   0.2157

Dispersion correction           -0.001693990
FINAL SINGLE POINT ENERGY      -173.089882463753

DIPOLE MOMENT
-------------
                                X             Y             Z
Electronic contribution:      1.65230       0.34567      -0.70995
Nuclear contribution   :     -0.87498       0.20680       1.33581
                        -----------------------------------------
Total Dipole Moment    :      0.77732       0.55247       0.62586
                        -----------------------------------------
Magnitude (a.u.)       :      1.14068
Magnitude (Debye)      :      2.89938

Rotational constants in cm-1:     0.351941     0.304186     0.168624
Rotational constants in MHz : 10550.928440  9119.266441  5055.221775

                             ****ORCA TERMINATED NORMALLY****
TOTAL RUN TIME: 0 days 0 hours 0 minutes 7 seconds 436 msec
