                         Program Version 5.0.0 -  RELEASE  -
|  1> !wB97X-D3 RIJCOSX def2-SVPD def2/J TightSCF CPCM(Water)
|  2> *xyz 0 1
|  3> C         -0.47749        0.60819       -4.10105
|  4> C          0.18467       -0.50664       -4.91676
|  5> O         -0.15869       -1.70109       -4.65798
|  6> F          1.05594       -0.17441       -5.74037
|  7> H         -0.09903        1.55672       -4.42038
|  8> H         -0.25931        0.46828       -3.06292
|  9> H         -1.53664        0.57826       -4.25010
| 10> *
| 11>
| 12> %MaxCore 64000
| 13>
| 14> %pal nprocs 18
| 15> end
| 16>
| 17> %scf
| 18>   MaxIter 150
| 19> end
| 20>
| 21>
| 22>                          ****END OF INPUT****

CARTESIAN COORDINATES (ANGSTROEM)
---------------------------------
  C     -0.477490    0.608190   -4.101050
  C      0.184670   -0.506640   -4.916760
  O     -0.158690   -1.701090   -4.657980
  F      1.055940   -0.174410   -5.740370
  H     -0.099030    1.556720   -4.420380
  H     -0.259310    0.468280   -3.062920
  H     -1.536640    0.578260   -4.250100

 Total Charge           Charge          ....    0
 Multiplicity           Mult            ....    1
 Number of Electrons    NEL             ....   32
 Basis Dimension        Dim             ....  110

ORBITAL ENERGIES
----------------

  NO   OCC          E(Eh)            E(eV)
   0   2.0000     -24.881720      -677.0660
   1   2.0000     -19.262072      -524.1476
   2   2.0000     -10.486625      -285.3556
   3   2.0000     -10.302498      -280.3452
   4   2.0000      -1.436038       -39.0766
   5   2.0000      -1.143404       -31.1136
   6   2.0000      -0.873334       -23.7646
   7   2.0000      -0.772716       -21.0267
   8   2.0000      -0.663455       -18.0535
   9   2.0000      -0.655761       -17.8442
  10   2.0000      -0.612663       -16.6714
  11   2.0000      -0.533265       -14.5109
  12   2.0000      -0.521235       -14.1835
  13   2.0000      -0.502926       -13.6853
  14   2.0000      -0.455160       -12.3855
  15   2.0000      -0.402396       -10.9498
  16   0.0000       0.048830         1.3287
  17   0.0000       0.091097         2.4789
  18   0.0000       0.131040         3.5658
  19   0.0000       0.152654         4.1539
  20   0.0000       0.161345         4.3904

MULLIKEN ATOMIC CHARGES
-----------------------
   0 C :    0.231758
   1 C :    0.436135
   2 O :   -0.551099
   3 F :   -0.335082
   4 H :    0.039119
   5 H :    0.092204
   6 H :    0.086964
Sum of atomic charges:    0.0000000

LOEWDIN ATOMIC CHARGES
----------------------
   0 C :    0.220813
   1 C :   -0.015695
   2 O :   -0.202300
   3 F :   -0.026568
   4 H :   -0.002008
   5 H :    0.013521
   6 H :    0.012237

  Mayer bond orders larger than 0.100000
B(  0-C ,  1-C ) :   1.2752 B(  0-C ,  4-H ) :   0.8999 B(  0-C ,  5-H ) :   0.8260
B(  0-C ,  6-H ) :   0.8202 B(  1-C ,  2-O ) :   1.7671 B(  1-C ,  3-F ) :   0.8275
B(  1-C ,  4-H ) :   0.1374 B(  1-C ,  5-H ) :   0.1196 B(  1-C ,  6-H ) :   0.1287

Dispersion correction           -0.000911729
FINAL SINGLE POINT ENERGY      -252.843518785818

DIPOLE MOMENT
-------------
                                X             Y             Z
Electronic contribution:      3.07736      -1.82849      -3.36480
Nuclear contribution   :     -3.12947       3.39716       3.55645
                        -----------------------------------------
Total Dipole Moment    :     -0.05211       1.56868       0.19165
                        -----------------------------------------
Magnitude (a.u.)       :      1.58120
Magnitude (Debye)      :      4.01909

Rotational constants in cm-1:     0.366922     0.321471     0.176896
Rotational constants in MHz : 11000.056350  9637.461211  5303.212706

                             ****ORCA TERMINATED NORMALLY****
TOTAL RUN TIME: 0 days 0 hours 0 minutes 5 seconds 610 msec
