                         Program Version 5.0.0 -  RELEASE  -
|  1> !wB97X-D3 RIJCOSX def2-SVPD def2/J TightSCF CPCM(Water)
|  2> *xyz 0 1
|  3> C          2.48645       -2.67712       -2.56345
|  4> C          3.03764       -2.36672       -3.92351
|  5> N          2.28036       -2.45441       -4.96769
|  6> C          4.32174       -2.01793       -4.01664
|  7> H          4.87994       -1.91167       -3.17382
|  8> H          4.71015       -1.67088       -4.88356
|  9> H          1.27042       -2.41265       -4.86614
| 10> H          2.58183       -2.05528       -5.84688
| 11> H          1.45238       -2.93848       -2.64882
| 12> H          2.58636       -1.81799       -1.93352
| 13> H          3.02742       -3.49632       -2.13781
| 14> *
| 15>
| 16> %MaxCore 64000
| 17>
| 18> %pal nprocs 18
| 19> end
| 20>
| 21> %scf
| 22>   MaxIter 150
| 23> end
| 24>
| 25>
| 26>                          ****END OF INPUT****

CARTESIAN COORDINATES (ANGSTROEM)
---------------------------------
  C      2.486450   -2.677120   -2.563450
  C      3.037640   -2.366720   -3.923510
  N      2.280360   -2.454410   -4.967690
  C      4.321740   -2.017930   -4.016640
  H      4.879940   -1.911670   -3.173820
  H      4.710150   -1.670880   -4.883560
  H      1.270420   -2.412650   -4.866140
  H      2.581830   -2.055280   -5.846880
  H      1.452380   -2.938480   -2.648820
  H      2.586360   -1.817990   -1.933520
  H      3.027420   -3.496320   -2.137810

 Total Charge           Charge          ....    0
 Multiplicity           Mult            ....    1
 Number of Electrons    NEL             ....   32
 Basis Dimension        Dim             ....  136

ORBITAL ENERGIES
----------------

  NO   OCC          E(Eh)            E(eV)
   0   2.0000     -14.435567      -392.8117
   1   2.0000     -10.318776      -280.7882
   2   2.0000     -10.275240      -279.6035
   3   2.0000     -10.222175      -278.1595
   4   2.0000      -1.046132       -28.4667
   5   2.0000      -0.865216       -23.5437
   6   2.0000      -0.794583       -21.6217
   7   2.0000      -0.680409       -18.5149
   8   2.0000      -0.619498       -16.8574
   9   2.0000      -0.576162       -15.6782
  10   2.0000      -0.531852       -14.4724
  11   2.0000      -0.490721       -13.3532
  12   2.0000      -0.487571       -13.2675
  13   2.0000      -0.447761       -12.1842
  14   2.0000      -0.439411       -11.9570
  15   2.0000      -0.281236        -7.6528
  16   0.0000       0.097566         2.6549
  17   0.0000       0.115118         3.1325
  18   0.0000       0.132311         3.6004
  19   0.0000       0.138640         3.7726
  20   0.0000       0.171161         4.6575

MULLIKEN ATOMIC CHARGES
-----------------------
   0 C :    0.692389
   1 C :   -0.568218
   2 N :    0.107542
   3 C :    0.361744
   4 H :   -0.190348
   5 H :   -0.359676
   6 H :   -0.014109
   7 H :   -0.046686
   8 H :   -0.053276
   9 H :    0.032961
  10 H :    0.037677
Sum of atomic charges:    0.0000000

LOEWDIN ATOMIC CHARGES
----------------------
   0 C :    0.164044
   1 C :   -0.301362
   2 N :    0.164255
   3 C :    0.134680
   4 H :   -0.088439
   5 H :   -0.096847
   6 H :    0.022525
   7 H :    0.024447
   8 H :   -0.017101
   9 H :   -0.002666
  10 H :   -0.003536

  Mayer bond orders larger than 0.100000
B(  0-C ,  1-C ) :   1.1577 B(  0-C ,  8-H ) :   0.7398 B(  0-C ,  9-H ) :   0.7711
B(  0-C , 10-H ) :   0.7348 B(  1-C ,  2-N ) :   1.1183 B(  1-C ,  3-C ) :   1.8659
B(  1-C ,  4-H ) :   0.1002 B(  1-C ,  5-H ) :   0.1466 B(  1-C ,  8-H ) :   0.2911
B(  1-C ,  9-H ) :   0.1762 B(  1-C , 10-H ) :   0.1934 B(  2-N ,  3-C ) :   0.2106
B(  2-N ,  6-H ) :   1.0178 B(  2-N ,  7-H ) :   1.1155 B(  3-C ,  4-H ) :   0.8401
B(  3-C ,  5-H ) :   0.8558 B(  6-H ,  7-H ) :  -0.1029

Dispersion correction           -0.001681278
FINAL SINGLE POINT ENERGY      -173.090827494965

DIPOLE MOMENT
-------------
                                X             Y             Z
Electronic contribution:     -0.72584      -0.07300      -1.79515
Nuclear contribution   :     -0.41717       0.30469       1.54910
                        -----------------------------------------
Total Dipole Moment    :     -1.14301       0.23169      -0.24605
                        -----------------------------------------
Magnitude (a.u.)       :      1.19192
Magnitude (Debye)      :      3.02962

Rotational constants in cm-1:     0.351587     0.304754     0.168726
Rotational constants in MHz : 10540.302868  9136.286689  5058.281984

                             ****ORCA TERMINATED NORMALLY****
TOTAL RUN TIME: 0 days 0 hours 0 minutes 7 seconds 494 msec
