                         Program Version 5.0.0 -  RELEASE  -
|  1> !wB97X-D3 RIJCOSX def2-SVPD def2/J TightSCF CPCM(Water) xyzfile
|  2>
|  3> *xyzfile 0 1 D1.xyz
|  4>
|  5> %MaxCore 64000
|  6>
|  7> %pal nprocs 18
|  8> end
|  9>
| 10> %scf
| 11>   MaxIter 150
| 12> end
| 13>
| 14>
| 15>                          ****END OF INPUT****

CARTESIAN COORDINATES (ANGSTROEM)
---------------------------------
  C      2.486452   -2.677121   -2.563447
  C     -0.870963    0.248043   -2.662804
  C     -0.477492    0.608191   -4.101052
  H      0.206773    1.458299   -4.118748
  H     -1.368442    0.929419   -4.647855
  C      0.184673   -0.506640   -4.916760
  C      3.037640   -2.366715   -3.923509
  C      2.280360   -2.454408   -4.967692
  N      4.321736   -2.017932   -4.016641
  H      4.879940   -1.911668   -3.173823
  H      4.710148   -1.670882   -4.883561
  H      1.270423   -2.412650   -4.866143
  H      2.581829   -2.055282   -5.846878
  F     -0.158685   -1.701088   -4.657981
  O      1.055938   -0.174410   -5.740373
  C      2.497991   -1.469464   -1.610303
  C      1.582841   -0.321986   -2.042619
  H      2.193083   -1.833912   -0.625420
  H      3.523356   -1.103982   -1.490392
  C      0.100160   -0.673551   -1.915815
  H      1.822311   -0.040361   -3.072834
  H      1.813180    0.557019   -1.433266
  H     -0.063284   -1.679120   -2.301112
  H     -0.168820   -0.691680   -0.853831
  H     -1.001048    1.181040   -2.104071
  H     -1.844645   -0.246592   -2.663281
  H      1.472592   -3.051527   -2.694366
  H      3.083201   -3.490638   -2.141472

 Total Charge           Charge          ....    0
 Multiplicity           Mult            ....    1
 Number of Electrons    NEL             ....   94
 Basis Dimension        Dim             ....  374

ORBITAL ENERGIES
----------------

  NO   OCC          E(Eh)            E(eV)
   0   2.0000     -24.874615      -676.8727
   1   2.0000     -19.261134      -524.1221
   2   2.0000     -14.427863      -392.6021
   3   2.0000     -10.479339      -285.1573
   4   2.0000     -10.309338      -280.5314
   5   2.0000     -10.306641      -280.4580
   6   2.0000     -10.290810      -280.0272
   7   2.0000     -10.282630      -279.8046
   8   2.0000     -10.281603      -279.7766
   9   2.0000     -10.280974      -279.7595
  10   2.0000     -10.280443      -279.7451
  11   2.0000     -10.207584      -277.7625
  12   2.0000      -1.424560       -38.7643
  13   2.0000      -1.156352       -31.4659
  14   2.0000      -1.026765       -27.9397
  15   2.0000      -0.930263       -25.3137
  16   2.0000      -0.898518       -24.4499
  17   2.0000      -0.851902       -23.1814
  18   2.0000      -0.830440       -22.5974
  19   2.0000      -0.783613       -21.3232
  20   2.0000      -0.763290       -20.7702
  21   2.0000      -0.719763       -19.5857
  22   2.0000      -0.683542       -18.6001
  23   2.0000      -0.679133       -18.4802
  24   2.0000      -0.656023       -17.8513
  25   2.0000      -0.641259       -17.4496
  26   2.0000      -0.612178       -16.6582
  27   2.0000      -0.601248       -16.3608
  28   2.0000      -0.576977       -15.7003
  29   2.0000      -0.569352       -15.4929
  30   2.0000      -0.557313       -15.1653
  31   2.0000      -0.537797       -14.6342
  32   2.0000      -0.527592       -14.3565
  33   2.0000      -0.513545       -13.9743
  34   2.0000      -0.496862       -13.5203
  35   2.0000      -0.485531       -13.2120
  36   2.0000      -0.475012       -12.9257
  37   2.0000      -0.467883       -12.7317
  38   2.0000      -0.453895       -12.3511
  39   2.0000      -0.443672       -12.0729
  40   2.0000      -0.431404       -11.7391
  41   2.0000      -0.426383       -11.6025
  42   2.0000      -0.410992       -11.1837
  43   2.0000      -0.403158       -10.9705
  44   2.0000      -0.400288       -10.8924
  45   2.0000      -0.389926       -10.6104
  46   2.0000      -0.281332        -7.6554
  47   0.0000       0.050321         1.3693
  48   0.0000       0.089929         2.4471
  49   0.0000       0.101693         2.7672
  50   0.0000       0.110038         2.9943
  51   0.0000       0.112664         3.0657

MULLIKEN ATOMIC CHARGES
-----------------------
   0 C :    0.181548
   1 C :    0.427059
   2 C :    0.106110
   3 H :    0.243084
   4 H :   -0.167531
   5 C :    0.504083
   6 C :   -0.282147
   7 C :    1.142158
   8 N :    0.119991
   9 H :   -0.033564
  10 H :   -0.120955
  11 H :   -0.513364
  12 H :   -0.381018
  13 F :   -0.608332
  14 O :   -0.513954
  15 C :    0.265673
  16 C :    0.156132
  17 H :   -0.060026
  18 H :   -0.047390
  19 C :   -0.021596
  20 H :   -0.127984
  21 H :   -0.145576
  22 H :   -0.026813
  23 H :   -0.136449
  24 H :   -0.062233
  25 H :    0.071858
  26 H :    0.153302
  27 H :   -0.122066
Sum of atomic charges:   -0.0000000

LOEWDIN ATOMIC CHARGES
----------------------
   0 C :    0.021529
   1 C :   -0.013058
   2 C :    0.064078
   3 H :    0.040886
   4 H :    0.050002
   5 C :    0.014829
   6 C :   -0.250111
   7 C :    0.146624
   8 N :    0.180137
   9 H :    0.008080
  10 H :    0.015673
  11 H :   -0.142737
  12 H :   -0.078770
  13 F :   -0.053117
  14 O :   -0.155104
  15 C :   -0.016297
  16 C :   -0.013908
  17 H :    0.025509
  18 H :    0.016960
  19 C :   -0.026286
  20 H :    0.004981
  21 H :    0.030454
  22 H :   -0.004076
  23 H :    0.031966
  24 H :    0.030693
  25 H :    0.028132
  26 H :    0.012406
  27 H :    0.030526

  Mayer bond orders larger than 0.100000
B(  0-C ,  6-C ) :   1.1968 B(  0-C ,  7-C ) :   0.1317 B(  0-C ,  8-N ) :   0.1141
B(  0-C , 15-C ) :   1.1425 B(  0-C , 17-H ) :   0.1761 B(  0-C , 18-H ) :   0.2186
B(  0-C , 26-H ) :   0.7441 B(  0-C , 27-H ) :   0.8647 B(  1-C ,  2-C ) :   1.1791
B(  1-C ,  4-H ) :   0.1129 B(  1-C , 19-C ) :   1.3005 B(  1-C , 24-H ) :   0.8027
B(  1-C , 25-H ) :   0.7046 B(  2-C ,  3-H ) :   0.7873 B(  2-C ,  4-H ) :   0.7947
B(  2-C ,  5-C ) :   1.2176 B(  2-C , 24-H ) :   0.1184 B(  3-H ,  5-C ) :   0.1912
B(  4-H ,  5-C ) :   0.2764 B(  5-C , 13-F ) :   0.6119 B(  5-C , 14-O ) :   1.7828
B(  6-C ,  7-C ) :   2.0268 B(  6-C ,  8-N ) :   1.1243 B(  6-C , 11-H ) :   0.2735
B(  6-C , 12-H ) :   0.4918 B(  6-C , 15-C ) :   0.1205 B(  6-C , 26-H ) :   0.1413
B(  6-C , 27-H ) :   0.2103 B(  7-C ,  8-N ) :   0.3814 B(  7-C , 11-H ) :   0.2206
B(  7-C , 12-H ) :   0.1384 B(  7-C , 26-H ) :  -0.1227 B(  8-N ,  9-H ) :   1.1226
B(  8-N , 10-H ) :   1.1785 B(  9-H , 10-H ) :  -0.1561 B( 11-H , 12-H ) :   0.2844
B( 11-H , 13-F ) :   0.2659 B( 13-F , 14-O ) :   0.1132 B( 15-C , 16-C ) :   1.1953
B( 15-C , 17-H ) :   0.8650 B( 15-C , 18-H ) :   0.7212 B( 15-C , 20-H ) :   0.1558
B( 15-C , 26-H ) :   0.1542 B( 16-C , 18-H ) :   0.1964 B( 16-C , 19-C ) :   1.1693
B( 16-C , 20-H ) :   0.8674 B( 16-C , 21-H ) :   0.8771 B( 16-C , 23-H ) :   0.2157
B( 19-C , 20-H ) :   0.1184 B( 19-C , 21-H ) :   0.1136 B( 19-C , 22-H ) :   0.8680
B( 19-C , 23-H ) :   0.8459 B( 19-C , 24-H ) :   0.1865 B( 19-C , 25-H ) :   0.2069
B( 22-H , 26-H ) :   0.1267

Dispersion correction           -0.013473738
FINAL SINGLE POINT ENERGY      -581.830596225472

DIPOLE MOMENT
-------------
                                X             Y             Z
Electronic contribution:     -3.81072      -1.35669      -9.68612
Nuclear contribution   :      3.32973       2.37270      11.37738
                        -----------------------------------------
Total Dipole Moment    :     -0.48099       1.01601       1.69126
                        -----------------------------------------
Magnitude (a.u.)       :      2.03076
Magnitude (Debye)      :      5.16179

Rotational constants in cm-1:     0.040902     0.025807     0.019036
Rotational constants in MHz :  1226.202138   773.670450   570.681201

                             ****ORCA TERMINATED NORMALLY****
TOTAL RUN TIME: 0 days 0 hours 0 minutes 54 seconds 981 msec
