                         Program Version 5.0.0 -  RELEASE  -
|  1> !LC-PBE RIJCOSX def2-TZVPD def2/J TightSCF
|  2> *xyz -1 1
|  3> C          0.70466        1.44313       -4.50363
|  4> C          1.72854        1.42432       -5.63944
|  5> H          2.64672        1.95379       -5.38105
|  6> H          1.29992        1.93061       -6.50361
|  7> S          2.25263       -0.18811       -6.27184
|  8> O          3.56261       -0.44446       -5.63155
|  9> O          2.34494       -0.03374       -7.69650
| 10> O          1.26606       -1.15918       -5.80536
| 11> H         -0.17385        0.91270       -4.80656
| 12> H          0.44778        2.45562       -4.27173
| 13> H          1.12367        0.97423       -3.63791
| 14> *
| 15>
| 16> %MaxCore 64000
| 17>
| 18> %pal nprocs 4
| 19> end
| 20>
| 21> %scf
| 22>   MaxIter 150
| 23> end
| 24>
| 25>
| 26>                          ****END OF INPUT****

CARTESIAN COORDINATES (ANGSTROEM)
---------------------------------
  C      0.704660    1.443130   -4.503630
  C      1.728540    1.424320   -5.639440
  H      2.646720    1.953790   -5.381050
  H      1.299920    1.930610   -6.503610
  S      2.252630   -0.188110   -6.271840
  O      3.562610   -0.444460   -5.631550
  O      2.344940   -0.033740   -7.696500
  O      1.266060   -1.159180   -5.805360
  H     -0.173850    0.912700   -4.806560
  H      0.447780    2.455620   -4.271730
  H      1.123670    0.974230   -3.637910

 Total Charge           Charge          ....   -1
 Multiplicity           Mult            ....    1
 Number of Electrons    NEL             ....   58
 Basis Dimension        Dim             ....  285

ORBITAL ENERGIES
----------------

  NO   OCC          E(Eh)            E(eV)
   0   2.0000     -88.271567     -2401.9914
   1   2.0000     -18.761049      -510.5141
   2   2.0000     -18.753585      -510.3110
   3   2.0000     -18.744681      -510.0687
   4   2.0000      -9.979759      -271.5630
   5   2.0000      -9.972421      -271.3634
   6   2.0000      -7.882327      -214.4890
   7   2.0000      -5.899297      -160.5280
   8   2.0000      -5.897719      -160.4851
   9   2.0000      -5.897389      -160.4761
  10   2.0000      -1.099410       -29.9165
  11   2.0000      -0.955288       -25.9947
  12   2.0000      -0.932189       -25.3661
  13   2.0000      -0.812192       -22.1009
  14   2.0000      -0.674884       -18.3645
  15   2.0000      -0.534098       -14.5335
  16   2.0000      -0.466675       -12.6989
  17   2.0000      -0.464612       -12.6427
  18   2.0000      -0.421582       -11.4718
  19   2.0000      -0.405037       -11.0216
  20   2.0000      -0.401228       -10.9180
  21   2.0000      -0.363108        -9.8807
  22   2.0000      -0.352565        -9.5938
  23   2.0000      -0.293074        -7.9749
  24   2.0000      -0.291374        -7.9287
  25   2.0000      -0.251614        -6.8468
  26   2.0000      -0.240807        -6.5527
  27   2.0000      -0.233369        -6.3503
  28   2.0000      -0.197010        -5.3609
  29   0.0000       0.169942         4.6243
  30   0.0000       0.181399         4.9361
  31   0.0000       0.182674         4.9708
  32   0.0000       0.190914         5.1950
  33   0.0000       0.216105         5.8805

MULLIKEN ATOMIC CHARGES
-----------------------
   0 C :   -1.135731
   1 C :   -0.677057
   2 H :    0.385134
   3 H :    0.377824
   4 S :    1.092889
   5 O :   -0.719162
   6 O :   -0.675608
   7 O :   -0.698707
   8 H :    0.350071
   9 H :    0.381486
  10 H :    0.318862
Sum of atomic charges:   -1.0000000

LOEWDIN ATOMIC CHARGES
----------------------
   0 C :   -0.167938
   1 C :   -0.334083
   2 H :    0.090244
   3 H :    0.084456
   4 S :    0.333023
   5 O :   -0.422768
   6 O :   -0.383747
   7 O :   -0.396452
   8 H :    0.066132
   9 H :    0.058750
  10 H :    0.072384

  Mayer bond orders larger than 0.100000
B(  0-C ,  1-C ) :   0.5054 B(  0-C ,  8-H ) :   0.9494 B(  0-C ,  9-H ) :   0.8900
B(  0-C , 10-H ) :   0.9677 B(  1-C ,  2-H ) :   0.9192 B(  1-C ,  3-H ) :   0.9180
B(  1-C ,  4-S ) :   0.9037 B(  1-C ,  5-O ) :   0.1152 B(  1-C ,  6-O ) :   0.1116
B(  4-S ,  5-O ) :   1.4839 B(  4-S ,  6-O ) :   1.5242 B(  4-S ,  7-O ) :   1.4955

FINAL SINGLE POINT ENERGY      -702.103100980298

DIPOLE MOMENT
-------------
                                X             Y             Z
Electronic contribution:      3.61211      -5.53916      -4.26981
Nuclear contribution   :     -4.50297       7.24642       5.01775
                        -----------------------------------------
Total Dipole Moment    :     -0.89087       1.70726       0.74794
                        -----------------------------------------
Magnitude (a.u.)       :      2.06586
Magnitude (Debye)      :      5.25100

Rotational constants in cm-1:     0.162459     0.081286     0.079601
Rotational constants in MHz :  4870.394399  2436.893583  2386.374948

                             ****ORCA TERMINATED NORMALLY****
TOTAL RUN TIME: 0 days 0 hours 0 minutes 49 seconds 807 msec
