                         Program Version 5.0.0 -  RELEASE  -
|  1> !LC-PBE RIJCOSX def2-TZVPD def2/J TightSCF
|  2> *xyz 1 1
|  3> C          2.91632       -1.24259       -1.54313
|  4> C          3.46659       -1.59097       -2.88908
|  5> N          4.65227       -1.14316       -3.25969
|  6> N          2.75226       -2.29204       -3.72803
|  7> H          1.77836       -2.48960       -3.51274
|  8> H          2.94861       -2.20854       -4.71681
|  9> H          5.14672       -0.51251       -2.63385
| 10> H          4.78303       -1.00720       -4.25350
| 11> C          2.80408        0.29070       -1.35924
| 12> H          1.94047       -1.71653       -1.44116
| 13> H          3.55857       -1.66343       -0.76637
| 14> H          2.17393        0.69633       -2.12297
| 15> H          3.77707        0.73043       -1.42880
| 16> H          2.38369        0.50492       -0.39889
| 17> *
| 18>
| 19> %MaxCore 64000
| 20>
| 21> %pal nprocs 4
| 22> end
| 23>
| 24> %scf
| 25>   MaxIter 150
| 26> end
| 27>
| 28>
| 29>                          ****END OF INPUT****

CARTESIAN COORDINATES (ANGSTROEM)
---------------------------------
  C      2.916320   -1.242590   -1.543130
  C      3.466590   -1.590970   -2.889080
  N      4.652270   -1.143160   -3.259690
  N      2.752260   -2.292040   -3.728030
  H      1.778360   -2.489600   -3.512740
  H      2.948610   -2.208540   -4.716810
  H      5.146720   -0.512510   -2.633850
  H      4.783030   -1.007200   -4.253500
  C      2.804080    0.290700   -1.359240
  H      1.940470   -1.716530   -1.441160
  H      3.558570   -1.663430   -0.766370
  H      2.173930    0.696330   -2.122970
  H      3.777070    0.730430   -1.428800
  H      2.383690    0.504920   -0.398890

 Total Charge           Charge          ....    1
 Multiplicity           Mult            ....    1
 Number of Electrons    NEL             ....   40
 Basis Dimension        Dim             ....  266

ORBITAL ENERGIES
----------------

  NO   OCC          E(Eh)            E(eV)
   0   2.0000     -14.463401      -393.5692
   1   2.0000     -14.457642      -393.4124
   2   2.0000     -10.449606      -284.3482
   3   2.0000     -10.318822      -280.7894
   4   2.0000     -10.275548      -279.6119
   5   2.0000      -1.390427       -37.8354
   6   2.0000      -1.281206       -34.8634
   7   2.0000      -1.150034       -31.2940
   8   2.0000      -1.028091       -27.9758
   9   2.0000      -0.975767       -26.5520
  10   2.0000      -0.918430       -24.9917
  11   2.0000      -0.904100       -24.6018
  12   2.0000      -0.838181       -22.8081
  13   2.0000      -0.816116       -22.2077
  14   2.0000      -0.768659       -20.9163
  15   2.0000      -0.743162       -20.2225
  16   2.0000      -0.687431       -18.7059
  17   2.0000      -0.675946       -18.3934
  18   2.0000      -0.661441       -17.9987
  19   2.0000      -0.629879       -17.1399
  20   0.0000      -0.130064        -3.5392
  21   0.0000      -0.093982        -2.5574
  22   0.0000      -0.057002        -1.5511
  23   0.0000      -0.052466        -1.4277
  24   0.0000      -0.034245        -0.9319

MULLIKEN ATOMIC CHARGES
-----------------------
   0 C :   -0.707064
   1 C :    0.712522
   2 N :   -0.418617
   3 N :   -0.397991
   4 H :    0.289337
   5 H :    0.264984
   6 H :    0.297281
   7 H :    0.260964
   8 C :   -1.171221
   9 H :    0.372790
  10 H :    0.370109
  11 H :    0.369560
  12 H :    0.399430
  13 H :    0.357915
Sum of atomic charges:    1.0000000

LOEWDIN ATOMIC CHARGES
----------------------
   0 C :   -0.154134
   1 C :   -0.369547
   2 N :    0.217353
   3 N :    0.222378
   4 H :    0.157758
   5 H :    0.153772
   6 H :    0.150306
   7 H :    0.152819
   8 C :   -0.072659
   9 H :    0.131182
  10 H :    0.147375
  11 H :    0.092672
  12 H :    0.076337
  13 H :    0.094387

  Mayer bond orders larger than 0.100000
B(  0-C ,  1-C ) :   0.7558 B(  0-C ,  8-C ) :   0.6054 B(  0-C ,  9-H ) :   0.8679
B(  0-C , 10-H ) :   0.9416 B(  1-C ,  2-N ) :   1.1192 B(  1-C ,  3-N ) :   1.2114
B(  2-N ,  6-H ) :   0.8932 B(  2-N ,  7-H ) :   0.9708 B(  3-N ,  4-H ) :   0.9159
B(  3-N ,  5-H ) :   0.9558 B(  8-C , 11-H ) :   0.9387 B(  8-C , 12-H ) :   0.8383
B(  8-C , 13-H ) :   0.9631

FINAL SINGLE POINT ENERGY      -228.361566676953

DIPOLE MOMENT
-------------
                                X             Y             Z
Electronic contribution:      1.29754      -2.84315      -2.77002
Nuclear contribution   :     -1.30215       2.77761       1.84194
                        -----------------------------------------
Total Dipole Moment    :     -0.00461      -0.06554      -0.92808
                        -----------------------------------------
Magnitude (a.u.)       :      0.93040
Magnitude (Debye)      :      2.36490

Rotational constants in cm-1:     0.267442     0.127541     0.099068
Rotational constants in MHz :  8017.703171  3823.592522  2969.992494

                             ****ORCA TERMINATED NORMALLY****
TOTAL RUN TIME: 0 days 0 hours 0 minutes 46 seconds 758 msec
