                         Program Version 5.0.0 -  RELEASE  -
|  1> !LC-PBE RIJCOSX def2-TZVPD def2/J TightSCF xyzfile
|  2>
|  3> *xyzfile 0 1 B.xyz
|  4>
|  5> %MaxCore 64000
|  6>
|  7> %pal nprocs 4
|  8> end
|  9>
| 10> %scf
| 11>   MaxIter 150
| 12> end
| 13>
| 14>
| 15>                          ****END OF INPUT****

CARTESIAN COORDINATES (ANGSTROEM)
---------------------------------
  C      2.916324   -1.242589   -1.543125
  C      0.704661    1.443129   -4.503630
  C      1.728539    1.424320   -5.639443
  H      2.646718    1.953794   -5.381054
  H      1.299916    1.930613   -6.503614
  S      2.252625   -0.188115   -6.271840
  C      3.466585   -1.590971   -2.889082
  N      4.652275   -1.143164   -3.259692
  N      2.752264   -2.292043   -3.728029
  H      1.778364   -2.489604   -3.512738
  H      2.948612   -2.208544   -4.716813
  H      5.146723   -0.512508   -2.633852
  H      4.783030   -1.007203   -4.253498
  O      3.562607   -0.444464   -5.631552
  O      2.344944   -0.033742   -7.696501
  C      2.804084    0.290698   -1.359243
  C      1.052550    0.695659   -3.214915
  H     -0.232483    1.032925   -4.884449
  H      0.511700    2.495794   -4.267966
  C      2.388380    1.093669   -2.597108
  H      3.763425    0.674718   -0.999889
  H      2.094788    0.461222   -0.545756
  O      1.266058   -1.159177   -5.805365
  H      3.167316    1.013242   -3.359430
  H      2.357690    2.149375   -2.310997
  H      1.039284   -0.368429   -3.449329
  H      0.250787    0.865605   -2.488283
  H      1.940472   -1.716529   -1.441161
  H      3.558569   -1.663433   -0.766371

 Total Charge           Charge          ....    0
 Multiplicity           Mult            ....    1
 Number of Electrons    NEL             ....  112
 Basis Dimension        Dim             ....  643

ORBITAL ENERGIES
----------------

  NO   OCC          E(Eh)            E(eV)
   0   2.0000     -88.426788     -2406.2152
   1   2.0000     -18.919618      -514.8290
   2   2.0000     -18.911918      -514.6195
   3   2.0000     -18.902795      -514.3712
   4   2.0000     -14.287118      -388.7722
   5   2.0000     -14.287030      -388.7699
   6   2.0000     -10.285396      -279.8798
   7   2.0000     -10.182592      -277.0824
   8   2.0000     -10.161195      -276.5002
   9   2.0000     -10.131692      -275.6974
  10   2.0000     -10.118780      -275.3460
  11   2.0000     -10.115375      -275.2534
  12   2.0000     -10.114673      -275.2342
  13   2.0000      -8.037954      -218.7239
  14   2.0000      -6.054541      -164.7524
  15   2.0000      -6.054148      -164.7417
  16   2.0000      -6.052465      -164.6959
  17   2.0000      -1.258261       -34.2390
  18   2.0000      -1.221063       -33.2268
  19   2.0000      -1.113152       -30.2904
  20   2.0000      -1.106203       -30.1013
  21   2.0000      -1.102332       -29.9960
  22   2.0000      -1.030488       -28.0410
  23   2.0000      -0.981755       -26.7149
  24   2.0000      -0.929486       -25.2926
  25   2.0000      -0.870787       -23.6953
  26   2.0000      -0.833042       -22.6682
  27   2.0000      -0.799552       -21.7569
  28   2.0000      -0.756839       -20.5946
  29   2.0000      -0.747885       -20.3510
  30   2.0000      -0.735577       -20.0161
  31   2.0000      -0.689483       -18.7618
  32   2.0000      -0.668997       -18.2043
  33   2.0000      -0.666233       -18.1291
  34   2.0000      -0.644807       -17.5461
  35   2.0000      -0.619269       -16.8512
  36   2.0000      -0.613671       -16.6989
  37   2.0000      -0.594244       -16.1702
  38   2.0000      -0.579277       -15.7629
  39   2.0000      -0.575251       -15.6534
  40   2.0000      -0.570367       -15.5205
  41   2.0000      -0.556481       -15.1426
  42   2.0000      -0.547587       -14.9006
  43   2.0000      -0.520586       -14.1659
  44   2.0000      -0.512453       -13.9446
  45   2.0000      -0.506966       -13.7953
  46   2.0000      -0.478710       -13.0264
  47   2.0000      -0.470076       -12.7914
  48   2.0000      -0.455963       -12.4074
  49   2.0000      -0.455594       -12.3973
  50   2.0000      -0.446921       -12.1613
  51   2.0000      -0.442152       -12.0316
  52   2.0000      -0.405371       -11.0307
  53   2.0000      -0.398449       -10.8424
  54   2.0000      -0.384438       -10.4611
  55   2.0000      -0.360375        -9.8063
  56   0.0000       0.024967         0.6794
  57   0.0000       0.041960         1.1418
  58   0.0000       0.052391         1.4256
  59   0.0000       0.063020         1.7149
  60   0.0000       0.070282         1.9125

MULLIKEN ATOMIC CHARGES
-----------------------
   0 C :   -0.744302
   1 C :   -0.850928
   2 C :   -1.019979
   3 H :    0.468975
   4 H :    0.448123
   5 S :    1.191850
   6 C :    0.482319
   7 N :   -0.393501
   8 N :   -0.406178
   9 H :    0.298500
  10 H :    0.329416
  11 H :    0.279219
  12 H :    0.363196
  13 O :   -0.847931
  14 O :   -0.651223
  15 C :   -0.798851
  16 C :   -0.491825
  17 H :    0.408305
  18 H :    0.395094
  19 C :   -0.670374
  20 H :    0.450073
  21 H :    0.395472
  22 O :   -0.754832
  23 H :    0.423944
  24 H :    0.365941
  25 H :    0.246193
  26 H :    0.356774
  27 H :    0.377436
  28 H :    0.349093
Sum of atomic charges:   -0.0000000

LOEWDIN ATOMIC CHARGES
----------------------
   0 C :   -0.117980
   1 C :   -0.240506
   2 C :   -0.253599
   3 H :    0.102249
   4 H :    0.104449
   5 S :    0.412600
   6 C :   -0.389417
   7 N :    0.201926
   8 N :    0.216205
   9 H :    0.143489
  10 H :    0.101301
  11 H :    0.144712
  12 H :    0.101966
  13 O :   -0.405652
  14 O :   -0.322221
  15 C :   -0.197930
  16 C :   -0.224454
  17 H :    0.122344
  18 H :    0.122274
  19 C :   -0.222028
  20 H :    0.117028
  21 H :    0.124616
  22 O :   -0.360974
  23 H :    0.103508
  24 H :    0.131358
  25 H :    0.089913
  26 H :    0.127966
  27 H :    0.129839
  28 H :    0.137017

  Mayer bond orders larger than 0.100000
B(  0-C ,  6-C ) :   0.7425 B(  0-C , 15-C ) :   0.6470 B(  0-C , 19-C ) :  -0.1818
B(  0-C , 27-H ) :   0.9623 B(  0-C , 28-H ) :   1.0029 B(  1-C ,  2-C ) :   0.6490
B(  1-C , 16-C ) :   0.8498 B(  1-C , 17-H ) :   0.8733 B(  1-C , 18-H ) :   0.8870
B(  2-C ,  3-H ) :   0.8230 B(  2-C ,  4-H ) :   0.9023 B(  2-C ,  5-S ) :   0.8851
B(  2-C , 13-O ) :   0.1697 B(  2-C , 14-O ) :   0.1769 B(  5-S , 13-O ) :   1.4404
B(  5-S , 14-O ) :   1.4219 B(  5-S , 22-O ) :   1.3818 B(  6-C ,  7-N ) :   1.1456
B(  6-C ,  8-N ) :   1.2692 B(  6-C , 19-C ) :   0.1010 B(  7-N , 11-H ) :   0.8842
B(  7-N , 12-H ) :   0.8496 B(  8-N ,  9-H ) :   0.8677 B(  8-N , 10-H ) :   0.8408
B( 13-O , 22-O ) :   0.1106 B( 15-C , 19-C ) :   0.6897 B( 15-C , 20-H ) :   0.8548
B( 15-C , 21-H ) :   0.8785 B( 16-C , 19-C ) :   0.5075 B( 16-C , 25-H ) :   1.0597
B( 16-C , 26-H ) :   0.8997 B( 19-C , 23-H ) :   0.9538 B( 19-C , 24-H ) :   0.9199
B( 19-C , 25-H ) :  -0.1033

FINAL SINGLE POINT ENERGY     -1007.817394849347

DIPOLE MOMENT
-------------
                                X             Y             Z
Electronic contribution:      2.74076      -6.23493     -13.23589
Nuclear contribution   :     -1.90023       6.18953      17.82209
                        -----------------------------------------
Total Dipole Moment    :      0.84053      -0.04541       4.58620
                        -----------------------------------------
Magnitude (a.u.)       :      4.66281
Magnitude (Debye)      :     11.85192

Rotational constants in cm-1:     0.036337     0.018755     0.015005
Rotational constants in MHz :  1089.341704   562.266628   449.834770

                             ****ORCA TERMINATED NORMALLY****
TOTAL RUN TIME: 0 days 0 hours 5 minutes 28 seconds 701 msec
