                         Program Version 5.0.0 -  RELEASE  -
|  1> !LC-PBE RIJCOSX def2-TZVPD def2/J TightSCF
|  2> *xyz 0 1
|  3> C          0.70466        1.44313       -4.50363
|  4> C          1.72854        1.42432       -5.63944
|  5> H          2.64672        1.95379       -5.38105
|  6> H          1.29992        1.93061       -6.50361
|  7> S          2.25263       -0.18811       -6.27184
|  8> F          3.56261       -0.44446       -5.63155
|  9> O          2.34494       -0.03374       -7.69650
| 10> O          1.26606       -1.15918       -5.80536
| 11> H         -0.17385        0.91270       -4.80656
| 12> H          0.44778        2.45562       -4.27173
| 13> H          1.12367        0.97423       -3.63791
| 14> *
| 15>
| 16> %MaxCore 64000
| 17>
| 18> %pal nprocs 4
| 19> end
| 20>
| 21> %scf
| 22>   MaxIter 150
| 23> end
| 24>
| 25>
| 26>                          ****END OF INPUT****

CARTESIAN COORDINATES (ANGSTROEM)
---------------------------------
  C      0.704660    1.443130   -4.503630
  C      1.728540    1.424320   -5.639440
  H      2.646720    1.953790   -5.381050
  H      1.299920    1.930610   -6.503610
  S      2.252630   -0.188110   -6.271840
  F      3.562610   -0.444460   -5.631550
  O      2.344940   -0.033740   -7.696500
  O      1.266060   -1.159180   -5.805360
  H     -0.173850    0.912700   -4.806560
  H      0.447780    2.455620   -4.271730
  H      1.123670    0.974230   -3.637910

 Total Charge           Charge          ....    0
 Multiplicity           Mult            ....    1
 Number of Electrons    NEL             ....   58
 Basis Dimension        Dim             ....  285

ORBITAL ENERGIES
----------------

  NO   OCC          E(Eh)            E(eV)
   0   2.0000     -88.534315     -2409.1412
   1   2.0000     -24.596855      -669.3145
   2   2.0000     -18.997023      -516.9353
   3   2.0000     -18.989176      -516.7217
   4   2.0000     -10.181818      -277.0614
   5   2.0000     -10.133567      -275.7484
   6   2.0000      -8.145528      -221.6511
   7   2.0000      -6.166039      -167.7865
   8   2.0000      -6.159152      -167.5991
   9   2.0000      -6.158179      -167.5726
  10   2.0000      -1.516579       -41.2682
  11   2.0000      -1.285538       -34.9813
  12   2.0000      -1.185150       -32.2496
  13   2.0000      -1.001831       -27.2612
  14   2.0000      -0.890124       -24.2215
  15   2.0000      -0.833452       -22.6794
  16   2.0000      -0.734960       -19.9993
  17   2.0000      -0.721729       -19.6392
  18   2.0000      -0.703340       -19.1389
  19   2.0000      -0.641610       -17.4591
  20   2.0000      -0.628731       -17.1087
  21   2.0000      -0.600788       -16.3483
  22   2.0000      -0.573018       -15.5926
  23   2.0000      -0.543814       -14.7979
  24   2.0000      -0.540330       -14.7031
  25   2.0000      -0.520041       -14.1510
  26   2.0000      -0.475779       -12.9466
  27   2.0000      -0.465795       -12.6749
  28   2.0000      -0.456873       -12.4322
  29   0.0000       0.048504         1.3199
  30   0.0000       0.059916         1.6304
  31   0.0000       0.064339         1.7507
  32   0.0000       0.068665         1.8685
  33   0.0000       0.096848         2.6354

MULLIKEN ATOMIC CHARGES
-----------------------
   0 C :   -1.184023
   1 C :   -0.659486
   2 H :    0.461670
   3 H :    0.410050
   4 S :    1.085797
   5 F :   -0.133626
   6 O :   -0.549134
   7 O :   -0.568891
   8 H :    0.384513
   9 H :    0.396048
  10 H :    0.357083
Sum of atomic charges:    0.0000000

LOEWDIN ATOMIC CHARGES
----------------------
   0 C :   -0.131556
   1 C :   -0.286443
   2 H :    0.106541
   3 H :    0.109540
   4 S :    0.579507
   5 F :   -0.070825
   6 O :   -0.269260
   7 O :   -0.283126
   8 H :    0.080994
   9 H :    0.081928
  10 H :    0.082700

  Mayer bond orders larger than 0.100000
B(  0-C ,  1-C ) :   0.5704 B(  0-C ,  8-H ) :   0.9225 B(  0-C ,  9-H ) :   0.8903
B(  0-C , 10-H ) :   0.9214 B(  1-C ,  2-H ) :   0.7979 B(  1-C ,  3-H ) :   0.8862
B(  1-C ,  4-S ) :   0.8921 B(  4-S ,  5-F ) :   1.0033 B(  4-S ,  6-O ) :   1.7119
B(  4-S ,  7-O ) :   1.6810

FINAL SINGLE POINT ENERGY      -726.607001007461

DIPOLE MOMENT
-------------
                                X             Y             Z
Electronic contribution:      6.31436      -6.43511      -3.67254
Nuclear contribution   :     -6.09914       7.80989       4.64238
                        -----------------------------------------
Total Dipole Moment    :      0.21523       1.37478       0.96984
                        -----------------------------------------
Magnitude (a.u.)       :      1.69615
Magnitude (Debye)      :      4.31127

Rotational constants in cm-1:     0.154372     0.078826     0.078033
Rotational constants in MHz :  4627.943144  2363.154585  2339.382767

                             ****ORCA TERMINATED NORMALLY****
TOTAL RUN TIME: 0 days 0 hours 0 minutes 46 seconds 319 msec
