                         Program Version 5.0.0 -  RELEASE  -
|  1> !LC-PBE RIJCOSX def2-TZVPD def2/J TightSCF
|  2> *xyz 0 1
|  3> C          2.91632       -1.24259       -1.54313
|  4> C          3.46659       -1.59097       -2.88908
|  5> C          4.65227       -1.14316       -3.25969
|  6> N          2.75226       -2.29204       -3.72803
|  7> H          1.77836       -2.48960       -3.51274
|  8> H          2.94861       -2.20854       -4.71681
|  9> H          5.14672       -0.51251       -2.63385
| 10> H          4.78303       -1.00720       -4.25350
| 11> C          2.80408        0.29070       -1.35924
| 12> H          1.94047       -1.71653       -1.44116
| 13> H          3.55857       -1.66343       -0.76637
| 14> H          2.17393        0.69633       -2.12297
| 15> H          3.77707        0.73043       -1.42880
| 16> H          2.38369        0.50492       -0.39889
| 17> *
| 18>
| 19> %MaxCore 64000
| 20>
| 21> %pal nprocs 4
| 22> end
| 23>
| 24> %scf
| 25>   MaxIter 150
| 26> end
| 27>
| 28>
| 29>                          ****END OF INPUT****

CARTESIAN COORDINATES (ANGSTROEM)
---------------------------------
  C      2.916320   -1.242590   -1.543130
  C      3.466590   -1.590970   -2.889080
  C      4.652270   -1.143160   -3.259690
  N      2.752260   -2.292040   -3.728030
  H      1.778360   -2.489600   -3.512740
  H      2.948610   -2.208540   -4.716810
  H      5.146720   -0.512510   -2.633850
  H      4.783030   -1.007200   -4.253500
  C      2.804080    0.290700   -1.359240
  H      1.940470   -1.716530   -1.441160
  H      3.558570   -1.663430   -0.766370
  H      2.173930    0.696330   -2.122970
  H      3.777070    0.730430   -1.428800
  H      2.383690    0.504920   -0.398890

 Total Charge           Charge          ....    0
 Multiplicity           Mult            ....    1
 Number of Electrons    NEL             ....   40
 Basis Dimension        Dim             ....  266

ORBITAL ENERGIES
----------------

  NO   OCC          E(Eh)            E(eV)
   0   2.0000     -14.215986      -386.8367
   1   2.0000     -10.141183      -275.9556
   2   2.0000     -10.118743      -275.3450
   3   2.0000     -10.100099      -274.8377
   4   2.0000     -10.040193      -273.2075
   5   2.0000      -1.113416       -30.2976
   6   2.0000      -0.959797       -26.1174
   7   2.0000      -0.882688       -24.0192
   8   2.0000      -0.809962       -22.0402
   9   2.0000      -0.717151       -19.5147
  10   2.0000      -0.669955       -18.2304
  11   2.0000      -0.627507       -17.0753
  12   2.0000      -0.595464       -16.2034
  13   2.0000      -0.549723       -14.9587
  14   2.0000      -0.528394       -14.3783
  15   2.0000      -0.512518       -13.9463
  16   2.0000      -0.489254       -13.3133
  17   2.0000      -0.473626       -12.8880
  18   2.0000      -0.460347       -12.5267
  19   2.0000      -0.309659        -8.4263
  20   0.0000       0.066350         1.8055
  21   0.0000       0.087412         2.3786
  22   0.0000       0.090013         2.4494
  23   0.0000       0.099266         2.7012
  24   0.0000       0.119912         3.2630

MULLIKEN ATOMIC CHARGES
-----------------------
   0 C :   -0.707647
   1 C :    0.547947
   2 C :   -1.088306
   3 N :   -0.488083
   4 H :    0.244388
   5 H :    0.214532
   6 H :    0.362024
   7 H :    0.307531
   8 C :   -1.119629
   9 H :    0.357154
  10 H :    0.326377
  11 H :    0.330074
  12 H :    0.376582
  13 H :    0.337055
Sum of atomic charges:    0.0000000

LOEWDIN ATOMIC CHARGES
----------------------
   0 C :   -0.205370
   1 C :   -0.515415
   2 C :   -0.009595
   3 N :    0.090012
   4 H :    0.113942
   5 H :    0.118531
   6 H :    0.030414
   7 H :    0.033495
   8 C :   -0.108662
   9 H :    0.109221
  10 H :    0.125466
  11 H :    0.080671
  12 H :    0.067525
  13 H :    0.069767

  Mayer bond orders larger than 0.100000
B(  0-C ,  1-C ) :   0.5938 B(  0-C ,  8-C ) :   0.5909 B(  0-C ,  9-H ) :   0.9782
B(  0-C , 10-H ) :   0.9619 B(  1-C ,  2-C ) :   1.3664 B(  1-C ,  3-N ) :   0.9277
B(  1-C ,  7-H ) :  -0.1325 B(  1-C ,  9-H ) :  -0.1255 B(  2-C ,  3-N ) :   0.1350
B(  2-C ,  6-H ) :   0.8896 B(  2-C ,  7-H ) :   1.0503 B(  3-N ,  4-H ) :   0.9718
B(  3-N ,  5-H ) :   0.9749 B(  8-C , 11-H ) :   0.9570 B(  8-C , 12-H ) :   0.9144
B(  8-C , 13-H ) :   0.9522

FINAL SINGLE POINT ENERGY      -211.903756254900

DIPOLE MOMENT
-------------
                                X             Y             Z
Electronic contribution:      0.08192      -2.70780      -1.79904
Nuclear contribution   :     -0.99366       2.78648       1.68526
                        -----------------------------------------
Total Dipole Moment    :     -0.91173       0.07868      -0.11378
                        -----------------------------------------
Magnitude (a.u.)       :      0.92217
Magnitude (Debye)      :      2.34396

Rotational constants in cm-1:     0.282898     0.128664     0.101801
Rotational constants in MHz :  8481.061354  3857.240210  3051.924245

                             ****ORCA TERMINATED NORMALLY****
TOTAL RUN TIME: 0 days 0 hours 0 minutes 50 seconds 42 msec
