                         Program Version 5.0.0 -  RELEASE  -
|  1> !LC-PBE RIJCOSX def2-TZVPD def2/J TightSCF
|  2> *xyz 0 1
|  3> C          0.70466        1.44313       -4.50363
|  4> C          1.72854        1.42432       -5.63944
|  5> H          2.64672        1.95379       -5.38105
|  6> H          1.29992        1.93061       -6.50361
|  7> S          2.25263       -0.18811       -6.27184
|  8> O          3.56261       -0.44446       -5.63155
|  9> F          2.34494       -0.03374       -7.69650
| 10> O          1.26606       -1.15918       -5.80536
| 11> H         -0.17385        0.91270       -4.80656
| 12> H          0.44778        2.45562       -4.27173
| 13> H          1.12367        0.97423       -3.63791
| 14> *
| 15>
| 16> %MaxCore 64000
| 17>
| 18> %pal nprocs 4
| 19> end
| 20>
| 21> %scf
| 22>   MaxIter 150
| 23> end
| 24>
| 25>
| 26>                          ****END OF INPUT****

CARTESIAN COORDINATES (ANGSTROEM)
---------------------------------
  C      0.704660    1.443130   -4.503630
  C      1.728540    1.424320   -5.639440
  H      2.646720    1.953790   -5.381050
  H      1.299920    1.930610   -6.503610
  S      2.252630   -0.188110   -6.271840
  O      3.562610   -0.444460   -5.631550
  F      2.344940   -0.033740   -7.696500
  O      1.266060   -1.159180   -5.805360
  H     -0.173850    0.912700   -4.806560
  H      0.447780    2.455620   -4.271730
  H      1.123670    0.974230   -3.637910

 Total Charge           Charge          ....    0
 Multiplicity           Mult            ....    1
 Number of Electrons    NEL             ....   58
 Basis Dimension        Dim             ....  285

ORBITAL ENERGIES
----------------

  NO   OCC          E(Eh)            E(eV)
   0   2.0000     -88.536764     -2409.2078
   1   2.0000     -24.621052      -669.9729
   2   2.0000     -18.989560      -516.7322
   3   2.0000     -18.981062      -516.5010
   4   2.0000     -10.182962      -277.0925
   5   2.0000     -10.134067      -275.7620
   6   2.0000      -8.148003      -221.7184
   7   2.0000      -6.168319      -167.8485
   8   2.0000      -6.161460      -167.6618
   9   2.0000      -6.160832      -167.6448
  10   2.0000      -1.554278       -42.2941
  11   2.0000      -1.272088       -34.6153
  12   2.0000      -1.165393       -31.7119
  13   2.0000      -1.002531       -27.2803
  14   2.0000      -0.904297       -24.6072
  15   2.0000      -0.842776       -22.9331
  16   2.0000      -0.751051       -20.4371
  17   2.0000      -0.748948       -20.3799
  18   2.0000      -0.707811       -19.2605
  19   2.0000      -0.641732       -17.4624
  20   2.0000      -0.630992       -17.1702
  21   2.0000      -0.587171       -15.9777
  22   2.0000      -0.570301       -15.5187
  23   2.0000      -0.544662       -14.8210
  24   2.0000      -0.529086       -14.3972
  25   2.0000      -0.521638       -14.1945
  26   2.0000      -0.468113       -12.7380
  27   2.0000      -0.455924       -12.4063
  28   2.0000      -0.440695       -11.9919
  29   0.0000       0.044751         1.2177
  30   0.0000       0.058471         1.5911
  31   0.0000       0.063633         1.7315
  32   0.0000       0.070262         1.9119
  33   0.0000       0.096639         2.6297

MULLIKEN ATOMIC CHARGES
-----------------------
   0 C :   -1.209761
   1 C :   -0.650099
   2 H :    0.431011
   3 H :    0.439461
   4 S :    1.073190
   5 O :   -0.577561
   6 F :   -0.086812
   7 O :   -0.564197
   8 H :    0.387383
   9 H :    0.396924
  10 H :    0.360461
Sum of atomic charges:   -0.0000000

LOEWDIN ATOMIC CHARGES
----------------------
   0 C :   -0.126048
   1 C :   -0.290844
   2 H :    0.109906
   3 H :    0.100450
   4 S :    0.578930
   5 O :   -0.304294
   6 F :   -0.034313
   7 O :   -0.283891
   8 H :    0.079905
   9 H :    0.082817
  10 H :    0.087382

  Mayer bond orders larger than 0.100000
B(  0-C ,  1-C ) :   0.5976 B(  0-C ,  8-H ) :   0.9047 B(  0-C ,  9-H ) :   0.8820
B(  0-C , 10-H ) :   0.9355 B(  1-C ,  2-H ) :   0.8724 B(  1-C ,  3-H ) :   0.8175
B(  1-C ,  4-S ) :   0.8901 B(  4-S ,  5-O ) :   1.6730 B(  4-S ,  6-F ) :   1.0540
B(  4-S ,  7-O ) :   1.6871

FINAL SINGLE POINT ENERGY      -726.586788607528

DIPOLE MOMENT
-------------
                                X             Y             Z
Electronic contribution:      4.18844      -5.72900      -7.23043
Nuclear contribution   :     -4.83029       7.38191       6.79413
                        -----------------------------------------
Total Dipole Moment    :     -0.64185       1.65291      -0.43630
                        -----------------------------------------
Magnitude (a.u.)       :      1.82604
Magnitude (Debye)      :      4.64143

Rotational constants in cm-1:     0.156575     0.079070     0.076729
Rotational constants in MHz :  4694.010604  2370.444114  2300.280155

                             ****ORCA TERMINATED NORMALLY****
TOTAL RUN TIME: 0 days 0 hours 0 minutes 50 seconds 655 msec
