                         Program Version 5.0.0 -  RELEASE  -
|  1> !LC-PBE RIJCOSX def2-TZVPD def2/J TightSCF
|  2> *xyz 0 1
|  3> C          2.91632       -1.24259       -1.54313
|  4> C          3.46659       -1.59097       -2.88908
|  5> N          4.65227       -1.14316       -3.25969
|  6> C          2.75226       -2.29204       -3.72803
|  7> H          1.77836       -2.48960       -3.51274
|  8> H          2.94861       -2.20854       -4.71681
|  9> H          5.14672       -0.51251       -2.63385
| 10> H          4.78303       -1.00720       -4.25350
| 11> C          2.80408        0.29070       -1.35924
| 12> H          1.94047       -1.71653       -1.44116
| 13> H          3.55857       -1.66343       -0.76637
| 14> H          2.17393        0.69633       -2.12297
| 15> H          3.77707        0.73043       -1.42880
| 16> H          2.38369        0.50492       -0.39889
| 17> *
| 18>
| 19> %MaxCore 64000
| 20>
| 21> %pal nprocs 4
| 22> end
| 23>
| 24> %scf
| 25>   MaxIter 150
| 26> end
| 27>
| 28>
| 29>                          ****END OF INPUT****

CARTESIAN COORDINATES (ANGSTROEM)
---------------------------------
  C      2.916320   -1.242590   -1.543130
  C      3.466590   -1.590970   -2.889080
  N      4.652270   -1.143160   -3.259690
  C      2.752260   -2.292040   -3.728030
  H      1.778360   -2.489600   -3.512740
  H      2.948610   -2.208540   -4.716810
  H      5.146720   -0.512510   -2.633850
  H      4.783030   -1.007200   -4.253500
  C      2.804080    0.290700   -1.359240
  H      1.940470   -1.716530   -1.441160
  H      3.558570   -1.663430   -0.766370
  H      2.173930    0.696330   -2.122970
  H      3.777070    0.730430   -1.428800
  H      2.383690    0.504920   -0.398890

 Total Charge           Charge          ....    0
 Multiplicity           Mult            ....    1
 Number of Electrons    NEL             ....   40
 Basis Dimension        Dim             ....  266

ORBITAL ENERGIES
----------------

  NO   OCC          E(Eh)            E(eV)
   0   2.0000     -14.211882      -386.7250
   1   2.0000     -10.139336      -275.9054
   2   2.0000     -10.117249      -275.3043
   3   2.0000     -10.105178      -274.9759
   4   2.0000     -10.044392      -273.3218
   5   2.0000      -1.108348       -30.1597
   6   2.0000      -0.956569       -26.0296
   7   2.0000      -0.895323       -24.3630
   8   2.0000      -0.801531       -21.8108
   9   2.0000      -0.717382       -19.5210
  10   2.0000      -0.674145       -18.3444
  11   2.0000      -0.624333       -16.9890
  12   2.0000      -0.579359       -15.7652
  13   2.0000      -0.577765       -15.7218
  14   2.0000      -0.523579       -14.2473
  15   2.0000      -0.518668       -14.1137
  16   2.0000      -0.487766       -13.2728
  17   2.0000      -0.475802       -12.9472
  18   2.0000      -0.453726       -12.3465
  19   2.0000      -0.317169        -8.6306
  20   0.0000       0.064721         1.7612
  21   0.0000       0.088291         2.4025
  22   0.0000       0.090763         2.4698
  23   0.0000       0.099721         2.7135
  24   0.0000       0.118782         3.2322

MULLIKEN ATOMIC CHARGES
-----------------------
   0 C :   -0.695571
   1 C :    0.611571
   2 N :   -0.504628
   3 C :   -1.100261
   4 H :    0.285706
   5 H :    0.324669
   6 H :    0.246715
   7 H :    0.213162
   8 C :   -1.085948
   9 H :    0.337588
  10 H :    0.342242
  11 H :    0.322339
  12 H :    0.353959
  13 H :    0.348456
Sum of atomic charges:   -0.0000000

LOEWDIN ATOMIC CHARGES
----------------------
   0 C :   -0.208009
   1 C :   -0.516913
   2 N :    0.089730
   3 C :   -0.003670
   4 H :    0.034346
   5 H :    0.034110
   6 H :    0.109642
   7 H :    0.118052
   8 C :   -0.109551
   9 H :    0.116008
  10 H :    0.121510
  11 H :    0.081764
  12 H :    0.061536
  13 H :    0.071445

  Mayer bond orders larger than 0.100000
B(  0-C ,  1-C ) :   0.7634 B(  0-C ,  8-C ) :   0.6099 B(  0-C ,  9-H ) :   0.8907
B(  0-C , 10-H ) :   0.9319 B(  1-C ,  2-N ) :   0.8002 B(  1-C ,  3-C ) :   1.3823
B(  1-C ,  5-H ) :  -0.1276 B(  1-C ,  8-C ) :  -0.1012 B(  2-N ,  3-C ) :   0.1102
B(  2-N ,  6-H ) :   0.9329 B(  2-N ,  7-H ) :   0.9886 B(  3-C ,  4-H ) :   0.9972
B(  3-C ,  5-H ) :   1.0243 B(  8-C , 11-H ) :   0.9943 B(  8-C , 12-H ) :   0.8868
B(  8-C , 13-H ) :   0.9651

FINAL SINGLE POINT ENERGY      -211.907872435331

DIPOLE MOMENT
-------------
                                X             Y             Z
Electronic contribution:      1.70463      -1.71943      -1.39486
Nuclear contribution   :     -1.43372       2.52039       1.57679
                        -----------------------------------------
Total Dipole Moment    :      0.27092       0.80095       0.18193
                        -----------------------------------------
Magnitude (a.u.)       :      0.86488
Magnitude (Debye)      :      2.19836

Rotational constants in cm-1:     0.274962     0.131786     0.102554
Rotational constants in MHz :  8243.150005  3950.846092  3074.493018

                             ****ORCA TERMINATED NORMALLY****
TOTAL RUN TIME: 0 days 0 hours 0 minutes 49 seconds 655 msec
