                         Program Version 5.0.0 -  RELEASE  -
|  1> !LC-PBE RIJCOSX def2-TZVPD def2/J TightSCF
|  2> *xyz 0 1
|  3> C          0.70466        1.44313       -4.50363
|  4> C          1.72854        1.42432       -5.63944
|  5> H          2.64672        1.95379       -5.38105
|  6> H          1.29992        1.93061       -6.50361
|  7> S          2.25263       -0.18811       -6.27184
|  8> O          3.56261       -0.44446       -5.63155
|  9> O          2.34494       -0.03374       -7.69650
| 10> F          1.26606       -1.15918       -5.80536
| 11> H         -0.17385        0.91270       -4.80656
| 12> H          0.44778        2.45562       -4.27173
| 13> H          1.12367        0.97423       -3.63791
| 14> *
| 15>
| 16> %MaxCore 64000
| 17>
| 18> %pal nprocs 4
| 19> end
| 20>
| 21> %scf
| 22>   MaxIter 150
| 23> end
| 24>
| 25>
| 26>                          ****END OF INPUT****

CARTESIAN COORDINATES (ANGSTROEM)
---------------------------------
  C      0.704660    1.443130   -4.503630
  C      1.728540    1.424320   -5.639440
  H      2.646720    1.953790   -5.381050
  H      1.299920    1.930610   -6.503610
  S      2.252630   -0.188110   -6.271840
  O      3.562610   -0.444460   -5.631550
  O      2.344940   -0.033740   -7.696500
  F      1.266060   -1.159180   -5.805360
  H     -0.173850    0.912700   -4.806560
  H      0.447780    2.455620   -4.271730
  H      1.123670    0.974230   -3.637910

 Total Charge           Charge          ....    0
 Multiplicity           Mult            ....    1
 Number of Electrons    NEL             ....   58
 Basis Dimension        Dim             ....  285

ORBITAL ENERGIES
----------------

  NO   OCC          E(Eh)            E(eV)
   0   2.0000     -88.535070     -2409.1617
   1   2.0000     -24.607849      -669.6136
   2   2.0000     -18.997074      -516.9367
   3   2.0000     -18.980513      -516.4860
   4   2.0000     -10.181740      -277.0592
   5   2.0000     -10.141728      -275.9705
   6   2.0000      -8.146325      -221.6728
   7   2.0000      -6.166884      -167.8095
   8   2.0000      -6.159671      -167.6132
   9   2.0000      -6.159137      -167.5986
  10   2.0000      -1.532807       -41.7098
  11   2.0000      -1.281633       -34.8750
  12   2.0000      -1.173650       -31.9366
  13   2.0000      -1.006098       -27.3773
  14   2.0000      -0.892536       -24.2871
  15   2.0000      -0.843789       -22.9607
  16   2.0000      -0.751045       -20.4370
  17   2.0000      -0.734420       -19.9846
  18   2.0000      -0.695736       -18.9319
  19   2.0000      -0.645681       -17.5699
  20   2.0000      -0.622318       -16.9341
  21   2.0000      -0.595542       -16.2055
  22   2.0000      -0.586906       -15.9705
  23   2.0000      -0.553255       -15.0548
  24   2.0000      -0.532012       -14.4768
  25   2.0000      -0.528060       -14.3693
  26   2.0000      -0.472035       -12.8447
  27   2.0000      -0.458102       -12.4656
  28   2.0000      -0.447250       -12.1703
  29   0.0000       0.047748         1.2993
  30   0.0000       0.058265         1.5855
  31   0.0000       0.065427         1.7804
  32   0.0000       0.069028         1.8783
  33   0.0000       0.096310         2.6207

MULLIKEN ATOMIC CHARGES
-----------------------
   0 C :   -1.251570
   1 C :   -0.580965
   2 H :    0.419962
   3 H :    0.425009
   4 S :    1.078994
   5 O :   -0.584443
   6 O :   -0.543864
   7 F :   -0.121789
   8 H :    0.407217
   9 H :    0.378794
  10 H :    0.372655
Sum of atomic charges:    0.0000000

LOEWDIN ATOMIC CHARGES
----------------------
   0 C :   -0.133945
   1 C :   -0.282684
   2 H :    0.115802
   3 H :    0.105711
   4 S :    0.577398
   5 O :   -0.305601
   6 O :   -0.268685
   7 F :   -0.051493
   8 H :    0.077103
   9 H :    0.082722
  10 H :    0.083671

  Mayer bond orders larger than 0.100000
B(  0-C ,  1-C ) :   0.5281 B(  0-C ,  8-H ) :   0.8735 B(  0-C ,  9-H ) :   0.9129
B(  0-C , 10-H ) :   0.9291 B(  1-C ,  2-H ) :   0.8708 B(  1-C ,  3-H ) :   0.8680
B(  1-C ,  4-S ) :   0.8824 B(  4-S ,  5-O ) :   1.6728 B(  4-S ,  6-O ) :   1.7184
B(  4-S ,  7-F ) :   1.0226

FINAL SINGLE POINT ENERGY      -726.597092756212

DIPOLE MOMENT
-------------
                                X             Y             Z
Electronic contribution:      2.33199      -7.62875      -3.97158
Nuclear contribution   :     -3.70606       8.55465       4.82350
                        -----------------------------------------
Total Dipole Moment    :     -1.37407       0.92590       0.85192
                        -----------------------------------------
Magnitude (a.u.)       :      1.86310
Magnitude (Debye)      :      4.73562

Rotational constants in cm-1:     0.153201     0.080978     0.077494
Rotational constants in MHz :  4592.852844  2427.650814  2323.207507

                             ****ORCA TERMINATED NORMALLY****
TOTAL RUN TIME: 0 days 0 hours 0 minutes 44 seconds 985 msec
