                         Program Version 5.0.0 -  RELEASE  -
|  1> !LC-PBE RIJCOSX def2-TZVPD def2/J TightSCF xyzfile
|  2>
|  3> *xyzfile 0 1 D1.xyz
|  4>
|  5> %MaxCore 64000
|  6>
|  7> %pal nprocs 4
|  8> end
|  9>
| 10> %scf
| 11>   MaxIter 150
| 12> end
| 13>
| 14>
| 15>                          ****END OF INPUT****

CARTESIAN COORDINATES (ANGSTROEM)
---------------------------------
  C      2.916324   -1.242589   -1.543125
  C      0.704661    1.443129   -4.503630
  C      1.728539    1.424320   -5.639443
  H      2.646718    1.953794   -5.381054
  H      1.299916    1.930613   -6.503614
  S      2.252625   -0.188115   -6.271840
  C      3.466585   -1.590971   -2.889082
  C      4.652275   -1.143164   -3.259692
  N      2.752264   -2.292043   -3.728029
  H      1.778364   -2.489604   -3.512738
  H      2.948612   -2.208544   -4.716813
  H      5.146723   -0.512508   -2.633852
  H      4.783030   -1.007203   -4.253498
  F      3.562607   -0.444464   -5.631552
  O      2.344944   -0.033742   -7.696501
  C      2.804084    0.290698   -1.359243
  C      1.052550    0.695659   -3.214915
  H     -0.232483    1.032925   -4.884449
  H      0.511700    2.495794   -4.267966
  C      2.388380    1.093669   -2.597108
  H      3.763425    0.674718   -0.999889
  H      2.094788    0.461222   -0.545756
  O      1.266058   -1.159177   -5.805365
  H      3.167316    1.013242   -3.359430
  H      2.357690    2.149375   -2.310997
  H      1.039284   -0.368429   -3.449329
  H      0.250787    0.865605   -2.488283
  H      1.940472   -1.716529   -1.441161
  H      3.558569   -1.663433   -0.766371

 Total Charge           Charge          ....    0
 Multiplicity           Mult            ....    1
 Number of Electrons    NEL             ....  112
 Basis Dimension        Dim             ....  643

ORBITAL ENERGIES
----------------

  NO   OCC          E(Eh)            E(eV)
   0   2.0000     -88.542002     -2409.3504
   1   2.0000     -24.605712      -669.5555
   2   2.0000     -19.004050      -517.1265
   3   2.0000     -18.999968      -517.0154
   4   2.0000     -14.208030      -386.6201
   5   2.0000     -10.183550      -277.1085
   6   2.0000     -10.146646      -276.1043
   7   2.0000     -10.140519      -275.9376
   8   2.0000     -10.123393      -275.4715
   9   2.0000     -10.121851      -275.4296
  10   2.0000     -10.119870      -275.3757
  11   2.0000     -10.118966      -275.3511
  12   2.0000     -10.038115      -273.1510
  13   2.0000      -8.153575      -221.8701
  14   2.0000      -6.174174      -168.0078
  15   2.0000      -6.167033      -167.8135
  16   2.0000      -6.166204      -167.7909
  17   2.0000      -1.528304       -41.5873
  18   2.0000      -1.295020       -35.2393
  19   2.0000      -1.196167       -32.5494
  20   2.0000      -1.110867       -30.2282
  21   2.0000      -1.025066       -27.8935
  22   2.0000      -0.984790       -26.7975
  23   2.0000      -0.938794       -25.5459
  24   2.0000      -0.902899       -24.5691
  25   2.0000      -0.866041       -23.5662
  26   2.0000      -0.858083       -23.3496
  27   2.0000      -0.799446       -21.7540
  28   2.0000      -0.758712       -20.6456
  29   2.0000      -0.739691       -20.1280
  30   2.0000      -0.729380       -19.8474
  31   2.0000      -0.717360       -19.5204
  32   2.0000      -0.700824       -19.0704
  33   2.0000      -0.665181       -18.1005
  34   2.0000      -0.650752       -17.7079
  35   2.0000      -0.642405       -17.4807
  36   2.0000      -0.627333       -17.0706
  37   2.0000      -0.622401       -16.9364
  38   2.0000      -0.606860       -16.5135
  39   2.0000      -0.588704       -16.0194
  40   2.0000      -0.576107       -15.6767
  41   2.0000      -0.565215       -15.3803
  42   2.0000      -0.545690       -14.8490
  43   2.0000      -0.530286       -14.4298
  44   2.0000      -0.523145       -14.2355
  45   2.0000      -0.518760       -14.1162
  46   2.0000      -0.510241       -13.8844
  47   2.0000      -0.495205       -13.4752
  48   2.0000      -0.487798       -13.2737
  49   2.0000      -0.477760       -13.0005
  50   2.0000      -0.471257       -12.8236
  51   2.0000      -0.463916       -12.6238
  52   2.0000      -0.452736       -12.3196
  53   2.0000      -0.449422       -12.2294
  54   2.0000      -0.445332       -12.1181
  55   2.0000      -0.306420        -8.3381
  56   0.0000       0.047633         1.2962
  57   0.0000       0.055906         1.5213
  58   0.0000       0.060729         1.6525
  59   0.0000       0.064174         1.7463
  60   0.0000       0.080551         2.1919

MULLIKEN ATOMIC CHARGES
-----------------------
   0 C :   -0.882303
   1 C :   -0.823601
   2 C :   -0.962007
   3 H :    0.549584
   4 H :    0.449047
   5 S :    1.125184
   6 C :    0.219235
   7 C :   -1.148303
   8 N :   -0.455466
   9 H :    0.300832
  10 H :    0.222682
  11 H :    0.367894
  12 H :    0.590966
  13 F :   -0.159776
  14 O :   -0.573698
  15 C :   -0.828115
  16 C :   -0.523872
  17 H :    0.407964
  18 H :    0.419543
  19 C :   -0.614571
  20 H :    0.420704
  21 H :    0.396169
  22 O :   -0.624737
  23 H :    0.390774
  24 H :    0.351886
  25 H :    0.277945
  26 H :    0.369203
  27 H :    0.398755
  28 H :    0.338081
Sum of atomic charges:   -0.0000000

LOEWDIN ATOMIC CHARGES
----------------------
   0 C :   -0.148036
   1 C :   -0.232799
   2 C :   -0.224338
   3 H :    0.112827
   4 H :    0.115454
   5 S :    0.606313
   6 C :   -0.506091
   7 C :   -0.009932
   8 N :    0.105153
   9 H :    0.118486
  10 H :    0.082181
  11 H :    0.045082
  12 H :    0.018481
  13 F :   -0.094831
  14 O :   -0.253776
  15 C :   -0.202067
  16 C :   -0.221456
  17 H :    0.124693
  18 H :    0.129792
  19 C :   -0.224315
  20 H :    0.118053
  21 H :    0.117374
  22 O :   -0.276028
  23 H :    0.099770
  24 H :    0.127242
  25 H :    0.093190
  26 H :    0.131342
  27 H :    0.118168
  28 H :    0.130067

  Mayer bond orders larger than 0.100000
B(  0-C ,  6-C ) :   0.5532 B(  0-C , 15-C ) :   0.7234 B(  0-C , 19-C ) :  -0.1112
B(  0-C , 27-H ) :   0.9787 B(  0-C , 28-H ) :   0.9894 B(  1-C ,  2-C ) :   0.6476
B(  1-C , 16-C ) :   0.8017 B(  1-C , 17-H ) :   0.8919 B(  1-C , 18-H ) :   0.8680
B(  2-C ,  3-H ) :   0.7188 B(  2-C ,  4-H ) :   0.8832 B(  2-C ,  5-S ) :   0.8931
B(  2-C , 14-O ) :   0.1339 B(  2-C , 19-C ) :   0.1098 B(  5-S , 13-F ) :   1.0950
B(  5-S , 14-O ) :   1.5313 B(  5-S , 22-O ) :   1.5942 B(  6-C ,  7-C ) :   1.6026
B(  6-C ,  8-N ) :   0.7308 B(  6-C , 11-H ) :  -0.1010 B(  6-C , 12-H ) :  -0.1081
B(  6-C , 27-H ) :  -0.1236 B(  7-C , 11-H ) :   1.0338 B(  7-C , 12-H ) :   0.6439
B(  8-N ,  9-H ) :   0.8300 B(  8-N , 10-H ) :   0.9139 B( 15-C , 19-C ) :   0.8202
B( 15-C , 20-H ) :   0.8761 B( 15-C , 21-H ) :   0.8753 B( 16-C , 19-C ) :   0.4685
B( 16-C , 25-H ) :   1.1034 B( 16-C , 26-H ) :   0.8772 B( 19-C , 23-H ) :   0.9649
B( 19-C , 24-H ) :   0.9017

FINAL SINGLE POINT ENERGY     -1015.685962583546

DIPOLE MOMENT
-------------
                                X             Y             Z
Electronic contribution:      2.14123      -4.87727     -18.52123
Nuclear contribution   :     -2.89481       6.29550      19.36835
                        -----------------------------------------
Total Dipole Moment    :     -0.75358       1.41823       0.84712
                        -----------------------------------------
Magnitude (a.u.)       :      1.81573
Magnitude (Debye)      :      4.61523

Rotational constants in cm-1:     0.036515     0.018832     0.015081
Rotational constants in MHz :  1094.679513   564.567051   452.109105

                             ****ORCA TERMINATED NORMALLY****
TOTAL RUN TIME: 0 days 0 hours 6 minutes 38 seconds 317 msec
