                         Program Version 5.0.0 -  RELEASE  -
|  1> !LC-PBE RIJCOSX def2-TZVPD def2/J TightSCF xyzfile
|  2>
|  3> *xyzfile 0 1 D2.xyz
|  4>
|  5> %MaxCore 64000
|  6>
|  7> %pal nprocs 4
|  8> end
|  9>
| 10> %scf
| 11>   MaxIter 150
| 12> end
| 13>
| 14>
| 15>                          ****END OF INPUT****

CARTESIAN COORDINATES (ANGSTROEM)
---------------------------------
  C      2.916324   -1.242589   -1.543125
  C      0.704661    1.443129   -4.503630
  C      1.728539    1.424320   -5.639443
  H      2.646718    1.953794   -5.381054
  H      1.299916    1.930613   -6.503614
  S      2.252625   -0.188115   -6.271840
  C      3.466585   -1.590971   -2.889082
  N      4.652275   -1.143164   -3.259692
  C      2.752264   -2.292043   -3.728029
  H      1.778364   -2.489604   -3.512738
  H      2.948612   -2.208544   -4.716813
  H      5.146723   -0.512508   -2.633852
  H      4.783030   -1.007203   -4.253498
  F      3.562607   -0.444464   -5.631552
  O      2.344944   -0.033742   -7.696501
  C      2.804084    0.290698   -1.359243
  C      1.052550    0.695659   -3.214915
  H     -0.232483    1.032925   -4.884449
  H      0.511700    2.495794   -4.267966
  C      2.388380    1.093669   -2.597108
  H      3.763425    0.674718   -0.999889
  H      2.094788    0.461222   -0.545756
  O      1.266058   -1.159177   -5.805365
  H      3.167316    1.013242   -3.359430
  H      2.357690    2.149375   -2.310997
  H      1.039284   -0.368429   -3.449329
  H      0.250787    0.865605   -2.488283
  H      1.940472   -1.716529   -1.441161
  H      3.558569   -1.663433   -0.766371

 Total Charge           Charge          ....    0
 Multiplicity           Mult            ....    1
 Number of Electrons    NEL             ....  112
 Basis Dimension        Dim             ....  643

ORBITAL ENERGIES
----------------

  NO   OCC          E(Eh)            E(eV)
   0   2.0000     -88.535889     -2409.1840
   1   2.0000     -24.603737      -669.5017
   2   2.0000     -18.999046      -516.9903
   3   2.0000     -18.988781      -516.7110
   4   2.0000     -14.210449      -386.6860
   5   2.0000     -10.180166      -277.0164
   6   2.0000     -10.142533      -275.9924
   7   2.0000     -10.135567      -275.8028
   8   2.0000     -10.124864      -275.5115
   9   2.0000     -10.122440      -275.4456
  10   2.0000     -10.117575      -275.3132
  11   2.0000     -10.117142      -275.3014
  12   2.0000     -10.041015      -273.2299
  13   2.0000      -8.147354      -221.7008
  14   2.0000      -6.168133      -167.8434
  15   2.0000      -6.160725      -167.6418
  16   2.0000      -6.159879      -167.6188
  17   2.0000      -1.525718       -41.5169
  18   2.0000      -1.288152       -35.0524
  19   2.0000      -1.187131       -32.3035
  20   2.0000      -1.109847       -30.2005
  21   2.0000      -1.021548       -27.7977
  22   2.0000      -0.982483       -26.7347
  23   2.0000      -0.935864       -25.4662
  24   2.0000      -0.906428       -24.6652
  25   2.0000      -0.875449       -23.8222
  26   2.0000      -0.849696       -23.1214
  27   2.0000      -0.793331       -21.5876
  28   2.0000      -0.757235       -20.6054
  29   2.0000      -0.734160       -19.9775
  30   2.0000      -0.728433       -19.8217
  31   2.0000      -0.712795       -19.3961
  32   2.0000      -0.701338       -19.0844
  33   2.0000      -0.672429       -18.2977
  34   2.0000      -0.645159       -17.5557
  35   2.0000      -0.641565       -17.4579
  36   2.0000      -0.628999       -17.1159
  37   2.0000      -0.613068       -16.6824
  38   2.0000      -0.596824       -16.2404
  39   2.0000      -0.588266       -16.0075
  40   2.0000      -0.579655       -15.7732
  41   2.0000      -0.559284       -15.2189
  42   2.0000      -0.544151       -14.8071
  43   2.0000      -0.532324       -14.4853
  44   2.0000      -0.522848       -14.2274
  45   2.0000      -0.519739       -14.1428
  46   2.0000      -0.501090       -13.6354
  47   2.0000      -0.493154       -13.4194
  48   2.0000      -0.482733       -13.1358
  49   2.0000      -0.469298       -12.7702
  50   2.0000      -0.466488       -12.6938
  51   2.0000      -0.458105       -12.4657
  52   2.0000      -0.454023       -12.3546
  53   2.0000      -0.444237       -12.0883
  54   2.0000      -0.443561       -12.0699
  55   2.0000      -0.313909        -8.5419
  56   0.0000       0.044209         1.2030
  57   0.0000       0.056112         1.5269
  58   0.0000       0.062001         1.6871
  59   0.0000       0.065243         1.7753
  60   0.0000       0.082268         2.2386

MULLIKEN ATOMIC CHARGES
-----------------------
   0 C :   -0.854856
   1 C :   -0.836581
   2 C :   -0.966222
   3 H :    0.541420
   4 H :    0.448554
   5 S :    1.154913
   6 C :    0.283085
   7 N :   -0.420498
   8 C :   -1.549490
   9 H :    0.466250
  10 H :    0.749078
  11 H :    0.275377
  12 H :    0.271732
  13 F :   -0.174138
  14 O :   -0.586168
  15 C :   -0.797179
  16 C :   -0.501910
  17 H :    0.423206
  18 H :    0.418973
  19 C :   -0.611127
  20 H :    0.438922
  21 H :    0.372526
  22 O :   -0.594097
  23 H :    0.370946
  24 H :    0.348806
  25 H :    0.287079
  26 H :    0.350108
  27 H :    0.351468
  28 H :    0.339826
Sum of atomic charges:   -0.0000000

LOEWDIN ATOMIC CHARGES
----------------------
   0 C :   -0.150693
   1 C :   -0.232429
   2 C :   -0.226112
   3 H :    0.110057
   4 H :    0.114921
   5 S :    0.606619
   6 C :   -0.505985
   7 N :    0.100326
   8 C :   -0.011928
   9 H :    0.050862
  10 H :    0.014089
  11 H :    0.120637
  12 H :    0.093701
  13 F :   -0.098456
  14 O :   -0.255562
  15 C :   -0.205162
  16 C :   -0.219457
  17 H :    0.125486
  18 H :    0.128541
  19 C :   -0.225209
  20 H :    0.112562
  21 H :    0.118485
  22 O :   -0.266882
  23 H :    0.098214
  24 H :    0.126420
  25 H :    0.095850
  26 H :    0.131491
  27 H :    0.124098
  28 H :    0.125513

  Mayer bond orders larger than 0.100000
B(  0-C ,  6-C ) :   0.7182 B(  0-C ,  8-C ) :   0.1249 B(  0-C , 15-C ) :   0.6658
B(  0-C , 19-C ) :  -0.1756 B(  0-C , 27-H ) :   0.9763 B(  0-C , 28-H ) :   0.9975
B(  1-C ,  2-C ) :   0.6501 B(  1-C , 16-C ) :   0.7871 B(  1-C , 17-H ) :   0.8660
B(  1-C , 18-H ) :   0.8765 B(  2-C ,  3-H ) :   0.7288 B(  2-C ,  4-H ) :   0.8864
B(  2-C ,  5-S ) :   0.8928 B(  2-C , 14-O ) :   0.1381 B(  2-C , 19-C ) :   0.1311
B(  5-S , 13-F ) :   1.1130 B(  5-S , 14-O ) :   1.5197 B(  5-S , 22-O ) :   1.6387
B(  6-C ,  7-N ) :   0.7467 B(  6-C ,  8-C ) :   1.5045 B(  6-C ,  9-H ) :  -0.1491
B(  6-C , 10-H ) :  -0.1562 B(  7-N , 11-H ) :   0.8451 B(  7-N , 12-H ) :   0.8782
B(  8-C ,  9-H ) :   0.9253 B(  8-C , 10-H ) :   0.5427 B(  9-H , 10-H ) :   0.1264
B( 15-C , 19-C ) :   0.7640 B( 15-C , 20-H ) :   0.8742 B( 15-C , 21-H ) :   0.8907
B( 16-C , 19-C ) :   0.4646 B( 16-C , 25-H ) :   1.1029 B( 16-C , 26-H ) :   0.8931
B( 19-C , 23-H ) :   0.9771 B( 19-C , 24-H ) :   0.9363

FINAL SINGLE POINT ENERGY     -1015.686869106334

DIPOLE MOMENT
-------------
                                X             Y             Z
Electronic contribution:      3.44649      -4.19166     -18.19444
Nuclear contribution   :     -3.13969       6.14743      19.30799
                        -----------------------------------------
Total Dipole Moment    :      0.30680       1.95578       1.11355
                        -----------------------------------------
Magnitude (a.u.)       :      2.27139
Magnitude (Debye)      :      5.77340

Rotational constants in cm-1:     0.036460     0.018762     0.015014
Rotational constants in MHz :  1093.039020   562.475626   450.105862

                             ****ORCA TERMINATED NORMALLY****
TOTAL RUN TIME: 0 days 0 hours 6 minutes 38 seconds 338 msec
