                         Program Version 5.0.0 -  RELEASE  -
|  1> !LC-PBE RIJCOSX def2-TZVPD def2/J TightSCF xyzfile
|  2>
|  3> *xyzfile 0 1 D3.xyz
|  4>
|  5> %MaxCore 64000
|  6>
|  7> %pal nprocs 4
|  8> end
|  9>
| 10> %scf
| 11>   MaxIter 150
| 12> end
| 13>
| 14>
| 15>                          ****END OF INPUT****

CARTESIAN COORDINATES (ANGSTROEM)
---------------------------------
  C      2.916324   -1.242589   -1.543125
  C      0.704661    1.443129   -4.503630
  C      1.728539    1.424320   -5.639443
  H      2.646718    1.953794   -5.381054
  H      1.299916    1.930613   -6.503614
  S      2.252625   -0.188115   -6.271840
  C      3.466585   -1.590971   -2.889082
  C      4.652275   -1.143164   -3.259692
  N      2.752264   -2.292043   -3.728029
  H      1.778364   -2.489604   -3.512738
  H      2.948612   -2.208544   -4.716813
  H      5.146723   -0.512508   -2.633852
  H      4.783030   -1.007203   -4.253498
  O      3.562607   -0.444464   -5.631552
  F      2.344944   -0.033742   -7.696501
  C      2.804084    0.290698   -1.359243
  C      1.052550    0.695659   -3.214915
  H     -0.232483    1.032925   -4.884449
  H      0.511700    2.495794   -4.267966
  C      2.388380    1.093669   -2.597108
  H      3.763425    0.674718   -0.999889
  H      2.094788    0.461222   -0.545756
  O      1.266058   -1.159177   -5.805365
  H      3.167316    1.013242   -3.359430
  H      2.357690    2.149375   -2.310997
  H      1.039284   -0.368429   -3.449329
  H      0.250787    0.865605   -2.488283
  H      1.940472   -1.716529   -1.441161
  H      3.558569   -1.663433   -0.766371

 Total Charge           Charge          ....    0
 Multiplicity           Mult            ....    1
 Number of Electrons    NEL             ....  112
 Basis Dimension        Dim             ....  643

ORBITAL ENERGIES
----------------

  NO   OCC          E(Eh)            E(eV)
   0   2.0000     -88.548740     -2409.5337
   1   2.0000     -24.630651      -670.2341
   2   2.0000     -19.004147      -517.1291
   3   2.0000     -18.994932      -516.8784
   4   2.0000     -14.183261      -385.9461
   5   2.0000     -10.187434      -277.2142
   6   2.0000     -10.148045      -276.1423
   7   2.0000     -10.116719      -275.2899
   8   2.0000     -10.116190      -275.2755
   9   2.0000     -10.108906      -275.0773
  10   2.0000     -10.106440      -275.0102
  11   2.0000     -10.103845      -274.9396
  12   2.0000     -10.011257      -272.4201
  13   2.0000      -8.160419      -222.0563
  14   2.0000      -6.180655      -168.1842
  15   2.0000      -6.173722      -167.9955
  16   2.0000      -6.173403      -167.9868
  17   2.0000      -1.564248       -42.5654
  18   2.0000      -1.289065       -35.0772
  19   2.0000      -1.182617       -32.1807
  20   2.0000      -1.086595       -29.5678
  21   2.0000      -1.023491       -27.8506
  22   2.0000      -0.975440       -26.5431
  23   2.0000      -0.936803       -25.4917
  24   2.0000      -0.895131       -24.3578
  25   2.0000      -0.866497       -23.5786
  26   2.0000      -0.842793       -22.9336
  27   2.0000      -0.798920       -21.7397
  28   2.0000      -0.763050       -20.7636
  29   2.0000      -0.757944       -20.6247
  30   2.0000      -0.729032       -19.8380
  31   2.0000      -0.717620       -19.5274
  32   2.0000      -0.687221       -18.7002
  33   2.0000      -0.655882       -17.8474
  34   2.0000      -0.645290       -17.5592
  35   2.0000      -0.642243       -17.4763
  36   2.0000      -0.627323       -17.0703
  37   2.0000      -0.614659       -16.7257
  38   2.0000      -0.594156       -16.1678
  39   2.0000      -0.580014       -15.7830
  40   2.0000      -0.567920       -15.4539
  41   2.0000      -0.556141       -15.1334
  42   2.0000      -0.541916       -14.7463
  43   2.0000      -0.521571       -14.1927
  44   2.0000      -0.514223       -13.9927
  45   2.0000      -0.497322       -13.5328
  46   2.0000      -0.490856       -13.3569
  47   2.0000      -0.484125       -13.1737
  48   2.0000      -0.479521       -13.0484
  49   2.0000      -0.467554       -12.7228
  50   2.0000      -0.458951       -12.4887
  51   2.0000      -0.457320       -12.4443
  52   2.0000      -0.440934       -11.9984
  53   2.0000      -0.433382       -11.7929
  54   2.0000      -0.428932       -11.6718
  55   2.0000      -0.281785        -7.6678
  56   0.0000       0.033001         0.8980
  57   0.0000       0.053659         1.4601
  58   0.0000       0.054856         1.4927
  59   0.0000       0.068697         1.8693
  60   0.0000       0.081888         2.2283

MULLIKEN ATOMIC CHARGES
-----------------------
   0 C :   -0.877691
   1 C :   -0.847756
   2 C :   -0.999145
   3 H :    0.504173
   4 H :    0.530219
   5 S :    1.129072
   6 C :    0.174248
   7 C :   -1.179458
   8 N :   -0.476206
   9 H :    0.295169
  10 H :    0.280503
  11 H :    0.347197
  12 H :    0.674035
  13 O :   -0.652588
  14 F :   -0.058642
  15 C :   -0.806939
  16 C :   -0.500048
  17 H :    0.398763
  18 H :    0.409691
  19 C :   -0.695053
  20 H :    0.418565
  21 H :    0.393798
  22 O :   -0.631600
  23 H :    0.464848
  24 H :    0.345705
  25 H :    0.260392
  26 H :    0.370259
  27 H :    0.395394
  28 H :    0.333095
Sum of atomic charges:   -0.0000000

LOEWDIN ATOMIC CHARGES
----------------------
   0 C :   -0.151641
   1 C :   -0.230286
   2 C :   -0.226940
   3 H :    0.116149
   4 H :    0.106822
   5 S :    0.629345
   6 C :   -0.509179
   7 C :   -0.012074
   8 N :    0.100826
   9 H :    0.113452
  10 H :    0.078162
  11 H :    0.042347
  12 H :    0.009014
  13 O :   -0.306847
  14 F :   -0.021812
  15 C :   -0.203946
  16 C :   -0.218281
  17 H :    0.122946
  18 H :    0.130696
  19 C :   -0.222651
  20 H :    0.117217
  21 H :    0.114970
  22 O :   -0.276163
  23 H :    0.103338
  24 H :    0.125228
  25 H :    0.095041
  26 H :    0.130711
  27 H :    0.115827
  28 H :    0.127729

  Mayer bond orders larger than 0.100000
B(  0-C ,  6-C ) :   0.5371 B(  0-C , 15-C ) :   0.7283 B(  0-C , 19-C ) :  -0.1117
B(  0-C , 27-H ) :   0.9847 B(  0-C , 28-H ) :   0.9911 B(  1-C ,  2-C ) :   0.7171
B(  1-C , 16-C ) :   0.7863 B(  1-C , 17-H ) :   0.8835 B(  1-C , 18-H ) :   0.8687
B(  2-C ,  3-H ) :   0.8176 B(  2-C ,  4-H ) :   0.7459 B(  2-C ,  5-S ) :   0.8825
B(  2-C , 13-O ) :   0.1418 B(  2-C , 19-C ) :   0.1165 B(  5-S , 13-O ) :   1.6942
B(  5-S , 14-F ) :   0.9620 B(  5-S , 22-O ) :   1.6184 B(  6-C ,  7-C ) :   1.6361
B(  6-C ,  8-N ) :   0.7599 B(  6-C , 11-H ) :  -0.1091 B(  6-C , 27-H ) :  -0.1258
B(  7-C , 11-H ) :   1.0631 B(  7-C , 12-H ) :   0.5705 B(  8-N ,  9-H ) :   0.8329
B(  8-N , 10-H ) :   0.8599 B( 13-O , 22-O ) :   0.1280 B( 15-C , 19-C ) :   0.8033
B( 15-C , 20-H ) :   0.8764 B( 15-C , 21-H ) :   0.8758 B( 16-C , 19-C ) :   0.4848
B( 16-C , 25-H ) :   1.1003 B( 16-C , 26-H ) :   0.8824 B( 19-C , 23-H ) :   0.9049
B( 19-C , 24-H ) :   0.9172

FINAL SINGLE POINT ENERGY     -1015.668535936146

DIPOLE MOMENT
-------------
                                X             Y             Z
Electronic contribution:      0.00972      -4.06968     -22.53423
Nuclear contribution   :     -1.50273       5.82595      21.72909
                        -----------------------------------------
Total Dipole Moment    :     -1.49301       1.75627      -0.80514
                        -----------------------------------------
Magnitude (a.u.)       :      2.44168
Magnitude (Debye)      :      6.20627

Rotational constants in cm-1:     0.036883     0.018294     0.014745
Rotational constants in MHz :  1105.724679   548.429785   442.050481

                             ****ORCA TERMINATED NORMALLY****
TOTAL RUN TIME: 0 days 0 hours 6 minutes 37 seconds 899 msec
