                         Program Version 5.0.0 -  RELEASE  -
|  1> !LC-PBE RIJCOSX def2-TZVPD def2/J TightSCF xyzfile
|  2>
|  3> *xyzfile 0 1 D4.xyz
|  4>
|  5> %MaxCore 64000
|  6>
|  7> %pal nprocs 4
|  8> end
|  9>
| 10> %scf
| 11>   MaxIter 150
| 12> end
| 13>
| 14>
| 15>                          ****END OF INPUT****

CARTESIAN COORDINATES (ANGSTROEM)
---------------------------------
  C      2.916324   -1.242589   -1.543125
  C      0.704661    1.443129   -4.503630
  C      1.728539    1.424320   -5.639443
  H      2.646718    1.953794   -5.381054
  H      1.299916    1.930613   -6.503614
  S      2.252625   -0.188115   -6.271840
  C      3.466585   -1.590971   -2.889082
  N      4.652275   -1.143164   -3.259692
  C      2.752264   -2.292043   -3.728029
  H      1.778364   -2.489604   -3.512738
  H      2.948612   -2.208544   -4.716813
  H      5.146723   -0.512508   -2.633852
  H      4.783030   -1.007203   -4.253498
  O      3.562607   -0.444464   -5.631552
  F      2.344944   -0.033742   -7.696501
  C      2.804084    0.290698   -1.359243
  C      1.052550    0.695659   -3.214915
  H     -0.232483    1.032925   -4.884449
  H      0.511700    2.495794   -4.267966
  C      2.388380    1.093669   -2.597108
  H      3.763425    0.674718   -0.999889
  H      2.094788    0.461222   -0.545756
  O      1.266058   -1.159177   -5.805365
  H      3.167316    1.013242   -3.359430
  H      2.357690    2.149375   -2.310997
  H      1.039284   -0.368429   -3.449329
  H      0.250787    0.865605   -2.488283
  H      1.940472   -1.716529   -1.441161
  H      3.558569   -1.663433   -0.766371

 Total Charge           Charge          ....    0
 Multiplicity           Mult            ....    1
 Number of Electrons    NEL             ....  112
 Basis Dimension        Dim             ....  643

ORBITAL ENERGIES
----------------

  NO   OCC          E(Eh)            E(eV)
   0   2.0000     -88.544590     -2409.4208
   1   2.0000     -24.626802      -670.1293
   2   2.0000     -18.995032      -516.8811
   3   2.0000     -18.991805      -516.7933
   4   2.0000     -14.181848      -385.9077
   5   2.0000     -10.184225      -277.1269
   6   2.0000     -10.144144      -276.0362
   7   2.0000     -10.113182      -275.1937
   8   2.0000     -10.112102      -275.1643
   9   2.0000     -10.110628      -275.1242
  10   2.0000     -10.109680      -275.0984
  11   2.0000     -10.101897      -274.8866
  12   2.0000     -10.016480      -272.5623
  13   2.0000      -8.155929      -221.9341
  14   2.0000      -6.176168      -168.0621
  15   2.0000      -6.169164      -167.8715
  16   2.0000      -6.169054      -167.8685
  17   2.0000      -1.560255       -42.4567
  18   2.0000      -1.282156       -34.8892
  19   2.0000      -1.176825       -32.0230
  20   2.0000      -1.083069       -29.4718
  21   2.0000      -1.019839       -27.7512
  22   2.0000      -0.973822       -26.4990
  23   2.0000      -0.931313       -25.3423
  24   2.0000      -0.897399       -24.4195
  25   2.0000      -0.872842       -23.7512
  26   2.0000      -0.839904       -22.8549
  27   2.0000      -0.790816       -21.5192
  28   2.0000      -0.759791       -20.6750
  29   2.0000      -0.753778       -20.5113
  30   2.0000      -0.726743       -19.7757
  31   2.0000      -0.716490       -19.4967
  32   2.0000      -0.685192       -18.6450
  33   2.0000      -0.655624       -17.8404
  34   2.0000      -0.647861       -17.6292
  35   2.0000      -0.642151       -17.4738
  36   2.0000      -0.620214       -16.8769
  37   2.0000      -0.602469       -16.3940
  38   2.0000      -0.593137       -16.1401
  39   2.0000      -0.582643       -15.8545
  40   2.0000      -0.568857       -15.4794
  41   2.0000      -0.548985       -14.9386
  42   2.0000      -0.539199       -14.6724
  43   2.0000      -0.519815       -14.1449
  44   2.0000      -0.515284       -14.0216
  45   2.0000      -0.503837       -13.7101
  46   2.0000      -0.489851       -13.3295
  47   2.0000      -0.483693       -13.1619
  48   2.0000      -0.475892       -12.9497
  49   2.0000      -0.458655       -12.4806
  50   2.0000      -0.453520       -12.3409
  51   2.0000      -0.452044       -12.3007
  52   2.0000      -0.441454       -12.0126
  53   2.0000      -0.434425       -11.8213
  54   2.0000      -0.423897       -11.5348
  55   2.0000      -0.289917        -7.8890
  56   0.0000       0.034272         0.9326
  57   0.0000       0.054203         1.4749
  58   0.0000       0.057024         1.5517
  59   0.0000       0.069160         1.8819
  60   0.0000       0.082719         2.2509

MULLIKEN ATOMIC CHARGES
-----------------------
   0 C :   -0.850809
   1 C :   -0.856455
   2 C :   -1.002425
   3 H :    0.495228
   4 H :    0.526441
   5 S :    1.120804
   6 C :    0.253764
   7 N :   -0.424305
   8 C :   -1.543398
   9 H :    0.488600
  10 H :    0.738644
  11 H :    0.271027
  12 H :    0.326270
  13 O :   -0.666977
  14 F :   -0.060264
  15 C :   -0.776851
  16 C :   -0.461437
  17 H :    0.414924
  18 H :    0.408144
  19 C :   -0.676639
  20 H :    0.435687
  21 H :    0.367195
  22 O :   -0.602848
  23 H :    0.437456
  24 H :    0.342777
  25 H :    0.259792
  26 H :    0.349312
  27 H :    0.351690
  28 H :    0.334653
Sum of atomic charges:   -0.0000000

LOEWDIN ATOMIC CHARGES
----------------------
   0 C :   -0.153933
   1 C :   -0.229912
   2 C :   -0.228646
   3 H :    0.113532
   4 H :    0.106371
   5 S :    0.630435
   6 C :   -0.507832
   7 N :    0.099580
   8 C :   -0.018200
   9 H :    0.046069
  10 H :    0.010174
  11 H :    0.116765
  12 H :    0.082116
  13 O :   -0.313722
  14 F :   -0.022166
  15 C :   -0.206732
  16 C :   -0.216342
  17 H :    0.123705
  18 H :    0.129504
  19 C :   -0.223665
  20 H :    0.111847
  21 H :    0.116155
  22 O :   -0.264882
  23 H :    0.101708
  24 H :    0.124396
  25 H :    0.097498
  26 H :    0.130850
  27 H :    0.121825
  28 H :    0.123501

  Mayer bond orders larger than 0.100000
B(  0-C ,  6-C ) :   0.7231 B(  0-C ,  8-C ) :   0.1312 B(  0-C , 15-C ) :   0.6725
B(  0-C , 16-C ) :   0.1014 B(  0-C , 19-C ) :  -0.1793 B(  0-C , 27-H ) :   0.9732
B(  0-C , 28-H ) :   0.9979 B(  1-C ,  2-C ) :   0.7283 B(  1-C , 16-C ) :   0.7739
B(  1-C , 17-H ) :   0.8557 B(  1-C , 18-H ) :   0.8759 B(  2-C ,  3-H ) :   0.8261
B(  2-C ,  4-H ) :   0.7557 B(  2-C ,  5-S ) :   0.8713 B(  2-C , 13-O ) :   0.1459
B(  2-C , 19-C ) :   0.1296 B(  5-S , 13-O ) :   1.7265 B(  5-S , 14-F ) :   0.9563
B(  5-S , 22-O ) :   1.6494 B(  6-C ,  7-N ) :   0.7551 B(  6-C ,  8-C ) :   1.5367
B(  6-C ,  9-H ) :  -0.1455 B(  6-C , 10-H ) :  -0.1589 B(  7-N , 11-H ) :   0.8391
B(  7-N , 12-H ) :   0.8488 B(  8-C ,  9-H ) :   0.8970 B(  8-C , 10-H ) :   0.5935
B(  9-H , 10-H ) :   0.1264 B( 13-O , 22-O ) :   0.1353 B( 15-C , 19-C ) :   0.7507
B( 15-C , 20-H ) :   0.8728 B( 15-C , 21-H ) :   0.8929 B( 16-C , 19-C ) :   0.4843
B( 16-C , 25-H ) :   1.1052 B( 16-C , 26-H ) :   0.9003 B( 19-C , 23-H ) :   0.9216
B( 19-C , 24-H ) :   0.9534

FINAL SINGLE POINT ENERGY     -1015.672366672144

DIPOLE MOMENT
-------------
                                X             Y             Z
Electronic contribution:      1.28871      -3.38228     -22.21294
Nuclear contribution   :     -1.74760       5.67788      21.66873
                        -----------------------------------------
Total Dipole Moment    :     -0.45889       2.29560      -0.54421
                        -----------------------------------------
Magnitude (a.u.)       :      2.40344
Magnitude (Debye)      :      6.10905

Rotational constants in cm-1:     0.036818     0.018222     0.014682
Rotational constants in MHz :  1103.783048   546.296792   440.157914

                             ****ORCA TERMINATED NORMALLY****
TOTAL RUN TIME: 0 days 0 hours 6 minutes 35 seconds 547 msec
