                         Program Version 5.0.0 -  RELEASE  -
|  1> !LC-PBE RIJCOSX def2-TZVPD def2/J TightSCF xyzfile
|  2>
|  3> *xyzfile 0 1 D5.xyz
|  4>
|  5> %MaxCore 64000
|  6>
|  7> %pal nprocs 4
|  8> end
|  9>
| 10> %scf
| 11>   MaxIter 150
| 12> end
| 13>
| 14>
| 15>                          ****END OF INPUT****

CARTESIAN COORDINATES (ANGSTROEM)
---------------------------------
  C      2.916324   -1.242589   -1.543125
  C      0.704661    1.443129   -4.503630
  C      1.728539    1.424320   -5.639443
  H      2.646718    1.953794   -5.381054
  H      1.299916    1.930613   -6.503614
  S      2.252625   -0.188115   -6.271840
  C      3.466585   -1.590971   -2.889082
  C      4.652275   -1.143164   -3.259692
  N      2.752264   -2.292043   -3.728029
  H      1.778364   -2.489604   -3.512738
  H      2.948612   -2.208544   -4.716813
  H      5.146723   -0.512508   -2.633852
  H      4.783030   -1.007203   -4.253498
  O      3.562607   -0.444464   -5.631552
  O      2.344944   -0.033742   -7.696501
  C      2.804084    0.290698   -1.359243
  C      1.052550    0.695659   -3.214915
  H     -0.232483    1.032925   -4.884449
  H      0.511700    2.495794   -4.267966
  C      2.388380    1.093669   -2.597108
  H      3.763425    0.674718   -0.999889
  H      2.094788    0.461222   -0.545756
  F      1.266058   -1.159177   -5.805365
  H      3.167316    1.013242   -3.359430
  H      2.357690    2.149375   -2.310997
  H      1.039284   -0.368429   -3.449329
  H      0.250787    0.865605   -2.488283
  H      1.940472   -1.716529   -1.441161
  H      3.558569   -1.663433   -0.766371

 Total Charge           Charge          ....    0
 Multiplicity           Mult            ....    1
 Number of Electrons    NEL             ....  112
 Basis Dimension        Dim             ....  643

ORBITAL ENERGIES
----------------

  NO   OCC          E(Eh)            E(eV)
   0   2.0000     -88.544107     -2409.4077
   1   2.0000     -24.619508      -669.9309
   2   2.0000     -19.005428      -517.1640
   3   2.0000     -18.991390      -516.7820
   4   2.0000     -14.201966      -386.4552
   5   2.0000     -10.184539      -277.1354
   6   2.0000     -10.153373      -276.2873
   7   2.0000     -10.129755      -275.6446
   8   2.0000     -10.126473      -275.5553
   9   2.0000     -10.116893      -275.2946
  10   2.0000     -10.114844      -275.2389
  11   2.0000     -10.113403      -275.1997
  12   2.0000     -10.021836      -272.7080
  13   2.0000      -8.155789      -221.9303
  14   2.0000      -6.176400      -168.0684
  15   2.0000      -6.168913      -167.8647
  16   2.0000      -6.168617      -167.8566
  17   2.0000      -1.545679       -42.0601
  18   2.0000      -1.292170       -35.1617
  19   2.0000      -1.187663       -32.3180
  20   2.0000      -1.102584       -30.0028
  21   2.0000      -1.029328       -28.0094
  22   2.0000      -0.981855       -26.7176
  23   2.0000      -0.937797       -25.5187
  24   2.0000      -0.894227       -24.3332
  25   2.0000      -0.873164       -23.7600
  26   2.0000      -0.849676       -23.1209
  27   2.0000      -0.804787       -21.8994
  28   2.0000      -0.764763       -20.8103
  29   2.0000      -0.752802       -20.4848
  30   2.0000      -0.736357       -20.0373
  31   2.0000      -0.711194       -19.3526
  32   2.0000      -0.696121       -18.9424
  33   2.0000      -0.660027       -17.9603
  34   2.0000      -0.648614       -17.6497
  35   2.0000      -0.645611       -17.5680
  36   2.0000      -0.625777       -17.0283
  37   2.0000      -0.619121       -16.8471
  38   2.0000      -0.601898       -16.3785
  39   2.0000      -0.594692       -16.1824
  40   2.0000      -0.574980       -15.6460
  41   2.0000      -0.557374       -15.1669
  42   2.0000      -0.548782       -14.9331
  43   2.0000      -0.526526       -14.3275
  44   2.0000      -0.524539       -14.2734
  45   2.0000      -0.512784       -13.9536
  46   2.0000      -0.505090       -13.7442
  47   2.0000      -0.490437       -13.3455
  48   2.0000      -0.483786       -13.1645
  49   2.0000      -0.474474       -12.9111
  50   2.0000      -0.464064       -12.6278
  51   2.0000      -0.459078       -12.4922
  52   2.0000      -0.449170       -12.2225
  53   2.0000      -0.441841       -12.0231
  54   2.0000      -0.436040       -11.8652
  55   2.0000      -0.294725        -8.0199
  56   0.0000       0.040572         1.1040
  57   0.0000       0.051731         1.4077
  58   0.0000       0.060570         1.6482
  59   0.0000       0.065304         1.7770
  60   0.0000       0.077981         2.1220

MULLIKEN ATOMIC CHARGES
-----------------------
   0 C :   -0.875653
   1 C :   -0.915368
   2 C :   -0.872441
   3 H :    0.512799
   4 H :    0.455887
   5 S :    1.126442
   6 C :    0.199993
   7 C :   -1.160644
   8 N :   -0.506983
   9 H :    0.308256
  10 H :    0.269244
  11 H :    0.346754
  12 H :    0.669739
  13 O :   -0.642620
  14 O :   -0.573123
  15 C :   -0.812276
  16 C :   -0.444614
  17 H :    0.403445
  18 H :    0.409551
  19 C :   -0.676715
  20 H :    0.422196
  21 H :    0.397263
  22 F :   -0.155554
  23 H :    0.452686
  24 H :    0.353489
  25 H :    0.215444
  26 H :    0.365437
  27 H :    0.395982
  28 H :    0.331383
Sum of atomic charges:    0.0000000

LOEWDIN ATOMIC CHARGES
----------------------
   0 C :   -0.151724
   1 C :   -0.237981
   2 C :   -0.219197
   3 H :    0.121694
   4 H :    0.111797
   5 S :    0.616046
   6 C :   -0.510827
   7 C :   -0.002710
   8 N :    0.091956
   9 H :    0.111937
  10 H :    0.079909
  11 H :    0.045658
  12 H :    0.012121
  13 O :   -0.304505
  14 O :   -0.251793
  15 C :   -0.203007
  16 C :   -0.222222
  17 H :    0.120847
  18 H :    0.130290
  19 C :   -0.220978
  20 H :    0.118373
  21 H :    0.115634
  22 F :   -0.050629
  23 H :    0.104314
  24 H :    0.127252
  25 H :    0.092571
  26 H :    0.131111
  27 H :    0.115325
  28 H :    0.128738

  Mayer bond orders larger than 0.100000
B(  0-C ,  6-C ) :   0.5389 B(  0-C , 15-C ) :   0.7272 B(  0-C , 19-C ) :  -0.1155
B(  0-C , 27-H ) :   0.9840 B(  0-C , 28-H ) :   0.9905 B(  1-C ,  2-C ) :   0.6649
B(  1-C , 16-C ) :   0.7099 B(  1-C , 17-H ) :   0.9285 B(  1-C , 18-H ) :   0.8654
B(  2-C ,  3-H ) :   0.7845 B(  2-C ,  4-H ) :   0.9008 B(  2-C ,  5-S ) :   0.8657
B(  2-C , 13-O ) :   0.1337 B(  2-C , 14-O ) :   0.1357 B(  2-C , 16-C ) :  -0.1056
B(  2-C , 19-C ) :   0.1036 B(  5-S , 13-O ) :   1.7013 B(  5-S , 14-O ) :   1.5704
B(  5-S , 22-F ) :   1.0206 B(  6-C ,  7-C ) :   1.6511 B(  6-C ,  8-N ) :   0.7355
B(  6-C , 11-H ) :  -0.1023 B(  6-C , 27-H ) :  -0.1271 B(  7-C , 11-H ) :   1.0637
B(  7-C , 12-H ) :   0.5757 B(  7-C , 13-O ) :   0.1090 B(  8-N ,  9-H ) :   0.8334
B(  8-N , 10-H ) :   0.8480 B( 12-H , 13-O ) :  -0.1062 B( 15-C , 19-C ) :   0.8029
B( 15-C , 20-H ) :   0.8734 B( 15-C , 21-H ) :   0.8756 B( 16-C , 19-C ) :   0.4999
B( 16-C , 25-H ) :   1.0926 B( 16-C , 26-H ) :   0.9000 B( 19-C , 23-H ) :   0.9184
B( 19-C , 24-H ) :   0.9039

FINAL SINGLE POINT ENERGY     -1015.674133189483

DIPOLE MOMENT
-------------
                                X             Y             Z
Electronic contribution:     -1.77945      -6.00802     -18.96926
Nuclear contribution   :     -0.26930       7.11259      19.56706
                        -----------------------------------------
Total Dipole Moment    :     -2.04875       1.10457       0.59780
                        -----------------------------------------
Magnitude (a.u.)       :      2.40309
Magnitude (Debye)      :      6.10816

Rotational constants in cm-1:     0.036519     0.018683     0.015073
Rotational constants in MHz :  1094.801738   560.111127   451.890222

                             ****ORCA TERMINATED NORMALLY****
TOTAL RUN TIME: 0 days 0 hours 6 minutes 36 seconds 16 msec
