                         Program Version 5.0.0 -  RELEASE  -
|  1> !LC-PBE RIJCOSX def2-TZVPD def2/J TightSCF xyzfile
|  2>
|  3> *xyzfile 0 1 D6.xyz
|  4>
|  5> %MaxCore 64000
|  6>
|  7> %pal nprocs 4
|  8> end
|  9>
| 10> %scf
| 11>   MaxIter 150
| 12> end
| 13>
| 14>
| 15>                          ****END OF INPUT****

CARTESIAN COORDINATES (ANGSTROEM)
---------------------------------
  C      2.916324   -1.242589   -1.543125
  C      0.704661    1.443129   -4.503630
  C      1.728539    1.424320   -5.639443
  H      2.646718    1.953794   -5.381054
  H      1.299916    1.930613   -6.503614
  S      2.252625   -0.188115   -6.271840
  C      3.466585   -1.590971   -2.889082
  N      4.652275   -1.143164   -3.259692
  C      2.752264   -2.292043   -3.728029
  H      1.778364   -2.489604   -3.512738
  H      2.948612   -2.208544   -4.716813
  H      5.146723   -0.512508   -2.633852
  H      4.783030   -1.007203   -4.253498
  O      3.562607   -0.444464   -5.631552
  O      2.344944   -0.033742   -7.696501
  C      2.804084    0.290698   -1.359243
  C      1.052550    0.695659   -3.214915
  H     -0.232483    1.032925   -4.884449
  H      0.511700    2.495794   -4.267966
  C      2.388380    1.093669   -2.597108
  H      3.763425    0.674718   -0.999889
  H      2.094788    0.461222   -0.545756
  F      1.266058   -1.159177   -5.805365
  H      3.167316    1.013242   -3.359430
  H      2.357690    2.149375   -2.310997
  H      1.039284   -0.368429   -3.449329
  H      0.250787    0.865605   -2.488283
  H      1.940472   -1.716529   -1.441161
  H      3.558569   -1.663433   -0.766371

 Total Charge           Charge          ....    0
 Multiplicity           Mult            ....    1
 Number of Electrons    NEL             ....  112
 Basis Dimension        Dim             ....  643

ORBITAL ENERGIES
----------------

  NO   OCC          E(Eh)            E(eV)
   0   2.0000     -88.541134     -2409.3267
   1   2.0000     -24.608815      -669.6399
   2   2.0000     -19.001693      -517.0624
   3   2.0000     -18.987809      -516.6845
   4   2.0000     -14.191908      -386.1814
   5   2.0000     -10.181673      -277.0574
   6   2.0000     -10.149630      -276.1855
   7   2.0000     -10.129143      -275.6280
   8   2.0000     -10.123590      -275.4769
   9   2.0000     -10.121271      -275.4138
  10   2.0000     -10.118485      -275.3380
  11   2.0000     -10.112919      -275.1865
  12   2.0000     -10.032958      -273.0107
  13   2.0000      -8.152348      -221.8367
  14   2.0000      -6.172806      -167.9706
  15   2.0000      -6.165711      -167.7775
  16   2.0000      -6.165262      -167.7653
  17   2.0000      -1.534959       -41.7684
  18   2.0000      -1.287895       -35.0454
  19   2.0000      -1.183911       -32.2159
  20   2.0000      -1.094040       -29.7703
  21   2.0000      -1.026021       -27.9195
  22   2.0000      -0.979978       -26.6666
  23   2.0000      -0.932215       -25.3669
  24   2.0000      -0.902069       -24.5465
  25   2.0000      -0.872695       -23.7472
  26   2.0000      -0.846927       -23.0460
  27   2.0000      -0.796458       -21.6727
  28   2.0000      -0.759541       -20.6682
  29   2.0000      -0.742350       -20.2004
  30   2.0000      -0.731909       -19.9163
  31   2.0000      -0.714187       -19.4340
  32   2.0000      -0.691609       -18.8196
  33   2.0000      -0.657015       -17.8783
  34   2.0000      -0.645244       -17.5580
  35   2.0000      -0.642847       -17.4927
  36   2.0000      -0.624268       -16.9872
  37   2.0000      -0.612314       -16.6619
  38   2.0000      -0.603010       -16.4087
  39   2.0000      -0.587563       -15.9884
  40   2.0000      -0.579888       -15.7796
  41   2.0000      -0.554644       -15.0926
  42   2.0000      -0.547157       -14.8889
  43   2.0000      -0.533932       -14.5290
  44   2.0000      -0.522899       -14.2288
  45   2.0000      -0.517663       -14.0863
  46   2.0000      -0.499667       -13.5966
  47   2.0000      -0.494243       -13.4490
  48   2.0000      -0.485494       -13.2110
  49   2.0000      -0.468358       -12.7447
  50   2.0000      -0.462156       -12.5759
  51   2.0000      -0.453710       -12.3461
  52   2.0000      -0.450329       -12.2541
  53   2.0000      -0.440532       -11.9875
  54   2.0000      -0.435572       -11.8525
  55   2.0000      -0.304614        -8.2890
  56   0.0000       0.044631         1.2145
  57   0.0000       0.054253         1.4763
  58   0.0000       0.063511         1.7282
  59   0.0000       0.065429         1.7804
  60   0.0000       0.082235         2.2377

MULLIKEN ATOMIC CHARGES
-----------------------
   0 C :   -0.836939
   1 C :   -0.916111
   2 C :   -0.887118
   3 H :    0.503982
   4 H :    0.458281
   5 S :    1.157518
   6 C :    0.283826
   7 N :   -0.420082
   8 C :   -1.680756
   9 H :    0.523463
  10 H :    0.796403
  11 H :    0.271392
  12 H :    0.322744
  13 O :   -0.665099
  14 O :   -0.577882
  15 C :   -0.785405
  16 C :   -0.422566
  17 H :    0.416406
  18 H :    0.409183
  19 C :   -0.664017
  20 H :    0.439644
  21 H :    0.370319
  22 F :   -0.139450
  23 H :    0.430851
  24 H :    0.349427
  25 H :    0.231364
  26 H :    0.346339
  27 H :    0.350816
  28 H :    0.333468
Sum of atomic charges:   -0.0000000

LOEWDIN ATOMIC CHARGES
----------------------
   0 C :   -0.151758
   1 C :   -0.237420
   2 C :   -0.220443
   3 H :    0.119282
   4 H :    0.111435
   5 S :    0.618972
   6 C :   -0.505744
   7 N :    0.106668
   8 C :   -0.026862
   9 H :    0.042945
  10 H :    0.009952
  11 H :    0.119426
  12 H :    0.085080
  13 O :   -0.312246
  14 O :   -0.252222
  15 C :   -0.205036
  16 C :   -0.220601
  17 H :    0.121686
  18 H :    0.129119
  19 C :   -0.222015
  20 H :    0.113256
  21 H :    0.117110
  22 F :   -0.042884
  23 H :    0.102668
  24 H :    0.126478
  25 H :    0.094848
  26 H :    0.131183
  27 H :    0.121755
  28 H :    0.125366

  Mayer bond orders larger than 0.100000
B(  0-C ,  6-C ) :   0.7274 B(  0-C ,  8-C ) :   0.1229 B(  0-C , 15-C ) :   0.6690
B(  0-C , 16-C ) :   0.1029 B(  0-C , 19-C ) :  -0.1817 B(  0-C , 27-H ) :   0.9760
B(  0-C , 28-H ) :   0.9911 B(  1-C ,  2-C ) :   0.6706 B(  1-C , 16-C ) :   0.6970
B(  1-C , 17-H ) :   0.9011 B(  1-C , 18-H ) :   0.8727 B(  2-C ,  3-H ) :   0.7946
B(  2-C ,  4-H ) :   0.9056 B(  2-C ,  5-S ) :   0.8647 B(  2-C , 13-O ) :   0.1467
B(  2-C , 14-O ) :   0.1433 B(  2-C , 16-C ) :  -0.1077 B(  2-C , 19-C ) :   0.1196
B(  5-S , 13-O ) :   1.7196 B(  5-S , 14-O ) :   1.5500 B(  5-S , 22-F ) :   1.0401
B(  6-C ,  7-N ) :   0.7861 B(  6-C ,  8-C ) :   1.5047 B(  6-C ,  9-H ) :  -0.1551
B(  6-C , 10-H ) :  -0.1233 B(  6-C , 13-O ) :  -0.1442 B(  7-N , 11-H ) :   0.8404
B(  7-N , 12-H ) :   0.8443 B(  8-C ,  9-H ) :   0.8760 B(  8-C , 10-H ) :   0.4680
B(  8-C , 19-C ) :   0.1034 B(  9-H , 10-H ) :   0.1243 B( 15-C , 19-C ) :   0.7552
B( 15-C , 20-H ) :   0.8708 B( 15-C , 21-H ) :   0.8924 B( 16-C , 19-C ) :   0.4898
B( 16-C , 25-H ) :   1.1009 B( 16-C , 26-H ) :   0.9155 B( 19-C , 23-H ) :   0.9324
B( 19-C , 24-H ) :   0.9407

FINAL SINGLE POINT ENERGY     -1015.684652657724

DIPOLE MOMENT
-------------
                                X             Y             Z
Electronic contribution:     -0.50506      -5.29677     -18.61441
Nuclear contribution   :     -0.51418       6.96452      19.50670
                        -----------------------------------------
Total Dipole Moment    :     -1.01924       1.66775       0.89229
                        -----------------------------------------
Magnitude (a.u.)       :      2.14859
Magnitude (Debye)      :      5.46128

Rotational constants in cm-1:     0.036455     0.018603     0.015008
Rotational constants in MHz :  1092.895336   557.693628   449.926016

                             ****ORCA TERMINATED NORMALLY****
TOTAL RUN TIME: 0 days 0 hours 6 minutes 36 seconds 764 msec
