                         Program Version 5.0.0 -  RELEASE  -
|  1> !B3LYP D3BJ RIJCOSX def2-SVPD def2/J TightSCF
|  2> *xyz -1 1
|  3> C         -1.36646        2.47911       -4.31393
|  4> C         -2.35773        2.30686       -3.13675
|  5> O         -3.44376        2.84652       -3.25274
|  6> O         -1.97092        1.58304       -2.15123
|  7> H         -1.80853        3.10058       -5.06443
|  8> H         -1.13980        1.52081       -4.73248
|  9> H         -0.46612        2.93495       -3.95827
| 10> *
| 11> %MaxCore 64000
| 12>
| 13> %pal nprocs 4
| 14> end
| 15>
| 16> %scf
| 17>   MaxIter 150
| 18> end
| 19>
| 20>
| 21>                          ****END OF INPUT****

CARTESIAN COORDINATES (ANGSTROEM)
---------------------------------
  C     -1.366460    2.479110   -4.313930
  C     -2.357730    2.306860   -3.136750
  O     -3.443760    2.846520   -3.252740
  O     -1.970920    1.583040   -2.151230
  H     -1.808530    3.100580   -5.064430
  H     -1.139800    1.520810   -4.732480
  H     -0.466120    2.934950   -3.958270

 Total Charge           Charge          ....   -1
 Multiplicity           Mult            ....    1
 Number of Electrons    NEL             ....   32
 Basis Dimension        Dim             ....  110

ORBITAL ENERGIES
----------------

  NO   OCC          E(Eh)            E(eV)
   0   2.0000     -18.881097      -513.7808
   1   2.0000     -18.869449      -513.4638
   2   2.0000     -10.068582      -273.9801
   3   2.0000      -9.995155      -271.9820
   4   2.0000      -0.816369       -22.2145
   5   2.0000      -0.715422       -19.4676
   6   2.0000      -0.533377       -14.5139
   7   2.0000      -0.298181        -8.1139
   8   2.0000      -0.257700        -7.0124
   9   2.0000      -0.243828        -6.6349
  10   2.0000      -0.226470        -6.1626
  11   2.0000      -0.186770        -5.0823
  12   2.0000      -0.170175        -4.6307
  13   2.0000      -0.048897        -1.3306
  14   2.0000      -0.041984        -1.1424
  15   2.0000      -0.027158        -0.7390
  16   0.0000       0.170918         4.6509
  17   0.0000       0.213607         5.8125
  18   0.0000       0.224525         6.1096
  19   0.0000       0.240266         6.5380
  20   0.0000       0.264321         7.1926

MULLIKEN ATOMIC CHARGES
-----------------------
   0 C :    0.685486
   1 C :    0.011766
   2 O :   -0.562197
   3 O :   -0.705852
   4 H :   -0.160308
   5 H :   -0.134408
   6 H :   -0.134487
Sum of atomic charges:   -1.0000000

LOEWDIN ATOMIC CHARGES
----------------------
   0 C :    0.154306
   1 C :   -0.337542
   2 O :   -0.310064
   3 O :   -0.363984
   4 H :   -0.051864
   5 H :   -0.044863
   6 H :   -0.045989

  Mayer bond orders larger than 0.100000
B(  0-C ,  1-C ) :   1.1933 B(  0-C ,  4-H ) :   0.8429 B(  0-C ,  5-H ) :   0.7930
B(  0-C ,  6-H ) :   0.7883 B(  1-C ,  2-O ) :   1.5578 B(  1-C ,  3-O ) :   1.4476
B(  1-C ,  4-H ) :   0.2708 B(  1-C ,  5-H ) :   0.1843 B(  1-C ,  6-H ) :   0.1880

Dispersion correction           -0.006223820
FINAL SINGLE POINT ENERGY      -228.260995308407

DIPOLE MOMENT
-------------
                                X             Y             Z
Electronic contribution:     -2.44507      -0.33441       2.71364
Nuclear contribution   :      3.20990       0.60513      -3.84153
                        -----------------------------------------
Total Dipole Moment    :      0.76484       0.27072      -1.12789
                        -----------------------------------------
Magnitude (a.u.)       :      1.38939
Magnitude (Debye)      :      3.53154

Rotational constants in cm-1:     0.394521     0.330294     0.185888
Rotational constants in MHz : 11827.441786  9901.964904  5572.768963

                             ****ORCA TERMINATED NORMALLY****
TOTAL RUN TIME: 0 days 0 hours 0 minutes 7 seconds 704 msec
