                         Program Version 5.0.0 -  RELEASE  -
|  1> !B3LYP D3BJ RIJCOSX def2-SVPD def2/J TightSCF
|  2> *xyz 1 1
|  3> C          0.64866        1.00359       -3.64560
|  4> N          0.28128        0.67645       -2.24018
|  5> H          0.39079       -0.31925       -2.02649
|  6> H         -0.69269        0.99010       -2.13812
|  7> H          0.85421        1.21221       -1.57528
|  8> H          0.03905        0.43387       -4.31545
|  9> H          1.67860        0.76457       -3.80989
| 10> H          0.49232        2.04741       -3.82138
| 11> *
| 12> %MaxCore 64000
| 13>
| 14> %pal nprocs 4
| 15> end
| 16>
| 17> %scf
| 18>   MaxIter 150
| 19> end
| 20>
| 21>
| 22>                          ****END OF INPUT****

CARTESIAN COORDINATES (ANGSTROEM)
---------------------------------
  C      0.648660    1.003590   -3.645600
  N      0.281280    0.676450   -2.240180
  H      0.390790   -0.319250   -2.026490
  H     -0.692690    0.990100   -2.138120
  H      0.854210    1.212210   -1.575280
  H      0.039050    0.433870   -4.315450
  H      1.678600    0.764570   -3.809890
  H      0.492320    2.047410   -3.821380

 Total Charge           Charge          ....    1
 Multiplicity           Mult            ....    1
 Number of Electrons    NEL             ....   18
 Basis Dimension        Dim             ....   88

ORBITAL ENERGIES
----------------

  NO   OCC          E(Eh)            E(eV)
   0   2.0000     -14.680017      -399.4636
   1   2.0000     -10.443480      -284.1815
   2   2.0000      -1.218903       -33.1680
   3   2.0000      -0.933082       -25.3904
   4   2.0000      -0.818353       -22.2685
   5   2.0000      -0.808887       -22.0109
   6   2.0000      -0.714510       -19.4428
   7   2.0000      -0.629899       -17.1404
   8   2.0000      -0.627699       -17.0806
   9   0.0000      -0.208141        -5.6638
  10   0.0000      -0.140634        -3.8268
  11   0.0000      -0.137401        -3.7389
  12   0.0000      -0.131353        -3.5743
  13   0.0000      -0.089851        -2.4450

MULLIKEN ATOMIC CHARGES
-----------------------
   0 C :    1.132576
   1 N :   -0.713762
   2 H :    0.319321
   3 H :    0.359840
   4 H :    0.333525
   5 H :   -0.140347
   6 H :   -0.158678
   7 H :   -0.132476
Sum of atomic charges:    1.0000000

LOEWDIN ATOMIC CHARGES
----------------------
   0 C :    0.287269
   1 N :    0.320601
   2 H :    0.107899
   3 H :    0.106427
   4 H :    0.108702
   5 H :    0.023584
   6 H :    0.021493
   7 H :    0.024025

  Mayer bond orders larger than 0.100000
B(  0-C ,  1-N ) :   0.8365 B(  0-C ,  5-H ) :   0.8584 B(  0-C ,  6-H ) :   0.8773
B(  0-C ,  7-H ) :   0.8514 B(  1-N ,  2-H ) :   0.8236 B(  1-N ,  3-H ) :   0.7762
B(  1-N ,  4-H ) :   0.8109 B(  1-N ,  5-H ) :   0.1042 B(  1-N ,  7-H ) :   0.1073

Dispersion correction           -0.005466022
FINAL SINGLE POINT ENERGY       -96.089617313933

DIPOLE MOMENT
-------------
                                X             Y             Z
Electronic contribution:     -0.25960      -0.27490       1.04994
Nuclear contribution   :      0.04246       0.12404      -0.26487
                        -----------------------------------------
Total Dipole Moment    :     -0.21714      -0.15085       0.78507
                        -----------------------------------------
Magnitude (a.u.)       :      0.82840
Magnitude (Debye)      :      2.10562

Rotational constants in cm-1:     2.856727     0.687609     0.685111
Rotational constants in MHz : 85642.512409 20614.005719 20539.101620

                             ****ORCA TERMINATED NORMALLY****
TOTAL RUN TIME: 0 days 0 hours 0 minutes 5 seconds 48 msec
