                         Program Version 5.0.0 -  RELEASE  -
|  1> !B3LYP D3BJ RIJCOSX def2-SVPD def2/J TightSCF
|  2> *xyz 0 1
|  3> C         -1.36646        2.47911       -4.31393
|  4> C         -2.35773        2.30686       -3.13675
|  5> F         -3.44376        2.84652       -3.25274
|  6> O         -1.97092        1.58304       -2.15123
|  7> H         -1.80853        3.10058       -5.06443
|  8> H         -1.13980        1.52081       -4.73248
|  9> H         -0.46612        2.93495       -3.95827
| 10> *
| 11> %MaxCore 64000
| 12>
| 13> %pal nprocs 4
| 14> end
| 15>
| 16> %scf
| 17>   MaxIter 150
| 18> end
| 19>
| 20>
| 21>                          ****END OF INPUT****

CARTESIAN COORDINATES (ANGSTROEM)
---------------------------------
  C     -1.366460    2.479110   -4.313930
  C     -2.357730    2.306860   -3.136750
  F     -3.443760    2.846520   -3.252740
  O     -1.970920    1.583040   -2.151230
  H     -1.808530    3.100580   -5.064430
  H     -1.139800    1.520810   -4.732480
  H     -0.466120    2.934950   -3.958270

 Total Charge           Charge          ....    0
 Multiplicity           Mult            ....    1
 Number of Electrons    NEL             ....   32
 Basis Dimension        Dim             ....  110

ORBITAL ENERGIES
----------------

  NO   OCC          E(Eh)            E(eV)
   0   2.0000     -24.786229      -674.4676
   1   2.0000     -19.147962      -521.0425
   2   2.0000     -10.376191      -282.3505
   3   2.0000     -10.212984      -277.9094
   4   2.0000      -1.340014       -36.4636
   5   2.0000      -1.012037       -27.5389
   6   2.0000      -0.766498       -20.8575
   7   2.0000      -0.678052       -18.4507
   8   2.0000      -0.572218       -15.5709
   9   2.0000      -0.564263       -15.3544
  10   2.0000      -0.503673       -13.7056
  11   2.0000      -0.447810       -12.1855
  12   2.0000      -0.435343       -11.8463
  13   2.0000      -0.402057       -10.9405
  14   2.0000      -0.350302        -9.5322
  15   2.0000      -0.294699        -8.0192
  16   0.0000      -0.039421        -1.0727
  17   0.0000       0.009203         0.2504
  18   0.0000       0.055561         1.5119
  19   0.0000       0.084392         2.2964
  20   0.0000       0.086058         2.3418

MULLIKEN ATOMIC CHARGES
-----------------------
   0 C :    0.615229
   1 C :    0.386184
   2 F :   -0.288959
   3 O :   -0.490288
   4 H :   -0.114816
   5 H :   -0.052199
   6 H :   -0.055151
Sum of atomic charges:    0.0000000

LOEWDIN ATOMIC CHARGES
----------------------
   0 C :    0.227049
   1 C :   -0.038654
   2 F :   -0.009966
   3 O :   -0.154811
   4 H :   -0.019993
   5 H :   -0.001501
   6 H :   -0.002124

  Mayer bond orders larger than 0.100000
B(  0-C ,  1-C ) :   1.2316 B(  0-C ,  4-H ) :   0.8587 B(  0-C ,  5-H ) :   0.7865
B(  0-C ,  6-H ) :   0.7811 B(  1-C ,  2-F ) :   0.8749 B(  1-C ,  3-O ) :   1.7879
B(  1-C ,  4-H ) :   0.1697 B(  1-C ,  5-H ) :   0.1574 B(  1-C ,  6-H ) :   0.1633

Dispersion correction           -0.005724128
FINAL SINGLE POINT ENERGY      -252.782528042235

DIPOLE MOMENT
-------------
                                X             Y             Z
Electronic contribution:     -4.30537       0.51760       2.69130
Nuclear contribution   :      4.40923       0.04336      -3.80230
                        -----------------------------------------
Total Dipole Moment    :      0.10385       0.56096      -1.11100
                        -----------------------------------------
Magnitude (a.u.)       :      1.24891
Magnitude (Debye)      :      3.17448

Rotational constants in cm-1:     0.364425     0.322930     0.176742
Rotational constants in MHz : 10925.196996  9681.206479  5298.597717

                             ****ORCA TERMINATED NORMALLY****
TOTAL RUN TIME: 0 days 0 hours 0 minutes 7 seconds 479 msec
