                         Program Version 5.0.0 -  RELEASE  -
|  1> !B3LYP D3BJ RIJCOSX def2-SVPD def2/J TightSCF
|  2> *xyz 0 1
|  3> C          0.64866        1.00359       -3.64560
|  4> C          0.28128        0.67645       -2.24018
|  5> H          0.39079       -0.31925       -2.02649
|  6> H         -0.69269        0.99010       -2.13812
|  7> H          0.85421        1.21221       -1.57528
|  8> H          0.03905        0.43387       -4.31545
|  9> H          1.67860        0.76457       -3.80989
| 10> H          0.49232        2.04741       -3.82138
| 11> *
| 12> %MaxCore 64000
| 13>
| 14> %pal nprocs 4
| 15> end
| 16>
| 17> %scf
| 18>   MaxIter 150
| 19> end
| 20>
| 21>
| 22>                          ****END OF INPUT****

CARTESIAN COORDINATES (ANGSTROEM)
---------------------------------
  C      0.648660    1.003590   -3.645600
  C      0.281280    0.676450   -2.240180
  H      0.390790   -0.319250   -2.026490
  H     -0.692690    0.990100   -2.138120
  H      0.854210    1.212210   -1.575280
  H      0.039050    0.433870   -4.315450
  H      1.678600    0.764570   -3.809890
  H      0.492320    2.047410   -3.821380

 Total Charge           Charge          ....    0
 Multiplicity           Mult            ....    1
 Number of Electrons    NEL             ....   18
 Basis Dimension        Dim             ....   88

ORBITAL ENERGIES
----------------

  NO   OCC          E(Eh)            E(eV)
   0   2.0000     -10.160822      -276.4900
   1   2.0000     -10.148184      -276.1461
   2   2.0000      -0.762896       -20.7595
   3   2.0000      -0.614065       -16.7095
   4   2.0000      -0.452820       -12.3219
   5   2.0000      -0.446824       -12.1587
   6   2.0000      -0.367712       -10.0059
   7   2.0000      -0.348634        -9.4868
   8   2.0000      -0.343478        -9.3465
   9   0.0000       0.026653         0.7253
  10   0.0000       0.058855         1.6015
  11   0.0000       0.099891         2.7182
  12   0.0000       0.101243         2.7550
  13   0.0000       0.120481         3.2784

MULLIKEN ATOMIC CHARGES
-----------------------
   0 C :    0.440630
   1 C :    0.801798
   2 H :   -0.293842
   3 H :   -0.230341
   4 H :   -0.258735
   5 H :   -0.153087
   6 H :   -0.162369
   7 H :   -0.144054
Sum of atomic charges:    0.0000000

LOEWDIN ATOMIC CHARGES
----------------------
   0 C :    0.082217
   1 C :    0.089784
   2 H :   -0.037130
   3 H :   -0.036869
   4 H :   -0.036684
   5 H :   -0.019831
   6 H :   -0.022635
   7 H :   -0.018853

  Mayer bond orders larger than 0.100000
B(  0-C ,  1-C ) :   1.4306 B(  0-C ,  2-H ) :   0.1830 B(  0-C ,  3-H ) :   0.2268
B(  0-C ,  4-H ) :   0.1869 B(  0-C ,  5-H ) :   0.8180 B(  0-C ,  6-H ) :   0.8473
B(  0-C ,  7-H ) :   0.8111 B(  1-C ,  2-H ) :   0.7234 B(  1-C ,  3-H ) :   0.7142
B(  1-C ,  4-H ) :   0.7127 B(  1-C ,  5-H ) :   0.1721 B(  1-C ,  6-H ) :   0.1610
B(  1-C ,  7-H ) :   0.1783

Dispersion correction           -0.005511073
FINAL SINGLE POINT ENERGY       -79.701480683140

DIPOLE MOMENT
-------------
                                X             Y             Z
Electronic contribution:      0.01321      -0.06387       0.04432
Nuclear contribution   :     -0.02064       0.06655      -0.02194
                        -----------------------------------------
Total Dipole Moment    :     -0.00743       0.00267       0.02238
                        -----------------------------------------
Magnitude (a.u.)       :      0.02374
Magnitude (Debye)      :      0.06033

Rotational constants in cm-1:     2.856742     0.718110     0.715385
Rotational constants in MHz : 85642.970161 21528.388214 21446.695095

                             ****ORCA TERMINATED NORMALLY****
TOTAL RUN TIME: 0 days 0 hours 0 minutes 5 seconds 285 msec
