                         Program Version 5.0.0 -  RELEASE  -
|  1> !B3LYP D3BJ RIJCOSX def2-SVPD def2/J TightSCF
|  2> *xyz 0 1
|  3> C         -1.36646        2.47911       -4.31393
|  4> C         -2.35773        2.30686       -3.13675
|  5> O         -3.44376        2.84652       -3.25274
|  6> F         -1.97092        1.58304       -2.15123
|  7> H         -1.80853        3.10058       -5.06443
|  8> H         -1.13980        1.52081       -4.73248
|  9> H         -0.46612        2.93495       -3.95827
| 10> *
| 11> %MaxCore 64000
| 12>
| 13> %pal nprocs 4
| 14> end
| 15>
| 16> %scf
| 17>   MaxIter 150
| 18> end
| 19>
| 20>
| 21>                          ****END OF INPUT****

CARTESIAN COORDINATES (ANGSTROEM)
---------------------------------
  C     -1.366460    2.479110   -4.313930
  C     -2.357730    2.306860   -3.136750
  O     -3.443760    2.846520   -3.252740
  F     -1.970920    1.583040   -2.151230
  H     -1.808530    3.100580   -5.064430
  H     -1.139800    1.520810   -4.732480
  H     -0.466120    2.934950   -3.958270

 Total Charge           Charge          ....    0
 Multiplicity           Mult            ....    1
 Number of Electrons    NEL             ....   32
 Basis Dimension        Dim             ....  110

ORBITAL ENERGIES
----------------

  NO   OCC          E(Eh)            E(eV)
   0   2.0000     -24.763403      -673.8464
   1   2.0000     -19.157494      -521.3019
   2   2.0000     -10.370505      -282.1958
   3   2.0000     -10.212368      -277.8927
   4   2.0000      -1.291279       -35.1375
   5   2.0000      -1.053009       -28.6538
   6   2.0000      -0.762807       -20.7570
   7   2.0000      -0.652408       -17.7529
   8   2.0000      -0.544607       -14.8195
   9   2.0000      -0.541542       -14.7361
  10   2.0000      -0.505502       -13.7554
  11   2.0000      -0.446027       -12.1370
  12   2.0000      -0.437919       -11.9164
  13   2.0000      -0.411447       -11.1960
  14   2.0000      -0.375248       -10.2110
  15   2.0000      -0.305016        -8.2999
  16   0.0000      -0.029894        -0.8135
  17   0.0000       0.009968         0.2712
  18   0.0000       0.056788         1.5453
  19   0.0000       0.082516         2.2454
  20   0.0000       0.089620         2.4387

MULLIKEN ATOMIC CHARGES
-----------------------
   0 C :    0.634713
   1 C :    0.386250
   2 O :   -0.382958
   3 F :   -0.389776
   4 H :   -0.132530
   5 H :   -0.056512
   6 H :   -0.059187
Sum of atomic charges:   -0.0000000

LOEWDIN ATOMIC CHARGES
----------------------
   0 C :    0.227897
   1 C :   -0.036461
   2 O :   -0.113994
   3 F :   -0.053437
   4 H :   -0.006687
   5 H :   -0.008020
   6 H :   -0.009298

  Mayer bond orders larger than 0.100000
B(  0-C ,  1-C ) :   1.2019 B(  0-C ,  4-H ) :   0.8612 B(  0-C ,  5-H ) :   0.7877
B(  0-C ,  6-H ) :   0.7846 B(  1-C ,  2-O ) :   1.8969 B(  1-C ,  3-F ) :   0.7398
B(  1-C ,  4-H ) :   0.2308 B(  1-C ,  5-H ) :   0.1416 B(  1-C ,  6-H ) :   0.1444

Dispersion correction           -0.005728601
FINAL SINGLE POINT ENERGY      -252.800320130564

DIPOLE MOMENT
-------------
                                X             Y             Z
Electronic contribution:     -1.90443      -1.53723       4.47896
Nuclear contribution   :      2.88734       1.34891      -4.94049
                        -----------------------------------------
Total Dipole Moment    :      0.98292      -0.18832      -0.46153
                        -----------------------------------------
Magnitude (a.u.)       :      1.10209
Magnitude (Debye)      :      2.80129

Rotational constants in cm-1:     0.375207     0.313199     0.176202
Rotational constants in MHz : 11248.433436  9389.476975  5282.390844

                             ****ORCA TERMINATED NORMALLY****
TOTAL RUN TIME: 0 days 0 hours 0 minutes 6 seconds 887 msec
