                         Program Version 5.0.0 -  RELEASE  -
|  1> !wB97X-D3 RIJCOSX def2-TZVPD def2/J TightSCF
|  2> *xyz -1 1
|  3> C          4.12921        0.89839       -3.41895
|  4> C          5.01734        1.31521       -2.22130
|  5> O          4.73706        0.85411       -1.12283
|  6> O          5.92815        2.16811       -2.49136
|  7> H          4.48610        1.37210       -4.30953
|  8> H          3.11885        1.19903       -3.23540
|  9> H          4.16886       -0.16404       -3.53966
| 10> *
| 11> %MaxCore 64000
| 12>
| 13> %pal nprocs 18
| 14> end
| 15>
| 16> %scf
| 17>   MaxIter 150
| 18> end
| 19>
| 20>
| 21>                          ****END OF INPUT****

CARTESIAN COORDINATES (ANGSTROEM)
---------------------------------
  C      4.129210    0.898390   -3.418950
  C      5.017340    1.315210   -2.221300
  O      4.737060    0.854110   -1.122830
  O      5.928150    2.168110   -2.491360
  H      4.486100    1.372100   -4.309530
  H      3.118850    1.199030   -3.235400
  H      4.168860   -0.164040   -3.539660

 Total Charge           Charge          ....   -1
 Multiplicity           Mult            ....    1
 Number of Electrons    NEL             ....   32
 Basis Dimension        Dim             ....  181

ORBITAL ENERGIES
----------------

  NO   OCC          E(Eh)            E(eV)
   0   2.0000     -18.966068      -516.0929
   1   2.0000     -18.956593      -515.8351
   2   2.0000     -10.157265      -276.3932
   3   2.0000     -10.081586      -274.3339
   4   2.0000      -0.937972       -25.5235
   5   2.0000      -0.839556       -22.8455
   6   2.0000      -0.653013       -17.7694
   7   2.0000      -0.406734       -11.0678
   8   2.0000      -0.357245        -9.7211
   9   2.0000      -0.342186        -9.3114
  10   2.0000      -0.326889        -8.8951
  11   2.0000      -0.283882        -7.7248
  12   2.0000      -0.264551        -7.1988
  13   2.0000      -0.139249        -3.7892
  14   2.0000      -0.131631        -3.5819
  15   2.0000      -0.120638        -3.2827
  16   0.0000       0.203387         5.5344
  17   0.0000       0.224035         6.0963
  18   0.0000       0.235566         6.4101
  19   0.0000       0.253948         6.9103
  20   0.0000       0.274669         7.4741

MULLIKEN ATOMIC CHARGES
-----------------------
   0 C :   -0.715920
   1 C :    0.538822
   2 O :   -0.729005
   3 O :   -0.761595
   4 H :    0.238359
   5 H :    0.210503
   6 H :    0.218838
Sum of atomic charges:   -1.0000000

LOEWDIN ATOMIC CHARGES
----------------------
   0 C :   -0.070388
   1 C :   -0.810529
   2 O :   -0.092730
   3 O :   -0.153928
   4 H :    0.039756
   5 H :    0.044743
   6 H :    0.043075

  Mayer bond orders larger than 0.100000
B(  0-C ,  1-C ) :   0.8933 B(  0-C ,  4-H ) :   0.9940 B(  0-C ,  5-H ) :   0.9392
B(  0-C ,  6-H ) :   0.9458 B(  1-C ,  2-O ) :   1.5160 B(  1-C ,  3-O ) :   1.4466

Dispersion correction           -0.000905406
FINAL SINGLE POINT ENERGY      -228.552847811044

DIPOLE MOMENT
-------------
                                X             Y             Z
Electronic contribution:      2.03616       0.94172       2.89515
Nuclear contribution   :     -2.87913      -1.42371      -3.86600
                        -----------------------------------------
Total Dipole Moment    :     -0.84296      -0.48199      -0.97085
                        -----------------------------------------
Magnitude (a.u.)       :      1.37312
Magnitude (Debye)      :      3.49019

Rotational constants in cm-1:     0.390018     0.334370     0.186171
Rotational constants in MHz : 11692.450907 10024.149143  5581.251544

                             ****ORCA TERMINATED NORMALLY****
TOTAL RUN TIME: 0 days 0 hours 0 minutes 10 seconds 891 msec
