                         Program Version 5.0.0 -  RELEASE  -
|  1> !wB97X-D3 RIJCOSX def2-TZVPD def2/J TightSCF
|  2> *xyz 1 1
|  3> C          3.34350        3.35457       -3.59200
|  4> C          4.25587        3.70385       -4.72605
|  5> N          3.73403        4.29378       -5.80077
|  6> N          5.51504        3.40725       -4.63718
|  7> H          6.14919        3.60120       -5.39905
|  8> H          5.81358        2.89950       -3.80879
|  9> H          2.74138        4.51311       -5.82470
| 10> H          4.28755        4.52126       -6.61434
| 11> H          2.34726        3.66659       -3.82664
| 12> H          3.67283        3.85124       -2.70331
| 13> H          3.35820        2.29620       -3.43538
| 14> *
| 15> %MaxCore 64000
| 16>
| 17> %pal nprocs 18
| 18> end
| 19>
| 20> %scf
| 21>   MaxIter 150
| 22> end
| 23>
| 24>
| 25>                          ****END OF INPUT****

CARTESIAN COORDINATES (ANGSTROEM)
---------------------------------
  C      3.343500    3.354570   -3.592000
  C      4.255870    3.703850   -4.726050
  N      3.734030    4.293780   -5.800770
  N      5.515040    3.407250   -4.637180
  H      6.149190    3.601200   -5.399050
  H      5.813580    2.899500   -3.808790
  H      2.741380    4.513110   -5.824700
  H      4.287550    4.521260   -6.614340
  H      2.347260    3.666590   -3.826640
  H      3.672830    3.851240   -2.703310
  H      3.358200    2.296200   -3.435380

 Total Charge           Charge          ....    1
 Multiplicity           Mult            ....    1
 Number of Electrons    NEL             ....   32
 Basis Dimension        Dim             ....  211

ORBITAL ENERGIES
----------------

  NO   OCC          E(Eh)            E(eV)
   0   2.0000     -14.674495      -399.3133
   1   2.0000     -14.670827      -399.2135
   2   2.0000     -10.610025      -288.7134
   3   2.0000     -10.472006      -284.9578
   4   2.0000      -1.328740       -36.1569
   5   2.0000      -1.231226       -33.5034
   6   2.0000      -1.071122       -29.1467
   7   2.0000      -0.950529       -25.8652
   8   2.0000      -0.886811       -24.1314
   9   2.0000      -0.874216       -23.7886
  10   2.0000      -0.806025       -21.9331
  11   2.0000      -0.765873       -20.8405
  12   2.0000      -0.713985       -19.4285
  13   2.0000      -0.700777       -19.0691
  14   2.0000      -0.675021       -18.3682
  15   2.0000      -0.592416       -16.1204
  16   0.0000      -0.131392        -3.5754
  17   0.0000      -0.098108        -2.6697
  18   0.0000      -0.054532        -1.4839
  19   0.0000      -0.053673        -1.4605
  20   0.0000      -0.029457        -0.8016

MULLIKEN ATOMIC CHARGES
-----------------------
   0 C :   -1.191485
   1 C :    1.007538
   2 N :   -0.419338
   3 N :   -0.401544
   4 H :    0.224629
   5 H :    0.258729
   6 H :    0.241035
   7 H :    0.194810
   8 H :    0.340030
   9 H :    0.373071
  10 H :    0.372525
Sum of atomic charges:    1.0000000

LOEWDIN ATOMIC CHARGES
----------------------
   0 C :    0.032053
   1 C :   -0.376780
   2 N :    0.213058
   3 N :    0.221432
   4 H :    0.153295
   5 H :    0.159701
   6 H :    0.148091
   7 H :    0.144359
   8 H :    0.092057
   9 H :    0.106284
  10 H :    0.106449

  Mayer bond orders larger than 0.100000
B(  0-C ,  1-C ) :   0.6480 B(  0-C ,  8-H ) :   0.9328 B(  0-C ,  9-H ) :   0.8995
B(  0-C , 10-H ) :   0.8880 B(  1-C ,  2-N ) :   1.1147 B(  1-C ,  3-N ) :   1.2444
B(  2-N ,  3-N ) :   0.1032 B(  2-N ,  6-H ) :   0.9562 B(  2-N ,  7-H ) :   1.0619
B(  3-N ,  4-H ) :   1.0172 B(  3-N ,  5-H ) :   0.9458

Dispersion correction           -0.001665635
FINAL SINGLE POINT ENERGY      -189.739002709240

DIPOLE MOMENT
-------------
                                X             Y             Z
Electronic contribution:      1.41385       0.50064      -1.59323
Nuclear contribution   :     -1.09951      -0.46604       1.22975
                        -----------------------------------------
Total Dipole Moment    :      0.31434       0.03460      -0.36348
                        -----------------------------------------
Magnitude (a.u.)       :      0.48179
Magnitude (Debye)      :      1.22462

Rotational constants in cm-1:     0.329035     0.303839     0.162676
Rotational constants in MHz :  9864.215808  9108.853745  4876.907929

                             ****ORCA TERMINATED NORMALLY****
TOTAL RUN TIME: 0 days 0 hours 0 minutes 15 seconds 518 msec
