                         Program Version 5.0.0 -  RELEASE  -
|  1> !wB97X-D3 RIJCOSX def2-TZVPD def2/J TightSCF
|  2> *xyz 0 1
|  3> C          4.12921        0.89839       -3.41895
|  4> C          5.01734        1.31521       -2.22130
|  5> F          4.73706        0.85411       -1.12283
|  6> O          5.92815        2.16811       -2.49136
|  7> H          4.48610        1.37210       -4.30953
|  8> H          3.11885        1.19903       -3.23540
|  9> H          4.16886       -0.16404       -3.53966
| 10> *
| 11> %MaxCore 64000
| 12>
| 13> %pal nprocs 18
| 14> end
| 15>
| 16> %scf
| 17>   MaxIter 150
| 18> end
| 19>
| 20>
| 21>                          ****END OF INPUT****

CARTESIAN COORDINATES (ANGSTROEM)
---------------------------------
  C      4.129210    0.898390   -3.418950
  C      5.017340    1.315210   -2.221300
  F      4.737060    0.854110   -1.122830
  O      5.928150    2.168110   -2.491360
  H      4.486100    1.372100   -4.309530
  H      3.118850    1.199030   -3.235400
  H      4.168860   -0.164040   -3.539660

 Total Charge           Charge          ....    0
 Multiplicity           Mult            ....    1
 Number of Electrons    NEL             ....   32
 Basis Dimension        Dim             ....  181

ORBITAL ENERGIES
----------------

  NO   OCC          E(Eh)            E(eV)
   0   2.0000     -24.871993      -676.8014
   1   2.0000     -19.234921      -523.4088
   2   2.0000     -10.463763      -284.7335
   3   2.0000     -10.298514      -280.2368
   4   2.0000      -1.463994       -39.8373
   5   2.0000      -1.138046       -30.9678
   6   2.0000      -0.884740       -24.0750
   7   2.0000      -0.783209       -21.3122
   8   2.0000      -0.670701       -18.2507
   9   2.0000      -0.663518       -18.0552
  10   2.0000      -0.607949       -16.5431
  11   2.0000      -0.543593       -14.7919
  12   2.0000      -0.531562       -14.4645
  13   2.0000      -0.495136       -13.4733
  14   2.0000      -0.444901       -12.1064
  15   2.0000      -0.385265       -10.4836
  16   0.0000       0.055533         1.5111
  17   0.0000       0.061711         1.6793
  18   0.0000       0.093133         2.5343
  19   0.0000       0.107124         2.9150
  20   0.0000       0.115366         3.1393

MULLIKEN ATOMIC CHARGES
-----------------------
   0 C :   -0.812746
   1 C :    0.729957
   2 F :   -0.211552
   3 O :   -0.557123
   4 H :    0.267905
   5 H :    0.287518
   6 H :    0.296041
Sum of atomic charges:    0.0000000

LOEWDIN ATOMIC CHARGES
----------------------
   0 C :    0.008800
   1 C :   -0.514251
   2 F :    0.237690
   3 O :    0.040472
   4 H :    0.077155
   5 H :    0.076010
   6 H :    0.074125

  Mayer bond orders larger than 0.100000
B(  0-C ,  1-C ) :   0.8748 B(  0-C ,  4-H ) :   0.9836 B(  0-C ,  5-H ) :   0.9096
B(  0-C ,  6-H ) :   0.9147 B(  1-C ,  2-F ) :   1.0129 B(  1-C ,  3-O ) :   1.6819

Dispersion correction           -0.000899171
FINAL SINGLE POINT ENERGY      -253.110680866912

DIPOLE MOMENT
-------------
                                X             Y             Z
Electronic contribution:      1.71059       0.21054       4.85712
Nuclear contribution   :     -2.65749      -0.95231      -5.09883
                        -----------------------------------------
Total Dipole Moment    :     -0.94689      -0.74177      -0.24171
                        -----------------------------------------
Magnitude (a.u.)       :      1.22689
Magnitude (Debye)      :      3.11850

Rotational constants in cm-1:     0.365278     0.322469     0.176821
Rotational constants in MHz : 10950.755781  9667.377070  5300.957073

                             ****ORCA TERMINATED NORMALLY****
TOTAL RUN TIME: 0 days 0 hours 0 minutes 11 seconds 489 msec
