                         Program Version 5.0.0 -  RELEASE  -
|  1> !wB97X-D3 RIJCOSX def2-TZVPD def2/J TightSCF
|  2> *xyz 0 1
|  3> C          3.34350        3.35457       -3.59200
|  4> C          4.25587        3.70385       -4.72605
|  5> C          3.73403        4.29378       -5.80077
|  6> N          5.51504        3.40725       -4.63718
|  7> H          6.14919        3.60120       -5.39905
|  8> H          5.81358        2.89950       -3.80879
|  9> H          2.74138        4.51311       -5.82470
| 10> H          4.28755        4.52126       -6.61434
| 11> H          2.34726        3.66659       -3.82664
| 12> H          3.67283        3.85124       -2.70331
| 13> H          3.35820        2.29620       -3.43538
| 14> *
| 15> %MaxCore 64000
| 16>
| 17> %pal nprocs 18
| 18> end
| 19>
| 20> %scf
| 21>   MaxIter 150
| 22> end
| 23>
| 24>
| 25>                          ****END OF INPUT****

CARTESIAN COORDINATES (ANGSTROEM)
---------------------------------
  C      3.343500    3.354570   -3.592000
  C      4.255870    3.703850   -4.726050
  C      3.734030    4.293780   -5.800770
  N      5.515040    3.407250   -4.637180
  H      6.149190    3.601200   -5.399050
  H      5.813580    2.899500   -3.808790
  H      2.741380    4.513110   -5.824700
  H      4.287550    4.521260   -6.614340
  H      2.347260    3.666590   -3.826640
  H      3.672830    3.851240   -2.703310
  H      3.358200    2.296200   -3.435380

 Total Charge           Charge          ....    0
 Multiplicity           Mult            ....    1
 Number of Electrons    NEL             ....   32
 Basis Dimension        Dim             ....  211

ORBITAL ENERGIES
----------------

  NO   OCC          E(Eh)            E(eV)
   0   2.0000     -14.424626      -392.5140
   1   2.0000     -10.298605      -280.2393
   2   2.0000     -10.262933      -279.2686
   3   2.0000     -10.203234      -277.6441
   4   2.0000      -1.054807       -28.7027
   5   2.0000      -0.871843       -23.7240
   6   2.0000      -0.800032       -21.7700
   7   2.0000      -0.681075       -18.5330
   8   2.0000      -0.635122       -17.2826
   9   2.0000      -0.575418       -15.6579
  10   2.0000      -0.535379       -14.5684
  11   2.0000      -0.494103       -13.4452
  12   2.0000      -0.487988       -13.2788
  13   2.0000      -0.445232       -12.1154
  14   2.0000      -0.436753       -11.8846
  15   2.0000      -0.275721        -7.5027
  16   0.0000       0.068180         1.8553
  17   0.0000       0.096981         2.6390
  18   0.0000       0.101304         2.7566
  19   0.0000       0.118247         3.2177
  20   0.0000       0.131860         3.5881

MULLIKEN ATOMIC CHARGES
-----------------------
   0 C :   -1.243278
   1 C :    1.232070
   2 C :   -1.483736
   3 N :   -0.487039
   4 H :    0.182104
   5 H :    0.202571
   6 H :    0.288716
   7 H :    0.329144
   8 H :    0.294506
   9 H :    0.341331
  10 H :    0.343610
Sum of atomic charges:    0.0000000

LOEWDIN ATOMIC CHARGES
----------------------
   0 C :   -0.046175
   1 C :   -0.539991
   2 C :    0.007663
   3 N :    0.089800
   4 H :    0.118182
   5 H :    0.114977
   6 H :    0.016501
   7 H :    0.014802
   8 H :    0.072398
   9 H :    0.075703
  10 H :    0.076140

  Mayer bond orders larger than 0.100000
B(  0-C ,  1-C ) :   0.4665 B(  0-C ,  8-H ) :   0.9743 B(  0-C ,  9-H ) :   0.9332
B(  0-C , 10-H ) :   0.9225 B(  1-C ,  2-C ) :   0.9614 B(  1-C ,  3-N ) :   1.1048
B(  2-C ,  3-N ) :   0.1176 B(  2-C ,  6-H ) :   0.9903 B(  2-C ,  7-H ) :   0.9836
B(  3-N ,  4-H ) :   1.0157 B(  3-N ,  5-H ) :   1.0063

Dispersion correction           -0.001676388
FINAL SINGLE POINT ENERGY      -173.269010749590

DIPOLE MOMENT
-------------
                                X             Y             Z
Electronic contribution:      1.77105      -0.05193      -0.54070
Nuclear contribution   :     -1.20871      -0.33119       0.98382
                        -----------------------------------------
Total Dipole Moment    :      0.56234      -0.38312       0.44312
                        -----------------------------------------
Magnitude (a.u.)       :      0.81201
Magnitude (Debye)      :      2.06397

Rotational constants in cm-1:     0.348453     0.308655     0.168735
Rotational constants in MHz : 10446.369928  9253.232733  5058.539653

                             ****ORCA TERMINATED NORMALLY****
TOTAL RUN TIME: 0 days 0 hours 0 minutes 16 seconds 478 msec
