                         Program Version 5.0.0 -  RELEASE  -
|  1> !wB97X-D3 RIJCOSX def2-TZVPD def2/J TightSCF
|  2> *xyz 0 1
|  3> C          4.12921        0.89839       -3.41895
|  4> C          5.01734        1.31521       -2.22130
|  5> O          4.73706        0.85411       -1.12283
|  6> F          5.92815        2.16811       -2.49136
|  7> H          4.48610        1.37210       -4.30953
|  8> H          3.11885        1.19903       -3.23540
|  9> H          4.16886       -0.16404       -3.53966
| 10> *
| 11> %MaxCore 64000
| 12>
| 13> %pal nprocs 18
| 14> end
| 15>
| 16> %scf
| 17>   MaxIter 150
| 18> end
| 19>
| 20>
| 21>                          ****END OF INPUT****

CARTESIAN COORDINATES (ANGSTROEM)
---------------------------------
  C      4.129210    0.898390   -3.418950
  C      5.017340    1.315210   -2.221300
  O      4.737060    0.854110   -1.122830
  F      5.928150    2.168110   -2.491360
  H      4.486100    1.372100   -4.309530
  H      3.118850    1.199030   -3.235400
  H      4.168860   -0.164040   -3.539660

 Total Charge           Charge          ....    0
 Multiplicity           Mult            ....    1
 Number of Electrons    NEL             ....   32
 Basis Dimension        Dim             ....  181

ORBITAL ENERGIES
----------------

  NO   OCC          E(Eh)            E(eV)
   0   2.0000     -24.850879      -676.2268
   1   2.0000     -19.243688      -523.6474
   2   2.0000     -10.459411      -284.6150
   3   2.0000     -10.298533      -280.2373
   4   2.0000      -1.423588       -38.7378
   5   2.0000      -1.171562       -31.8798
   6   2.0000      -0.883324       -24.0365
   7   2.0000      -0.761331       -20.7169
   8   2.0000      -0.646584       -17.5944
   9   2.0000      -0.644418       -17.5355
  10   2.0000      -0.610584       -16.6148
  11   2.0000      -0.543359       -14.7856
  12   2.0000      -0.533168       -14.5083
  13   2.0000      -0.503378       -13.6976
  14   2.0000      -0.462041       -12.5728
  15   2.0000      -0.398249       -10.8369
  16   0.0000       0.057252         1.5579
  17   0.0000       0.062886         1.7112
  18   0.0000       0.094008         2.5581
  19   0.0000       0.106605         2.9009
  20   0.0000       0.117249         3.1905

MULLIKEN ATOMIC CHARGES
-----------------------
   0 C :   -0.790304
   1 C :    0.694451
   2 O :   -0.527973
   3 F :   -0.217771
   4 H :    0.301792
   5 H :    0.267609
   6 H :    0.272196
Sum of atomic charges:    0.0000000

LOEWDIN ATOMIC CHARGES
----------------------
   0 C :    0.010985
   1 C :   -0.506339
   2 O :    0.095595
   3 F :    0.172654
   4 H :    0.067018
   5 H :    0.080534
   6 H :    0.079554

  Mayer bond orders larger than 0.100000
B(  0-C ,  1-C ) :   0.8763 B(  0-C ,  4-H ) :   0.9407 B(  0-C ,  5-H ) :   0.9236
B(  0-C ,  6-H ) :   0.9302 B(  1-C ,  2-O ) :   1.7430 B(  1-C ,  3-F ) :   0.9795

Dispersion correction           -0.000910782
FINAL SINGLE POINT ENERGY      -253.126515078502

DIPOLE MOMENT
-------------
                                X             Y             Z
Electronic contribution:      3.66070       2.36061       2.61259
Nuclear contribution   :     -3.88824      -2.31007      -3.68473
                        -----------------------------------------
Total Dipole Moment    :     -0.22754       0.05054      -1.07214
                        -----------------------------------------
Magnitude (a.u.)       :      1.09718
Magnitude (Debye)      :      2.78881

Rotational constants in cm-1:     0.367620     0.319924     0.176595
Rotational constants in MHz : 11020.955969  9591.092757  5294.190719

                             ****ORCA TERMINATED NORMALLY****
TOTAL RUN TIME: 0 days 0 hours 0 minutes 11 seconds 622 msec
