                         Program Version 5.0.0 -  RELEASE  -
|  1> !wB97X-D3 RIJCOSX def2-TZVPD def2/J TightSCF
|  2> *xyz 0 1
|  3> C          3.34350        3.35457       -3.59200
|  4> C          4.25587        3.70385       -4.72605
|  5> N          3.73403        4.29378       -5.80077
|  6> C          5.51504        3.40725       -4.63718
|  7> H          6.14919        3.60120       -5.39905
|  8> H          5.81358        2.89950       -3.80879
|  9> H          2.74138        4.51311       -5.82470
| 10> H          4.28755        4.52126       -6.61434
| 11> H          2.34726        3.66659       -3.82664
| 12> H          3.67283        3.85124       -2.70331
| 13> H          3.35820        2.29620       -3.43538
| 14> *
| 15> %MaxCore 64000
| 16>
| 17> %pal nprocs 18
| 18> end
| 19>
| 20> %scf
| 21>   MaxIter 150
| 22> end
| 23>
| 24>
| 25>                          ****END OF INPUT****

CARTESIAN COORDINATES (ANGSTROEM)
---------------------------------
  C      3.343500    3.354570   -3.592000
  C      4.255870    3.703850   -4.726050
  N      3.734030    4.293780   -5.800770
  C      5.515040    3.407250   -4.637180
  H      6.149190    3.601200   -5.399050
  H      5.813580    2.899500   -3.808790
  H      2.741380    4.513110   -5.824700
  H      4.287550    4.521260   -6.614340
  H      2.347260    3.666590   -3.826640
  H      3.672830    3.851240   -2.703310
  H      3.358200    2.296200   -3.435380

 Total Charge           Charge          ....    0
 Multiplicity           Mult            ....    1
 Number of Electrons    NEL             ....   32
 Basis Dimension        Dim             ....  211

ORBITAL ENERGIES
----------------

  NO   OCC          E(Eh)            E(eV)
   0   2.0000     -14.421373      -392.4255
   1   2.0000     -10.295605      -280.1577
   2   2.0000     -10.262521      -279.2574
   3   2.0000     -10.199622      -277.5458
   4   2.0000      -1.040418       -28.3112
   5   2.0000      -0.876658       -23.8551
   6   2.0000      -0.803793       -21.8723
   7   2.0000      -0.675517       -18.3817
   8   2.0000      -0.624466       -16.9926
   9   2.0000      -0.577076       -15.7030
  10   2.0000      -0.531689       -14.4680
  11   2.0000      -0.494086       -13.4448
  12   2.0000      -0.489426       -13.3180
  13   2.0000      -0.448949       -12.2165
  14   2.0000      -0.431609       -11.7447
  15   2.0000      -0.279395        -7.6027
  16   0.0000       0.069270         1.8849
  17   0.0000       0.097204         2.6451
  18   0.0000       0.100060         2.7228
  19   0.0000       0.117807         3.2057
  20   0.0000       0.133442         3.6311

MULLIKEN ATOMIC CHARGES
-----------------------
   0 C :   -1.124613
   1 C :    1.150137
   2 N :   -0.463894
   3 C :   -1.507808
   4 H :    0.344326
   5 H :    0.342422
   6 H :    0.189109
   7 H :    0.156022
   8 H :    0.331907
   9 H :    0.293077
  10 H :    0.289316
Sum of atomic charges:   -0.0000000

LOEWDIN ATOMIC CHARGES
----------------------
   0 C :   -0.041611
   1 C :   -0.527131
   2 N :    0.083717
   3 C :   -0.004928
   4 H :    0.024103
   5 H :    0.031493
   6 H :    0.102040
   7 H :    0.108265
   8 H :    0.063918
   9 H :    0.079992
  10 H :    0.080141

  Mayer bond orders larger than 0.100000
B(  0-C ,  1-C ) :   0.5536 B(  0-C ,  3-C ) :   0.1186 B(  0-C ,  8-H ) :   0.9691
B(  0-C ,  9-H ) :   0.9554 B(  0-C , 10-H ) :   0.9513 B(  1-C ,  2-N ) :   0.9592
B(  1-C ,  3-C ) :   1.0534 B(  2-N ,  3-C ) :   0.1217 B(  2-N ,  6-H ) :   1.0165
B(  2-N ,  7-H ) :   1.0575 B(  3-C ,  4-H ) :   0.9626 B(  3-C ,  5-H ) :   0.9363

Dispersion correction           -0.001663070
FINAL SINGLE POINT ENERGY      -173.268108044457

DIPOLE MOMENT
-------------
                                X             Y             Z
Electronic contribution:      0.18372       0.74119      -1.54703
Nuclear contribution   :     -0.80929      -0.53001       1.24477
                        -----------------------------------------
Total Dipole Moment    :     -0.62557       0.21117      -0.30226
                        -----------------------------------------
Magnitude (a.u.)       :      0.72615
Magnitude (Debye)      :      1.84573

Rotational constants in cm-1:     0.352070     0.305406     0.168593
Rotational constants in MHz : 10554.792117  9155.853997  5054.288053

                             ****ORCA TERMINATED NORMALLY****
TOTAL RUN TIME: 0 days 0 hours 0 minutes 12 seconds 132 msec
