                         Program Version 5.0.0 -  RELEASE  -
|  1> !wB97X-D3 RIJCOSX def2-TZVPD def2/J TightSCF xyzfile
|  2>
|  3> *xyzfile 0 1 D3.xyz
|  4>
|  5> %MaxCore 64000
|  6>
|  7> %pal nprocs 18
|  8> end
|  9>
| 10> %scf
| 11>   MaxIter 150
| 12> end
| 13>
| 14>
| 15>                          ****END OF INPUT****

CARTESIAN COORDINATES (ANGSTROEM)
---------------------------------
  C      3.343500    3.354571   -3.591998
  C      2.952633    1.863077   -3.574849
  C      4.129209    0.898394   -3.418950
  H      3.733687   -0.100605   -3.237633
  H      4.719095    0.862556   -4.339005
  C      5.017344    1.315212   -2.221305
  C      4.255868    3.703851   -4.726054
  C      3.734032    4.293783   -5.800770
  N      5.515039    3.407255   -4.637185
  H      6.149187    3.601203   -5.399053
  H      5.813584    2.899504   -3.808785
  H      2.741380    4.513109   -5.824701
  H      4.287548    4.521260   -6.614341
  H      2.278938    1.735250   -2.725496
  H      2.377466    1.625787   -4.475869
  O      4.737055    0.854112   -1.122825
  F      5.928146    2.168108   -2.491365
  H      3.861246    3.597252   -2.662979
  H      2.446493    3.973461   -3.656556

 Total Charge           Charge          ....    0
 Multiplicity           Mult            ....    1
 Number of Electrons    NEL             ....   70
 Basis Dimension        Dim             ....  429

ORBITAL ENERGIES
----------------

  NO   OCC          E(Eh)            E(eV)
   0   2.0000     -24.880784      -677.0406
   1   2.0000     -19.259703      -524.0831
   2   2.0000     -14.413765      -392.2185
   3   2.0000     -10.471999      -284.9576
   4   2.0000     -10.312329      -280.6127
   5   2.0000     -10.299928      -280.2753
   6   2.0000     -10.297888      -280.2198
   7   2.0000     -10.286383      -279.9067
   8   2.0000     -10.206611      -277.7360
   9   2.0000      -1.459211       -39.7072
  10   2.0000      -1.187092       -32.3024
  11   2.0000      -1.056050       -28.7366
  12   2.0000      -0.941542       -25.6207
  13   2.0000      -0.873558       -23.7707
  14   2.0000      -0.830750       -22.6059
  15   2.0000      -0.791297       -21.5323
  16   2.0000      -0.750198       -20.4139
  17   2.0000      -0.695017       -18.9124
  18   2.0000      -0.677605       -18.4386
  19   2.0000      -0.659447       -17.9445
  20   2.0000      -0.631459       -17.1829
  21   2.0000      -0.611434       -16.6380
  22   2.0000      -0.588585       -16.0162
  23   2.0000      -0.571434       -15.5495
  24   2.0000      -0.547991       -14.9116
  25   2.0000      -0.525275       -14.2934
  26   2.0000      -0.500858       -13.6290
  27   2.0000      -0.492750       -13.4084
  28   2.0000      -0.484121       -13.1736
  29   2.0000      -0.476311       -12.9611
  30   2.0000      -0.454821       -12.3763
  31   2.0000      -0.432817       -11.7776
  32   2.0000      -0.428561       -11.6617
  33   2.0000      -0.405456       -11.0330
  34   2.0000      -0.276490        -7.5237
  35   0.0000       0.042096         1.1455
  36   0.0000       0.060952         1.6586
  37   0.0000       0.079522         2.1639
  38   0.0000       0.082962         2.2575
  39   0.0000       0.083898         2.2830

MULLIKEN ATOMIC CHARGES
-----------------------
   0 C :   -0.510389
   1 C :   -0.554313
   2 C :   -0.324324
   3 H :    0.251687
   4 H :    0.338963
   5 C :    0.538267
   6 C :    0.859001
   7 C :   -1.635761
   8 N :   -0.423087
   9 H :    0.131516
  10 H :    0.353549
  11 H :    0.332937
  12 H :    0.354966
  13 H :    0.296123
  14 H :    0.297629
  15 O :   -0.563378
  16 F :   -0.333670
  17 H :    0.299945
  18 H :    0.290340
Sum of atomic charges:    0.0000000

LOEWDIN ATOMIC CHARGES
----------------------
   0 C :   -0.140276
   1 C :   -0.173273
   2 C :   -0.098103
   3 H :    0.121916
   4 H :    0.117422
   5 C :   -0.459262
   6 C :   -0.487578
   7 C :    0.021753
   8 N :    0.117203
   9 H :    0.127021
  10 H :    0.052058
  11 H :    0.020071
  12 H :    0.016866
  13 H :    0.116538
  14 H :    0.122595
  15 O :    0.128492
  16 F :    0.159506
  17 H :    0.116315
  18 H :    0.120736

  Mayer bond orders larger than 0.100000
B(  0-C ,  1-C ) :   0.8086 B(  0-C ,  6-C ) :   0.7952 B(  0-C , 17-H ) :   0.8861
B(  0-C , 18-H ) :   1.0049 B(  1-C ,  2-C ) :   0.8737 B(  1-C ,  5-C ) :   0.2139
B(  1-C ,  6-C ) :   0.1995 B(  1-C , 13-H ) :   0.9186 B(  1-C , 14-H ) :   0.9218
B(  2-C ,  3-H ) :   0.9795 B(  2-C ,  4-H ) :   0.9085 B(  2-C ,  5-C ) :   0.8178
B(  2-C ,  8-N ) :   0.1967 B(  5-C , 15-O ) :   1.6823 B(  5-C , 16-F ) :   0.8654
B(  6-C ,  7-C ) :   0.9001 B(  6-C ,  8-N ) :   1.0571 B(  7-C ,  8-N ) :   0.1060
B(  7-C , 11-H ) :   0.9736 B(  7-C , 12-H ) :   0.9365 B(  8-N ,  9-H ) :   1.0548
B(  8-N , 10-H ) :   0.8626

Dispersion correction           -0.006980446
FINAL SINGLE POINT ENERGY      -464.496316831434

DIPOLE MOMENT
-------------
                                X             Y             Z
Electronic contribution:      7.45697      -3.58971       8.05448
Nuclear contribution   :     -7.21688       3.18902      -8.52197
                        -----------------------------------------
Total Dipole Moment    :      0.24009      -0.40069      -0.46749
                        -----------------------------------------
Magnitude (a.u.)       :      0.66086
Magnitude (Debye)      :      1.67978

Rotational constants in cm-1:     0.103917     0.036987     0.030872
Rotational constants in MHz :  3115.342573  1108.839114   925.506342

                             ****ORCA TERMINATED NORMALLY****
TOTAL RUN TIME: 0 days 0 hours 1 minutes 1 seconds 593 msec
