                         Program Version 5.0.0 -  RELEASE  -
|  1> !PBE0 D3BJ RIJCOSX def2-TZVPD def2/J TightSCF
|  2> *xyz -1 1
|  3> C          0.70466        1.44313       -4.50363
|  4> C          1.72854        1.42432       -5.63944
|  5> H          2.64672        1.95379       -5.38105
|  6> H          1.29992        1.93061       -6.50361
|  7> S          2.25263       -0.18811       -6.27184
|  8> O          3.56261       -0.44446       -5.63155
|  9> O          2.34494       -0.03374       -7.69650
| 10> O          1.26606       -1.15918       -5.80536
| 11> H         -0.17385        0.91270       -4.80656
| 12> H          0.44778        2.45562       -4.27173
| 13> H          1.12367        0.97423       -3.63791
| 14> *
| 15>
| 16> %MaxCore 64000
| 17>
| 18> %pal nprocs 4
| 19> end
| 20>
| 21> %scf
| 22>   MaxIter 150
| 23> end
| 24>
| 25>
| 26>                          ****END OF INPUT****

CARTESIAN COORDINATES (ANGSTROEM)
---------------------------------
  C      0.704660    1.443130   -4.503630
  C      1.728540    1.424320   -5.639440
  H      2.646720    1.953790   -5.381050
  H      1.299920    1.930610   -6.503610
  S      2.252630   -0.188110   -6.271840
  O      3.562610   -0.444460   -5.631550
  O      2.344940   -0.033740   -7.696500
  O      1.266060   -1.159180   -5.805360
  H     -0.173850    0.912700   -4.806560
  H      0.447780    2.455620   -4.271730
  H      1.123670    0.974230   -3.637910

 Total Charge           Charge          ....   -1
 Multiplicity           Mult            ....    1
 Number of Electrons    NEL             ....   58
 Basis Dimension        Dim             ....  285

ORBITAL ENERGIES
----------------

  NO   OCC          E(Eh)            E(eV)
   0   2.0000     -88.999766     -2421.8068
   1   2.0000     -18.987715      -516.6820
   2   2.0000     -18.980896      -516.4964
   3   2.0000     -18.972390      -516.2650
   4   2.0000     -10.082319      -274.3538
   5   2.0000     -10.076865      -274.2054
   6   2.0000      -7.945536      -216.2090
   7   2.0000      -5.882908      -160.0821
   8   2.0000      -5.881597      -160.0464
   9   2.0000      -5.881356      -160.0398
  10   2.0000      -0.949719       -25.8432
  11   2.0000      -0.819480       -22.2992
  12   2.0000      -0.796512       -21.6742
  13   2.0000      -0.654330       -17.8052
  14   2.0000      -0.526613       -14.3299
  15   2.0000      -0.397971       -10.8293
  16   2.0000      -0.331693        -9.0258
  17   2.0000      -0.327585        -8.9140
  18   2.0000      -0.289083        -7.8663
  19   2.0000      -0.272528        -7.4159
  20   2.0000      -0.271246        -7.3810
  21   2.0000      -0.238866        -6.4999
  22   2.0000      -0.229940        -6.2570
  23   2.0000      -0.163977        -4.4620
  24   2.0000      -0.162481        -4.4213
  25   2.0000      -0.127626        -3.4729
  26   2.0000      -0.120455        -3.2778
  27   2.0000      -0.110867        -3.0168
  28   2.0000      -0.075577        -2.0566
  29   0.0000       0.127341         3.4651
  30   0.0000       0.149803         4.0763
  31   0.0000       0.154856         4.2139
  32   0.0000       0.163468         4.4482
  33   0.0000       0.179911         4.8956

MULLIKEN ATOMIC CHARGES
-----------------------
   0 C :   -0.678791
   1 C :   -0.255994
   2 H :    0.181231
   3 H :    0.170420
   4 S :    1.093631
   5 O :   -0.715250
   6 O :   -0.673256
   7 O :   -0.698868
   8 H :    0.203151
   9 H :    0.187144
  10 H :    0.186583
Sum of atomic charges:   -1.0000000

LOEWDIN ATOMIC CHARGES
----------------------
   0 C :   -0.149235
   1 C :   -0.319313
   2 H :    0.080089
   3 H :    0.074369
   4 S :    0.348982
   5 O :   -0.422631
   6 O :   -0.385120
   7 O :   -0.396589
   8 H :    0.057515
   9 H :    0.049033
  10 H :    0.062898

  Mayer bond orders larger than 0.100000
B(  0-C ,  1-C ) :   0.8186 B(  0-C ,  8-H ) :   0.9876 B(  0-C ,  9-H ) :   0.9727
B(  0-C , 10-H ) :   0.9907 B(  1-C ,  2-H ) :   0.9948 B(  1-C ,  3-H ) :   0.9965
B(  1-C ,  4-S ) :   0.8544 B(  1-C ,  5-O ) :   0.1266 B(  1-C ,  6-O ) :   0.1292
B(  4-S ,  5-O ) :   1.5189 B(  4-S ,  6-O ) :   1.5667 B(  4-S ,  7-O ) :   1.5332

Dispersion correction           -0.008177682
FINAL SINGLE POINT ENERGY      -702.843817511505

DIPOLE MOMENT
-------------
                                X             Y             Z
Electronic contribution:      3.65203      -5.63272      -4.30499
Nuclear contribution   :     -4.50297       7.24642       5.01775
                        -----------------------------------------
Total Dipole Moment    :     -0.85094       1.61370       0.71276
                        -----------------------------------------
Magnitude (a.u.)       :      1.95861
Magnitude (Debye)      :      4.97839

Rotational constants in cm-1:     0.162459     0.081286     0.079601
Rotational constants in MHz :  4870.394399  2436.893583  2386.374948

                             ****ORCA TERMINATED NORMALLY****
TOTAL RUN TIME: 0 days 0 hours 0 minutes 39 seconds 653 msec
