                         Program Version 5.0.0 -  RELEASE  -
|  1> !PBE0 D3BJ RIJCOSX def2-TZVPD def2/J TightSCF
|  2> *xyz 1 1
|  3> C          2.91632       -1.24259       -1.54313
|  4> C          3.46659       -1.59097       -2.88908
|  5> N          4.65227       -1.14316       -3.25969
|  6> N          2.75226       -2.29204       -3.72803
|  7> H          1.77836       -2.48960       -3.51274
|  8> H          2.94861       -2.20854       -4.71681
|  9> H          5.14672       -0.51251       -2.63385
| 10> H          4.78303       -1.00720       -4.25350
| 11> C          2.80408        0.29070       -1.35924
| 12> H          1.94047       -1.71653       -1.44116
| 13> H          3.55857       -1.66343       -0.76637
| 14> H          2.17393        0.69633       -2.12297
| 15> H          3.77707        0.73043       -1.42880
| 16> H          2.38369        0.50492       -0.39889
| 17> *
| 18>
| 19> %MaxCore 64000
| 20>
| 21> %pal nprocs 4
| 22> end
| 23>
| 24> %scf
| 25>   MaxIter 150
| 26> end
| 27>
| 28>
| 29>                          ****END OF INPUT****

CARTESIAN COORDINATES (ANGSTROEM)
---------------------------------
  C      2.916320   -1.242590   -1.543130
  C      3.466590   -1.590970   -2.889080
  N      4.652270   -1.143160   -3.259690
  N      2.752260   -2.292040   -3.728030
  H      1.778360   -2.489600   -3.512740
  H      2.948610   -2.208540   -4.716810
  H      5.146720   -0.512510   -2.633850
  H      4.783030   -1.007200   -4.253500
  C      2.804080    0.290700   -1.359240
  H      1.940470   -1.716530   -1.441160
  H      3.558570   -1.663430   -0.766370
  H      2.173930    0.696330   -2.122970
  H      3.777070    0.730430   -1.428800
  H      2.383690    0.504920   -0.398890

 Total Charge           Charge          ....    1
 Multiplicity           Mult            ....    1
 Number of Electrons    NEL             ....   40
 Basis Dimension        Dim             ....  266

ORBITAL ENERGIES
----------------

  NO   OCC          E(Eh)            E(eV)
   0   2.0000     -14.632311      -398.1654
   1   2.0000     -14.626901      -398.0182
   2   2.0000     -10.545723      -286.9637
   3   2.0000     -10.424311      -283.6599
   4   2.0000     -10.382296      -282.5166
   5   2.0000      -1.238943       -33.7133
   6   2.0000      -1.137920       -30.9644
   7   2.0000      -0.995124       -27.0787
   8   2.0000      -0.885127       -24.0855
   9   2.0000      -0.836208       -22.7544
  10   2.0000      -0.785637       -21.3783
  11   2.0000      -0.769942       -20.9512
  12   2.0000      -0.713502       -19.4154
  13   2.0000      -0.679546       -18.4914
  14   2.0000      -0.640085       -17.4176
  15   2.0000      -0.614286       -16.7156
  16   2.0000      -0.566879       -15.4256
  17   2.0000      -0.556063       -15.1312
  18   2.0000      -0.543308       -14.7842
  19   2.0000      -0.511571       -13.9206
  20   0.0000      -0.217632        -5.9221
  21   0.0000      -0.161004        -4.3811
  22   0.0000      -0.120264        -3.2726
  23   0.0000      -0.115939        -3.1549
  24   0.0000      -0.089184        -2.4268

MULLIKEN ATOMIC CHARGES
-----------------------
   0 C :   -0.061007
   1 C :    0.373349
   2 N :   -0.250308
   3 N :   -0.197471
   4 H :    0.246284
   5 H :    0.206450
   6 H :    0.237368
   7 H :    0.209340
   8 C :   -0.854090
   9 H :    0.174066
  10 H :    0.189025
  11 H :    0.262904
  12 H :    0.278889
  13 H :    0.185202
Sum of atomic charges:    1.0000000

LOEWDIN ATOMIC CHARGES
----------------------
   0 C :   -0.136810
   1 C :   -0.369166
   2 N :    0.226739
   3 N :    0.231347
   4 H :    0.152598
   5 H :    0.148031
   6 H :    0.145282
   7 H :    0.147276
   8 C :   -0.049817
   9 H :    0.123560
  10 H :    0.139303
  11 H :    0.084923
  12 H :    0.069186
  13 H :    0.087547

  Mayer bond orders larger than 0.100000
B(  0-C ,  1-C ) :   0.9551 B(  0-C ,  8-C ) :   0.7814 B(  0-C ,  9-H ) :   0.9415
B(  0-C , 10-H ) :   0.9323 B(  1-C ,  2-N ) :   1.3150 B(  1-C ,  3-N ) :   1.3956
B(  1-C ,  8-C ) :   0.1473 B(  2-N ,  6-H ) :   0.9124 B(  2-N ,  7-H ) :   0.9679
B(  3-N ,  4-H ) :   0.9211 B(  3-N ,  5-H ) :   0.9538 B(  8-C , 11-H ) :   0.9719
B(  8-C , 12-H ) :   0.8976 B(  8-C , 13-H ) :   1.0224

Dispersion correction           -0.008578627
FINAL SINGLE POINT ENERGY      -228.847635465396

DIPOLE MOMENT
-------------
                                X             Y             Z
Electronic contribution:      1.30739      -2.84394      -2.76068
Nuclear contribution   :     -1.30215       2.77761       1.84194
                        -----------------------------------------
Total Dipole Moment    :      0.00525      -0.06633      -0.91874
                        -----------------------------------------
Magnitude (a.u.)       :      0.92115
Magnitude (Debye)      :      2.34137

Rotational constants in cm-1:     0.267442     0.127541     0.099068
Rotational constants in MHz :  8017.703171  3823.592522  2969.992494

                             ****ORCA TERMINATED NORMALLY****
TOTAL RUN TIME: 0 days 0 hours 0 minutes 41 seconds 349 msec
