                         Program Version 5.0.0 -  RELEASE  -
|  1> !PBE0 D3BJ RIJCOSX def2-TZVPD def2/J TightSCF xyzfile
|  2>
|  3> *xyzfile 0 1 B.xyz
|  4>
|  5> %MaxCore 64000
|  6>
|  7> %pal nprocs 4
|  8> end
|  9>
| 10> %scf
| 11>   MaxIter 150
| 12> end
| 13>
| 14>
| 15>                          ****END OF INPUT****

CARTESIAN COORDINATES (ANGSTROEM)
---------------------------------
  C      2.916324   -1.242589   -1.543125
  C      0.704661    1.443129   -4.503630
  C      1.728539    1.424320   -5.639443
  H      2.646718    1.953794   -5.381054
  H      1.299916    1.930613   -6.503614
  S      2.252625   -0.188115   -6.271840
  C      3.466585   -1.590971   -2.889082
  N      4.652275   -1.143164   -3.259692
  N      2.752264   -2.292043   -3.728029
  H      1.778364   -2.489604   -3.512738
  H      2.948612   -2.208544   -4.716813
  H      5.146723   -0.512508   -2.633852
  H      4.783030   -1.007203   -4.253498
  O      3.562607   -0.444464   -5.631552
  O      2.344944   -0.033742   -7.696501
  C      2.804084    0.290698   -1.359243
  C      1.052550    0.695659   -3.214915
  H     -0.232483    1.032925   -4.884449
  H      0.511700    2.495794   -4.267966
  C      2.388380    1.093669   -2.597108
  H      3.763425    0.674718   -0.999889
  H      2.094788    0.461222   -0.545756
  O      1.266058   -1.159177   -5.805365
  H      3.167316    1.013242   -3.359430
  H      2.357690    2.149375   -2.310997
  H      1.039284   -0.368429   -3.449329
  H      0.250787    0.865605   -2.488283
  H      1.940472   -1.716529   -1.441161
  H      3.558569   -1.663433   -0.766371

 Total Charge           Charge          ....    0
 Multiplicity           Mult            ....    1
 Number of Electrons    NEL             ....  112
 Basis Dimension        Dim             ....  643

ORBITAL ENERGIES
----------------

  NO   OCC          E(Eh)            E(eV)
   0   2.0000     -89.155269     -2426.0382
   1   2.0000     -19.146147      -520.9931
   2   2.0000     -19.139059      -520.8003
   3   2.0000     -19.130134      -520.5574
   4   2.0000     -14.456577      -393.3835
   5   2.0000     -14.455908      -393.3653
   6   2.0000     -10.380998      -282.4813
   7   2.0000     -10.286830      -279.9189
   8   2.0000     -10.266003      -279.3522
   9   2.0000     -10.237029      -278.5637
  10   2.0000     -10.224155      -278.2134
  11   2.0000     -10.220216      -278.1062
  12   2.0000     -10.218064      -278.0477
  13   2.0000      -8.101425      -220.4510
  14   2.0000      -6.038507      -164.3161
  15   2.0000      -6.038160      -164.3067
  16   2.0000      -6.036732      -164.2678
  17   2.0000      -1.108432       -30.1620
  18   2.0000      -1.069267       -29.0962
  19   2.0000      -0.972202       -26.4550
  20   2.0000      -0.969527       -26.3822
  21   2.0000      -0.965219       -26.2649
  22   2.0000      -0.871471       -23.7139
  23   2.0000      -0.824361       -22.4320
  24   2.0000      -0.776320       -21.1247
  25   2.0000      -0.722316       -19.6552
  26   2.0000      -0.692184       -18.8353
  27   2.0000      -0.656838       -17.8735
  28   2.0000      -0.619464       -16.8565
  29   2.0000      -0.609601       -16.5881
  30   2.0000      -0.598774       -16.2935
  31   2.0000      -0.552827       -15.0432
  32   2.0000      -0.540938       -14.7197
  33   2.0000      -0.531853       -14.4725
  34   2.0000      -0.511583       -13.9209
  35   2.0000      -0.485894       -13.2218
  36   2.0000      -0.479269       -13.0416
  37   2.0000      -0.460471       -12.5301
  38   2.0000      -0.449136       -12.2216
  39   2.0000      -0.445953       -12.1350
  40   2.0000      -0.440705       -11.9922
  41   2.0000      -0.429171       -11.6783
  42   2.0000      -0.420031       -11.4296
  43   2.0000      -0.398762       -10.8509
  44   2.0000      -0.390276       -10.6199
  45   2.0000      -0.385980       -10.5030
  46   2.0000      -0.358817        -9.7639
  47   2.0000      -0.351727        -9.5710
  48   2.0000      -0.338872        -9.2212
  49   2.0000      -0.337707        -9.1895
  50   2.0000      -0.320888        -8.7318
  51   2.0000      -0.317816        -8.6482
  52   2.0000      -0.281741        -7.6666
  53   2.0000      -0.275849        -7.5062
  54   2.0000      -0.266993        -7.2652
  55   2.0000      -0.239063        -6.5052
  56   0.0000      -0.055999        -1.5238
  57   0.0000      -0.021340        -0.5807
  58   0.0000      -0.000513        -0.0140
  59   0.0000       0.012683         0.3451
  60   0.0000       0.019065         0.5188

MULLIKEN ATOMIC CHARGES
-----------------------
   0 C :   -0.159436
   1 C :   -0.264516
   2 C :   -0.594377
   3 H :    0.277951
   4 H :    0.150961
   5 S :    1.133602
   6 C :    0.063470
   7 N :   -0.161479
   8 N :   -0.128287
   9 H :    0.258138
  10 H :    0.241777
  11 H :    0.235765
  12 H :    0.285359
  13 O :   -0.827052
  14 O :   -0.613671
  15 C :   -0.336631
  16 C :   -0.099404
  17 H :    0.185232
  18 H :    0.137102
  19 C :   -0.247914
  20 H :    0.271281
  21 H :    0.119906
  22 O :   -0.762862
  23 H :    0.276990
  24 H :    0.104511
  25 H :    0.058072
  26 H :    0.125608
  27 H :    0.185056
  28 H :    0.084848
Sum of atomic charges:    0.0000000

LOEWDIN ATOMIC CHARGES
----------------------
   0 C :   -0.104022
   1 C :   -0.224411
   2 C :   -0.240411
   3 H :    0.092376
   4 H :    0.095479
   5 S :    0.427367
   6 C :   -0.387780
   7 N :    0.209884
   8 N :    0.223335
   9 H :    0.137836
  10 H :    0.097847
  11 H :    0.138648
  12 H :    0.099435
  13 O :   -0.407591
  14 O :   -0.322297
  15 C :   -0.181261
  16 C :   -0.209292
  17 H :    0.113838
  18 H :    0.113230
  19 C :   -0.206354
  20 H :    0.108244
  21 H :    0.116265
  22 O :   -0.361639
  23 H :    0.096303
  24 H :    0.123195
  25 H :    0.083221
  26 H :    0.119572
  27 H :    0.121013
  28 H :    0.127971

  Mayer bond orders larger than 0.100000
B(  0-C ,  6-C ) :   1.0305 B(  0-C , 15-C ) :   0.9114 B(  0-C , 27-H ) :   0.9194
B(  0-C , 28-H ) :   0.9771 B(  1-C ,  2-C ) :   0.9906 B(  1-C , 16-C ) :   1.0760
B(  1-C , 17-H ) :   0.8709 B(  1-C , 18-H ) :   0.9077 B(  1-C , 19-C ) :   0.2338
B(  1-C , 25-H ) :   0.1805 B(  2-C ,  3-H ) :   0.8727 B(  2-C ,  4-H ) :   1.0265
B(  2-C ,  5-S ) :   0.8330 B(  2-C , 13-O ) :   0.1808 B(  2-C , 14-O ) :   0.1907
B(  2-C , 19-C ) :   0.1414 B(  5-S , 13-O ) :   1.4913 B(  5-S , 14-O ) :   1.4718
B(  5-S , 22-O ) :   1.4175 B(  6-C ,  7-N ) :   1.4119 B(  6-C ,  8-N ) :   1.4920
B(  6-C , 15-C ) :   0.2043 B(  6-C , 19-C ) :   0.1520 B(  7-N , 11-H ) :   0.8599
B(  7-N , 12-H ) :   0.8617 B(  8-N ,  9-H ) :   0.8463 B(  8-N , 10-H ) :   0.8408
B( 13-O , 22-O ) :   0.1279 B( 15-C , 16-C ) :   0.2894 B( 15-C , 19-C ) :   1.0666
B( 15-C , 20-H ) :   0.8425 B( 15-C , 21-H ) :   0.9102 B( 16-C , 19-C ) :   0.7543
B( 16-C , 25-H ) :   1.0331 B( 16-C , 26-H ) :   0.8756 B( 19-C , 23-H ) :   0.9434
B( 19-C , 24-H ) :   0.9606

Dispersion correction           -0.032333475
FINAL SINGLE POINT ENERGY     -1009.226987901179

DIPOLE MOMENT
-------------
                                X             Y             Z
Electronic contribution:      2.75899      -6.29281     -13.33877
Nuclear contribution   :     -1.90023       6.18953      17.82209
                        -----------------------------------------
Total Dipole Moment    :      0.85876      -0.10329       4.48332
                        -----------------------------------------
Magnitude (a.u.)       :      4.56599
Magnitude (Debye)      :     11.60583

Rotational constants in cm-1:     0.036337     0.018755     0.015005
Rotational constants in MHz :  1089.341704   562.266628   449.834770

                             ****ORCA TERMINATED NORMALLY****
TOTAL RUN TIME: 0 days 0 hours 5 minutes 44 seconds 552 msec
