                         Program Version 5.0.0 -  RELEASE  -
|  1> !PBE0 D3BJ RIJCOSX def2-TZVPD def2/J TightSCF
|  2> *xyz 0 1
|  3> C          0.70466        1.44313       -4.50363
|  4> C          1.72854        1.42432       -5.63944
|  5> H          2.64672        1.95379       -5.38105
|  6> H          1.29992        1.93061       -6.50361
|  7> S          2.25263       -0.18811       -6.27184
|  8> F          3.56261       -0.44446       -5.63155
|  9> O          2.34494       -0.03374       -7.69650
| 10> O          1.26606       -1.15918       -5.80536
| 11> H         -0.17385        0.91270       -4.80656
| 12> H          0.44778        2.45562       -4.27173
| 13> H          1.12367        0.97423       -3.63791
| 14> *
| 15>
| 16> %MaxCore 64000
| 17>
| 18> %pal nprocs 4
| 19> end
| 20>
| 21> %scf
| 22>   MaxIter 150
| 23> end
| 24>
| 25>
| 26>                          ****END OF INPUT****

CARTESIAN COORDINATES (ANGSTROEM)
---------------------------------
  C      0.704660    1.443130   -4.503630
  C      1.728540    1.424320   -5.639440
  H      2.646720    1.953790   -5.381050
  H      1.299920    1.930610   -6.503610
  S      2.252630   -0.188110   -6.271840
  F      3.562610   -0.444460   -5.631550
  O      2.344940   -0.033740   -7.696500
  O      1.266060   -1.159180   -5.805360
  H     -0.173850    0.912700   -4.806560
  H      0.447780    2.455620   -4.271730
  H      1.123670    0.974230   -3.637910

 Total Charge           Charge          ....    0
 Multiplicity           Mult            ....    1
 Number of Electrons    NEL             ....   58
 Basis Dimension        Dim             ....  285

ORBITAL ENERGIES
----------------

  NO   OCC          E(Eh)            E(eV)
   0   2.0000     -89.261116     -2428.9184
   1   2.0000     -24.873776      -676.8499
   2   2.0000     -19.223033      -523.0853
   3   2.0000     -19.215726      -522.8865
   4   2.0000     -10.283872      -279.8384
   5   2.0000     -10.238666      -278.6083
   6   2.0000      -8.207359      -223.3336
   7   2.0000      -6.147730      -167.2882
   8   2.0000      -6.141749      -167.1255
   9   2.0000      -6.140932      -167.1033
  10   2.0000      -1.385200       -37.6932
  11   2.0000      -1.141354       -31.0578
  12   2.0000      -1.048082       -28.5197
  13   2.0000      -0.844017       -22.9669
  14   2.0000      -0.746320       -20.3084
  15   2.0000      -0.689786       -18.7700
  16   2.0000      -0.593532       -16.1508
  17   2.0000      -0.582202       -15.8425
  18   2.0000      -0.569153       -15.4874
  19   2.0000      -0.507216       -13.8021
  20   2.0000      -0.495966       -13.4959
  21   2.0000      -0.472037       -12.8448
  22   2.0000      -0.446093       -12.1388
  23   2.0000      -0.417042       -11.3483
  24   2.0000      -0.413822       -11.2607
  25   2.0000      -0.397603       -10.8193
  26   2.0000      -0.351645        -9.5687
  27   2.0000      -0.345597        -9.4042
  28   2.0000      -0.332785        -9.0556
  29   0.0000      -0.004041        -0.1100
  30   0.0000       0.018108         0.4927
  31   0.0000       0.028492         0.7753
  32   0.0000       0.029997         0.8163
  33   0.0000       0.045062         1.2262

MULLIKEN ATOMIC CHARGES
-----------------------
   0 C :   -0.707403
   1 C :   -0.236148
   2 H :    0.262105
   3 H :    0.205020
   4 S :    1.049909
   5 F :   -0.140127
   6 O :   -0.533482
   7 O :   -0.554552
   8 H :    0.235490
   9 H :    0.196993
  10 H :    0.222196
Sum of atomic charges:    0.0000000

LOEWDIN ATOMIC CHARGES
----------------------
   0 C :   -0.110590
   1 C :   -0.271751
   2 H :    0.097163
   3 H :    0.100814
   4 S :    0.598894
   5 F :   -0.084475
   6 O :   -0.269137
   7 O :   -0.282196
   8 H :    0.073198
   9 H :    0.073930
  10 H :    0.074150

  Mayer bond orders larger than 0.100000
B(  0-C ,  1-C ) :   0.8855 B(  0-C ,  8-H ) :   0.9721 B(  0-C ,  9-H ) :   0.9746
B(  0-C , 10-H ) :   0.9548 B(  1-C ,  2-H ) :   0.9013 B(  1-C ,  3-H ) :   0.9739
B(  1-C ,  4-S ) :   0.8531 B(  1-C ,  6-O ) :   0.1058 B(  4-S ,  5-F ) :   1.0301
B(  4-S ,  6-O ) :   1.7623 B(  4-S ,  7-O ) :   1.7287 B(  6-O ,  7-O ) :   0.1005

Dispersion correction           -0.007800786
FINAL SINGLE POINT ENERGY      -727.366266448716

DIPOLE MOMENT
-------------
                                X             Y             Z
Electronic contribution:      6.29636      -6.49282      -3.70780
Nuclear contribution   :     -6.09914       7.80989       4.64238
                        -----------------------------------------
Total Dipole Moment    :      0.19723       1.31707       0.93458
                        -----------------------------------------
Magnitude (a.u.)       :      1.62696
Magnitude (Debye)      :      4.13541

Rotational constants in cm-1:     0.154372     0.078826     0.078033
Rotational constants in MHz :  4627.943144  2363.154585  2339.382767

                             ****ORCA TERMINATED NORMALLY****
TOTAL RUN TIME: 0 days 0 hours 0 minutes 41 seconds 575 msec
