                         Program Version 5.0.0 -  RELEASE  -
|  1> !PBE0 D3BJ RIJCOSX def2-TZVPD def2/J TightSCF
|  2> *xyz 0 1
|  3> C          2.91632       -1.24259       -1.54313
|  4> C          3.46659       -1.59097       -2.88908
|  5> C          4.65227       -1.14316       -3.25969
|  6> N          2.75226       -2.29204       -3.72803
|  7> H          1.77836       -2.48960       -3.51274
|  8> H          2.94861       -2.20854       -4.71681
|  9> H          5.14672       -0.51251       -2.63385
| 10> H          4.78303       -1.00720       -4.25350
| 11> C          2.80408        0.29070       -1.35924
| 12> H          1.94047       -1.71653       -1.44116
| 13> H          3.55857       -1.66343       -0.76637
| 14> H          2.17393        0.69633       -2.12297
| 15> H          3.77707        0.73043       -1.42880
| 16> H          2.38369        0.50492       -0.39889
| 17> *
| 18>
| 19> %MaxCore 64000
| 20>
| 21> %pal nprocs 4
| 22> end
| 23>
| 24> %scf
| 25>   MaxIter 150
| 26> end
| 27>
| 28>
| 29>                          ****END OF INPUT****

CARTESIAN COORDINATES (ANGSTROEM)
---------------------------------
  C      2.916320   -1.242590   -1.543130
  C      3.466590   -1.590970   -2.889080
  C      4.652270   -1.143160   -3.259690
  N      2.752260   -2.292040   -3.728030
  H      1.778360   -2.489600   -3.512740
  H      2.948610   -2.208540   -4.716810
  H      5.146720   -0.512510   -2.633850
  H      4.783030   -1.007200   -4.253500
  C      2.804080    0.290700   -1.359240
  H      1.940470   -1.716530   -1.441160
  H      3.558570   -1.663430   -0.766370
  H      2.173930    0.696330   -2.122970
  H      3.777070    0.730430   -1.428800
  H      2.383690    0.504920   -0.398890

 Total Charge           Charge          ....    0
 Multiplicity           Mult            ....    1
 Number of Electrons    NEL             ....   40
 Basis Dimension        Dim             ....  266

ORBITAL ENERGIES
----------------

  NO   OCC          E(Eh)            E(eV)
   0   2.0000     -14.387604      -391.5066
   1   2.0000     -10.242200      -278.7044
   2   2.0000     -10.224688      -278.2279
   3   2.0000     -10.206394      -277.7301
   4   2.0000     -10.148114      -276.1442
   5   2.0000      -0.965262       -26.2661
   6   2.0000      -0.805561       -21.9204
   7   2.0000      -0.735061       -20.0020
   8   2.0000      -0.664187       -18.0735
   9   2.0000      -0.583214       -15.8700
  10   2.0000      -0.538337       -14.6489
  11   2.0000      -0.494877       -13.4663
  12   2.0000      -0.463490       -12.6122
  13   2.0000      -0.423798       -11.5321
  14   2.0000      -0.403707       -10.9854
  15   2.0000      -0.390135       -10.6161
  16   2.0000      -0.369319       -10.0497
  17   2.0000      -0.355770        -9.6810
  18   2.0000      -0.339620        -9.2415
  19   2.0000      -0.201041        -5.4706
  20   0.0000       0.009300         0.2531
  21   0.0000       0.026687         0.7262
  22   0.0000       0.039038         1.0623
  23   0.0000       0.045984         1.2513
  24   0.0000       0.057165         1.5556

MULLIKEN ATOMIC CHARGES
-----------------------
   0 C :    0.006745
   1 C :    0.432577
   2 C :   -1.008178
   3 N :   -0.290431
   4 H :    0.187910
   5 H :    0.157561
   6 H :    0.232897
   7 H :    0.189644
   8 C :   -0.820240
   9 H :    0.148262
  10 H :    0.140518
  11 H :    0.211244
  12 H :    0.237379
  13 H :    0.174111
Sum of atomic charges:    0.0000000

LOEWDIN ATOMIC CHARGES
----------------------
   0 C :   -0.189024
   1 C :   -0.507949
   2 C :    0.008735
   3 N :    0.101079
   4 H :    0.107232
   5 H :    0.112569
   6 H :    0.021334
   7 H :    0.023736
   8 C :   -0.087926
   9 H :    0.100622
  10 H :    0.116241
  11 H :    0.071950
  12 H :    0.059982
  13 H :    0.061418

  Mayer bond orders larger than 0.100000
B(  0-C ,  1-C ) :   0.8456 B(  0-C ,  8-C ) :   0.7214 B(  0-C ,  9-H ) :   1.0319
B(  0-C , 10-H ) :   0.9156 B(  1-C ,  2-C ) :   1.4584 B(  1-C ,  3-N ) :   1.1827
B(  1-C ,  8-C ) :   0.1779 B(  2-C ,  3-N ) :   0.1267 B(  2-C ,  6-H ) :   0.9678
B(  2-C ,  7-H ) :   1.0575 B(  3-N ,  4-H ) :   0.9731 B(  3-N ,  5-H ) :   0.9631
B(  8-C , 11-H ) :   0.9898 B(  8-C , 12-H ) :   0.9715 B(  8-C , 13-H ) :   1.0026

Dispersion correction           -0.008937022
FINAL SINGLE POINT ENERGY      -212.381615628810

DIPOLE MOMENT
-------------
                                X             Y             Z
Electronic contribution:      0.09640      -2.72838      -1.81240
Nuclear contribution   :     -0.99366       2.78648       1.68526
                        -----------------------------------------
Total Dipole Moment    :     -0.89726       0.05809      -0.12714
                        -----------------------------------------
Magnitude (a.u.)       :      0.90808
Magnitude (Debye)      :      2.30816

Rotational constants in cm-1:     0.282898     0.128664     0.101801
Rotational constants in MHz :  8481.061354  3857.240210  3051.924245

                             ****ORCA TERMINATED NORMALLY****
TOTAL RUN TIME: 0 days 0 hours 0 minutes 39 seconds 498 msec
