                         Program Version 5.0.0 -  RELEASE  -
|  1> !PBE0 D3BJ RIJCOSX def2-TZVPD def2/J TightSCF
|  2> *xyz 0 1
|  3> C          0.70466        1.44313       -4.50363
|  4> C          1.72854        1.42432       -5.63944
|  5> H          2.64672        1.95379       -5.38105
|  6> H          1.29992        1.93061       -6.50361
|  7> S          2.25263       -0.18811       -6.27184
|  8> O          3.56261       -0.44446       -5.63155
|  9> F          2.34494       -0.03374       -7.69650
| 10> O          1.26606       -1.15918       -5.80536
| 11> H         -0.17385        0.91270       -4.80656
| 12> H          0.44778        2.45562       -4.27173
| 13> H          1.12367        0.97423       -3.63791
| 14> *
| 15>
| 16> %MaxCore 64000
| 17>
| 18> %pal nprocs 4
| 19> end
| 20>
| 21> %scf
| 22>   MaxIter 150
| 23> end
| 24>
| 25>
| 26>                          ****END OF INPUT****

CARTESIAN COORDINATES (ANGSTROEM)
---------------------------------
  C      0.704660    1.443130   -4.503630
  C      1.728540    1.424320   -5.639440
  H      2.646720    1.953790   -5.381050
  H      1.299920    1.930610   -6.503610
  S      2.252630   -0.188110   -6.271840
  O      3.562610   -0.444460   -5.631550
  F      2.344940   -0.033740   -7.696500
  O      1.266060   -1.159180   -5.805360
  H     -0.173850    0.912700   -4.806560
  H      0.447780    2.455620   -4.271730
  H      1.123670    0.974230   -3.637910

 Total Charge           Charge          ....    0
 Multiplicity           Mult            ....    1
 Number of Electrons    NEL             ....   58
 Basis Dimension        Dim             ....  285

ORBITAL ENERGIES
----------------

  NO   OCC          E(Eh)            E(eV)
   0   2.0000     -89.263583     -2428.9856
   1   2.0000     -24.897268      -677.4891
   2   2.0000     -19.216110      -522.8969
   3   2.0000     -19.207968      -522.6754
   4   2.0000     -10.284931      -279.8672
   5   2.0000     -10.239407      -278.6284
   6   2.0000      -8.209777      -223.3994
   7   2.0000      -6.150040      -167.3511
   8   2.0000      -6.144016      -167.1872
   9   2.0000      -6.143456      -167.1719
  10   2.0000      -1.423307       -38.7302
  11   2.0000      -1.126786       -30.6614
  12   2.0000      -1.028274       -27.9808
  13   2.0000      -0.844996       -22.9935
  14   2.0000      -0.761731       -20.7278
  15   2.0000      -0.697875       -18.9901
  16   2.0000      -0.610689       -16.6177
  17   2.0000      -0.608651       -16.5622
  18   2.0000      -0.573395       -15.6029
  19   2.0000      -0.507650       -13.8139
  20   2.0000      -0.497307       -13.5324
  21   2.0000      -0.460622       -12.5342
  22   2.0000      -0.443405       -12.0657
  23   2.0000      -0.419812       -11.4237
  24   2.0000      -0.403470       -10.9790
  25   2.0000      -0.396745       -10.7960
  26   2.0000      -0.344577        -9.3764
  27   2.0000      -0.334707        -9.1078
  28   2.0000      -0.316967        -8.6251
  29   0.0000      -0.004512        -0.1228
  30   0.0000       0.013239         0.3603
  31   0.0000       0.028934         0.7873
  32   0.0000       0.030148         0.8204
  33   0.0000       0.045477         1.2375

MULLIKEN ATOMIC CHARGES
-----------------------
   0 C :   -0.729149
   1 C :   -0.228190
   2 H :    0.226318
   3 H :    0.231867
   4 S :    1.045754
   5 O :   -0.559695
   6 F :   -0.100112
   7 O :   -0.550371
   8 H :    0.237296
   9 H :    0.199272
  10 H :    0.227009
Sum of atomic charges:   -0.0000000

LOEWDIN ATOMIC CHARGES
----------------------
   0 C :   -0.104878
   1 C :   -0.276450
   2 H :    0.100885
   3 H :    0.091081
   4 S :    0.598027
   5 O :   -0.302555
   6 F :   -0.049141
   7 O :   -0.282989
   8 H :    0.072095
   9 H :    0.075013
  10 H :    0.078910

  Mayer bond orders larger than 0.100000
B(  0-C ,  1-C ) :   0.9025 B(  0-C ,  8-H ) :   0.9574 B(  0-C ,  9-H ) :   0.9645
B(  0-C , 10-H ) :   0.9700 B(  1-C ,  2-H ) :   0.9681 B(  1-C ,  3-H ) :   0.9140
B(  1-C ,  4-S ) :   0.8509 B(  4-S ,  5-O ) :   1.7149 B(  4-S ,  6-F ) :   1.0826
B(  4-S ,  7-O ) :   1.7345

Dispersion correction           -0.007812959
FINAL SINGLE POINT ENERGY      -727.346836158529

DIPOLE MOMENT
-------------
                                X             Y             Z
Electronic contribution:      4.20782      -5.79906      -7.20093
Nuclear contribution   :     -4.83029       7.38191       6.79413
                        -----------------------------------------
Total Dipole Moment    :     -0.62246       1.58285      -0.40681
                        -----------------------------------------
Magnitude (a.u.)       :      1.74881
Magnitude (Debye)      :      4.44513

Rotational constants in cm-1:     0.156575     0.079070     0.076729
Rotational constants in MHz :  4694.010604  2370.444114  2300.280155

                             ****ORCA TERMINATED NORMALLY****
TOTAL RUN TIME: 0 days 0 hours 0 minutes 42 seconds 403 msec
