                         Program Version 5.0.0 -  RELEASE  -
|  1> !PBE0 D3BJ RIJCOSX def2-TZVPD def2/J TightSCF
|  2> *xyz 0 1
|  3> C          2.91632       -1.24259       -1.54313
|  4> C          3.46659       -1.59097       -2.88908
|  5> N          4.65227       -1.14316       -3.25969
|  6> C          2.75226       -2.29204       -3.72803
|  7> H          1.77836       -2.48960       -3.51274
|  8> H          2.94861       -2.20854       -4.71681
|  9> H          5.14672       -0.51251       -2.63385
| 10> H          4.78303       -1.00720       -4.25350
| 11> C          2.80408        0.29070       -1.35924
| 12> H          1.94047       -1.71653       -1.44116
| 13> H          3.55857       -1.66343       -0.76637
| 14> H          2.17393        0.69633       -2.12297
| 15> H          3.77707        0.73043       -1.42880
| 16> H          2.38369        0.50492       -0.39889
| 17> *
| 18>
| 19> %MaxCore 64000
| 20>
| 21> %pal nprocs 4
| 22> end
| 23>
| 24> %scf
| 25>   MaxIter 150
| 26> end
| 27>
| 28>
| 29>                          ****END OF INPUT****

CARTESIAN COORDINATES (ANGSTROEM)
---------------------------------
  C      2.916320   -1.242590   -1.543130
  C      3.466590   -1.590970   -2.889080
  N      4.652270   -1.143160   -3.259690
  C      2.752260   -2.292040   -3.728030
  H      1.778360   -2.489600   -3.512740
  H      2.948610   -2.208540   -4.716810
  H      5.146720   -0.512510   -2.633850
  H      4.783030   -1.007200   -4.253500
  C      2.804080    0.290700   -1.359240
  H      1.940470   -1.716530   -1.441160
  H      3.558570   -1.663430   -0.766370
  H      2.173930    0.696330   -2.122970
  H      3.777070    0.730430   -1.428800
  H      2.383690    0.504920   -0.398890

 Total Charge           Charge          ....    0
 Multiplicity           Mult            ....    1
 Number of Electrons    NEL             ....   40
 Basis Dimension        Dim             ....  266

ORBITAL ENERGIES
----------------

  NO   OCC          E(Eh)            E(eV)
   0   2.0000     -14.383596      -391.3975
   1   2.0000     -10.240702      -278.6637
   2   2.0000     -10.223014      -278.1823
   3   2.0000     -10.211312      -277.8639
   4   2.0000     -10.151711      -276.2421
   5   2.0000      -0.959880       -26.1197
   6   2.0000      -0.803050       -21.8521
   7   2.0000      -0.746288       -20.3075
   8   2.0000      -0.656730       -17.8705
   9   2.0000      -0.582624       -15.8540
  10   2.0000      -0.542405       -14.7596
  11   2.0000      -0.491349       -13.3703
  12   2.0000      -0.451135       -12.2760
  13   2.0000      -0.448211       -12.1964
  14   2.0000      -0.401462       -10.9243
  15   2.0000      -0.393905       -10.7187
  16   2.0000      -0.369522       -10.0552
  17   2.0000      -0.355035        -9.6610
  18   2.0000      -0.334039        -9.0897
  19   2.0000      -0.207957        -5.6588
  20   0.0000       0.007579         0.2062
  21   0.0000       0.028819         0.7842
  22   0.0000       0.041662         1.1337
  23   0.0000       0.046634         1.2690
  24   0.0000       0.054999         1.4966

MULLIKEN ATOMIC CHARGES
-----------------------
   0 C :   -0.069939
   1 C :    0.534079
   2 N :   -0.347619
   3 C :   -0.983712
   4 H :    0.200524
   5 H :    0.206303
   6 H :    0.177744
   7 H :    0.164469
   8 C :   -0.785850
   9 H :    0.118953
  10 H :    0.159480
  11 H :    0.230672
  12 H :    0.228635
  13 H :    0.166262
Sum of atomic charges:   -0.0000000

LOEWDIN ATOMIC CHARGES
----------------------
   0 C :   -0.191623
   1 C :   -0.509145
   2 N :    0.101120
   3 C :    0.013946
   4 H :    0.025086
   5 H :    0.024581
   6 H :    0.103508
   7 H :    0.112323
   8 C :   -0.089257
   9 H :    0.107992
  10 H :    0.111874
  11 H :    0.073101
  12 H :    0.053314
  13 H :    0.063178

  Mayer bond orders larger than 0.100000
B(  0-C ,  1-C ) :   0.9611 B(  0-C ,  8-C ) :   0.7803 B(  0-C ,  9-H ) :   0.9565
B(  0-C , 10-H ) :   0.9267 B(  1-C ,  2-N ) :   1.0896 B(  1-C ,  3-C ) :   1.4676
B(  2-N ,  6-H ) :   0.9514 B(  2-N ,  7-H ) :   0.9741 B(  3-C ,  4-H ) :   1.0134
B(  3-C ,  5-H ) :   1.0478 B(  8-C , 11-H ) :   1.0130 B(  8-C , 12-H ) :   0.9385
B(  8-C , 13-H ) :   1.0207

Dispersion correction           -0.008917335
FINAL SINGLE POINT ENERGY      -212.385268231905

DIPOLE MOMENT
-------------
                                X             Y             Z
Electronic contribution:      1.72759      -1.73382      -1.40703
Nuclear contribution   :     -1.43372       2.52039       1.57679
                        -----------------------------------------
Total Dipole Moment    :      0.29388       0.78657       0.16976
                        -----------------------------------------
Magnitude (a.u.)       :      0.85666
Magnitude (Debye)      :      2.17746

Rotational constants in cm-1:     0.274962     0.131786     0.102554
Rotational constants in MHz :  8243.150005  3950.846092  3074.493018

                             ****ORCA TERMINATED NORMALLY****
TOTAL RUN TIME: 0 days 0 hours 0 minutes 37 seconds 900 msec
