                         Program Version 5.0.0 -  RELEASE  -
|  1> !PBE0 D3BJ RIJCOSX def2-TZVPD def2/J TightSCF
|  2> *xyz 0 1
|  3> C          0.70466        1.44313       -4.50363
|  4> C          1.72854        1.42432       -5.63944
|  5> H          2.64672        1.95379       -5.38105
|  6> H          1.29992        1.93061       -6.50361
|  7> S          2.25263       -0.18811       -6.27184
|  8> O          3.56261       -0.44446       -5.63155
|  9> O          2.34494       -0.03374       -7.69650
| 10> F          1.26606       -1.15918       -5.80536
| 11> H         -0.17385        0.91270       -4.80656
| 12> H          0.44778        2.45562       -4.27173
| 13> H          1.12367        0.97423       -3.63791
| 14> *
| 15>
| 16> %MaxCore 64000
| 17>
| 18> %pal nprocs 4
| 19> end
| 20>
| 21> %scf
| 22>   MaxIter 150
| 23> end
| 24>
| 25>
| 26>                          ****END OF INPUT****

CARTESIAN COORDINATES (ANGSTROEM)
---------------------------------
  C      0.704660    1.443130   -4.503630
  C      1.728540    1.424320   -5.639440
  H      2.646720    1.953790   -5.381050
  H      1.299920    1.930610   -6.503610
  S      2.252630   -0.188110   -6.271840
  O      3.562610   -0.444460   -5.631550
  O      2.344940   -0.033740   -7.696500
  F      1.266060   -1.159180   -5.805360
  H     -0.173850    0.912700   -4.806560
  H      0.447780    2.455620   -4.271730
  H      1.123670    0.974230   -3.637910

 Total Charge           Charge          ....    0
 Multiplicity           Mult            ....    1
 Number of Electrons    NEL             ....   58
 Basis Dimension        Dim             ....  285

ORBITAL ENERGIES
----------------

  NO   OCC          E(Eh)            E(eV)
   0   2.0000     -89.261983     -2428.9420
   1   2.0000     -24.884627      -677.1451
   2   2.0000     -19.223143      -523.0883
   3   2.0000     -19.207490      -522.6624
   4   2.0000     -10.283830      -279.8372
   5   2.0000     -10.246318      -278.8165
   6   2.0000      -8.208232      -223.3574
   7   2.0000      -6.148678      -167.3140
   8   2.0000      -6.142356      -167.1420
   9   2.0000      -6.141934      -167.1305
  10   2.0000      -1.401847       -38.1462
  11   2.0000      -1.137140       -30.9432
  12   2.0000      -1.036368       -28.2010
  13   2.0000      -0.848037       -23.0763
  14   2.0000      -0.750357       -20.4183
  15   2.0000      -0.698708       -19.0128
  16   2.0000      -0.608737       -16.5646
  17   2.0000      -0.594752       -16.1840
  18   2.0000      -0.563376       -15.3302
  19   2.0000      -0.511328       -13.9139
  20   2.0000      -0.490798       -13.3553
  21   2.0000      -0.465297       -12.6614
  22   2.0000      -0.459659       -12.5079
  23   2.0000      -0.426608       -11.6086
  24   2.0000      -0.409491       -11.1428
  25   2.0000      -0.400446       -10.8967
  26   2.0000      -0.350197        -9.5293
  27   2.0000      -0.335882        -9.1398
  28   2.0000      -0.323479        -8.8023
  29   0.0000      -0.010028        -0.2729
  30   0.0000       0.023673         0.6442
  31   0.0000       0.026043         0.7087
  32   0.0000       0.032210         0.8765
  33   0.0000       0.044622         1.2142

MULLIKEN ATOMIC CHARGES
-----------------------
   0 C :   -0.775726
   1 C :   -0.150852
   2 H :    0.212741
   3 H :    0.213971
   4 S :    1.047115
   5 O :   -0.566798
   6 O :   -0.528565
   7 F :   -0.132753
   8 H :    0.253044
   9 H :    0.192483
  10 H :    0.235342
Sum of atomic charges:    0.0000000

LOEWDIN ATOMIC CHARGES
----------------------
   0 C :   -0.113595
   1 C :   -0.267940
   2 H :    0.107112
   3 H :    0.096876
   4 S :    0.596912
   5 O :   -0.303792
   6 O :   -0.268491
   7 F :   -0.065670
   8 H :    0.069030
   9 H :    0.074526
  10 H :    0.075033

  Mayer bond orders larger than 0.100000
B(  0-C ,  1-C ) :   0.8394 B(  0-C ,  8-H ) :   0.9401 B(  0-C ,  9-H ) :   0.9822
B(  0-C , 10-H ) :   0.9750 B(  1-C ,  2-H ) :   0.9626 B(  1-C ,  3-H ) :   0.9670
B(  1-C ,  4-S ) :   0.8318 B(  1-C ,  6-O ) :   0.1007 B(  4-S ,  5-O ) :   1.7131
B(  4-S ,  6-O ) :   1.7675 B(  4-S ,  7-F ) :   1.0526

Dispersion correction           -0.007766375
FINAL SINGLE POINT ENERGY      -727.356627862574

DIPOLE MOMENT
-------------
                                X             Y             Z
Electronic contribution:      2.38766      -7.66541      -4.00341
Nuclear contribution   :     -3.70606       8.55465       4.82350
                        -----------------------------------------
Total Dipole Moment    :     -1.31840       0.88924       0.82010
                        -----------------------------------------
Magnitude (a.u.)       :      1.78927
Magnitude (Debye)      :      4.54796

Rotational constants in cm-1:     0.153201     0.080978     0.077494
Rotational constants in MHz :  4592.852844  2427.650814  2323.207507

                             ****ORCA TERMINATED NORMALLY****
TOTAL RUN TIME: 0 days 0 hours 0 minutes 40 seconds 882 msec
