                         Program Version 5.0.0 -  RELEASE  -
|  1> !PBE0 D3BJ RIJCOSX def2-TZVPD def2/J TightSCF xyzfile
|  2>
|  3> *xyzfile 0 1 D1.xyz
|  4>
|  5> %MaxCore 64000
|  6>
|  7> %pal nprocs 4
|  8> end
|  9>
| 10> %scf
| 11>   MaxIter 150
| 12> end
| 13>
| 14>
| 15>                          ****END OF INPUT****

CARTESIAN COORDINATES (ANGSTROEM)
---------------------------------
  C      2.916324   -1.242589   -1.543125
  C      0.704661    1.443129   -4.503630
  C      1.728539    1.424320   -5.639443
  H      2.646718    1.953794   -5.381054
  H      1.299916    1.930613   -6.503614
  S      2.252625   -0.188115   -6.271840
  C      3.466585   -1.590971   -2.889082
  C      4.652275   -1.143164   -3.259692
  N      2.752264   -2.292043   -3.728029
  H      1.778364   -2.489604   -3.512738
  H      2.948612   -2.208544   -4.716813
  H      5.146723   -0.512508   -2.633852
  H      4.783030   -1.007203   -4.253498
  F      3.562607   -0.444464   -5.631552
  O      2.344944   -0.033742   -7.696501
  C      2.804084    0.290698   -1.359243
  C      1.052550    0.695659   -3.214915
  H     -0.232483    1.032925   -4.884449
  H      0.511700    2.495794   -4.267966
  C      2.388380    1.093669   -2.597108
  H      3.763425    0.674718   -0.999889
  H      2.094788    0.461222   -0.545756
  O      1.266058   -1.159177   -5.805365
  H      3.167316    1.013242   -3.359430
  H      2.357690    2.149375   -2.310997
  H      1.039284   -0.368429   -3.449329
  H      0.250787    0.865605   -2.488283
  H      1.940472   -1.716529   -1.441161
  H      3.558569   -1.663433   -0.766371

 Total Charge           Charge          ....    0
 Multiplicity           Mult            ....    1
 Number of Electrons    NEL             ....  112
 Basis Dimension        Dim             ....  643

ORBITAL ENERGIES
----------------

  NO   OCC          E(Eh)            E(eV)
   0   2.0000     -89.268619     -2429.1226
   1   2.0000     -24.882432      -677.0854
   2   2.0000     -19.229898      -523.2721
   3   2.0000     -19.226126      -523.1695
   4   2.0000     -14.379480      -391.2856
   5   2.0000     -10.285787      -279.8905
   6   2.0000     -10.251376      -278.9541
   7   2.0000     -10.241112      -278.6748
   8   2.0000     -10.228926      -278.3432
   9   2.0000     -10.227386      -278.3013
  10   2.0000     -10.225652      -278.2541
  11   2.0000     -10.224498      -278.2227
  12   2.0000     -10.145972      -276.0859
  13   2.0000      -8.215259      -223.5486
  14   2.0000      -6.155708      -167.5053
  15   2.0000      -6.149494      -167.3362
  16   2.0000      -6.148800      -167.3174
  17   2.0000      -1.397071       -38.0162
  18   2.0000      -1.150704       -31.3123
  19   2.0000      -1.058904       -28.8142
  20   2.0000      -0.962180       -26.1822
  21   2.0000      -0.864850       -23.5338
  22   2.0000      -0.828285       -22.5388
  23   2.0000      -0.787009       -21.4156
  24   2.0000      -0.756776       -20.5929
  25   2.0000      -0.722527       -19.6610
  26   2.0000      -0.708857       -19.2890
  27   2.0000      -0.654432       -17.8080
  28   2.0000      -0.616316       -16.7708
  29   2.0000      -0.599426       -16.3112
  30   2.0000      -0.590556       -16.0698
  31   2.0000      -0.581709       -15.8291
  32   2.0000      -0.567241       -15.4354
  33   2.0000      -0.531849       -14.4723
  34   2.0000      -0.515790       -14.0354
  35   2.0000      -0.507251       -13.8030
  36   2.0000      -0.494321       -13.4512
  37   2.0000      -0.489009       -13.3066
  38   2.0000      -0.478500       -13.0206
  39   2.0000      -0.459464       -12.5027
  40   2.0000      -0.448377       -12.2010
  41   2.0000      -0.437474       -11.9043
  42   2.0000      -0.416524       -11.3342
  43   2.0000      -0.408011       -11.1025
  44   2.0000      -0.399860       -10.8807
  45   2.0000      -0.396037       -10.7767
  46   2.0000      -0.388412       -10.5692
  47   2.0000      -0.371853       -10.1186
  48   2.0000      -0.365804        -9.9540
  49   2.0000      -0.357205        -9.7200
  50   2.0000      -0.352494        -9.5919
  51   2.0000      -0.342469        -9.3191
  52   2.0000      -0.337034        -9.1712
  53   2.0000      -0.334212        -9.0944
  54   2.0000      -0.328870        -8.9490
  55   2.0000      -0.198307        -5.3962
  56   0.0000      -0.003471        -0.0945
  57   0.0000       0.009005         0.2450
  58   0.0000       0.012987         0.3534
  59   0.0000       0.015304         0.4165
  60   0.0000       0.025917         0.7052

MULLIKEN ATOMIC CHARGES
-----------------------
   0 C :   -0.322858
   1 C :   -0.229903
   2 C :   -0.547233
   3 H :    0.370874
   4 H :    0.155781
   5 S :    1.026119
   6 C :    0.247225
   7 C :   -1.110917
   8 N :   -0.193829
   9 H :    0.258214
  10 H :    0.131190
  11 H :    0.307415
  12 H :    0.368301
  13 F :   -0.154816
  14 O :   -0.527259
  15 C :   -0.309500
  16 C :   -0.120012
  17 H :    0.179733
  18 H :    0.162731
  19 C :   -0.280558
  20 H :    0.241673
  21 H :    0.138279
  22 O :   -0.622783
  23 H :    0.228886
  24 H :    0.107966
  25 H :    0.099307
  26 H :    0.131642
  27 H :    0.196916
  28 H :    0.067415
Sum of atomic charges:   -0.0000000

LOEWDIN ATOMIC CHARGES
----------------------
   0 C :   -0.133848
   1 C :   -0.216395
   2 C :   -0.211678
   3 H :    0.103235
   4 H :    0.106832
   5 S :    0.623323
   6 C :   -0.497461
   7 C :    0.006520
   8 N :    0.114881
   9 H :    0.112439
  10 H :    0.079309
  11 H :    0.035494
  12 H :    0.011817
  13 F :   -0.109309
  14 O :   -0.254234
  15 C :   -0.185040
  16 C :   -0.206213
  17 H :    0.116198
  18 H :    0.121277
  19 C :   -0.208943
  20 H :    0.109543
  21 H :    0.108653
  22 O :   -0.276857
  23 H :    0.092263
  24 H :    0.118857
  25 H :    0.086496
  26 H :    0.123045
  27 H :    0.108941
  28 H :    0.120855

  Mayer bond orders larger than 0.100000
B(  0-C ,  6-C ) :   1.0498 B(  0-C ,  7-C ) :  -0.1317 B(  0-C , 15-C ) :   0.9809
B(  0-C , 16-C ) :   0.1293 B(  0-C , 27-H ) :   0.9100 B(  0-C , 28-H ) :   0.9835
B(  1-C ,  2-C ) :   0.9703 B(  1-C ,  5-S ) :   0.1028 B(  1-C , 16-C ) :   1.0391
B(  1-C , 17-H ) :   0.8914 B(  1-C , 18-H ) :   0.9044 B(  1-C , 19-C ) :   0.2081
B(  1-C , 25-H ) :   0.1337 B(  2-C ,  3-H ) :   0.7912 B(  2-C ,  4-H ) :   1.0124
B(  2-C ,  5-S ) :   0.8408 B(  2-C , 14-O ) :   0.1451 B(  2-C , 19-C ) :   0.1654
B(  5-S , 13-F ) :   1.1174 B(  5-S , 14-O ) :   1.6001 B(  5-S , 22-O ) :   1.6431
B(  6-C ,  7-C ) :   1.5860 B(  6-C ,  8-N ) :   1.0263 B(  6-C , 11-H ) :  -0.1035
B(  6-C , 19-C ) :   0.1600 B(  7-C ,  8-N ) :   0.1007 B(  7-C , 11-H ) :   0.9669
B(  7-C , 12-H ) :   0.8486 B(  7-C , 15-C ) :   0.1710 B(  8-N ,  9-H ) :   0.7969
B(  8-N , 10-H ) :   0.8958 B( 15-C , 16-C ) :   0.2720 B( 15-C , 19-C ) :   1.2171
B( 15-C , 20-H ) :   0.8319 B( 15-C , 21-H ) :   0.8988 B( 15-C , 23-H ) :   0.1182
B( 16-C , 19-C ) :   0.7326 B( 16-C , 25-H ) :   1.0984 B( 16-C , 26-H ) :   0.8564
B( 19-C , 23-H ) :   0.9409 B( 19-C , 24-H ) :   0.9278

Dispersion correction           -0.032153673
FINAL SINGLE POINT ENERGY     -1017.106613098591

DIPOLE MOMENT
-------------
                                X             Y             Z
Electronic contribution:      2.14285      -4.95801     -18.57822
Nuclear contribution   :     -2.89481       6.29550      19.36835
                        -----------------------------------------
Total Dipole Moment    :     -0.75196       1.33750       0.79013
                        -----------------------------------------
Magnitude (a.u.)       :      1.72588
Magnitude (Debye)      :      4.38683

Rotational constants in cm-1:     0.036515     0.018832     0.015081
Rotational constants in MHz :  1094.679513   564.567051   452.109105

                             ****ORCA TERMINATED NORMALLY****
TOTAL RUN TIME: 0 days 0 hours 5 minutes 19 seconds 128 msec
