                         Program Version 5.0.0 -  RELEASE  -
|  1> !PBE0 D3BJ RIJCOSX def2-TZVPD def2/J TightSCF xyzfile
|  2>
|  3> *xyzfile 0 1 D2.xyz
|  4>
|  5> %MaxCore 64000
|  6>
|  7> %pal nprocs 4
|  8> end
|  9>
| 10> %scf
| 11>   MaxIter 150
| 12> end
| 13>
| 14>
| 15>                          ****END OF INPUT****

CARTESIAN COORDINATES (ANGSTROEM)
---------------------------------
  C      2.916324   -1.242589   -1.543125
  C      0.704661    1.443129   -4.503630
  C      1.728539    1.424320   -5.639443
  H      2.646718    1.953794   -5.381054
  H      1.299916    1.930613   -6.503614
  S      2.252625   -0.188115   -6.271840
  C      3.466585   -1.590971   -2.889082
  N      4.652275   -1.143164   -3.259692
  C      2.752264   -2.292043   -3.728029
  H      1.778364   -2.489604   -3.512738
  H      2.948612   -2.208544   -4.716813
  H      5.146723   -0.512508   -2.633852
  H      4.783030   -1.007203   -4.253498
  F      3.562607   -0.444464   -5.631552
  O      2.344944   -0.033742   -7.696501
  C      2.804084    0.290698   -1.359243
  C      1.052550    0.695659   -3.214915
  H     -0.232483    1.032925   -4.884449
  H      0.511700    2.495794   -4.267966
  C      2.388380    1.093669   -2.597108
  H      3.763425    0.674718   -0.999889
  H      2.094788    0.461222   -0.545756
  O      1.266058   -1.159177   -5.805365
  H      3.167316    1.013242   -3.359430
  H      2.357690    2.149375   -2.310997
  H      1.039284   -0.368429   -3.449329
  H      0.250787    0.865605   -2.488283
  H      1.940472   -1.716529   -1.441161
  H      3.558569   -1.663433   -0.766371

 Total Charge           Charge          ....    0
 Multiplicity           Mult            ....    1
 Number of Electrons    NEL             ....  112
 Basis Dimension        Dim             ....  643

ORBITAL ENERGIES
----------------

  NO   OCC          E(Eh)            E(eV)
   0   2.0000     -89.262559     -2428.9577
   1   2.0000     -24.880344      -677.0286
   2   2.0000     -19.224952      -523.1375
   3   2.0000     -19.215183      -522.8717
   4   2.0000     -14.382041      -391.3552
   5   2.0000     -10.282416      -279.7988
   6   2.0000     -10.247350      -278.8446
   7   2.0000     -10.237045      -278.5642
   8   2.0000     -10.230293      -278.3804
   9   2.0000     -10.227905      -278.3155
  10   2.0000     -10.223303      -278.1902
  11   2.0000     -10.222891      -278.1790
  12   2.0000     -10.147866      -276.1375
  13   2.0000      -8.209104      -223.3811
  14   2.0000      -6.149716      -167.3423
  15   2.0000      -6.143248      -167.1663
  16   2.0000      -6.142556      -167.1474
  17   2.0000      -1.394699       -37.9517
  18   2.0000      -1.143766       -31.1234
  19   2.0000      -1.049956       -28.5708
  20   2.0000      -0.960901       -26.1474
  21   2.0000      -0.861489       -23.4423
  22   2.0000      -0.826182       -22.4816
  23   2.0000      -0.785063       -21.3626
  24   2.0000      -0.757872       -20.6228
  25   2.0000      -0.731791       -19.9130
  26   2.0000      -0.701785       -19.0965
  27   2.0000      -0.648579       -17.6487
  28   2.0000      -0.614861       -16.7312
  29   2.0000      -0.594251       -16.1704
  30   2.0000      -0.589372       -16.0376
  31   2.0000      -0.577472       -15.7138
  32   2.0000      -0.567131       -15.4324
  33   2.0000      -0.539784       -14.6883
  34   2.0000      -0.509665       -13.8687
  35   2.0000      -0.506174       -13.7737
  36   2.0000      -0.494219       -13.4484
  37   2.0000      -0.482048       -13.1172
  38   2.0000      -0.468146       -12.7389
  39   2.0000      -0.459877       -12.5139
  40   2.0000      -0.451317       -12.2810
  41   2.0000      -0.432056       -11.7568
  42   2.0000      -0.418546       -11.3892
  43   2.0000      -0.405699       -11.0396
  44   2.0000      -0.400146       -10.8885
  45   2.0000      -0.395679       -10.7670
  46   2.0000      -0.380591       -10.3564
  47   2.0000      -0.370896       -10.0926
  48   2.0000      -0.361192        -9.8285
  49   2.0000      -0.348735        -9.4896
  50   2.0000      -0.347247        -9.4491
  51   2.0000      -0.339249        -9.2314
  52   2.0000      -0.335669        -9.1340
  53   2.0000      -0.328236        -8.9318
  54   2.0000      -0.326477        -8.8839
  55   2.0000      -0.205223        -5.5844
  56   0.0000      -0.006661        -0.1812
  57   0.0000       0.008783         0.2390
  58   0.0000       0.009910         0.2697
  59   0.0000       0.017131         0.4662
  60   0.0000       0.034909         0.9499

MULLIKEN ATOMIC CHARGES
-----------------------
   0 C :   -0.327618
   1 C :   -0.230388
   2 C :   -0.565794
   3 H :    0.356616
   4 H :    0.159878
   5 S :    1.051032
   6 C :    0.318978
   7 N :   -0.198385
   8 C :   -1.196122
   9 H :    0.270557
  10 H :    0.426882
  11 H :    0.241508
  12 H :    0.200341
  13 F :   -0.174497
  14 O :   -0.539465
  15 C :   -0.333703
  16 C :   -0.102424
  17 H :    0.202501
  18 H :    0.161453
  19 C :   -0.211617
  20 H :    0.255071
  21 H :    0.078260
  22 O :   -0.588435
  23 H :    0.244223
  24 H :    0.104626
  25 H :    0.049555
  26 H :    0.110850
  27 H :    0.174618
  28 H :    0.061499
Sum of atomic charges:   -0.0000000

LOEWDIN ATOMIC CHARGES
----------------------
   0 C :   -0.136265
   1 C :   -0.215999
   2 C :   -0.213589
   3 H :    0.100286
   4 H :    0.106297
   5 S :    0.623766
   6 C :   -0.496312
   7 N :    0.110341
   8 C :    0.003800
   9 H :    0.041674
  10 H :    0.007556
  11 H :    0.114108
  12 H :    0.090762
  13 F :   -0.113466
  14 O :   -0.256021
  15 C :   -0.188793
  16 C :   -0.203975
  17 H :    0.117044
  18 H :    0.119961
  19 C :   -0.209987
  20 H :    0.103538
  21 H :    0.109785
  22 O :   -0.267101
  23 H :    0.090382
  24 H :    0.118037
  25 H :    0.089638
  26 H :    0.123210
  27 H :    0.115484
  28 H :    0.115840

  Mayer bond orders larger than 0.100000
B(  0-C ,  6-C ) :   1.0512 B(  0-C , 15-C ) :   0.9418 B(  0-C , 16-C ) :   0.1497
B(  0-C , 21-H ) :   0.1035 B(  0-C , 27-H ) :   0.9187 B(  0-C , 28-H ) :   0.9841
B(  1-C ,  2-C ) :   0.9834 B(  1-C ,  5-S ) :   0.1069 B(  1-C , 16-C ) :   0.9959
B(  1-C , 17-H ) :   0.8700 B(  1-C , 18-H ) :   0.9111 B(  1-C , 19-C ) :   0.2061
B(  1-C , 25-H ) :   0.1779 B(  2-C ,  3-H ) :   0.7997 B(  2-C ,  4-H ) :   1.0127
B(  2-C ,  5-S ) :   0.8424 B(  2-C , 14-O ) :   0.1493 B(  2-C , 19-C ) :   0.1844
B(  5-S , 13-F ) :   1.1287 B(  5-S , 14-O ) :   1.5875 B(  5-S , 22-O ) :   1.6865
B(  6-C ,  7-N ) :   1.1115 B(  6-C ,  8-C ) :   1.5980 B(  6-C ,  9-H ) :  -0.1044
B(  6-C , 10-H ) :  -0.1334 B(  6-C , 19-C ) :   0.1558 B(  7-N , 11-H ) :   0.7994
B(  7-N , 12-H ) :   0.8844 B(  8-C ,  9-H ) :   0.9637 B(  8-C , 10-H ) :   0.8552
B( 15-C , 16-C ) :   0.2895 B( 15-C , 19-C ) :   1.1353 B( 15-C , 20-H ) :   0.8641
B( 15-C , 21-H ) :   0.9119 B( 16-C , 19-C ) :   0.7138 B( 16-C , 25-H ) :   1.1816
B( 16-C , 26-H ) :   0.8312 B( 19-C , 23-H ) :   0.9422 B( 19-C , 24-H ) :   0.9547

Dispersion correction           -0.032203873
FINAL SINGLE POINT ENERGY     -1017.106785155055

DIPOLE MOMENT
-------------
                                X             Y             Z
Electronic contribution:      3.45339      -4.26582     -18.25060
Nuclear contribution   :     -3.13969       6.14743      19.30799
                        -----------------------------------------
Total Dipole Moment    :      0.31371       1.88161       1.05739
                        -----------------------------------------
Magnitude (a.u.)       :      2.18105
Magnitude (Debye)      :      5.54378

Rotational constants in cm-1:     0.036460     0.018762     0.015014
Rotational constants in MHz :  1093.039020   562.475626   450.105862

                             ****ORCA TERMINATED NORMALLY****
TOTAL RUN TIME: 0 days 0 hours 5 minutes 19 seconds 962 msec
