                         Program Version 5.0.0 -  RELEASE  -
|  1> !PBE0 D3BJ RIJCOSX def2-TZVPD def2/J TightSCF xyzfile
|  2>
|  3> *xyzfile 0 1 D3.xyz
|  4>
|  5> %MaxCore 64000
|  6>
|  7> %pal nprocs 4
|  8> end
|  9>
| 10> %scf
| 11>   MaxIter 150
| 12> end
| 13>
| 14>
| 15>                          ****END OF INPUT****

CARTESIAN COORDINATES (ANGSTROEM)
---------------------------------
  C      2.916324   -1.242589   -1.543125
  C      0.704661    1.443129   -4.503630
  C      1.728539    1.424320   -5.639443
  H      2.646718    1.953794   -5.381054
  H      1.299916    1.930613   -6.503614
  S      2.252625   -0.188115   -6.271840
  C      3.466585   -1.590971   -2.889082
  C      4.652275   -1.143164   -3.259692
  N      2.752264   -2.292043   -3.728029
  H      1.778364   -2.489604   -3.512738
  H      2.948612   -2.208544   -4.716813
  H      5.146723   -0.512508   -2.633852
  H      4.783030   -1.007203   -4.253498
  O      3.562607   -0.444464   -5.631552
  F      2.344944   -0.033742   -7.696501
  C      2.804084    0.290698   -1.359243
  C      1.052550    0.695659   -3.214915
  H     -0.232483    1.032925   -4.884449
  H      0.511700    2.495794   -4.267966
  C      2.388380    1.093669   -2.597108
  H      3.763425    0.674718   -0.999889
  H      2.094788    0.461222   -0.545756
  O      1.266058   -1.159177   -5.805365
  H      3.167316    1.013242   -3.359430
  H      2.357690    2.149375   -2.310997
  H      1.039284   -0.368429   -3.449329
  H      0.250787    0.865605   -2.488283
  H      1.940472   -1.716529   -1.441161
  H      3.558569   -1.663433   -0.766371

 Total Charge           Charge          ....    0
 Multiplicity           Mult            ....    1
 Number of Electrons    NEL             ....  112
 Basis Dimension        Dim             ....  643

ORBITAL ENERGIES
----------------

  NO   OCC          E(Eh)            E(eV)
   0   2.0000     -89.275158     -2429.3006
   1   2.0000     -24.906517      -677.7408
   2   2.0000     -19.230237      -523.2814
   3   2.0000     -19.221361      -523.0398
   4   2.0000     -14.356126      -390.6500
   5   2.0000     -10.289466      -279.9906
   6   2.0000     -10.252958      -278.9972
   7   2.0000     -10.222745      -278.1750
   8   2.0000     -10.218369      -278.0560
   9   2.0000     -10.215090      -277.9667
  10   2.0000     -10.212736      -277.9027
  11   2.0000     -10.210421      -277.8397
  12   2.0000     -10.120664      -275.3973
  13   2.0000      -8.221825      -223.7272
  14   2.0000      -6.162013      -167.6769
  15   2.0000      -6.155923      -167.5112
  16   2.0000      -6.155617      -167.5029
  17   2.0000      -1.432867       -38.9903
  18   2.0000      -1.143596       -31.1188
  19   2.0000      -1.045344       -28.4452
  20   2.0000      -0.939105       -25.5543
  21   2.0000      -0.863852       -23.5066
  22   2.0000      -0.819708       -22.3054
  23   2.0000      -0.786585       -21.4041
  24   2.0000      -0.751174       -20.4405
  25   2.0000      -0.720871       -19.6159
  26   2.0000      -0.694748       -18.9051
  27   2.0000      -0.653382       -17.7794
  28   2.0000      -0.621791       -16.9198
  29   2.0000      -0.617002       -16.7895
  30   2.0000      -0.591750       -16.1023
  31   2.0000      -0.581327       -15.8187
  32   2.0000      -0.553641       -15.0653
  33   2.0000      -0.520282       -14.1576
  34   2.0000      -0.511507       -13.9188
  35   2.0000      -0.509040       -13.8517
  36   2.0000      -0.492365       -13.3979
  37   2.0000      -0.484221       -13.1763
  38   2.0000      -0.465172       -12.6580
  39   2.0000      -0.450766       -12.2660
  40   2.0000      -0.440833       -11.9957
  41   2.0000      -0.427200       -11.6247
  42   2.0000      -0.415455       -11.3051
  43   2.0000      -0.398320       -10.8388
  44   2.0000      -0.392502       -10.6805
  45   2.0000      -0.376530       -10.2459
  46   2.0000      -0.371501       -10.1091
  47   2.0000      -0.363559        -9.8929
  48   2.0000      -0.356027        -9.6880
  49   2.0000      -0.347792        -9.4639
  50   2.0000      -0.340390        -9.2625
  51   2.0000      -0.335582        -9.1317
  52   2.0000      -0.327024        -8.8988
  53   2.0000      -0.319076        -8.6825
  54   2.0000      -0.311629        -8.4799
  55   2.0000      -0.175263        -4.7692
  56   0.0000      -0.010719        -0.2917
  57   0.0000       0.005375         0.1463
  58   0.0000       0.015858         0.4315
  59   0.0000       0.019974         0.5435
  60   0.0000       0.028028         0.7627

MULLIKEN ATOMIC CHARGES
-----------------------
   0 C :   -0.326412
   1 C :   -0.248754
   2 C :   -0.582266
   3 H :    0.305202
   4 H :    0.239324
   5 S :    1.052768
   6 C :    0.213913
   7 C :   -1.153345
   8 N :   -0.215140
   9 H :    0.255054
  10 H :    0.192108
  11 H :    0.284651
  12 H :    0.450433
  13 O :   -0.605643
  14 F :   -0.067868
  15 C :   -0.288342
  16 C :   -0.085441
  17 H :    0.174056
  18 H :    0.150816
  19 C :   -0.360152
  20 H :    0.239632
  21 H :    0.136823
  22 O :   -0.626175
  23 H :    0.294441
  24 H :    0.104011
  25 H :    0.071927
  26 H :    0.138411
  27 H :    0.191782
  28 H :    0.064188
Sum of atomic charges:   -0.0000000

LOEWDIN ATOMIC CHARGES
----------------------
   0 C :   -0.137388
   1 C :   -0.213705
   2 C :   -0.214748
   3 H :    0.106778
   4 H :    0.097593
   5 S :    0.645472
   6 C :   -0.499771
   7 C :    0.004519
   8 N :    0.111163
   9 H :    0.107368
  10 H :    0.075760
  11 H :    0.032660
  12 H :    0.003294
  13 O :   -0.307480
  14 F :   -0.037308
  15 C :   -0.186919
  16 C :   -0.202978
  17 H :    0.114401
  18 H :    0.122346
  19 C :   -0.207213
  20 H :    0.108729
  21 H :    0.106166
  22 O :   -0.277410
  23 H :    0.096019
  24 H :    0.116833
  25 H :    0.088276
  26 H :    0.122486
  27 H :    0.106577
  28 H :    0.118478

  Mayer bond orders larger than 0.100000
B(  0-C ,  6-C ) :   1.0404 B(  0-C ,  7-C ) :  -0.1401 B(  0-C , 15-C ) :   0.9840
B(  0-C , 16-C ) :   0.1359 B(  0-C , 27-H ) :   0.9148 B(  0-C , 28-H ) :   0.9845
B(  1-C ,  2-C ) :   1.0266 B(  1-C , 16-C ) :   1.0265 B(  1-C , 17-H ) :   0.8844
B(  1-C , 18-H ) :   0.8940 B(  1-C , 19-C ) :   0.2357 B(  1-C , 25-H ) :   0.1329
B(  2-C ,  3-H ) :   0.8901 B(  2-C ,  4-H ) :   0.9024 B(  2-C ,  5-S ) :   0.8408
B(  2-C , 13-O ) :   0.1515 B(  2-C , 19-C ) :   0.1592 B(  5-S , 13-O ) :   1.7565
B(  5-S , 14-F ) :   0.9824 B(  5-S , 22-O ) :   1.6619 B(  6-C ,  7-C ) :   1.6344
B(  6-C ,  8-N ) :   1.0537 B(  6-C , 11-H ) :  -0.1093 B(  6-C , 19-C ) :   0.1728
B(  7-C ,  8-N ) :   0.1082 B(  7-C , 11-H ) :   0.9969 B(  7-C , 12-H ) :   0.7761
B(  7-C , 15-C ) :   0.1743 B(  8-N ,  9-H ) :   0.7976 B(  8-N , 10-H ) :   0.8435
B( 13-O , 22-O ) :   0.1506 B( 15-C , 16-C ) :   0.2795 B( 15-C , 19-C ) :   1.2005
B( 15-C , 20-H ) :   0.8311 B( 15-C , 21-H ) :   0.9027 B( 15-C , 23-H ) :   0.1021
B( 16-C , 19-C ) :   0.7454 B( 16-C , 25-H ) :   1.1060 B( 16-C , 26-H ) :   0.8625
B( 19-C , 23-H ) :   0.9076 B( 19-C , 24-H ) :   0.9374

Dispersion correction           -0.032492879
FINAL SINGLE POINT ENERGY     -1017.089941070411

DIPOLE MOMENT
-------------
                                X             Y             Z
Electronic contribution:      0.04693      -4.16532     -22.51893
Nuclear contribution   :     -1.50273       5.82595      21.72909
                        -----------------------------------------
Total Dipole Moment    :     -1.45580       1.66062      -0.78985
                        -----------------------------------------
Magnitude (a.u.)       :      2.34540
Magnitude (Debye)      :      5.96153

Rotational constants in cm-1:     0.036883     0.018294     0.014745
Rotational constants in MHz :  1105.724679   548.429785   442.050481

                             ****ORCA TERMINATED NORMALLY****
TOTAL RUN TIME: 0 days 0 hours 6 minutes 20 seconds 53 msec
