                         Program Version 5.0.0 -  RELEASE  -
|  1> !PBE0 D3BJ RIJCOSX def2-TZVPD def2/J TightSCF xyzfile
|  2>
|  3> *xyzfile 0 1 D4.xyz
|  4>
|  5> %MaxCore 64000
|  6>
|  7> %pal nprocs 4
|  8> end
|  9>
| 10> %scf
| 11>   MaxIter 150
| 12> end
| 13>
| 14>
| 15>                          ****END OF INPUT****

CARTESIAN COORDINATES (ANGSTROEM)
---------------------------------
  C      2.916324   -1.242589   -1.543125
  C      0.704661    1.443129   -4.503630
  C      1.728539    1.424320   -5.639443
  H      2.646718    1.953794   -5.381054
  H      1.299916    1.930613   -6.503614
  S      2.252625   -0.188115   -6.271840
  C      3.466585   -1.590971   -2.889082
  N      4.652275   -1.143164   -3.259692
  C      2.752264   -2.292043   -3.728029
  H      1.778364   -2.489604   -3.512738
  H      2.948612   -2.208544   -4.716813
  H      5.146723   -0.512508   -2.633852
  H      4.783030   -1.007203   -4.253498
  O      3.562607   -0.444464   -5.631552
  F      2.344944   -0.033742   -7.696501
  C      2.804084    0.290698   -1.359243
  C      1.052550    0.695659   -3.214915
  H     -0.232483    1.032925   -4.884449
  H      0.511700    2.495794   -4.267966
  C      2.388380    1.093669   -2.597108
  H      3.763425    0.674718   -0.999889
  H      2.094788    0.461222   -0.545756
  O      1.266058   -1.159177   -5.805365
  H      3.167316    1.013242   -3.359430
  H      2.357690    2.149375   -2.310997
  H      1.039284   -0.368429   -3.449329
  H      0.250787    0.865605   -2.488283
  H      1.940472   -1.716529   -1.441161
  H      3.558569   -1.663433   -0.766371

 Total Charge           Charge          ....    0
 Multiplicity           Mult            ....    1
 Number of Electrons    NEL             ....  112
 Basis Dimension        Dim             ....  643

ORBITAL ENERGIES
----------------

  NO   OCC          E(Eh)            E(eV)
   0   2.0000     -89.271147     -2429.1914
   1   2.0000     -24.902775      -677.6389
   2   2.0000     -19.221381      -523.0404
   3   2.0000     -19.218130      -522.9519
   4   2.0000     -14.355139      -390.6232
   5   2.0000     -10.286277      -279.9038
   6   2.0000     -10.249136      -278.8932
   7   2.0000     -10.218124      -278.0493
   8   2.0000     -10.216842      -278.0144
   9   2.0000     -10.215865      -277.9878
  10   2.0000     -10.215824      -277.9867
  11   2.0000     -10.208299      -277.7819
  12   2.0000     -10.124721      -275.5077
  13   2.0000      -8.217472      -223.6088
  14   2.0000      -6.157675      -167.5589
  15   2.0000      -6.151481      -167.3903
  16   2.0000      -6.151426      -167.3888
  17   2.0000      -1.429013       -38.8854
  18   2.0000      -1.136721       -30.9317
  19   2.0000      -1.039632       -28.2898
  20   2.0000      -0.935344       -25.4520
  21   2.0000      -0.860313       -23.4103
  22   2.0000      -0.818301       -22.2671
  23   2.0000      -0.781794       -21.2737
  24   2.0000      -0.751507       -20.4495
  25   2.0000      -0.727457       -19.7951
  26   2.0000      -0.692312       -18.8388
  27   2.0000      -0.646079       -17.5807
  28   2.0000      -0.618620       -16.8335
  29   2.0000      -0.612823       -16.6758
  30   2.0000      -0.588931       -16.0256
  31   2.0000      -0.580204       -15.7882
  32   2.0000      -0.552083       -15.0229
  33   2.0000      -0.523154       -14.2357
  34   2.0000      -0.511481       -13.9181
  35   2.0000      -0.507248       -13.8029
  36   2.0000      -0.485242       -13.2041
  37   2.0000      -0.470742       -12.8095
  38   2.0000      -0.465921       -12.6784
  39   2.0000      -0.454545       -12.3688
  40   2.0000      -0.440955       -11.9990
  41   2.0000      -0.421791       -11.4775
  42   2.0000      -0.413715       -11.2578
  43   2.0000      -0.396843       -10.7986
  44   2.0000      -0.391013       -10.6400
  45   2.0000      -0.382734       -10.4147
  46   2.0000      -0.370031       -10.0691
  47   2.0000      -0.362475        -9.8634
  48   2.0000      -0.352981        -9.6051
  49   2.0000      -0.340698        -9.2709
  50   2.0000      -0.336121        -9.1463
  51   2.0000      -0.330173        -8.9845
  52   2.0000      -0.326885        -8.8950
  53   2.0000      -0.316880        -8.6228
  54   2.0000      -0.307715        -8.3734
  55   2.0000      -0.182755        -4.9730
  56   0.0000      -0.008860        -0.2411
  57   0.0000       0.007687         0.2092
  58   0.0000       0.013705         0.3729
  59   0.0000       0.022035         0.5996
  60   0.0000       0.031202         0.8491

MULLIKEN ATOMIC CHARGES
-----------------------
   0 C :   -0.328822
   1 C :   -0.242978
   2 C :   -0.600098
   3 H :    0.292064
   4 H :    0.241424
   5 S :    1.038797
   6 C :    0.297146
   7 N :   -0.199446
   8 C :   -1.205307
   9 H :    0.300005
  10 H :    0.429134
  11 H :    0.237217
  12 H :    0.247312
  13 O :   -0.631362
  14 F :   -0.070645
  15 C :   -0.308711
  16 C :   -0.044872
  17 H :    0.197165
  18 H :    0.149209
  19 C :   -0.269439
  20 H :    0.253346
  21 H :    0.072781
  22 O :   -0.594325
  23 H :    0.301666
  24 H :    0.094851
  25 H :    0.007782
  26 H :    0.109018
  27 H :    0.171781
  28 H :    0.055307
Sum of atomic charges:   -0.0000000

LOEWDIN ATOMIC CHARGES
----------------------
   0 C :   -0.139567
   1 C :   -0.213304
   2 C :   -0.216553
   3 H :    0.103997
   4 H :    0.097141
   5 S :    0.646685
   6 C :   -0.497764
   7 N :    0.110187
   8 C :   -0.001876
   9 H :    0.036760
  10 H :    0.004104
  11 H :    0.110283
  12 H :    0.080166
  13 O :   -0.314992
  14 F :   -0.037595
  15 C :   -0.190380
  16 C :   -0.200826
  17 H :    0.115206
  18 H :    0.121086
  19 C :   -0.208347
  20 H :    0.102816
  21 H :    0.107394
  22 O :   -0.265479
  23 H :    0.094087
  24 H :    0.116013
  25 H :    0.091209
  26 H :    0.122631
  27 H :    0.113187
  28 H :    0.113731

  Mayer bond orders larger than 0.100000
B(  0-C ,  6-C ) :   1.0556 B(  0-C , 15-C ) :   0.9469 B(  0-C , 16-C ) :   0.1521
B(  0-C , 21-H ) :   0.1044 B(  0-C , 27-H ) :   0.9154 B(  0-C , 28-H ) :   0.9825
B(  1-C ,  2-C ) :   1.0485 B(  1-C , 16-C ) :   0.9827 B(  1-C , 17-H ) :   0.8627
B(  1-C , 18-H ) :   0.8968 B(  1-C , 19-C ) :   0.2322 B(  1-C , 25-H ) :   0.1746
B(  2-C ,  3-H ) :   0.8935 B(  2-C ,  4-H ) :   0.9074 B(  2-C ,  5-S ) :   0.8296
B(  2-C , 13-O ) :   0.1552 B(  2-C , 19-C ) :   0.1668 B(  5-S , 13-O ) :   1.7797
B(  5-S , 14-F ) :   0.9787 B(  5-S , 22-O ) :   1.6942 B(  6-C ,  7-N ) :   1.1122
B(  6-C ,  8-C ) :   1.6412 B(  6-C ,  9-H ) :  -0.1076 B(  6-C , 10-H ) :  -0.1134
B(  6-C , 19-C ) :   0.1579 B(  7-N , 11-H ) :   0.7948 B(  7-N , 12-H ) :   0.8556
B(  8-C ,  9-H ) :   0.9483 B(  8-C , 10-H ) :   0.8523 B( 13-O , 22-O ) :   0.1591
B( 15-C , 16-C ) :   0.2887 B( 15-C , 19-C ) :   1.1198 B( 15-C , 20-H ) :   0.8598
B( 15-C , 21-H ) :   0.9152 B( 16-C , 19-C ) :   0.7310 B( 16-C , 25-H ) :   1.1825
B( 16-C , 26-H ) :   0.8401 B( 19-C , 23-H ) :   0.9100 B( 19-C , 24-H ) :   0.9715

Dispersion correction           -0.032541314
FINAL SINGLE POINT ENERGY     -1017.092838308467

DIPOLE MOMENT
-------------
                                X             Y             Z
Electronic contribution:      1.33346      -3.46969     -22.19846
Nuclear contribution   :     -1.74760       5.67788      21.66873
                        -----------------------------------------
Total Dipole Moment    :     -0.41414       2.20819      -0.52974
                        -----------------------------------------
Magnitude (a.u.)       :      2.30830
Magnitude (Debye)      :      5.86722

Rotational constants in cm-1:     0.036818     0.018222     0.014682
Rotational constants in MHz :  1103.783048   546.296792   440.157914

                             ****ORCA TERMINATED NORMALLY****
TOTAL RUN TIME: 0 days 0 hours 5 minutes 45 seconds 638 msec
