                         Program Version 5.0.0 -  RELEASE  -
|  1> !PBE0 D3BJ RIJCOSX def2-TZVPD def2/J TightSCF xyzfile
|  2>
|  3> *xyzfile 0 1 D5.xyz
|  4>
|  5> %MaxCore 64000
|  6>
|  7> %pal nprocs 4
|  8> end
|  9>
| 10> %scf
| 11>   MaxIter 150
| 12> end
| 13>
| 14>
| 15>                          ****END OF INPUT****

CARTESIAN COORDINATES (ANGSTROEM)
---------------------------------
  C      2.916324   -1.242589   -1.543125
  C      0.704661    1.443129   -4.503630
  C      1.728539    1.424320   -5.639443
  H      2.646718    1.953794   -5.381054
  H      1.299916    1.930613   -6.503614
  S      2.252625   -0.188115   -6.271840
  C      3.466585   -1.590971   -2.889082
  C      4.652275   -1.143164   -3.259692
  N      2.752264   -2.292043   -3.728029
  H      1.778364   -2.489604   -3.512738
  H      2.948612   -2.208544   -4.716813
  H      5.146723   -0.512508   -2.633852
  H      4.783030   -1.007203   -4.253498
  O      3.562607   -0.444464   -5.631552
  O      2.344944   -0.033742   -7.696501
  C      2.804084    0.290698   -1.359243
  C      1.052550    0.695659   -3.214915
  H     -0.232483    1.032925   -4.884449
  H      0.511700    2.495794   -4.267966
  C      2.388380    1.093669   -2.597108
  H      3.763425    0.674718   -0.999889
  H      2.094788    0.461222   -0.545756
  F      1.266058   -1.159177   -5.805365
  H      3.167316    1.013242   -3.359430
  H      2.357690    2.149375   -2.310997
  H      1.039284   -0.368429   -3.449329
  H      0.250787    0.865605   -2.488283
  H      1.940472   -1.716529   -1.441161
  H      3.558569   -1.663433   -0.766371

 Total Charge           Charge          ....    0
 Multiplicity           Mult            ....    1
 Number of Electrons    NEL             ....  112
 Basis Dimension        Dim             ....  643

ORBITAL ENERGIES
----------------

  NO   OCC          E(Eh)            E(eV)
   0   2.0000     -89.270868     -2429.1838
   1   2.0000     -24.896174      -677.4593
   2   2.0000     -19.231382      -523.3125
   3   2.0000     -19.217990      -522.9481
   4   2.0000     -14.373725      -391.1290
   5   2.0000     -10.286857      -279.9196
   6   2.0000     -10.257638      -279.1245
   7   2.0000     -10.234921      -278.5064
   8   2.0000     -10.228334      -278.3271
   9   2.0000     -10.222697      -278.1737
  10   2.0000     -10.220732      -278.1203
  11   2.0000     -10.219519      -278.0873
  12   2.0000     -10.130390      -275.6619
  13   2.0000      -8.217583      -223.6118
  14   2.0000      -6.158055      -167.5692
  15   2.0000      -6.151505      -167.3910
  16   2.0000      -6.151287      -167.3850
  17   2.0000      -1.414863       -38.5004
  18   2.0000      -1.147563       -31.2268
  19   2.0000      -1.050117       -28.5751
  20   2.0000      -0.954613       -25.9763
  21   2.0000      -0.868968       -23.6458
  22   2.0000      -0.825426       -22.4610
  23   2.0000      -0.786669       -21.4063
  24   2.0000      -0.750820       -20.4308
  25   2.0000      -0.728005       -19.8100
  26   2.0000      -0.701171       -19.0798
  27   2.0000      -0.658834       -17.9278
  28   2.0000      -0.621732       -16.9182
  29   2.0000      -0.612487       -16.6666
  30   2.0000      -0.597555       -16.2603
  31   2.0000      -0.576398       -15.6846
  32   2.0000      -0.563021       -15.3206
  33   2.0000      -0.528094       -14.3702
  34   2.0000      -0.514069       -13.9885
  35   2.0000      -0.509475       -13.8635
  36   2.0000      -0.493541       -13.4299
  37   2.0000      -0.487055       -13.2535
  38   2.0000      -0.473119       -12.8742
  39   2.0000      -0.463088       -12.6013
  40   2.0000      -0.447043       -12.1647
  41   2.0000      -0.432400       -11.7662
  42   2.0000      -0.418516       -11.3884
  43   2.0000      -0.402587       -10.9549
  44   2.0000      -0.401821       -10.9341
  45   2.0000      -0.390486       -10.6257
  46   2.0000      -0.383746       -10.4423
  47   2.0000      -0.366576        -9.9750
  48   2.0000      -0.363115        -9.8809
  49   2.0000      -0.354202        -9.6383
  50   2.0000      -0.345993        -9.4149
  51   2.0000      -0.340861        -9.2753
  52   2.0000      -0.334170        -9.0932
  53   2.0000      -0.323179        -8.7942
  54   2.0000      -0.319936        -8.7059
  55   2.0000      -0.187251        -5.0954
  56   0.0000      -0.014018        -0.3814
  57   0.0000       0.007672         0.2088
  58   0.0000       0.009976         0.2715
  59   0.0000       0.017880         0.4865
  60   0.0000       0.030251         0.8232

MULLIKEN ATOMIC CHARGES
-----------------------
   0 C :   -0.323782
   1 C :   -0.342230
   2 C :   -0.458846
   3 H :    0.327258
   4 H :    0.172457
   5 S :    1.023511
   6 C :    0.245197
   7 C :   -1.135570
   8 N :   -0.249838
   9 H :    0.267418
  10 H :    0.175159
  11 H :    0.287746
  12 H :    0.438677
  13 O :   -0.596418
  14 O :   -0.528044
  15 C :   -0.291610
  16 C :   -0.031181
  17 H :    0.176848
  18 H :    0.158790
  19 C :   -0.332116
  20 H :    0.242897
  21 H :    0.140680
  22 F :   -0.172855
  23 H :    0.277591
  24 H :    0.110097
  25 H :    0.033796
  26 H :    0.129083
  27 H :    0.194654
  28 H :    0.060633
Sum of atomic charges:   -0.0000000

LOEWDIN ATOMIC CHARGES
----------------------
   0 C :   -0.137369
   1 C :   -0.222138
   2 C :   -0.206558
   3 H :    0.112658
   4 H :    0.103078
   5 S :    0.632824
   6 C :   -0.501160
   7 C :    0.013030
   8 N :    0.101992
   9 H :    0.105553
  10 H :    0.077041
  11 H :    0.035906
  12 H :    0.006299
  13 O :   -0.304587
  14 O :   -0.252205
  15 C :   -0.185951
  16 C :   -0.207249
  17 H :    0.112195
  18 H :    0.121558
  19 C :   -0.205468
  20 H :    0.109877
  21 H :    0.106851
  22 F :   -0.065892
  23 H :    0.097008
  24 H :    0.118897
  25 H :    0.085402
  26 H :    0.122778
  27 H :    0.106092
  28 H :    0.119535

  Mayer bond orders larger than 0.100000
B(  0-C ,  6-C ) :   1.0458 B(  0-C ,  7-C ) :  -0.1387 B(  0-C , 15-C ) :   0.9836
B(  0-C , 16-C ) :   0.1296 B(  0-C , 27-H ) :   0.9137 B(  0-C , 28-H ) :   0.9827
B(  1-C ,  2-C ) :   1.0168 B(  1-C ,  5-S ) :   0.1134 B(  1-C , 16-C ) :   0.9657
B(  1-C , 17-H ) :   0.9361 B(  1-C , 18-H ) :   0.8905 B(  1-C , 19-C ) :   0.2374
B(  2-C ,  3-H ) :   0.8519 B(  2-C ,  4-H ) :   1.0329 B(  2-C ,  5-S ) :   0.8104
B(  2-C , 13-O ) :   0.1425 B(  2-C , 14-O ) :   0.1456 B(  2-C , 19-C ) :   0.1529
B(  5-S , 13-O ) :   1.7651 B(  5-S , 14-O ) :   1.6313 B(  5-S , 22-F ) :   1.0459
B(  6-C ,  7-C ) :   1.6454 B(  6-C ,  8-N ) :   1.0324 B(  6-C , 11-H ) :  -0.1023
B(  6-C , 19-C ) :   0.1722 B(  7-C ,  8-N ) :   0.1108 B(  7-C , 11-H ) :   0.9913
B(  7-C , 12-H ) :   0.7889 B(  7-C , 15-C ) :   0.1698 B(  8-N ,  9-H ) :   0.8001
B(  8-N , 10-H ) :   0.8340 B( 15-C , 16-C ) :   0.2953 B( 15-C , 19-C ) :   1.1962
B( 15-C , 20-H ) :   0.8292 B( 15-C , 21-H ) :   0.9026 B( 15-C , 23-H ) :   0.1010
B( 16-C , 19-C ) :   0.7563 B( 16-C , 25-H ) :   1.0925 B( 16-C , 26-H ) :   0.8823
B( 19-C , 23-H ) :   0.9251 B( 19-C , 24-H ) :   0.9272

Dispersion correction           -0.032227404
FINAL SINGLE POINT ENERGY     -1017.095003796519

DIPOLE MOMENT
-------------
                                X             Y             Z
Electronic contribution:     -1.71161      -6.06999     -19.02050
Nuclear contribution   :     -0.26930       7.11259      19.56706
                        -----------------------------------------
Total Dipole Moment    :     -1.98092       1.04260       0.54656
                        -----------------------------------------
Magnitude (a.u.)       :      2.30429
Magnitude (Debye)      :      5.85704

Rotational constants in cm-1:     0.036519     0.018683     0.015073
Rotational constants in MHz :  1094.801738   560.111127   451.890222

                             ****ORCA TERMINATED NORMALLY****
TOTAL RUN TIME: 0 days 0 hours 5 minutes 41 seconds 775 msec
