                         Program Version 5.0.0 -  RELEASE  -
|  1> !PBE0 D3BJ RIJCOSX def2-TZVPD def2/J TightSCF xyzfile
|  2>
|  3> *xyzfile 0 1 D6.xyz
|  4>
|  5> %MaxCore 64000
|  6>
|  7> %pal nprocs 4
|  8> end
|  9>
| 10> %scf
| 11>   MaxIter 150
| 12> end
| 13>
| 14>
| 15>                          ****END OF INPUT****

CARTESIAN COORDINATES (ANGSTROEM)
---------------------------------
  C      2.916324   -1.242589   -1.543125
  C      0.704661    1.443129   -4.503630
  C      1.728539    1.424320   -5.639443
  H      2.646718    1.953794   -5.381054
  H      1.299916    1.930613   -6.503614
  S      2.252625   -0.188115   -6.271840
  C      3.466585   -1.590971   -2.889082
  N      4.652275   -1.143164   -3.259692
  C      2.752264   -2.292043   -3.728029
  H      1.778364   -2.489604   -3.512738
  H      2.948612   -2.208544   -4.716813
  H      5.146723   -0.512508   -2.633852
  H      4.783030   -1.007203   -4.253498
  O      3.562607   -0.444464   -5.631552
  O      2.344944   -0.033742   -7.696501
  C      2.804084    0.290698   -1.359243
  C      1.052550    0.695659   -3.214915
  H     -0.232483    1.032925   -4.884449
  H      0.511700    2.495794   -4.267966
  C      2.388380    1.093669   -2.597108
  H      3.763425    0.674718   -0.999889
  H      2.094788    0.461222   -0.545756
  F      1.266058   -1.159177   -5.805365
  H      3.167316    1.013242   -3.359430
  H      2.357690    2.149375   -2.310997
  H      1.039284   -0.368429   -3.449329
  H      0.250787    0.865605   -2.488283
  H      1.940472   -1.716529   -1.441161
  H      3.558569   -1.663433   -0.766371

 Total Charge           Charge          ....    0
 Multiplicity           Mult            ....    1
 Number of Electrons    NEL             ....  112
 Basis Dimension        Dim             ....  643

ORBITAL ENERGIES
----------------

  NO   OCC          E(Eh)            E(eV)
   0   2.0000     -89.267994     -2429.1056
   1   2.0000     -24.885628      -677.1724
   2   2.0000     -19.227739      -523.2134
   3   2.0000     -19.214229      -522.8458
   4   2.0000     -14.364540      -390.8790
   5   2.0000     -10.284018      -279.8424
   6   2.0000     -10.253953      -279.0242
   7   2.0000     -10.230479      -278.3855
   8   2.0000     -10.228890      -278.3423
   9   2.0000     -10.226775      -278.2847
  10   2.0000     -10.224173      -278.2139
  11   2.0000     -10.218651      -278.0636
  12   2.0000     -10.140430      -275.9351
  13   2.0000      -8.214233      -223.5206
  14   2.0000      -6.154582      -167.4747
  15   2.0000      -6.148375      -167.3058
  16   2.0000      -6.148023      -167.2962
  17   2.0000      -1.404047       -38.2061
  18   2.0000      -1.143466       -31.1153
  19   2.0000      -1.046482       -28.4762
  20   2.0000      -0.945544       -25.7296
  21   2.0000      -0.865721       -23.5575
  22   2.0000      -0.823916       -22.4199
  23   2.0000      -0.781439       -21.2640
  24   2.0000      -0.754216       -20.5233
  25   2.0000      -0.730056       -19.8658
  26   2.0000      -0.699142       -19.0246
  27   2.0000      -0.651212       -17.7204
  28   2.0000      -0.616191       -16.7674
  29   2.0000      -0.601996       -16.3812
  30   2.0000      -0.592661       -16.1271
  31   2.0000      -0.578476       -15.7411
  32   2.0000      -0.558967       -15.2103
  33   2.0000      -0.525341       -14.2953
  34   2.0000      -0.510468       -13.8905
  35   2.0000      -0.506951       -13.7948
  36   2.0000      -0.490480       -13.3466
  37   2.0000      -0.481491       -13.1020
  38   2.0000      -0.472530       -12.8582
  39   2.0000      -0.457149       -12.4397
  40   2.0000      -0.453381       -12.3371
  41   2.0000      -0.429703       -11.6928
  42   2.0000      -0.419038       -11.4026
  43   2.0000      -0.408484       -11.1154
  44   2.0000      -0.398286       -10.8379
  45   2.0000      -0.395876       -10.7723
  46   2.0000      -0.378519       -10.3000
  47   2.0000      -0.372707       -10.1419
  48   2.0000      -0.362347        -9.8600
  49   2.0000      -0.348706        -9.4888
  50   2.0000      -0.343848        -9.3566
  51   2.0000      -0.336388        -9.1536
  52   2.0000      -0.335664        -9.1339
  53   2.0000      -0.319398        -8.6913
  54   2.0000      -0.318912        -8.6780
  55   2.0000      -0.196623        -5.3504
  56   0.0000      -0.009316        -0.2535
  57   0.0000       0.009139         0.2487
  58   0.0000       0.013436         0.3656
  59   0.0000       0.018423         0.5013
  60   0.0000       0.033609         0.9145

MULLIKEN ATOMIC CHARGES
-----------------------
   0 C :   -0.310740
   1 C :   -0.328388
   2 C :   -0.484983
   3 H :    0.312425
   4 H :    0.180078
   5 S :    1.047872
   6 C :    0.327720
   7 N :   -0.192627
   8 C :   -1.337477
   9 H :    0.336528
  10 H :    0.465222
  11 H :    0.237310
  12 H :    0.241444
  13 O :   -0.631235
  14 O :   -0.532031
  15 C :   -0.316313
  16 C :   -0.003937
  17 H :    0.197628
  18 H :    0.158314
  19 C :   -0.247081
  20 H :    0.257017
  21 H :    0.075317
  22 F :   -0.154942
  23 H :    0.288669
  24 H :    0.100929
  25 H :   -0.013523
  26 H :    0.101432
  27 H :    0.173257
  28 H :    0.052117
Sum of atomic charges:   -0.0000000

LOEWDIN ATOMIC CHARGES
----------------------
   0 C :   -0.137483
   1 C :   -0.221534
   2 C :   -0.207826
   3 H :    0.110124
   4 H :    0.102722
   5 S :    0.636002
   6 C :   -0.496429
   7 N :    0.116860
   8 C :   -0.010259
   9 H :    0.033489
  10 H :    0.003524
  11 H :    0.112925
  12 H :    0.083091
  13 O :   -0.312981
  14 O :   -0.252525
  15 C :   -0.188714
  16 C :   -0.205431
  17 H :    0.113088
  18 H :    0.120319
  19 C :   -0.206696
  20 H :    0.104223
  21 H :    0.108363
  22 F :   -0.057836
  23 H :    0.095032
  24 H :    0.118113
  25 H :    0.088271
  26 H :    0.122852
  27 H :    0.113105
  28 H :    0.115613

  Mayer bond orders larger than 0.100000
B(  0-C ,  6-C ) :   1.0607 B(  0-C , 15-C ) :   0.9423 B(  0-C , 16-C ) :   0.1553
B(  0-C , 21-H ) :   0.1041 B(  0-C , 27-H ) :   0.9181 B(  0-C , 28-H ) :   0.9714
B(  1-C ,  2-C ) :   1.0309 B(  1-C ,  5-S ) :   0.1147 B(  1-C , 16-C ) :   0.9228
B(  1-C , 17-H ) :   0.9111 B(  1-C , 18-H ) :   0.8927 B(  1-C , 19-C ) :   0.2321
B(  1-C , 25-H ) :   0.1427 B(  2-C ,  3-H ) :   0.8605 B(  2-C ,  4-H ) :   1.0361
B(  2-C ,  5-S ) :   0.8125 B(  2-C , 13-O ) :   0.1553 B(  2-C , 14-O ) :   0.1524
B(  2-C , 19-C ) :   0.1632 B(  5-S , 13-O ) :   1.7722 B(  5-S , 14-O ) :   1.6125
B(  5-S , 22-F ) :   1.0653 B(  6-C ,  7-N ) :   1.1434 B(  6-C ,  8-C ) :   1.6127
B(  6-C ,  9-H ) :  -0.1086 B(  6-C , 13-O ) :  -0.1021 B(  6-C , 19-C ) :   0.1593
B(  7-N , 11-H ) :   0.7956 B(  7-N , 12-H ) :   0.8492 B(  8-C ,  9-H ) :   0.9317
B(  8-C , 10-H ) :   0.7893 B( 15-C , 16-C ) :   0.2986 B( 15-C , 19-C ) :   1.1270
B( 15-C , 20-H ) :   0.8590 B( 15-C , 21-H ) :   0.9146 B( 16-C , 19-C ) :   0.7363
B( 16-C , 25-H ) :   1.1691 B( 16-C , 26-H ) :   0.8598 B( 19-C , 23-H ) :   0.9255
B( 19-C , 24-H ) :   0.9587

Dispersion correction           -0.032271020
FINAL SINGLE POINT ENERGY     -1017.104476729767

DIPOLE MOMENT
-------------
                                X             Y             Z
Electronic contribution:     -0.42886      -5.35230     -18.66955
Nuclear contribution   :     -0.51418       6.96452      19.50670
                        -----------------------------------------
Total Dipole Moment    :     -0.94304       1.61222       0.83716
                        -----------------------------------------
Magnitude (a.u.)       :      2.04680
Magnitude (Debye)      :      5.20256

Rotational constants in cm-1:     0.036455     0.018603     0.015008
Rotational constants in MHz :  1092.895336   557.693628   449.926016

                             ****ORCA TERMINATED NORMALLY****
TOTAL RUN TIME: 0 days 0 hours 5 minutes 40 seconds 85 msec
