                         Program Version 5.0.0 -  RELEASE  -
|  1> !PBE0 D3BJ RIJCOSX def2-SVPD def2/J TightSCF
|  2> *xyz -1 1
|  3> C         -0.10608        1.76991       -4.08984
|  4> C         -0.25875        1.00432       -5.40983
|  5> C          0.39596       -0.37070       -5.33994
|  6> H          0.23915        1.56939       -6.20125
|  7> H         -1.30936        0.88869       -5.68245
|  8> O         -0.32633       -1.39040       -5.49128
|  9> O          1.61941       -0.40073       -5.03683
| 10> H         -0.57627        2.72718       -4.17630
| 11> H          0.93321        1.90140       -3.87192
| 12> H         -0.56868        1.21534       -3.30031
| 13> *
| 14> %MaxCore 64000
| 15>
| 16> %pal nprocs 4
| 17> end
| 18>
| 19> %scf
| 20>   MaxIter 150
| 21> end
| 22>
| 23>
| 24>                          ****END OF INPUT****

CARTESIAN COORDINATES (ANGSTROEM)
---------------------------------
  C     -0.106080    1.769910   -4.089840
  C     -0.258750    1.004320   -5.409830
  C      0.395960   -0.370700   -5.339940
  H      0.239150    1.569390   -6.201250
  H     -1.309360    0.888690   -5.682450
  O     -0.326330   -1.390400   -5.491280
  O      1.619410   -0.400730   -5.036830
  H     -0.576270    2.727180   -4.176300
  H      0.933210    1.901400   -3.871920
  H     -0.568680    1.215340   -3.300310

 Total Charge           Charge          ....   -1
 Multiplicity           Mult            ....    1
 Number of Electrons    NEL             ....   40
 Basis Dimension        Dim             ....  146

ORBITAL ENERGIES
----------------

  NO   OCC          E(Eh)            E(eV)
   0   2.0000     -18.954069      -515.7664
   1   2.0000     -18.952625      -515.7271
   2   2.0000     -10.115740      -275.2633
   3   2.0000     -10.071002      -274.0459
   4   2.0000     -10.060137      -273.7502
   5   2.0000      -0.837886       -22.8000
   6   2.0000      -0.742174       -20.1956
   7   2.0000      -0.622674       -16.9438
   8   2.0000      -0.489165       -13.3108
   9   2.0000      -0.335120        -9.1191
  10   2.0000      -0.306862        -8.3501
  11   2.0000      -0.273282        -7.4364
  12   2.0000      -0.245262        -6.6739
  13   2.0000      -0.227850        -6.2001
  14   2.0000      -0.222751        -6.0614
  15   2.0000      -0.191499        -5.2109
  16   2.0000      -0.175651        -4.7797
  17   2.0000      -0.061554        -1.6750
  18   2.0000      -0.055753        -1.5171
  19   2.0000      -0.040762        -1.1092
  20   0.0000       0.162284         4.4160
  21   0.0000       0.195274         5.3137
  22   0.0000       0.210445         5.7265
  23   0.0000       0.225575         6.1382
  24   0.0000       0.248336         6.7576

MULLIKEN ATOMIC CHARGES
-----------------------
   0 C :    0.385264
   1 C :   -0.436292
   2 C :    0.602872
   3 H :    0.057294
   4 H :    0.002352
   5 O :   -0.765437
   6 O :   -0.797609
   7 H :   -0.033326
   8 H :    0.013530
   9 H :   -0.028647
Sum of atomic charges:   -1.0000000

LOEWDIN ATOMIC CHARGES
----------------------
   0 C :    0.096981
   1 C :   -0.045379
   2 C :   -0.296869
   3 H :    0.009657
   4 H :    0.001811
   5 O :   -0.339926
   6 O :   -0.337034
   7 H :   -0.042516
   8 H :   -0.026340
   9 H :   -0.020386

  Mayer bond orders larger than 0.100000
B(  0-C ,  1-C ) :   1.2930 B(  0-C ,  7-H ) :   0.8753 B(  0-C ,  8-H ) :   0.8611
B(  0-C ,  9-H ) :   0.8859 B(  1-C ,  2-C ) :   1.0343 B(  1-C ,  3-H ) :   0.9041
B(  1-C ,  4-H ) :   0.9914 B(  1-C ,  7-H ) :   0.1353 B(  1-C ,  8-H ) :   0.1726
B(  1-C ,  9-H ) :   0.1478 B(  2-C ,  4-H ) :   0.1566 B(  2-C ,  5-O ) :   1.3661
B(  2-C ,  6-O ) :   1.3861

Dispersion correction           -0.005470535
FINAL SINGLE POINT ENERGY      -267.361929359060

DIPOLE MOMENT
-------------
                                X             Y             Z
Electronic contribution:      1.73231      -5.28179      -1.70066
Nuclear contribution   :     -2.46071       7.20791       1.95694
                        -----------------------------------------
Total Dipole Moment    :     -0.72840       1.92613       0.25628
                        -----------------------------------------
Magnitude (a.u.)       :      2.07514
Magnitude (Debye)      :      5.27460

Rotational constants in cm-1:     0.309435     0.135317     0.107436
Rotational constants in MHz :  9276.637721  4056.700783  3220.846587

                             ****ORCA TERMINATED NORMALLY****
TOTAL RUN TIME: 0 days 0 hours 0 minutes 17 seconds 133 msec
