                         Program Version 5.0.0 -  RELEASE  -
|  1> !PBE0 D3BJ RIJCOSX def2-SVPD def2/J TightSCF
|  2> *xyz 1 1
|  3> C          0.81607       -2.10149       -2.18655
|  4> H          1.69623       -2.36869       -1.60046
|  5> N          1.10055       -2.46749       -3.59927
|  6> C          0.51624       -0.61363       -2.03937
|  7> H         -0.02007       -2.71285       -1.84084
|  8> H          1.70061       -1.75723       -4.07838
|  9> H          0.29386       -2.35977       -4.25632
| 10> H          1.50132       -3.42848       -3.69491
| 11> H         -0.34841       -0.36504       -2.61858
| 12> H          1.35358       -0.04503       -2.38643
| 13> H          0.33317       -0.38682       -1.00984
| 14> *
| 15> %MaxCore 64000
| 16>
| 17> %pal nprocs 4
| 18> end
| 19>
| 20> %scf
| 21>   MaxIter 150
| 22> end
| 23>
| 24>
| 25>                          ****END OF INPUT****

CARTESIAN COORDINATES (ANGSTROEM)
---------------------------------
  C      0.816070   -2.101490   -2.186550
  H      1.696230   -2.368690   -1.600460
  N      1.100550   -2.467490   -3.599270
  C      0.516240   -0.613630   -2.039370
  H     -0.020070   -2.712850   -1.840840
  H      1.700610   -1.757230   -4.078380
  H      0.293860   -2.359770   -4.256320
  H      1.501320   -3.428480   -3.694910
  H     -0.348410   -0.365040   -2.618580
  H      1.353580   -0.045030   -2.386430
  H      0.333170   -0.386820   -1.009840

 Total Charge           Charge          ....    1
 Multiplicity           Mult            ....    1
 Number of Electrons    NEL             ....   26
 Basis Dimension        Dim             ....  124

ORBITAL ENERGIES
----------------

  NO   OCC          E(Eh)            E(eV)
   0   2.0000     -14.735708      -400.9790
   1   2.0000     -10.488321      -285.4017
   2   2.0000     -10.409388      -283.2538
   3   2.0000      -1.228679       -33.4341
   4   2.0000      -0.983530       -26.7632
   5   2.0000      -0.867118       -23.5955
   6   2.0000      -0.806209       -21.9381
   7   2.0000      -0.788911       -21.4674
   8   2.0000      -0.718319       -19.5465
   9   2.0000      -0.652296       -17.7499
  10   2.0000      -0.597678       -16.2636
  11   2.0000      -0.582670       -15.8553
  12   2.0000      -0.563453       -15.3323
  13   0.0000      -0.187713        -5.1079
  14   0.0000      -0.128790        -3.5046
  15   0.0000      -0.127008        -3.4561
  16   0.0000      -0.116970        -3.1829
  17   0.0000      -0.079366        -2.1597

MULLIKEN ATOMIC CHARGES
-----------------------
   0 C :    0.201600
   1 H :   -0.003884
   2 N :   -0.991308
   3 C :    0.415451
   4 H :   -0.018184
   5 H :    0.446654
   6 H :    0.403999
   7 H :    0.414597
   8 H :    0.063811
   9 H :    0.035450
  10 H :    0.031814
Sum of atomic charges:    1.0000000

LOEWDIN ATOMIC CHARGES
----------------------
   0 C :    0.048877
   1 H :    0.054777
   2 N :    0.299908
   3 C :    0.167034
   4 H :    0.055926
   5 H :    0.112822
   6 H :    0.117584
   7 H :    0.122456
   8 H :    0.002347
   9 H :    0.001178
  10 H :    0.017091

  Mayer bond orders larger than 0.100000
B(  0-C ,  1-H ) :   0.9352 B(  0-C ,  2-N ) :   0.6357 B(  0-C ,  3-C ) :   1.3288
B(  0-C ,  4-H ) :   0.9482 B(  0-C ,  8-H ) :   0.1179 B(  0-C ,  9-H ) :   0.1241
B(  0-C , 10-H ) :   0.1613 B(  2-N ,  4-H ) :   0.1036 B(  2-N ,  5-H ) :   0.6513
B(  2-N ,  6-H ) :   0.7316 B(  2-N ,  7-H ) :   0.6830 B(  3-C ,  8-H ) :   0.8503
B(  3-C ,  9-H ) :   0.8678 B(  3-C , 10-H ) :   0.8540

Dispersion correction           -0.005007490
FINAL SINGLE POINT ENERGY      -135.279923720192

DIPOLE MOMENT
-------------
                                X             Y             Z
Electronic contribution:      0.42008      -1.43441      -1.07674
Nuclear contribution   :     -0.07506       0.54337      -0.16191
                        -----------------------------------------
Total Dipole Moment    :      0.34503      -0.89105      -1.23865
                        -----------------------------------------
Magnitude (a.u.)       :      1.56437
Magnitude (Debye)      :      3.97632

Rotational constants in cm-1:     0.999557     0.280801     0.246932
Rotational constants in MHz : 29965.963633  8418.199581  7402.841054

                             ****ORCA TERMINATED NORMALLY****
TOTAL RUN TIME: 0 days 0 hours 0 minutes 11 seconds 946 msec
