                         Program Version 5.0.0 -  RELEASE  -
|  1> !PBE0 D3BJ RIJCOSX def2-SVPD def2/J TightSCF
|  2> *xyz 0 1
|  3> C         -0.10608        1.76991       -4.08984
|  4> C         -0.25875        1.00432       -5.40983
|  5> C          0.39596       -0.37070       -5.33994
|  6> H          0.23915        1.56939       -6.20125
|  7> H         -1.30936        0.88869       -5.68245
|  8> F         -0.32633       -1.39040       -5.49128
|  9> O          1.61941       -0.40073       -5.03683
| 10> H         -0.57627        2.72718       -4.17630
| 11> H          0.93321        1.90140       -3.87192
| 12> H         -0.56868        1.21534       -3.30031
| 13> *
| 14> %MaxCore 64000
| 15>
| 16> %pal nprocs 4
| 17> end
| 18>
| 19> %scf
| 20>   MaxIter 150
| 21> end
| 22>
| 23>
| 24>                          ****END OF INPUT****

CARTESIAN COORDINATES (ANGSTROEM)
---------------------------------
  C     -0.106080    1.769910   -4.089840
  C     -0.258750    1.004320   -5.409830
  C      0.395960   -0.370700   -5.339940
  H      0.239150    1.569390   -6.201250
  H     -1.309360    0.888690   -5.682450
  F     -0.326330   -1.390400   -5.491280
  O      1.619410   -0.400730   -5.036830
  H     -0.576270    2.727180   -4.176300
  H      0.933210    1.901400   -3.871920
  H     -0.568680    1.215340   -3.300310

 Total Charge           Charge          ....    0
 Multiplicity           Mult            ....    1
 Number of Electrons    NEL             ....   40
 Basis Dimension        Dim             ....  146

ORBITAL ENERGIES
----------------

  NO   OCC          E(Eh)            E(eV)
   0   2.0000     -24.856719      -676.3857
   1   2.0000     -19.226436      -523.1779
   2   2.0000     -10.416227      -283.4399
   3   2.0000     -10.268764      -279.4273
   4   2.0000     -10.240461      -278.6571
   5   2.0000      -1.338755       -36.4294
   6   2.0000      -1.052440       -28.6384
   7   2.0000      -0.820733       -22.3333
   8   2.0000      -0.708576       -19.2813
   9   2.0000      -0.659146       -17.9363
  10   2.0000      -0.569950       -15.5091
  11   2.0000      -0.555426       -15.1139
  12   2.0000      -0.526661       -14.3312
  13   2.0000      -0.482424       -13.1274
  14   2.0000      -0.451660       -12.2903
  15   2.0000      -0.417414       -11.3584
  16   2.0000      -0.394638       -10.7387
  17   2.0000      -0.389844       -10.6082
  18   2.0000      -0.362607        -9.8670
  19   2.0000      -0.310402        -8.4465
  20   0.0000      -0.032055        -0.8723
  21   0.0000       0.021097         0.5741
  22   0.0000       0.052672         1.4333
  23   0.0000       0.064252         1.7484
  24   0.0000       0.080942         2.2025

MULLIKEN ATOMIC CHARGES
-----------------------
   0 C :    0.411143
   1 C :   -0.490186
   2 C :    0.876548
   3 H :    0.117711
   4 H :    0.039406
   5 F :   -0.405308
   6 O :   -0.576802
   7 H :    0.006082
   8 H :    0.028702
   9 H :   -0.007296
Sum of atomic charges:    0.0000000

LOEWDIN ATOMIC CHARGES
----------------------
   0 C :    0.138909
   1 C :   -0.000581
   2 C :    0.003836
   3 H :    0.042098
   4 H :    0.025099
   5 F :   -0.040982
   6 O :   -0.144432
   7 H :   -0.010634
   8 H :   -0.006782
   9 H :   -0.006530

  Mayer bond orders larger than 0.100000
B(  0-C ,  1-C ) :   1.3222 B(  0-C ,  7-H ) :   0.8730 B(  0-C ,  8-H ) :   0.8603
B(  0-C ,  9-H ) :   0.8799 B(  1-C ,  2-C ) :   1.0896 B(  1-C ,  3-H ) :   0.8853
B(  1-C ,  4-H ) :   0.9769 B(  1-C ,  7-H ) :   0.1246 B(  1-C ,  8-H ) :   0.1539
B(  1-C ,  9-H ) :   0.1354 B(  2-C ,  5-F ) :   0.6845 B(  2-C ,  6-O ) :   1.7211

Dispersion correction           -0.005184016
FINAL SINGLE POINT ENERGY      -291.882312602440

DIPOLE MOMENT
-------------
                                X             Y             Z
Electronic contribution:      0.83802      -8.16326      -2.56964
Nuclear contribution   :     -1.80992       8.85192       2.42184
                        -----------------------------------------
Total Dipole Moment    :     -0.97191       0.68866      -0.14779
                        -----------------------------------------
Magnitude (a.u.)       :      1.20029
Magnitude (Debye)      :      3.05089

Rotational constants in cm-1:     0.298360     0.128849     0.102271
Rotational constants in MHz :  8944.606599  3862.796179  3066.020510

                             ****ORCA TERMINATED NORMALLY****
TOTAL RUN TIME: 0 days 0 hours 0 minutes 15 seconds 813 msec
