                         Program Version 5.0.0 -  RELEASE  -
|  1> !PBE0 D3BJ RIJCOSX def2-SVPD def2/J TightSCF
|  2> *xyz 0 1
|  3> C          0.81607       -2.10149       -2.18655
|  4> H          1.69623       -2.36869       -1.60046
|  5> C          1.10055       -2.46749       -3.59927
|  6> C          0.51624       -0.61363       -2.03937
|  7> H         -0.02007       -2.71285       -1.84084
|  8> H          1.70061       -1.75723       -4.07838
|  9> H          0.29386       -2.35977       -4.25632
| 10> H          1.50132       -3.42848       -3.69491
| 11> H         -0.34841       -0.36504       -2.61858
| 12> H          1.35358       -0.04503       -2.38643
| 13> H          0.33317       -0.38682       -1.00984
| 14> *
| 15> %MaxCore 64000
| 16>
| 17> %pal nprocs 4
| 18> end
| 19>
| 20> %scf
| 21>   MaxIter 150
| 22> end
| 23>
| 24>
| 25>                          ****END OF INPUT****

CARTESIAN COORDINATES (ANGSTROEM)
---------------------------------
  C      0.816070   -2.101490   -2.186550
  H      1.696230   -2.368690   -1.600460
  C      1.100550   -2.467490   -3.599270
  C      0.516240   -0.613630   -2.039370
  H     -0.020070   -2.712850   -1.840840
  H      1.700610   -1.757230   -4.078380
  H      0.293860   -2.359770   -4.256320
  H      1.501320   -3.428480   -3.694910
  H     -0.348410   -0.365040   -2.618580
  H      1.353580   -0.045030   -2.386430
  H      0.333170   -0.386820   -1.009840

 Total Charge           Charge          ....    0
 Multiplicity           Mult            ....    1
 Number of Electrons    NEL             ....   26
 Basis Dimension        Dim             ....  124

ORBITAL ENERGIES
----------------

  NO   OCC          E(Eh)            E(eV)
   0   2.0000     -10.222276      -278.1623
   1   2.0000     -10.211931      -277.8808
   2   2.0000     -10.199451      -277.5412
   3   2.0000      -0.807283       -21.9673
   4   2.0000      -0.703229       -19.1358
   5   2.0000      -0.602768       -16.4022
   6   2.0000      -0.474238       -12.9047
   7   2.0000      -0.460059       -12.5188
   8   2.0000      -0.426278       -11.5996
   9   2.0000      -0.388373       -10.5682
  10   2.0000      -0.353901        -9.6301
  11   2.0000      -0.349882        -9.5208
  12   2.0000      -0.331494        -9.0204
  13   0.0000       0.033945         0.9237
  14   0.0000       0.062725         1.7068
  15   0.0000       0.068365         1.8603
  16   0.0000       0.093673         2.5490
  17   0.0000       0.113180         3.0798

MULLIKEN ATOMIC CHARGES
-----------------------
   0 C :   -0.652506
   1 H :   -0.015490
   2 C :    0.639373
   3 C :    0.459913
   4 H :   -0.042134
   5 H :   -0.136333
   6 H :   -0.121209
   7 H :   -0.105119
   8 H :    0.003891
   9 H :    0.014522
  10 H :   -0.044909
Sum of atomic charges:   -0.0000000

LOEWDIN ATOMIC CHARGES
----------------------
   0 C :   -0.124892
   1 H :    0.022590
   2 C :    0.095284
   3 C :    0.110445
   4 H :    0.023256
   5 H :   -0.028869
   6 H :   -0.026043
   7 H :   -0.021864
   8 H :   -0.013986
   9 H :   -0.015378
  10 H :   -0.020544

  Mayer bond orders larger than 0.100000
B(  0-C ,  1-H ) :   0.9552 B(  0-C ,  2-C ) :   1.2858 B(  0-C ,  3-C ) :   1.2778
B(  0-C ,  4-H ) :   0.9791 B(  0-C ,  5-H ) :   0.1601 B(  0-C ,  6-H ) :   0.1597
B(  0-C ,  7-H ) :   0.1640 B(  0-C ,  8-H ) :   0.1618 B(  0-C ,  9-H ) :   0.1455
B(  0-C , 10-H ) :   0.1596 B(  2-C ,  5-H ) :   0.7870 B(  2-C ,  6-H ) :   0.7650
B(  2-C ,  7-H ) :   0.8302 B(  3-C ,  8-H ) :   0.8601 B(  3-C ,  9-H ) :   0.8647
B(  3-C , 10-H ) :   0.8696 B(  5-H ,  6-H ) :   0.2761

Dispersion correction           -0.005026992
FINAL SINGLE POINT ENERGY      -118.898422727485

DIPOLE MOMENT
-------------
                                X             Y             Z
Electronic contribution:     -0.01821      -0.30779       0.46233
Nuclear contribution   :      0.01737       0.30387      -0.47422
                        -----------------------------------------
Total Dipole Moment    :     -0.00084      -0.00392      -0.01189
                        -----------------------------------------
Magnitude (a.u.)       :      0.01255
Magnitude (Debye)      :      0.03189

Rotational constants in cm-1:     1.006891     0.295208     0.258491
Rotational constants in MHz : 30185.831813  8850.104914  7749.351732

                             ****ORCA TERMINATED NORMALLY****
TOTAL RUN TIME: 0 days 0 hours 0 minutes 11 seconds 793 msec
