                         Program Version 5.0.0 -  RELEASE  -
|  1> !PBE0 D3BJ RIJCOSX def2-SVPD def2/J TightSCF
|  2> *xyz 0 1
|  3> C         -0.10608        1.76991       -4.08984
|  4> C         -0.25875        1.00432       -5.40983
|  5> C          0.39596       -0.37070       -5.33994
|  6> H          0.23915        1.56939       -6.20125
|  7> H         -1.30936        0.88869       -5.68245
|  8> O         -0.32633       -1.39040       -5.49128
|  9> F          1.61941       -0.40073       -5.03683
| 10> H         -0.57627        2.72718       -4.17630
| 11> H          0.93321        1.90140       -3.87192
| 12> H         -0.56868        1.21534       -3.30031
| 13> *
| 14> %MaxCore 64000
| 15>
| 16> %pal nprocs 4
| 17> end
| 18>
| 19> %scf
| 20>   MaxIter 150
| 21> end
| 22>
| 23>
| 24>                          ****END OF INPUT****

CARTESIAN COORDINATES (ANGSTROEM)
---------------------------------
  C     -0.106080    1.769910   -4.089840
  C     -0.258750    1.004320   -5.409830
  C      0.395960   -0.370700   -5.339940
  H      0.239150    1.569390   -6.201250
  H     -1.309360    0.888690   -5.682450
  O     -0.326330   -1.390400   -5.491280
  F      1.619410   -0.400730   -5.036830
  H     -0.576270    2.727180   -4.176300
  H      0.933210    1.901400   -3.871920
  H     -0.568680    1.215340   -3.300310

 Total Charge           Charge          ....    0
 Multiplicity           Mult            ....    1
 Number of Electrons    NEL             ....   40
 Basis Dimension        Dim             ....  146

ORBITAL ENERGIES
----------------

  NO   OCC          E(Eh)            E(eV)
   0   2.0000     -24.855387      -676.3495
   1   2.0000     -19.227198      -523.1987
   2   2.0000     -10.415403      -283.4175
   3   2.0000     -10.268602      -279.4229
   4   2.0000     -10.245601      -278.7970
   5   2.0000      -1.337252       -36.3885
   6   2.0000      -1.052507       -28.6402
   7   2.0000      -0.825438       -22.4613
   8   2.0000      -0.705526       -19.1983
   9   2.0000      -0.662740       -18.0341
  10   2.0000      -0.570997       -15.5376
  11   2.0000      -0.559217       -15.2171
  12   2.0000      -0.519699       -14.1417
  13   2.0000      -0.483050       -13.1445
  14   2.0000      -0.452815       -12.3217
  15   2.0000      -0.420627       -11.4458
  16   2.0000      -0.400781       -10.9058
  17   2.0000      -0.392951       -10.6927
  18   2.0000      -0.368182       -10.0187
  19   2.0000      -0.307267        -8.3612
  20   0.0000      -0.028571        -0.7775
  21   0.0000       0.019091         0.5195
  22   0.0000       0.053244         1.4489
  23   0.0000       0.063373         1.7245
  24   0.0000       0.081648         2.2218

MULLIKEN ATOMIC CHARGES
-----------------------
   0 C :    0.400213
   1 C :   -0.469173
   2 C :    0.901624
   3 H :    0.108896
   4 H :    0.022389
   5 O :   -0.557130
   6 F :   -0.428721
   7 H :    0.007486
   8 H :    0.017977
   9 H :   -0.003560
Sum of atomic charges:   -0.0000000

LOEWDIN ATOMIC CHARGES
----------------------
   0 C :    0.134065
   1 C :    0.004201
   2 C :   -0.001375
   3 H :    0.037052
   4 H :    0.037352
   5 O :   -0.142564
   6 F :   -0.042242
   7 H :   -0.010057
   8 H :   -0.011613
   9 H :   -0.004819

  Mayer bond orders larger than 0.100000
B(  0-C ,  1-C ) :   1.2950 B(  0-C ,  7-H ) :   0.8804 B(  0-C ,  8-H ) :   0.8539
B(  0-C ,  9-H ) :   0.8925 B(  1-C ,  2-C ) :   1.0588 B(  1-C ,  3-H ) :   0.8840
B(  1-C ,  4-H ) :   1.0076 B(  1-C ,  7-H ) :   0.1257 B(  1-C ,  8-H ) :   0.1464
B(  1-C ,  9-H ) :   0.1299 B(  2-C ,  4-H ) :   0.1093 B(  2-C ,  5-O ) :   1.7168
B(  2-C ,  6-F ) :   0.6608

Dispersion correction           -0.005153860
FINAL SINGLE POINT ENERGY      -291.883780433610

DIPOLE MOMENT
-------------
                                X             Y             Z
Electronic contribution:      4.07072      -6.48701      -1.80689
Nuclear contribution   :     -3.93139       7.77287       1.92635
                        -----------------------------------------
Total Dipole Moment    :      0.13934       1.28586       0.11946
                        -----------------------------------------
Magnitude (a.u.)       :      1.29889
Magnitude (Debye)      :      3.30152

Rotational constants in cm-1:     0.286068     0.133630     0.103472
Rotational constants in MHz :  8576.109806  4006.118234  3102.010802

                             ****ORCA TERMINATED NORMALLY****
TOTAL RUN TIME: 0 days 0 hours 0 minutes 15 seconds 688 msec
