                         Program Version 5.0.0 -  RELEASE  -
|  1> !PBE0 D3BJ RIJCOSX def2-SVPD def2/J TightSCF xyzfile
|  2>
|  3> *xyzfile 0 1 D1.xyz
|  4>
|  5> %MaxCore 64000
|  6>
|  7> %pal nprocs 4
|  8> end
|  9>
| 10> %scf
| 11>   MaxIter 150
| 12> end
| 13>
| 14>
| 15>                          ****END OF INPUT****

CARTESIAN COORDINATES (ANGSTROEM)
---------------------------------
  C      0.816067   -2.101491   -2.186546
  H      1.696232   -2.368691   -1.600457
  C      1.100552   -2.467492   -3.599269
  C      0.516243   -0.613634   -2.039373
  H     -0.020066   -2.712849   -1.840844
  C     -0.868621   -0.193925   -2.546303
  C     -0.984801    1.284739   -2.928686
  H     -0.764939    1.904116   -2.051568
  H     -2.032613    1.478953   -3.178952
  C     -0.106085    1.769914   -4.089836
  H     -0.347744    2.822196   -4.262942
  H      0.949683    1.745875   -3.808781
  C     -0.258747    1.004323   -5.409829
  C      0.395958   -0.370696   -5.339939
  H      0.239150    1.569393   -6.201253
  H     -1.309360    0.888694   -5.682455
  H      1.700606   -1.757225   -4.078378
  H      0.293855   -2.359766   -4.256324
  H      1.501324   -3.428479   -3.694915
  F     -0.326329   -1.390398   -5.491279
  O      1.619412   -0.400726   -5.036827
  H     -1.607271   -0.412651   -1.768955
  H     -1.157234   -0.796164   -3.409254
  H      1.299044   -0.056805   -2.558982
  H      0.612393   -0.365579   -0.979171

 Total Charge           Charge          ....    0
 Multiplicity           Mult            ....    1
 Number of Electrons    NEL             ....   80
 Basis Dimension        Dim             ....  326

ORBITAL ENERGIES
----------------

  NO   OCC          E(Eh)            E(eV)
   0   2.0000     -24.865088      -676.6135
   1   2.0000     -19.233217      -523.3625
   2   2.0000     -10.423963      -283.6505
   3   2.0000     -10.269006      -279.4338
   4   2.0000     -10.249376      -278.8997
   5   2.0000     -10.237276      -278.5705
   6   2.0000     -10.229724      -278.3649
   7   2.0000     -10.215839      -277.9871
   8   2.0000     -10.206341      -277.7287
   9   2.0000     -10.157353      -276.3956
  10   2.0000      -1.351470       -36.7754
  11   2.0000      -1.066716       -29.0268
  12   2.0000      -0.844776       -22.9875
  13   2.0000      -0.811738       -22.0885
  14   2.0000      -0.762881       -20.7591
  15   2.0000      -0.724936       -19.7265
  16   2.0000      -0.685519       -18.6539
  17   2.0000      -0.654466       -17.8089
  18   2.0000      -0.616766       -16.7831
  19   2.0000      -0.580239       -15.7891
  20   2.0000      -0.569703       -15.5024
  21   2.0000      -0.560048       -15.2397
  22   2.0000      -0.542670       -14.7668
  23   2.0000      -0.494583       -13.4583
  24   2.0000      -0.474083       -12.9005
  25   2.0000      -0.458763       -12.4836
  26   2.0000      -0.453607       -12.3433
  27   2.0000      -0.441377       -12.0105
  28   2.0000      -0.426573       -11.6076
  29   2.0000      -0.416177       -11.3248
  30   2.0000      -0.397133       -10.8065
  31   2.0000      -0.381562       -10.3828
  32   2.0000      -0.377684       -10.2773
  33   2.0000      -0.364125        -9.9084
  34   2.0000      -0.351018        -9.5517
  35   2.0000      -0.339310        -9.2331
  36   2.0000      -0.330357        -8.9895
  37   2.0000      -0.318911        -8.6780
  38   2.0000      -0.309985        -8.4351
  39   2.0000      -0.277937        -7.5631
  40   0.0000      -0.042184        -1.1479
  41   0.0000       0.020751         0.5647
  42   0.0000       0.042794         1.1645
  43   0.0000       0.046892         1.2760
  44   0.0000       0.048718         1.3257

MULLIKEN ATOMIC CHARGES
-----------------------
   0 C :    0.045902
   1 H :   -0.034813
   2 C :    1.008485
   3 C :    0.038497
   4 H :   -0.112067
   5 C :    0.010920
   6 C :    0.220375
   7 H :   -0.005705
   8 H :    0.108848
   9 C :   -0.062998
  10 H :   -0.137655
  11 H :    0.164342
  12 C :    0.087800
  13 C :    0.651343
  14 H :    0.074935
  15 H :    0.040989
  16 H :   -0.136167
  17 H :   -0.221456
  18 H :   -0.234035
  19 F :   -0.500684
  20 O :   -0.625679
  21 H :   -0.071995
  22 H :   -0.169298
  23 H :    0.072178
  24 H :   -0.212063
Sum of atomic charges:   -0.0000000

LOEWDIN ATOMIC CHARGES
----------------------
   0 C :   -0.052147
   1 H :    0.023435
   2 C :    0.123504
   3 C :   -0.023889
   4 H :    0.023346
   5 C :   -0.018452
   6 C :   -0.027710
   7 H :    0.028716
   8 H :    0.022897
   9 C :   -0.016948
  10 H :    0.026611
  11 H :    0.020351
  12 C :    0.062714
  13 C :    0.039461
  14 H :    0.044767
  15 H :    0.032162
  16 H :   -0.096909
  17 H :   -0.073922
  18 H :   -0.012403
  19 F :   -0.052882
  20 O :   -0.130419
  21 H :    0.028687
  22 H :    0.000548
  23 H :    0.008194
  24 H :    0.020287

  Mayer bond orders larger than 0.100000
B(  0-C ,  1-H ) :   0.8333 B(  0-C ,  2-C ) :   1.1626 B(  0-C ,  3-C ) :   1.1897
B(  0-C ,  4-H ) :   0.8530 B(  0-C , 16-H ) :   0.2058 B(  0-C , 17-H ) :   0.1495
B(  0-C , 18-H ) :   0.1727 B(  0-C , 23-H ) :   0.1366 B(  0-C , 24-H ) :   0.1011
B(  1-H ,  3-C ) :   0.1433 B(  2-C ,  3-C ) :   0.1044 B(  2-C ,  4-H ) :   0.1487
B(  2-C , 16-H ) :   0.6168 B(  2-C , 17-H ) :   0.4569 B(  2-C , 18-H ) :   0.7124
B(  2-C , 23-H ) :  -0.1305 B(  3-C ,  5-C ) :   1.1689 B(  3-C , 21-H ) :   0.2184
B(  3-C , 23-H ) :   0.8445 B(  3-C , 24-H ) :   0.9499 B(  5-C ,  6-C ) :   1.2454
B(  5-C ,  7-H ) :   0.1643 B(  5-C ,  8-H ) :   0.1831 B(  5-C , 21-H ) :   0.8294
B(  5-C , 22-H ) :   0.9201 B(  5-C , 23-H ) :   0.1027 B(  5-C , 24-H ) :   0.1796
B(  6-C ,  7-H ) :   0.8442 B(  6-C ,  8-H ) :   0.7037 B(  6-C ,  9-C ) :   1.2474
B(  6-C , 10-H ) :   0.1386 B(  6-C , 21-H ) :   0.1022 B(  7-H ,  9-C ) :   0.1314
B(  8-H ,  9-C ) :   0.1336 B(  9-C , 10-H ) :   0.9316 B(  9-C , 11-H ) :   0.8112
B(  9-C , 12-C ) :   1.2364 B(  9-C , 14-H ) :   0.1510 B(  9-C , 15-H ) :   0.1079
B( 10-H , 12-C ) :   0.1126 B( 12-C , 13-C ) :   1.2448 B( 12-C , 14-H ) :   0.7351
B( 12-C , 15-H ) :   0.8938 B( 13-C , 14-H ) :   0.1781 B( 13-C , 15-H ) :   0.1350
B( 13-C , 17-H ) :   0.1142 B( 13-C , 19-F ) :   0.5562 B( 13-C , 20-O ) :   1.5983
B( 16-H , 17-H ) :   0.3264 B( 16-H , 20-O ) :   0.1559 B( 16-H , 23-H ) :   0.1894
B( 16-H , 24-H ) :  -0.1423 B( 17-H , 19-F ) :   0.1898 B( 18-H , 23-H ) :  -0.1075

Dispersion correction           -0.022552047
FINAL SINGLE POINT ENERGY      -488.038787796025

DIPOLE MOMENT
-------------
                                X             Y             Z
Electronic contribution:      0.33711      -1.97269     -10.56746
Nuclear contribution   :     -1.21560       2.80077      10.24180
                        -----------------------------------------
Total Dipole Moment    :     -0.87849       0.82808      -0.32565
                        -----------------------------------------
Magnitude (a.u.)       :      1.25040
Magnitude (Debye)      :      3.17828

Rotational constants in cm-1:     0.051255     0.042531     0.028894
Rotational constants in MHz :  1536.587743  1275.050721   866.218876

                             ****ORCA TERMINATED NORMALLY****
TOTAL RUN TIME: 0 days 0 hours 1 minutes 17 seconds 24 msec
