                         Program Version 5.0.0 -  RELEASE  -
|  1> !PBE0 D3BJ RIJCOSX def2-SVPD def2/J TightSCF xyzfile
|  2>
|  3> *xyzfile 0 1 D2.xyz
|  4>
|  5> %MaxCore 64000
|  6>
|  7> %pal nprocs 4
|  8> end
|  9>
| 10> %scf
| 11>   MaxIter 150
| 12> end
| 13>
| 14>
| 15>                          ****END OF INPUT****

CARTESIAN COORDINATES (ANGSTROEM)
---------------------------------
  C      0.816067   -2.101491   -2.186546
  H      1.696232   -2.368691   -1.600457
  C      1.100552   -2.467492   -3.599269
  C      0.516243   -0.613634   -2.039373
  H     -0.020066   -2.712849   -1.840844
  C     -0.868621   -0.193925   -2.546303
  C     -0.984801    1.284739   -2.928686
  H     -0.764939    1.904116   -2.051568
  H     -2.032613    1.478953   -3.178952
  C     -0.106085    1.769914   -4.089836
  H     -0.347744    2.822196   -4.262942
  H      0.949683    1.745875   -3.808781
  C     -0.258747    1.004323   -5.409829
  C      0.395958   -0.370696   -5.339939
  H      0.239150    1.569393   -6.201253
  H     -1.309360    0.888694   -5.682455
  H      1.700606   -1.757225   -4.078378
  H      0.293855   -2.359766   -4.256324
  H      1.501324   -3.428479   -3.694915
  O     -0.326329   -1.390398   -5.491279
  F      1.619412   -0.400726   -5.036827
  H     -1.607271   -0.412651   -1.768955
  H     -1.157234   -0.796164   -3.409254
  H      1.299044   -0.056805   -2.558982
  H      0.612393   -0.365579   -0.979171

 Total Charge           Charge          ....    0
 Multiplicity           Mult            ....    1
 Number of Electrons    NEL             ....   80
 Basis Dimension        Dim             ....  326

ORBITAL ENERGIES
----------------

  NO   OCC          E(Eh)            E(eV)
   0   2.0000     -24.865167      -676.6156
   1   2.0000     -19.233211      -523.3623
   2   2.0000     -10.423558      -283.6394
   3   2.0000     -10.268920      -279.4315
   4   2.0000     -10.253536      -279.0129
   5   2.0000     -10.237315      -278.5715
   6   2.0000     -10.224346      -278.2186
   7   2.0000     -10.219776      -278.0942
   8   2.0000     -10.207421      -277.7580
   9   2.0000     -10.158557      -276.4284
  10   2.0000      -1.351260       -36.7696
  11   2.0000      -1.066506       -29.0211
  12   2.0000      -0.847401       -23.0590
  13   2.0000      -0.813493       -22.1363
  14   2.0000      -0.763613       -20.7790
  15   2.0000      -0.724039       -19.7021
  16   2.0000      -0.685388       -18.6504
  17   2.0000      -0.654808       -17.8182
  18   2.0000      -0.617423       -16.8009
  19   2.0000      -0.582643       -15.8545
  20   2.0000      -0.576997       -15.7009
  21   2.0000      -0.562363       -15.3027
  22   2.0000      -0.529270       -14.4022
  23   2.0000      -0.495550       -13.4846
  24   2.0000      -0.473238       -12.8775
  25   2.0000      -0.459628       -12.5071
  26   2.0000      -0.455208       -12.3868
  27   2.0000      -0.445697       -12.1280
  28   2.0000      -0.431838       -11.7509
  29   2.0000      -0.407407       -11.0861
  30   2.0000      -0.399950       -10.8832
  31   2.0000      -0.391977       -10.6662
  32   2.0000      -0.381524       -10.3818
  33   2.0000      -0.363553        -9.8928
  34   2.0000      -0.345894        -9.4123
  35   2.0000      -0.342507        -9.3201
  36   2.0000      -0.329939        -8.9781
  37   2.0000      -0.315077        -8.5737
  38   2.0000      -0.313294        -8.5252
  39   2.0000      -0.278897        -7.5892
  40   0.0000      -0.040552        -1.1035
  41   0.0000       0.019328         0.5259
  42   0.0000       0.043490         1.1834
  43   0.0000       0.045212         1.2303
  44   0.0000       0.048120         1.3094

MULLIKEN ATOMIC CHARGES
-----------------------
   0 C :    0.053669
   1 H :   -0.030352
   2 C :    1.019682
   3 C :    0.013105
   4 H :   -0.106683
   5 C :    0.054957
   6 C :    0.220066
   7 H :   -0.015144
   8 H :    0.125577
   9 C :   -0.061820
  10 H :   -0.154624
  11 H :    0.128250
  12 C :    0.106185
  13 C :    0.639442
  14 H :    0.082650
  15 H :    0.032519
  16 H :   -0.210382
  17 H :   -0.152267
  18 H :   -0.226572
  19 O :   -0.624295
  20 F :   -0.502086
  21 H :   -0.063044
  22 H :   -0.185899
  23 H :    0.053368
  24 H :   -0.196304
Sum of atomic charges:   -0.0000000

LOEWDIN ATOMIC CHARGES
----------------------
   0 C :   -0.053106
   1 H :    0.020932
   2 C :    0.126595
   3 C :   -0.026571
   4 H :    0.026714
   5 C :   -0.015876
   6 C :   -0.026350
   7 H :    0.027158
   8 H :    0.025164
   9 C :   -0.024423
  10 H :    0.025540
  11 H :    0.015592
  12 C :    0.068279
  13 C :    0.035532
  14 H :    0.040770
  15 H :    0.043562
  16 H :   -0.071204
  17 H :   -0.096785
  18 H :   -0.011060
  19 O :   -0.137978
  20 F :   -0.047155
  21 H :    0.028668
  22 H :    0.000956
  23 H :    0.004817
  24 H :    0.020229

  Mayer bond orders larger than 0.100000
B(  0-C ,  1-H ) :   0.8268 B(  0-C ,  2-C ) :   1.1561 B(  0-C ,  3-C ) :   1.1851
B(  0-C ,  4-H ) :   0.8612 B(  0-C , 16-H ) :   0.2032 B(  0-C , 17-H ) :   0.1536
B(  0-C , 18-H ) :   0.1692 B(  0-C , 23-H ) :   0.1329 B(  1-H ,  3-C ) :   0.1511
B(  2-C ,  4-H ) :   0.1379 B(  2-C , 16-H ) :   0.5659 B(  2-C , 17-H ) :   0.4983
B(  2-C , 18-H ) :   0.7152 B(  2-C , 23-H ) :  -0.1301 B(  3-C ,  5-C ) :   1.1506
B(  3-C , 21-H ) :   0.2138 B(  3-C , 23-H ) :   0.8355 B(  3-C , 24-H ) :   0.9713
B(  5-C ,  6-C ) :   1.2481 B(  5-C ,  7-H ) :   0.1707 B(  5-C ,  8-H ) :   0.1823
B(  5-C , 21-H ) :   0.8044 B(  5-C , 22-H ) :   0.9359 B(  5-C , 24-H ) :   0.1790
B(  6-C ,  7-H ) :   0.8545 B(  6-C ,  8-H ) :   0.6963 B(  6-C ,  9-C ) :   1.2484
B(  6-C , 10-H ) :   0.1384 B(  6-C , 21-H ) :   0.1018 B(  7-H ,  9-C ) :   0.1291
B(  8-H ,  9-C ) :   0.1356 B(  9-C , 10-H ) :   0.9686 B(  9-C , 11-H ) :   0.8091
B(  9-C , 12-C ) :   1.1973 B(  9-C , 14-H ) :   0.1457 B( 12-C , 13-C ) :   1.2224
B( 12-C , 14-H ) :   0.7437 B( 12-C , 15-H ) :   0.9001 B( 13-C , 14-H ) :   0.1574
B( 13-C , 15-H ) :   0.1842 B( 13-C , 16-H ) :   0.1119 B( 13-C , 19-O ) :   1.6438
B( 13-C , 20-F ) :   0.5358 B( 16-H , 17-H ) :   0.3304 B( 16-H , 20-F ) :   0.1613
B( 16-H , 23-H ) :   0.2029 B( 16-H , 24-H ) :  -0.1485 B( 17-H , 19-O ) :   0.1695
B( 18-H , 23-H ) :  -0.1128

Dispersion correction           -0.022514524
FINAL SINGLE POINT ENERGY      -488.038844628941

DIPOLE MOMENT
-------------
                                X             Y             Z
Electronic contribution:      3.59209      -0.30891      -9.80135
Nuclear contribution   :     -3.57245       1.60200       9.69133
                        -----------------------------------------
Total Dipole Moment    :      0.01964       1.29309      -0.11001
                        -----------------------------------------
Magnitude (a.u.)       :      1.29791
Magnitude (Debye)      :      3.29902

Rotational constants in cm-1:     0.051520     0.042563     0.028962
Rotational constants in MHz :  1544.537298  1275.996546   868.258224

                             ****ORCA TERMINATED NORMALLY****
TOTAL RUN TIME: 0 days 0 hours 1 minutes 17 seconds 416 msec
