                         Program Version 5.0.0 -  RELEASE  -
|  1> !PBE0 D3BJ RIJCOSX def2-TZVPD def2/J TightSCF
|  2> *xyz -1 1
|  3> C          0.61188        1.65763       -4.50029
|  4> C          1.69499        1.54179       -5.57045
|  5> H          2.69733        1.73466       -5.18400
|  6> H          1.50666        2.27224       -6.35808
|  7> S          1.78029       -0.03313       -6.42874
|  8> O          2.56929        0.21366       -7.60736
|  9> O          0.41688       -0.46297       -6.61859
| 10> O          2.50513       -0.93326       -5.48257
| 11> H         -0.34424        1.45871       -4.93752
| 12> H          0.61845        2.64655       -4.09174
| 13> H          0.80247        0.94882       -3.72173
| 14> *
| 15> %MaxCore 64000
| 16>
| 17> %pal nprocs 4
| 18> end
| 19>
| 20> %scf
| 21>   MaxIter 150
| 22> end
| 23>
| 24>
| 25>                          ****END OF INPUT****

CARTESIAN COORDINATES (ANGSTROEM)
---------------------------------
  C      0.611880    1.657630   -4.500290
  C      1.694990    1.541790   -5.570450
  H      2.697330    1.734660   -5.184000
  H      1.506660    2.272240   -6.358080
  S      1.780290   -0.033130   -6.428740
  O      2.569290    0.213660   -7.607360
  O      0.416880   -0.462970   -6.618590
  O      2.505130   -0.933260   -5.482570
  H     -0.344240    1.458710   -4.937520
  H      0.618450    2.646550   -4.091740
  H      0.802470    0.948820   -3.721730

 Total Charge           Charge          ....   -1
 Multiplicity           Mult            ....    1
 Number of Electrons    NEL             ....   58
 Basis Dimension        Dim             ....  285

ORBITAL ENERGIES
----------------

  NO   OCC          E(Eh)            E(eV)
   0   2.0000     -88.999018     -2421.7864
   1   2.0000     -18.987415      -516.6738
   2   2.0000     -18.986745      -516.6556
   3   2.0000     -18.968383      -516.1559
   4   2.0000     -10.082099      -274.3479
   5   2.0000     -10.074823      -274.1499
   6   2.0000      -7.944979      -216.1939
   7   2.0000      -5.882262      -160.0645
   8   2.0000      -5.881104      -160.0330
   9   2.0000      -5.880799      -160.0247
  10   2.0000      -0.951510       -25.8919
  11   2.0000      -0.825407       -22.4605
  12   2.0000      -0.791638       -21.5416
  13   2.0000      -0.654650       -17.8139
  14   2.0000      -0.526519       -14.3273
  15   2.0000      -0.397949       -10.8287
  16   2.0000      -0.331437        -9.0188
  17   2.0000      -0.328693        -8.9442
  18   2.0000      -0.289813        -7.8862
  19   2.0000      -0.274834        -7.4786
  20   2.0000      -0.268594        -7.3088
  21   2.0000      -0.241445        -6.5701
  22   2.0000      -0.225701        -6.1416
  23   2.0000      -0.165054        -4.4914
  24   2.0000      -0.164518        -4.4768
  25   2.0000      -0.131444        -3.5768
  26   2.0000      -0.122266        -3.3270
  27   2.0000      -0.107028        -2.9124
  28   2.0000      -0.075024        -2.0415
  29   0.0000       0.128589         3.4991
  30   0.0000       0.149842         4.0774
  31   0.0000       0.154048         4.1919
  32   0.0000       0.163328         4.4444
  33   0.0000       0.180349         4.9075

MULLIKEN ATOMIC CHARGES
-----------------------
   0 C :   -0.792371
   1 C :   -0.173749
   2 H :    0.163429
   3 H :    0.174340
   4 S :    1.090330
   5 O :   -0.667633
   6 O :   -0.679265
   7 O :   -0.728965
   8 H :    0.215676
   9 H :    0.187644
  10 H :    0.210565
Sum of atomic charges:   -1.0000000

LOEWDIN ATOMIC CHARGES
----------------------
   0 C :   -0.147970
   1 C :   -0.331400
   2 H :    0.084930
   3 H :    0.079272
   4 S :    0.339624
   5 O :   -0.385508
   6 O :   -0.379625
   7 O :   -0.428077
   8 H :    0.056817
   9 H :    0.048857
  10 H :    0.063079

  Mayer bond orders larger than 0.100000
B(  0-C ,  1-C ) :   0.8869 B(  0-C ,  8-H ) :   0.9879 B(  0-C ,  9-H ) :   0.9724
B(  0-C , 10-H ) :   0.9887 B(  1-C ,  2-H ) :   0.9764 B(  1-C ,  3-H ) :   0.9722
B(  1-C ,  4-S ) :   0.8387 B(  1-C ,  5-O ) :   0.1346 B(  1-C ,  7-O ) :   0.1245
B(  4-S ,  5-O ) :   1.5568 B(  4-S ,  6-O ) :   1.5508 B(  4-S ,  7-O ) :   1.4906

Dispersion correction           -0.008245618
FINAL SINGLE POINT ENERGY      -702.846095751832

DIPOLE MOMENT
-------------
                                X             Y             Z
Electronic contribution:      2.23341      -5.63564      -5.00306
Nuclear contribution   :     -2.69163       7.29476       5.86550
                        -----------------------------------------
Total Dipole Moment    :     -0.45822       1.65912       0.86244
                        -----------------------------------------
Magnitude (a.u.)       :      1.92522
Magnitude (Debye)      :      4.89352

Rotational constants in cm-1:     0.163060     0.082831     0.081111
Rotational constants in MHz :  4888.419330  2483.225008  2431.646841

                             ****ORCA TERMINATED NORMALLY****
TOTAL RUN TIME: 0 days 0 hours 0 minutes 30 seconds 386 msec
