                         Program Version 5.0.0 -  RELEASE  -
|  1> !PBE0 D3BJ RIJCOSX def2-TZVPD def2/J TightSCF
|  2> *xyz 1 1
|  3> C          1.96337       -1.74915       -1.89689
|  4> N          2.73849       -2.01517       -3.09711
|  5> C          4.04974       -2.15472       -3.15204
|  6> N          4.65821       -1.98629       -4.31866
|  7> N          4.76423       -2.45444       -2.05049
|  8> H          4.28736       -2.77626       -1.21750
|  9> H          5.75082       -2.65835       -2.12599
| 10> H          2.34518       -1.69027       -3.97145
| 11> H          4.10900       -1.59268       -5.07176
| 12> H          5.64910       -2.15646       -4.42724
| 13> C          2.08852       -0.30091       -1.41520
| 14> H          2.23127       -2.45162       -1.10264
| 15> H          0.93025       -1.97780       -2.15544
| 16> H          1.82118        0.36368       -2.21003
| 17> H          3.09792       -0.11068       -1.11551
| 18> H          1.43391       -0.14382       -0.58352
| 19> *
| 20> %MaxCore 64000
| 21>
| 22> %pal nprocs 4
| 23> end
| 24>
| 25> %scf
| 26>   MaxIter 150
| 27> end
| 28>
| 29>
| 30>                          ****END OF INPUT****

CARTESIAN COORDINATES (ANGSTROEM)
---------------------------------
  C      1.963370   -1.749150   -1.896890
  N      2.738490   -2.015170   -3.097110
  C      4.049740   -2.154720   -3.152040
  N      4.658210   -1.986290   -4.318660
  N      4.764230   -2.454440   -2.050490
  H      4.287360   -2.776260   -1.217500
  H      5.750820   -2.658350   -2.125990
  H      2.345180   -1.690270   -3.971450
  H      4.109000   -1.592680   -5.071760
  H      5.649100   -2.156460   -4.427240
  C      2.088520   -0.300910   -1.415200
  H      2.231270   -2.451620   -1.102640
  H      0.930250   -1.977800   -2.155440
  H      1.821180    0.363680   -2.210030
  H      3.097920   -0.110680   -1.115510
  H      1.433910   -0.143820   -0.583520

 Total Charge           Charge          ....    1
 Multiplicity           Mult            ....    1
 Number of Electrons    NEL             ....   48
 Basis Dimension        Dim             ....  312

ORBITAL ENERGIES
----------------

  NO   OCC          E(Eh)            E(eV)
   0   2.0000     -14.608530      -397.5183
   1   2.0000     -14.608005      -397.5040
   2   2.0000     -14.605905      -397.4469
   3   2.0000     -10.554680      -287.2074
   4   2.0000     -10.428879      -283.7842
   5   2.0000     -10.354917      -281.7716
   6   2.0000      -1.245366       -33.8881
   7   2.0000      -1.132058       -30.8049
   8   2.0000      -1.118796       -30.4440
   9   2.0000      -0.953344       -25.9418
  10   2.0000      -0.862152       -23.4603
  11   2.0000      -0.823556       -22.4101
  12   2.0000      -0.800015       -21.7695
  13   2.0000      -0.762019       -20.7356
  14   2.0000      -0.708776       -19.2868
  15   2.0000      -0.701228       -19.0814
  16   2.0000      -0.671559       -18.2740
  17   2.0000      -0.641812       -17.4646
  18   2.0000      -0.614259       -16.7148
  19   2.0000      -0.577461       -15.7135
  20   2.0000      -0.544497       -14.8165
  21   2.0000      -0.524335       -14.2679
  22   2.0000      -0.490593       -13.3497
  23   2.0000      -0.462616       -12.5884
  24   0.0000      -0.165162        -4.4943
  25   0.0000      -0.156549        -4.2599
  26   0.0000      -0.124175        -3.3790
  27   0.0000      -0.114820        -3.1244
  28   0.0000      -0.089671        -2.4401

MULLIKEN ATOMIC CHARGES
-----------------------
   0 C :   -0.413017
   1 N :   -0.043849
   2 C :    0.545324
   3 N :   -0.232697
   4 N :   -0.222876
   5 H :    0.183283
   6 H :    0.177636
   7 H :    0.209928
   8 H :    0.176672
   9 H :    0.181884
  10 C :   -0.709549
  11 H :    0.223181
  12 H :    0.213072
  13 H :    0.241740
  14 H :    0.233269
  15 H :    0.235998
Sum of atomic charges:    1.0000000

LOEWDIN ATOMIC CHARGES
----------------------
   0 C :   -0.204432
   1 N :    0.080714
   2 C :   -0.443345
   3 N :    0.210300
   4 N :    0.218636
   5 H :    0.128157
   6 H :    0.137130
   7 H :    0.165495
   8 H :    0.139979
   9 H :    0.142354
  10 C :   -0.056736
  11 H :    0.119559
  12 H :    0.130676
  13 H :    0.077840
  14 H :    0.070785
  15 H :    0.082889

  Mayer bond orders larger than 0.100000
B(  0-C ,  1-N ) :   0.9633 B(  0-C , 10-C ) :   0.8942 B(  0-C , 11-H ) :   0.9162
B(  0-C , 12-H ) :   0.9745 B(  1-N ,  2-C ) :   1.2600 B(  1-N ,  3-N ) :   0.1075
B(  1-N ,  7-H ) :   0.9487 B(  2-C ,  3-N ) :   1.1346 B(  2-C ,  4-N ) :   1.1827
B(  3-N ,  8-H ) :   0.9904 B(  3-N ,  9-H ) :   1.0097 B(  4-N ,  5-H ) :   0.9523
B(  4-N ,  6-H ) :   1.0213 B( 10-C , 13-H ) :   0.9765 B( 10-C , 14-H ) :   0.9751
B( 10-C , 15-H ) :   0.9919

Dispersion correction           -0.010477708
FINAL SINGLE POINT ENERGY      -284.183000003451

DIPOLE MOMENT
-------------
                                X             Y             Z
Electronic contribution:      3.00927      -2.70151      -3.08218
Nuclear contribution   :     -2.17768       2.37118       2.44574
                        -----------------------------------------
Total Dipole Moment    :      0.83159      -0.33033      -0.63644
                        -----------------------------------------
Magnitude (a.u.)       :      1.09805
Magnitude (Debye)      :      2.79102

Rotational constants in cm-1:     0.215650     0.075183     0.066454
Rotational constants in MHz :  6465.033740  2253.919004  1992.232519

                             ****ORCA TERMINATED NORMALLY****
TOTAL RUN TIME: 0 days 0 hours 0 minutes 45 seconds 740 msec
