                         Program Version 5.0.0 -  RELEASE  -
|  1> !PBE0 D3BJ RIJCOSX def2-TZVPD def2/J TightSCF xyzfile
|  2>
|  3> *xyzfile 0 1 B.xyz
|  4>
|  5> %MaxCore 64000
|  6>
|  7> %pal nprocs 4
|  8> end
|  9>
| 10> %scf
| 11>   MaxIter 150
| 12> end
| 13>
| 14>
| 15>                          ****END OF INPUT****

CARTESIAN COORDINATES (ANGSTROEM)
---------------------------------
  C      1.963365   -1.749150   -1.896887
  N      2.738490   -2.015170   -3.097113
  C      0.611877    1.657634   -4.500288
  C      1.694991    1.541794   -5.570447
  H      2.697326    1.734659   -5.183996
  H      1.506656    2.272239   -6.358076
  S      1.780287   -0.033128   -6.428739
  C      4.049736   -2.154717   -3.152044
  N      4.658206   -1.986293   -4.318655
  N      4.764231   -2.454435   -2.050491
  H      4.287363   -2.776259   -1.217496
  H      5.750825   -2.658351   -2.125988
  H      2.345176   -1.690274   -3.971447
  H      4.109004   -1.592677   -5.071760
  H      5.649095   -2.156462   -4.427237
  O      2.569287    0.213657   -7.607360
  O      0.416880   -0.462969   -6.618595
  C      2.088520   -0.300912   -1.415204
  H      2.231272   -2.451616   -1.102643
  H      0.930249   -1.977801   -2.155438
  C      0.680356    0.655418   -3.348038
  H     -0.356865    1.549231   -4.991128
  H      0.650228    2.675438   -4.096000
  C      1.968993    0.733582   -2.535654
  H      3.051356   -0.168602   -0.911868
  H      1.316501   -0.136231   -0.657252
  O      2.505129   -0.933263   -5.482570
  H      2.824195    0.624726   -3.208464
  H      2.058919    1.730331   -2.093112
  H      0.542252   -0.344731   -3.766662
  H     -0.174219    0.829692   -2.685182

 Total Charge           Charge          ....    0
 Multiplicity           Mult            ....    1
 Number of Electrons    NEL             ....  120
 Basis Dimension        Dim             ....  689

ORBITAL ENERGIES
----------------

  NO   OCC          E(Eh)            E(eV)
   0   2.0000     -89.147478     -2425.8262
   1   2.0000     -19.146434      -521.0010
   2   2.0000     -19.125696      -520.4366
   3   2.0000     -19.124439      -520.4024
   4   2.0000     -14.470877      -393.7726
   5   2.0000     -14.442464      -392.9994
   6   2.0000     -14.440288      -392.9402
   7   2.0000     -10.402859      -283.0762
   8   2.0000     -10.294466      -280.1267
   9   2.0000     -10.244803      -278.7753
  10   2.0000     -10.225256      -278.2434
  11   2.0000     -10.213340      -277.9191
  12   2.0000     -10.210218      -277.8342
  13   2.0000     -10.209382      -277.8114
  14   2.0000      -8.093691      -220.2405
  15   2.0000      -6.031273      -164.1193
  16   2.0000      -6.030089      -164.0871
  17   2.0000      -6.028861      -164.0537
  18   2.0000      -1.101636       -29.9770
  19   2.0000      -1.092421       -29.7263
  20   2.0000      -0.983964       -26.7750
  21   2.0000      -0.969909       -26.3926
  22   2.0000      -0.963258       -26.2116
  23   2.0000      -0.961192       -26.1554
  24   2.0000      -0.846145       -23.0248
  25   2.0000      -0.806030       -21.9332
  26   2.0000      -0.757172       -20.6037
  27   2.0000      -0.717385       -19.5210
  28   2.0000      -0.689534       -18.7632
  29   2.0000      -0.652939       -17.7674
  30   2.0000      -0.646742       -17.5987
  31   2.0000      -0.612847       -16.6764
  32   2.0000      -0.591203       -16.0874
  33   2.0000      -0.571363       -15.5476
  34   2.0000      -0.557056       -15.1583
  35   2.0000      -0.536192       -14.5905
  36   2.0000      -0.520464       -14.1626
  37   2.0000      -0.496904       -13.5214
  38   2.0000      -0.491283       -13.3685
  39   2.0000      -0.483757       -13.1637
  40   2.0000      -0.468931       -12.7603
  41   2.0000      -0.453794       -12.3484
  42   2.0000      -0.441053       -12.0016
  43   2.0000      -0.431739       -11.7482
  44   2.0000      -0.416493       -11.3333
  45   2.0000      -0.408518       -11.1164
  46   2.0000      -0.390972       -10.6389
  47   2.0000      -0.382912       -10.4196
  48   2.0000      -0.376581       -10.2473
  49   2.0000      -0.349715        -9.5162
  50   2.0000      -0.346149        -9.4192
  51   2.0000      -0.341392        -9.2898
  52   2.0000      -0.325830        -8.8663
  53   2.0000      -0.319958        -8.7065
  54   2.0000      -0.311874        -8.4865
  55   2.0000      -0.308862        -8.4046
  56   2.0000      -0.277187        -7.5426
  57   2.0000      -0.267401        -7.2764
  58   2.0000      -0.258914        -7.0454
  59   2.0000      -0.233409        -6.3514
  60   0.0000      -0.036609        -0.9962
  61   0.0000      -0.020153        -0.5484
  62   0.0000      -0.006439        -0.1752
  63   0.0000       0.015973         0.4346
  64   0.0000       0.020106         0.5471

MULLIKEN ATOMIC CHARGES
-----------------------
   0 C :   -0.774446
   1 N :    0.109146
   2 C :   -0.335051
   3 C :   -0.426694
   4 H :    0.218551
   5 H :    0.162929
   6 S :    0.958420
   7 C :    0.395978
   8 N :   -0.127719
   9 N :   -0.209542
  10 H :    0.177102
  11 H :    0.157914
  12 H :    0.408389
  13 H :    0.294324
  14 H :    0.124045
  15 O :   -0.668073
  16 O :   -0.669688
  17 C :   -0.009406
  18 H :    0.198119
  19 H :    0.245230
  20 C :   -0.324448
  21 H :    0.147815
  22 H :    0.134450
  23 C :   -0.203516
  24 H :    0.118220
  25 H :    0.177290
  26 O :   -0.913496
  27 H :    0.140484
  28 H :    0.153644
  29 H :    0.201453
  30 H :    0.138579
Sum of atomic charges:   -0.0000000

LOEWDIN ATOMIC CHARGES
----------------------
   0 C :   -0.169294
   1 N :    0.094043
   2 C :   -0.228983
   3 C :   -0.252274
   4 H :    0.093867
   5 H :    0.100120
   6 S :    0.433435
   7 C :   -0.448533
   8 N :    0.207155
   9 N :    0.189103
  10 H :    0.113336
  11 H :    0.121375
  12 H :    0.085996
  13 H :    0.081247
  14 H :    0.130470
  15 O :   -0.331220
  16 O :   -0.321769
  17 C :   -0.182323
  18 H :    0.110945
  19 H :    0.127081
  20 C :   -0.215880
  21 H :    0.111487
  22 H :    0.112606
  23 C :   -0.209323
  24 H :    0.106043
  25 H :    0.116115
  26 O :   -0.416835
  27 H :    0.102606
  28 H :    0.120388
  29 H :    0.099135
  30 H :    0.119877

  Mayer bond orders larger than 0.100000
B(  0-C ,  1-N ) :   1.0323 B(  0-C ,  7-C ) :  -0.1200 B(  0-C ,  9-N ) :   0.1062
B(  0-C , 12-H ) :  -0.1022 B(  0-C , 17-C ) :   0.8328 B(  0-C , 18-H ) :   0.9227
B(  0-C , 19-H ) :   0.9561 B(  0-C , 20-C ) :   0.2196 B(  1-N ,  7-C ) :   1.2261
B(  1-N , 12-H ) :   0.8060 B(  2-C ,  3-C ) :   1.0535 B(  2-C ,  6-S ) :   0.1260
B(  2-C , 20-C ) :   1.1765 B(  2-C , 21-H ) :   0.9020 B(  2-C , 22-H ) :   0.9340
B(  2-C , 23-C ) :   0.2709 B(  3-C ,  4-H ) :   0.8933 B(  3-C ,  5-H ) :   0.9570
B(  3-C ,  6-S ) :   0.7544 B(  3-C , 15-O ) :   0.1639 B(  3-C , 16-O ) :   0.1123
B(  3-C , 20-C ) :   0.1097 B(  3-C , 23-C ) :   0.1392 B(  3-C , 26-O ) :   0.1162
B(  6-S , 15-O ) :   1.4966 B(  6-S , 16-O ) :   1.5635 B(  6-S , 26-O ) :   1.6183
B(  7-C ,  8-N ) :   1.1884 B(  7-C ,  9-N ) :   1.1468 B(  8-N , 13-H ) :   0.8884
B(  8-N , 14-H ) :   1.0305 B(  9-N , 10-H ) :   0.9424 B(  9-N , 11-H ) :   1.0259
B( 17-C , 20-C ) :   0.1588 B( 17-C , 23-C ) :   1.1303 B( 17-C , 24-H ) :   0.9240
B( 17-C , 25-H ) :   0.9512 B( 20-C , 23-C ) :   0.6155 B( 20-C , 29-H ) :   0.9520
B( 20-C , 30-H ) :   0.8797 B( 23-C , 27-H ) :   1.0093 B( 23-C , 28-H ) :   0.9070
B( 23-C , 29-H ) :  -0.1122

Dispersion correction           -0.032960852
FINAL SINGLE POINT ENERGY     -1064.560196775949

DIPOLE MOMENT
-------------
                                X             Y             Z
Electronic contribution:      2.24142      -4.97347     -14.22650
Nuclear contribution   :      0.44641       3.59123      19.13564
                        -----------------------------------------
Total Dipole Moment    :      2.68783      -1.38224       4.90914
                        -----------------------------------------
Magnitude (a.u.)       :      5.76495
Magnitude (Debye)      :     14.65334

Rotational constants in cm-1:     0.029186     0.014646     0.011115
Rotational constants in MHz :   874.975540   439.070287   333.231642

                             ****ORCA TERMINATED NORMALLY****
TOTAL RUN TIME: 0 days 0 hours 6 minutes 3 seconds 986 msec
