                         Program Version 5.0.0 -  RELEASE  -
|  1> !PBE0 D3BJ RIJCOSX def2-TZVPD def2/J TightSCF
|  2> *xyz 0 1
|  3> C          0.61188        1.65763       -4.50029
|  4> C          1.69499        1.54179       -5.57045
|  5> H          2.69733        1.73466       -5.18400
|  6> H          1.50666        2.27224       -6.35808
|  7> S          1.78029       -0.03313       -6.42874
|  8> F          2.56929        0.21366       -7.60736
|  9> O          0.41688       -0.46297       -6.61859
| 10> O          2.50513       -0.93326       -5.48257
| 11> H         -0.34424        1.45871       -4.93752
| 12> H          0.61845        2.64655       -4.09174
| 13> H          0.80247        0.94882       -3.72173
| 14> *
| 15> %MaxCore 64000
| 16>
| 17> %pal nprocs 4
| 18> end
| 19>
| 20> %scf
| 21>   MaxIter 150
| 22> end
| 23>
| 24>
| 25>                          ****END OF INPUT****

CARTESIAN COORDINATES (ANGSTROEM)
---------------------------------
  C      0.611880    1.657630   -4.500290
  C      1.694990    1.541790   -5.570450
  H      2.697330    1.734660   -5.184000
  H      1.506660    2.272240   -6.358080
  S      1.780290   -0.033130   -6.428740
  F      2.569290    0.213660   -7.607360
  O      0.416880   -0.462970   -6.618590
  O      2.505130   -0.933260   -5.482570
  H     -0.344240    1.458710   -4.937520
  H      0.618450    2.646550   -4.091740
  H      0.802470    0.948820   -3.721730

 Total Charge           Charge          ....    0
 Multiplicity           Mult            ....    1
 Number of Electrons    NEL             ....   58
 Basis Dimension        Dim             ....  285

ORBITAL ENERGIES
----------------

  NO   OCC          E(Eh)            E(eV)
   0   2.0000     -89.262700     -2428.9616
   1   2.0000     -24.895676      -677.4458
   2   2.0000     -19.222390      -523.0678
   3   2.0000     -19.203235      -522.5466
   4   2.0000     -10.284540      -279.8566
   5   2.0000     -10.238804      -278.6120
   6   2.0000      -8.209072      -223.3802
   7   2.0000      -6.149315      -167.3314
   8   2.0000      -6.143261      -167.1666
   9   2.0000      -6.142806      -167.1542
  10   2.0000      -1.420215       -38.6460
  11   2.0000      -1.132395       -30.8140
  12   2.0000      -1.027883       -27.9701
  13   2.0000      -0.846247       -23.0276
  14   2.0000      -0.760822       -20.7030
  15   2.0000      -0.696724       -18.9588
  16   2.0000      -0.608131       -16.5481
  17   2.0000      -0.606695       -16.5090
  18   2.0000      -0.574561       -15.6346
  19   2.0000      -0.509538       -13.8652
  20   2.0000      -0.498518       -13.5654
  21   2.0000      -0.458271       -12.4702
  22   2.0000      -0.445778       -12.1302
  23   2.0000      -0.422497       -11.4967
  24   2.0000      -0.402492       -10.9524
  25   2.0000      -0.398329       -10.8391
  26   2.0000      -0.350171        -9.5286
  27   2.0000      -0.331361        -9.0168
  28   2.0000      -0.316927        -8.6240
  29   0.0000      -0.004093        -0.1114
  30   0.0000       0.014804         0.4028
  31   0.0000       0.029036         0.7901
  32   0.0000       0.030616         0.8331
  33   0.0000       0.047167         1.2835

MULLIKEN ATOMIC CHARGES
-----------------------
   0 C :   -0.836212
   1 C :   -0.162116
   2 H :    0.222360
   3 H :    0.233007
   4 S :    1.035767
   5 F :   -0.093011
   6 O :   -0.532239
   7 O :   -0.570352
   8 H :    0.255186
   9 H :    0.199778
  10 H :    0.247830
Sum of atomic charges:   -0.0000000

LOEWDIN ATOMIC CHARGES
----------------------
   0 C :   -0.101991
   1 C :   -0.288431
   2 H :    0.103263
   3 H :    0.096154
   4 S :    0.589780
   5 F :   -0.049127
   6 O :   -0.267549
   7 O :   -0.309586
   8 H :    0.072609
   9 H :    0.075549
  10 H :    0.079330

  Mayer bond orders larger than 0.100000
B(  0-C ,  1-C ) :   0.9497 B(  0-C ,  8-H ) :   0.9542 B(  0-C ,  9-H ) :   0.9698
B(  0-C , 10-H ) :   0.9612 B(  1-C ,  2-H ) :   0.9344 B(  1-C ,  3-H ) :   0.9052
B(  1-C ,  4-S ) :   0.8330 B(  4-S ,  5-F ) :   1.0663 B(  4-S ,  6-O ) :   1.7569
B(  4-S ,  7-O ) :   1.6886

Dispersion correction           -0.007882782
FINAL SINGLE POINT ENERGY      -727.350402901972

DIPOLE MOMENT
-------------
                                X             Y             Z
Electronic contribution:      3.85800      -5.65004      -7.53258
Nuclear contribution   :     -3.66946       7.33549       7.42434
                        -----------------------------------------
Total Dipole Moment    :      0.18853       1.68545      -0.10823
                        -----------------------------------------
Magnitude (a.u.)       :      1.69941
Magnitude (Debye)      :      4.31956

Rotational constants in cm-1:     0.158379     0.080294     0.077843
Rotational constants in MHz :  4748.076444  2407.152850  2333.668303

                             ****ORCA TERMINATED NORMALLY****
TOTAL RUN TIME: 0 days 0 hours 0 minutes 33 seconds 477 msec
