                         Program Version 5.0.0 -  RELEASE  -
|  1> !PBE0 D3BJ RIJCOSX def2-TZVPD def2/J TightSCF
|  2> *xyz 0 1
|  3> C          1.96337       -1.74915       -1.89689
|  4> C          2.73849       -2.01517       -3.09711
|  5> C          4.04974       -2.15472       -3.15204
|  6> N          4.65821       -1.98629       -4.31866
|  7> N          4.76423       -2.45444       -2.05049
|  8> H          4.28736       -2.77626       -1.21750
|  9> H          5.75082       -2.65835       -2.12599
| 10> H          2.34518       -1.69027       -3.97145
| 11> H          4.10900       -1.59268       -5.07176
| 12> H          5.64910       -2.15646       -4.42724
| 13> C          2.08852       -0.30091       -1.41520
| 14> H          2.23127       -2.45162       -1.10264
| 15> H          0.93025       -1.97780       -2.15544
| 16> H          1.82118        0.36368       -2.21003
| 17> H          3.09792       -0.11068       -1.11551
| 18> H          1.43391       -0.14382       -0.58352
| 19> *
| 20> %MaxCore 64000
| 21>
| 22> %pal nprocs 4
| 23> end
| 24>
| 25> %scf
| 26>   MaxIter 150
| 27> end
| 28>
| 29>
| 30>                          ****END OF INPUT****

CARTESIAN COORDINATES (ANGSTROEM)
---------------------------------
  C      1.963370   -1.749150   -1.896890
  C      2.738490   -2.015170   -3.097110
  C      4.049740   -2.154720   -3.152040
  N      4.658210   -1.986290   -4.318660
  N      4.764230   -2.454440   -2.050490
  H      4.287360   -2.776260   -1.217500
  H      5.750820   -2.658350   -2.125990
  H      2.345180   -1.690270   -3.971450
  H      4.109000   -1.592680   -5.071760
  H      5.649100   -2.156460   -4.427240
  C      2.088520   -0.300910   -1.415200
  H      2.231270   -2.451620   -1.102640
  H      0.930250   -1.977800   -2.155440
  H      1.821180    0.363680   -2.210030
  H      3.097920   -0.110680   -1.115510
  H      1.433910   -0.143820   -0.583520

 Total Charge           Charge          ....    0
 Multiplicity           Mult            ....    1
 Number of Electrons    NEL             ....   48
 Basis Dimension        Dim             ....  312

ORBITAL ENERGIES
----------------

  NO   OCC          E(Eh)            E(eV)
   0   2.0000     -14.385575      -391.4514
   1   2.0000     -14.383130      -391.3849
   2   2.0000     -10.263309      -279.2788
   3   2.0000     -10.195070      -277.4220
   4   2.0000     -10.181946      -277.0648
   5   2.0000     -10.140651      -275.9411
   6   2.0000      -0.987562       -26.8729
   7   2.0000      -0.896831       -24.4040
   8   2.0000      -0.796639       -21.6777
   9   2.0000      -0.715277       -19.4637
  10   2.0000      -0.636074       -17.3085
  11   2.0000      -0.596532       -16.2325
  12   2.0000      -0.558070       -15.1859
  13   2.0000      -0.525871       -14.3097
  14   2.0000      -0.487624       -13.2689
  15   2.0000      -0.452168       -12.3041
  16   2.0000      -0.433060       -11.7842
  17   2.0000      -0.398866       -10.8537
  18   2.0000      -0.393203       -10.6996
  19   2.0000      -0.367594       -10.0027
  20   2.0000      -0.339292        -9.2326
  21   2.0000      -0.328729        -8.9452
  22   2.0000      -0.278408        -7.5759
  23   2.0000      -0.169888        -4.6229
  24   0.0000       0.003981         0.1083
  25   0.0000       0.030796         0.8380
  26   0.0000       0.036610         0.9962
  27   0.0000       0.046958         1.2778
  28   0.0000       0.064270         1.7489

MULLIKEN ATOMIC CHARGES
-----------------------
   0 C :   -0.135682
   1 C :   -0.530208
   2 C :    0.278806
   3 N :   -0.290656
   4 N :   -0.284287
   5 H :    0.160299
   6 H :    0.119568
   7 H :    0.221962
   8 H :    0.158553
   9 H :    0.127874
  10 C :   -0.779344
  11 H :    0.242944
  12 H :    0.086721
  13 H :    0.234847
  14 H :    0.202660
  15 H :    0.185945
Sum of atomic charges:    0.0000000

LOEWDIN ATOMIC CHARGES
----------------------
   0 C :   -0.286141
   1 C :   -0.157326
   2 C :   -0.551885
   3 N :    0.109515
   4 N :    0.129735
   5 H :    0.102097
   6 H :    0.097388
   7 H :    0.066571
   8 H :    0.111638
   9 H :    0.101101
  10 C :   -0.103364
  11 H :    0.094905
  12 H :    0.101177
  13 H :    0.066163
  14 H :    0.061644
  15 H :    0.056782

  Mayer bond orders larger than 0.100000
B(  0-C ,  1-C ) :   0.8873 B(  0-C ,  2-C ) :   0.1372 B(  0-C , 10-C ) :   0.6931
B(  0-C , 11-H ) :   0.9354 B(  0-C , 12-H ) :   1.0773 B(  1-C ,  2-C ) :   1.4738
B(  1-C ,  7-H ) :   1.0367 B(  1-C , 10-C ) :   0.1994 B(  2-C ,  3-N ) :   1.1261
B(  2-C ,  4-N ) :   1.0458 B(  2-C ,  7-H ) :  -0.1798 B(  3-N ,  8-H ) :   0.9923
B(  3-N ,  9-H ) :   1.0558 B(  4-N ,  5-H ) :   0.9653 B(  4-N ,  6-H ) :   1.0697
B( 10-C , 13-H ) :   0.9973 B( 10-C , 14-H ) :   1.0051 B( 10-C , 15-H ) :   0.9964

Dispersion correction           -0.010898923
FINAL SINGLE POINT ENERGY      -267.706683457130

DIPOLE MOMENT
-------------
                                X             Y             Z
Electronic contribution:      3.29304      -2.43169      -2.52830
Nuclear contribution   :     -2.31778       2.31977       2.35294
                        -----------------------------------------
Total Dipole Moment    :      0.97526      -0.11192      -0.17536
                        -----------------------------------------
Magnitude (a.u.)       :      0.99720
Magnitude (Debye)      :      2.53468

Rotational constants in cm-1:     0.219415     0.075373     0.066689
Rotational constants in MHz :  6577.897266  2259.621393  1999.290981

                             ****ORCA TERMINATED NORMALLY****
TOTAL RUN TIME: 0 days 0 hours 0 minutes 51 seconds 303 msec
