                         Program Version 5.0.0 -  RELEASE  -
|  1> !PBE0 D3BJ RIJCOSX def2-TZVPD def2/J TightSCF
|  2> *xyz 0 1
|  3> C          0.61188        1.65763       -4.50029
|  4> C          1.69499        1.54179       -5.57045
|  5> H          2.69733        1.73466       -5.18400
|  6> H          1.50666        2.27224       -6.35808
|  7> S          1.78029       -0.03313       -6.42874
|  8> O          2.56929        0.21366       -7.60736
|  9> F          0.41688       -0.46297       -6.61859
| 10> O          2.50513       -0.93326       -5.48257
| 11> H         -0.34424        1.45871       -4.93752
| 12> H          0.61845        2.64655       -4.09174
| 13> H          0.80247        0.94882       -3.72173
| 14> *
| 15> %MaxCore 64000
| 16>
| 17> %pal nprocs 4
| 18> end
| 19>
| 20> %scf
| 21>   MaxIter 150
| 22> end
| 23>
| 24>
| 25>                          ****END OF INPUT****

CARTESIAN COORDINATES (ANGSTROEM)
---------------------------------
  C      0.611880    1.657630   -4.500290
  C      1.694990    1.541790   -5.570450
  H      2.697330    1.734660   -5.184000
  H      1.506660    2.272240   -6.358080
  S      1.780290   -0.033130   -6.428740
  O      2.569290    0.213660   -7.607360
  F      0.416880   -0.462970   -6.618590
  O      2.505130   -0.933260   -5.482570
  H     -0.344240    1.458710   -4.937520
  H      0.618450    2.646550   -4.091740
  H      0.802470    0.948820   -3.721730

 Total Charge           Charge          ....    0
 Multiplicity           Mult            ....    1
 Number of Electrons    NEL             ....   58
 Basis Dimension        Dim             ....  285

ORBITAL ENERGIES
----------------

  NO   OCC          E(Eh)            E(eV)
   0   2.0000     -89.262470     -2428.9553
   1   2.0000     -24.895188      -677.4325
   2   2.0000     -19.222076      -523.0593
   3   2.0000     -19.203439      -522.5521
   4   2.0000     -10.284329      -279.8508
   5   2.0000     -10.244030      -278.7542
   6   2.0000      -8.208864      -223.3746
   7   2.0000      -6.149280      -167.3304
   8   2.0000      -6.142899      -167.1568
   9   2.0000      -6.142586      -167.1483
  10   2.0000      -1.418703       -38.6049
  11   2.0000      -1.133482       -30.8436
  12   2.0000      -1.027731       -27.9660
  13   2.0000      -0.850068       -23.1315
  14   2.0000      -0.757029       -20.5998
  15   2.0000      -0.701549       -19.0901
  16   2.0000      -0.617419       -16.8008
  17   2.0000      -0.606507       -16.5039
  18   2.0000      -0.565491       -15.3878
  19   2.0000      -0.510760       -13.8985
  20   2.0000      -0.493187       -13.4203
  21   2.0000      -0.466759       -12.7012
  22   2.0000      -0.453117       -12.3299
  23   2.0000      -0.426253       -11.5989
  24   2.0000      -0.409802       -11.1513
  25   2.0000      -0.395933       -10.7739
  26   2.0000      -0.349281        -9.5044
  27   2.0000      -0.331413        -9.0182
  28   2.0000      -0.317133        -8.6296
  29   0.0000      -0.009168        -0.2495
  30   0.0000       0.021599         0.5877
  31   0.0000       0.025783         0.7016
  32   0.0000       0.030511         0.8302
  33   0.0000       0.046024         1.2524

MULLIKEN ATOMIC CHARGES
-----------------------
   0 C :   -0.848289
   1 C :   -0.117276
   2 H :    0.203496
   3 H :    0.227063
   4 S :    1.025269
   5 O :   -0.518285
   6 F :   -0.110738
   7 O :   -0.572342
   8 H :    0.263225
   9 H :    0.194673
  10 H :    0.253204
Sum of atomic charges:   -0.0000000

LOEWDIN ATOMIC CHARGES
----------------------
   0 C :   -0.113278
   1 C :   -0.279410
   2 H :    0.113234
   3 H :    0.099412
   4 S :    0.587476
   5 O :   -0.268908
   6 F :   -0.048147
   7 O :   -0.308744
   8 H :    0.067899
   9 H :    0.074323
  10 H :    0.076143

  Mayer bond orders larger than 0.100000
B(  0-C ,  1-C ) :   0.8825 B(  0-C ,  8-H ) :   0.9319 B(  0-C ,  9-H ) :   0.9849
B(  0-C , 10-H ) :   0.9794 B(  1-C ,  2-H ) :   0.9434 B(  1-C ,  3-H ) :   0.9437
B(  1-C ,  4-S ) :   0.8227 B(  1-C ,  5-O ) :   0.1010 B(  4-S ,  5-O ) :   1.7647
B(  4-S ,  6-F ) :   1.0671 B(  4-S ,  7-O ) :   1.6961

Dispersion correction           -0.007835120
FINAL SINGLE POINT ENERGY      -727.350280975867

DIPOLE MOMENT
-------------
                                X             Y             Z
Electronic contribution:      0.25127      -6.77218      -5.85187
Nuclear contribution   :     -1.42658       8.04056       6.39401
                        -----------------------------------------
Total Dipole Moment    :     -1.17531       1.26837       0.54214
                        -----------------------------------------
Magnitude (a.u.)       :      1.81219
Magnitude (Debye)      :      4.60623

Rotational constants in cm-1:     0.153659     0.082363     0.078978
Rotational constants in MHz :  4606.587369  2469.179541  2367.702074

                             ****ORCA TERMINATED NORMALLY****
TOTAL RUN TIME: 0 days 0 hours 0 minutes 33 seconds 66 msec
