                         Program Version 5.0.0 -  RELEASE  -
|  1> !PBE0 D3BJ RIJCOSX def2-TZVPD def2/J TightSCF
|  2> *xyz 0 1
|  3> C          1.96337       -1.74915       -1.89689
|  4> N          2.73849       -2.01517       -3.09711
|  5> C          4.04974       -2.15472       -3.15204
|  6> C          4.65821       -1.98629       -4.31866
|  7> N          4.76423       -2.45444       -2.05049
|  8> H          4.28736       -2.77626       -1.21750
|  9> H          5.75082       -2.65835       -2.12599
| 10> H          2.34518       -1.69027       -3.97145
| 11> H          4.10900       -1.59268       -5.07176
| 12> H          5.64910       -2.15646       -4.42724
| 13> C          2.08852       -0.30091       -1.41520
| 14> H          2.23127       -2.45162       -1.10264
| 15> H          0.93025       -1.97780       -2.15544
| 16> H          1.82118        0.36368       -2.21003
| 17> H          3.09792       -0.11068       -1.11551
| 18> H          1.43391       -0.14382       -0.58352
| 19> *
| 20> %MaxCore 64000
| 21>
| 22> %pal nprocs 4
| 23> end
| 24>
| 25> %scf
| 26>   MaxIter 150
| 27> end
| 28>
| 29>
| 30>                          ****END OF INPUT****

CARTESIAN COORDINATES (ANGSTROEM)
---------------------------------
  C      1.963370   -1.749150   -1.896890
  N      2.738490   -2.015170   -3.097110
  C      4.049740   -2.154720   -3.152040
  C      4.658210   -1.986290   -4.318660
  N      4.764230   -2.454440   -2.050490
  H      4.287360   -2.776260   -1.217500
  H      5.750820   -2.658350   -2.125990
  H      2.345180   -1.690270   -3.971450
  H      4.109000   -1.592680   -5.071760
  H      5.649100   -2.156460   -4.427240
  C      2.088520   -0.300910   -1.415200
  H      2.231270   -2.451620   -1.102640
  H      0.930250   -1.977800   -2.155440
  H      1.821180    0.363680   -2.210030
  H      3.097920   -0.110680   -1.115510
  H      1.433910   -0.143820   -0.583520

 Total Charge           Charge          ....    0
 Multiplicity           Mult            ....    1
 Number of Electrons    NEL             ....   48
 Basis Dimension        Dim             ....  312

ORBITAL ENERGIES
----------------

  NO   OCC          E(Eh)            E(eV)
   0   2.0000     -14.384201      -391.4140
   1   2.0000     -14.383711      -391.4007
   2   2.0000     -10.264411      -279.3088
   3   2.0000     -10.260894      -279.2131
   4   2.0000     -10.207155      -277.7508
   5   2.0000     -10.131650      -275.6962
   6   2.0000      -0.996156       -27.1068
   7   2.0000      -0.909219       -24.7411
   8   2.0000      -0.793719       -21.5982
   9   2.0000      -0.723401       -19.6847
  10   2.0000      -0.649357       -17.6699
  11   2.0000      -0.616199       -16.7676
  12   2.0000      -0.551440       -15.0054
  13   2.0000      -0.511449       -13.9172
  14   2.0000      -0.493550       -13.4302
  15   2.0000      -0.450942       -12.2708
  16   2.0000      -0.447047       -12.1648
  17   2.0000      -0.414902       -11.2901
  18   2.0000      -0.396071       -10.7776
  19   2.0000      -0.387016       -10.5312
  20   2.0000      -0.371951       -10.1213
  21   2.0000      -0.368332       -10.0228
  22   2.0000      -0.266509        -7.2521
  23   2.0000      -0.173609        -4.7241
  24   0.0000       0.004869         0.1325
  25   0.0000       0.030417         0.8277
  26   0.0000       0.035419         0.9638
  27   0.0000       0.038212         1.0398
  28   0.0000       0.067885         1.8472

MULLIKEN ATOMIC CHARGES
-----------------------
   0 C :   -0.355853
   1 N :   -0.063996
   2 C :    0.800186
   3 C :   -1.238110
   4 N :   -0.284519
   5 H :    0.134228
   6 H :    0.143635
   7 H :    0.172433
   8 H :    0.207263
   9 H :    0.175603
  10 C :   -0.699569
  11 H :    0.189313
  12 H :    0.172408
  13 H :    0.199792
  14 H :    0.210647
  15 H :    0.236537
Sum of atomic charges:   -0.0000000

LOEWDIN ATOMIC CHARGES
----------------------
   0 C :   -0.242284
   1 N :    0.009647
   2 C :   -0.575252
   3 C :   -0.000561
   4 N :    0.124417
   5 H :    0.091103
   6 H :    0.109330
   7 H :    0.142730
   8 H :    0.008819
   9 H :    0.007267
  10 C :   -0.084390
  11 H :    0.104010
  12 H :    0.111225
  13 H :    0.067547
  14 H :    0.064044
  15 H :    0.062348

  Mayer bond orders larger than 0.100000
B(  0-C ,  1-N ) :   0.9467 B(  0-C , 10-C ) :   0.8577 B(  0-C , 11-H ) :   0.9374
B(  0-C , 12-H ) :   1.0054 B(  1-N ,  2-C ) :   1.1541 B(  1-N ,  7-H ) :   0.9082
B(  2-C ,  3-C ) :   1.0711 B(  2-C ,  4-N ) :   1.0031 B(  3-C ,  8-H ) :   0.9905
B(  3-C ,  9-H ) :   1.1266 B(  4-N ,  5-H ) :   1.0096 B(  4-N ,  6-H ) :   1.0216
B( 10-C , 13-H ) :   1.0000 B( 10-C , 14-H ) :   1.0087 B( 10-C , 15-H ) :   0.9888

Dispersion correction           -0.010812887
FINAL SINGLE POINT ENERGY      -267.701049840832

DIPOLE MOMENT
-------------
                                X             Y             Z
Electronic contribution:      1.39969      -2.33278      -1.20706
Nuclear contribution   :     -1.91052       2.32590       2.09379
                        -----------------------------------------
Total Dipole Moment    :     -0.51083      -0.00689       0.88674
                        -----------------------------------------
Magnitude (a.u.)       :      1.02338
Magnitude (Debye)      :      2.60122

Rotational constants in cm-1:     0.219448     0.077923     0.068804
Rotational constants in MHz :  6578.886179  2336.083179  2062.700476

                             ****ORCA TERMINATED NORMALLY****
TOTAL RUN TIME: 0 days 0 hours 0 minutes 45 seconds 324 msec
