                         Program Version 5.0.0 -  RELEASE  -
|  1> !PBE0 D3BJ RIJCOSX def2-TZVPD def2/J TightSCF
|  2> *xyz 0 1
|  3> C          0.61188        1.65763       -4.50029
|  4> C          1.69499        1.54179       -5.57045
|  5> H          2.69733        1.73466       -5.18400
|  6> H          1.50666        2.27224       -6.35808
|  7> S          1.78029       -0.03313       -6.42874
|  8> O          2.56929        0.21366       -7.60736
|  9> O          0.41688       -0.46297       -6.61859
| 10> F          2.50513       -0.93326       -5.48257
| 11> H         -0.34424        1.45871       -4.93752
| 12> H          0.61845        2.64655       -4.09174
| 13> H          0.80247        0.94882       -3.72173
| 14> *
| 15> %MaxCore 64000
| 16>
| 17> %pal nprocs 4
| 18> end
| 19>
| 20> %scf
| 21>   MaxIter 150
| 22> end
| 23>
| 24>
| 25>                          ****END OF INPUT****

CARTESIAN COORDINATES (ANGSTROEM)
---------------------------------
  C      0.611880    1.657630   -4.500290
  C      1.694990    1.541790   -5.570450
  H      2.697330    1.734660   -5.184000
  H      1.506660    2.272240   -6.358080
  S      1.780290   -0.033130   -6.428740
  O      2.569290    0.213660   -7.607360
  O      0.416880   -0.462970   -6.618590
  F      2.505130   -0.933260   -5.482570
  H     -0.344240    1.458710   -4.937520
  H      0.618450    2.646550   -4.091740
  H      0.802470    0.948820   -3.721730

 Total Charge           Charge          ....    0
 Multiplicity           Mult            ....    1
 Number of Electrons    NEL             ....   58
 Basis Dimension        Dim             ....  285

ORBITAL ENERGIES
----------------

  NO   OCC          E(Eh)            E(eV)
   0   2.0000     -89.259688     -2428.8796
   1   2.0000     -24.867340      -676.6747
   2   2.0000     -19.222100      -523.0599
   3   2.0000     -19.221408      -523.0411
   4   2.0000     -10.283232      -279.8210
   5   2.0000     -10.239070      -278.6193
   6   2.0000      -8.206109      -223.2996
   7   2.0000      -6.146530      -167.2556
   8   2.0000      -6.140450      -167.0901
   9   2.0000      -6.139699      -167.0697
  10   2.0000      -1.374794       -37.4100
  11   2.0000      -1.145363       -31.1669
  12   2.0000      -1.055726       -28.7278
  13   2.0000      -0.846456       -23.0332
  14   2.0000      -0.741634       -20.1809
  15   2.0000      -0.688896       -18.7458
  16   2.0000      -0.591075       -16.0840
  17   2.0000      -0.575678       -15.6650
  18   2.0000      -0.566310       -15.4101
  19   2.0000      -0.509035       -13.8515
  20   2.0000      -0.494196       -13.4478
  21   2.0000      -0.474584       -12.9141
  22   2.0000      -0.448342       -12.2000
  23   2.0000      -0.419459       -11.4140
  24   2.0000      -0.417250       -11.3539
  25   2.0000      -0.396156       -10.7800
  26   2.0000      -0.357186        -9.7195
  27   2.0000      -0.348378        -9.4798
  28   2.0000      -0.338161        -9.2018
  29   0.0000      -0.004715        -0.1283
  30   0.0000       0.023256         0.6328
  31   0.0000       0.028321         0.7706
  32   0.0000       0.029354         0.7988
  33   0.0000       0.046308         1.2601

MULLIKEN ATOMIC CHARGES
-----------------------
   0 C :   -0.810223
   1 C :   -0.162554
   2 H :    0.238298
   3 H :    0.213498
   4 S :    1.041617
   5 O :   -0.529508
   6 O :   -0.536796
   7 F :   -0.151649
   8 H :    0.253043
   9 H :    0.197477
  10 H :    0.246797
Sum of atomic charges:    0.0000000

LOEWDIN ATOMIC CHARGES
----------------------
   0 C :   -0.112283
   1 C :   -0.279979
   2 H :    0.102385
   3 H :    0.107894
   4 S :    0.589677
   5 O :   -0.270351
   6 O :   -0.265802
   7 F :   -0.090441
   8 H :    0.071662
   9 H :    0.073648
  10 H :    0.073591

  Mayer bond orders larger than 0.100000
B(  0-C ,  1-C ) :   0.9152 B(  0-C ,  8-H ) :   0.9763 B(  0-C ,  9-H ) :   0.9813
B(  0-C , 10-H ) :   0.9425 B(  1-C ,  2-H ) :   0.9167 B(  1-C ,  3-H ) :   0.9403
B(  1-C ,  4-S ) :   0.8323 B(  1-C ,  5-O ) :   0.1066 B(  4-S ,  5-O ) :   1.7534
B(  4-S ,  6-O ) :   1.7537 B(  4-S ,  7-F ) :   1.0007

Dispersion correction           -0.007854096
FINAL SINGLE POINT ENERGY      -727.373757601642

DIPOLE MOMENT
-------------
                                X             Y             Z
Electronic contribution:      3.77223      -7.60108      -3.92877
Nuclear contribution   :     -3.60260       8.53062       5.21025
                        -----------------------------------------
Total Dipole Moment    :      0.16963       0.92954       1.28148
                        -----------------------------------------
Magnitude (a.u.)       :      1.59217
Magnitude (Debye)      :      4.04696

Rotational constants in cm-1:     0.154011     0.080858     0.079602
Rotational constants in MHz :  4617.134198  2424.070332  2386.404775

                             ****ORCA TERMINATED NORMALLY****
TOTAL RUN TIME: 0 days 0 hours 0 minutes 33 seconds 226 msec
