                         Program Version 5.0.0 -  RELEASE  -
|  1> !PBE0 D3BJ RIJCOSX def2-TZVPD def2/J TightSCF
|  2> *xyz 0 1
|  3> C          1.96337       -1.74915       -1.89689
|  4> N          2.73849       -2.01517       -3.09711
|  5> C          4.04974       -2.15472       -3.15204
|  6> N          4.65821       -1.98629       -4.31866
|  7> C          4.76423       -2.45444       -2.05049
|  8> H          4.28736       -2.77626       -1.21750
|  9> H          5.75082       -2.65835       -2.12599
| 10> H          2.34518       -1.69027       -3.97145
| 11> H          4.10900       -1.59268       -5.07176
| 12> H          5.64910       -2.15646       -4.42724
| 13> C          2.08852       -0.30091       -1.41520
| 14> H          2.23127       -2.45162       -1.10264
| 15> H          0.93025       -1.97780       -2.15544
| 16> H          1.82118        0.36368       -2.21003
| 17> H          3.09792       -0.11068       -1.11551
| 18> H          1.43391       -0.14382       -0.58352
| 19> *
| 20> %MaxCore 64000
| 21>
| 22> %pal nprocs 4
| 23> end
| 24>
| 25> %scf
| 26>   MaxIter 150
| 27> end
| 28>
| 29>
| 30>                          ****END OF INPUT****

CARTESIAN COORDINATES (ANGSTROEM)
---------------------------------
  C      1.963370   -1.749150   -1.896890
  N      2.738490   -2.015170   -3.097110
  C      4.049740   -2.154720   -3.152040
  N      4.658210   -1.986290   -4.318660
  C      4.764230   -2.454440   -2.050490
  H      4.287360   -2.776260   -1.217500
  H      5.750820   -2.658350   -2.125990
  H      2.345180   -1.690270   -3.971450
  H      4.109000   -1.592680   -5.071760
  H      5.649100   -2.156460   -4.427240
  C      2.088520   -0.300910   -1.415200
  H      2.231270   -2.451620   -1.102640
  H      0.930250   -1.977800   -2.155440
  H      1.821180    0.363680   -2.210030
  H      3.097920   -0.110680   -1.115510
  H      1.433910   -0.143820   -0.583520

 Total Charge           Charge          ....    0
 Multiplicity           Mult            ....    1
 Number of Electrons    NEL             ....   48
 Basis Dimension        Dim             ....  312

ORBITAL ENERGIES
----------------

  NO   OCC          E(Eh)            E(eV)
   0   2.0000     -14.388507      -391.5312
   1   2.0000     -14.385866      -391.4593
   2   2.0000     -10.266163      -279.3565
   3   2.0000     -10.254687      -279.0442
   4   2.0000     -10.200566      -277.5715
   5   2.0000     -10.132109      -275.7087
   6   2.0000      -1.002128       -27.2693
   7   2.0000      -0.913412       -24.8552
   8   2.0000      -0.776765       -21.1369
   9   2.0000      -0.728759       -19.8305
  10   2.0000      -0.662473       -18.0268
  11   2.0000      -0.580003       -15.7827
  12   2.0000      -0.562795       -15.3144
  13   2.0000      -0.540674       -14.7125
  14   2.0000      -0.481990       -13.1156
  15   2.0000      -0.453065       -12.3285
  16   2.0000      -0.431634       -11.7454
  17   2.0000      -0.411366       -11.1938
  18   2.0000      -0.393521       -10.7082
  19   2.0000      -0.380949       -10.3662
  20   2.0000      -0.375164       -10.2087
  21   2.0000      -0.358276        -9.7492
  22   2.0000      -0.263953        -7.1825
  23   2.0000      -0.175214        -4.7678
  24   0.0000       0.004330         0.1178
  25   0.0000       0.027605         0.7512
  26   0.0000       0.038660         1.0520
  27   0.0000       0.041147         1.1197
  28   0.0000       0.067836         1.8459

MULLIKEN ATOMIC CHARGES
-----------------------
   0 C :   -0.319081
   1 N :   -0.123823
   2 C :    0.783972
   3 N :   -0.276017
   4 C :   -1.222859
   5 H :    0.200940
   6 H :    0.210713
   7 H :    0.170138
   8 H :    0.129088
   9 H :    0.150184
  10 C :   -0.745239
  11 H :    0.198714
  12 H :    0.179075
  13 H :    0.203730
  14 H :    0.232395
  15 H :    0.228070
Sum of atomic charges:    0.0000000

LOEWDIN ATOMIC CHARGES
----------------------
   0 C :   -0.236994
   1 N :    0.007312
   2 C :   -0.577348
   3 N :    0.116130
   4 C :    0.006853
   5 H :    0.001703
   6 H :    0.004363
   7 H :    0.134729
   8 H :    0.100447
   9 H :    0.114578
  10 C :   -0.083380
  11 H :    0.109823
  12 H :    0.110822
  13 H :    0.064258
  14 H :    0.063089
  15 H :    0.063613

  Mayer bond orders larger than 0.100000
B(  0-C ,  1-N ) :   0.9118 B(  0-C ,  4-C ) :   0.1161 B(  0-C , 10-C ) :   0.8648
B(  0-C , 11-H ) :   0.9201 B(  0-C , 12-H ) :   0.9685 B(  1-N ,  2-C ) :   1.0671
B(  1-N ,  7-H ) :   0.9716 B(  2-C ,  3-N ) :   0.9885 B(  2-C ,  4-C ) :   1.2170
B(  3-N ,  4-C ) :   0.1079 B(  3-N ,  8-H ) :   1.0373 B(  3-N ,  9-H ) :   1.0116
B(  4-C ,  5-H ) :   1.0069 B(  4-C ,  6-H ) :   1.0539 B( 10-C , 13-H ) :   0.9906
B( 10-C , 14-H ) :   1.0189 B( 10-C , 15-H ) :   0.9759

Dispersion correction           -0.010869444
FINAL SINGLE POINT ENERGY      -267.700533707747

DIPOLE MOMENT
-------------
                                X             Y             Z
Electronic contribution:      1.33479      -1.82508      -3.41832
Nuclear contribution   :     -1.88803       2.22658       2.57497
                        -----------------------------------------
Total Dipole Moment    :     -0.55324       0.40150      -0.84334
                        -----------------------------------------
Magnitude (a.u.)       :      1.08559
Magnitude (Debye)      :      2.75935

Rotational constants in cm-1:     0.226509     0.075782     0.067928
Rotational constants in MHz :  6790.555051  2271.890226  2036.439218

                             ****ORCA TERMINATED NORMALLY****
TOTAL RUN TIME: 0 days 0 hours 0 minutes 45 seconds 534 msec
