                         Program Version 5.0.0 -  RELEASE  -
|  1> !PBE0 D3BJ RIJCOSX def2-TZVPD def2/J TightSCF xyzfile
|  2>
|  3> *xyzfile 0 1 D1.xyz
|  4>
|  5> %MaxCore 64000
|  6>
|  7> %pal nprocs 4
|  8> end
|  9>
| 10> %scf
| 11>   MaxIter 150
| 12> end
| 13>
| 14>
| 15>                          ****END OF INPUT****

CARTESIAN COORDINATES (ANGSTROEM)
---------------------------------
  C      1.963365   -1.749150   -1.896887
  C      2.738490   -2.015170   -3.097113
  C      0.611877    1.657634   -4.500288
  C      1.694991    1.541794   -5.570447
  H      2.697326    1.734659   -5.183996
  H      1.506656    2.272239   -6.358076
  S      1.780287   -0.033128   -6.428739
  C      4.049736   -2.154717   -3.152044
  N      4.658206   -1.986293   -4.318655
  N      4.764231   -2.454435   -2.050491
  H      4.287363   -2.776259   -1.217496
  H      5.750825   -2.658351   -2.125988
  H      2.345176   -1.690274   -3.971447
  H      4.109004   -1.592677   -5.071760
  H      5.649095   -2.156462   -4.427237
  F      2.569287    0.213657   -7.607360
  O      0.416880   -0.462969   -6.618595
  C      2.088520   -0.300912   -1.415204
  H      2.231272   -2.451616   -1.102643
  H      0.930249   -1.977801   -2.155438
  C      0.680356    0.655418   -3.348038
  H     -0.356865    1.549231   -4.991128
  H      0.650228    2.675438   -4.096000
  C      1.968993    0.733582   -2.535654
  H      3.051356   -0.168602   -0.911868
  H      1.316501   -0.136231   -0.657252
  O      2.505129   -0.933263   -5.482570
  H      2.824195    0.624726   -3.208464
  H      2.058919    1.730331   -2.093112
  H      0.542252   -0.344731   -3.766662
  H     -0.174219    0.829692   -2.685182

 Total Charge           Charge          ....    0
 Multiplicity           Mult            ....    1
 Number of Electrons    NEL             ....  120
 Basis Dimension        Dim             ....  689

ORBITAL ENERGIES
----------------

  NO   OCC          E(Eh)            E(eV)
   0   2.0000     -89.272186     -2429.2197
   1   2.0000     -24.903328      -677.6540
   2   2.0000     -19.231139      -523.3059
   3   2.0000     -19.218139      -522.9521
   4   2.0000     -14.367991      -390.9729
   5   2.0000     -14.353299      -390.5731
   6   2.0000     -10.285171      -279.8737
   7   2.0000     -10.246228      -278.8140
   8   2.0000     -10.241218      -278.6777
   9   2.0000     -10.214762      -277.9578
  10   2.0000     -10.203472      -277.6506
  11   2.0000     -10.193497      -277.3791
  12   2.0000     -10.182014      -277.0667
  13   2.0000     -10.110429      -275.1188
  14   2.0000      -8.219014      -223.6507
  15   2.0000      -6.159275      -167.6024
  16   2.0000      -6.152979      -167.4311
  17   2.0000      -6.152876      -167.4283
  18   2.0000      -1.428378       -38.8681
  19   2.0000      -1.144423       -31.1413
  20   2.0000      -1.046421       -28.4746
  21   2.0000      -0.965617       -26.2758
  22   2.0000      -0.875405       -23.8210
  23   2.0000      -0.859684       -23.3932
  24   2.0000      -0.814902       -22.1746
  25   2.0000      -0.778179       -21.1753
  26   2.0000      -0.747940       -20.3525
  27   2.0000      -0.712827       -19.3970
  28   2.0000      -0.673415       -18.3245
  29   2.0000      -0.638468       -17.3736
  30   2.0000      -0.621658       -16.9162
  31   2.0000      -0.606464       -16.5027
  32   2.0000      -0.605041       -16.4640
  33   2.0000      -0.568909       -15.4808
  34   2.0000      -0.565821       -15.3968
  35   2.0000      -0.540570       -14.7097
  36   2.0000      -0.514298       -13.9948
  37   2.0000      -0.507159       -13.8005
  38   2.0000      -0.501517       -13.6470
  39   2.0000      -0.482239       -13.1224
  40   2.0000      -0.477888       -13.0040
  41   2.0000      -0.458811       -12.4849
  42   2.0000      -0.447647       -12.1811
  43   2.0000      -0.439131       -11.9494
  44   2.0000      -0.426744       -11.6123
  45   2.0000      -0.413988       -11.2652
  46   2.0000      -0.396750       -10.7961
  47   2.0000      -0.391364       -10.6496
  48   2.0000      -0.381912       -10.3924
  49   2.0000      -0.373812       -10.1720
  50   2.0000      -0.363335        -9.8868
  51   2.0000      -0.347807        -9.4643
  52   2.0000      -0.342553        -9.3213
  53   2.0000      -0.336801        -9.1648
  54   2.0000      -0.334337        -9.0978
  55   2.0000      -0.323198        -8.7947
  56   2.0000      -0.309562        -8.4236
  57   2.0000      -0.296853        -8.0778
  58   2.0000      -0.256988        -6.9930
  59   2.0000      -0.148702        -4.0464
  60   0.0000      -0.008177        -0.2225
  61   0.0000       0.009694         0.2638
  62   0.0000       0.013575         0.3694
  63   0.0000       0.021907         0.5961
  64   0.0000       0.032865         0.8943

MULLIKEN ATOMIC CHARGES
-----------------------
   0 C :   -0.179386
   1 C :   -0.626601
   2 C :   -0.343215
   3 C :   -0.406855
   4 H :    0.292844
   5 H :    0.223205
   6 S :    0.873690
   7 C :   -0.496484
   8 N :   -0.196372
   9 N :   -0.253255
  10 H :    0.178439
  11 H :    0.110883
  12 H :    0.942707
  13 H :    0.266316
  14 H :    0.082004
  15 F :   -0.096390
  16 O :   -0.567829
  17 C :   -0.190260
  18 H :    0.259662
  19 H :    0.119447
  20 C :   -0.228552
  21 H :    0.150428
  22 H :    0.149981
  23 C :   -0.285132
  24 H :    0.126156
  25 H :    0.124768
  26 O :   -0.664376
  27 H :    0.190332
  28 H :    0.142521
  29 H :    0.127293
  30 H :    0.174034
Sum of atomic charges:    0.0000000

LOEWDIN ATOMIC CHARGES
----------------------
   0 C :   -0.228362
   1 C :   -0.149794
   2 C :   -0.215606
   3 C :   -0.226163
   4 H :    0.107246
   5 H :    0.102519
   6 S :    0.650244
   7 C :   -0.535507
   8 N :    0.117200
   9 N :    0.126647
  10 H :    0.098516
  11 H :    0.093411
  12 H :    0.022143
  13 H :    0.061185
  14 H :    0.099851
  15 F :   -0.038473
  16 O :   -0.241611
  17 C :   -0.197901
  18 H :    0.098227
  19 H :    0.104848
  20 C :   -0.206843
  21 H :    0.113192
  22 H :    0.122934
  23 C :   -0.211490
  24 H :    0.107594
  25 H :    0.104715
  26 O :   -0.325925
  27 H :    0.103860
  28 H :    0.113974
  29 H :    0.105419
  30 H :    0.123950

  Mayer bond orders larger than 0.100000
B(  0-C ,  1-C ) :   0.6740 B(  0-C ,  7-C ) :   0.2311 B(  0-C , 17-C ) :   0.8276
B(  0-C , 18-H ) :   0.9138 B(  0-C , 19-H ) :   0.9357 B(  0-C , 20-C ) :   0.1695
B(  1-C ,  7-C ) :   1.7139 B(  1-C ,  8-N ) :  -0.1662 B(  1-C , 12-H ) :   0.4563
B(  1-C , 23-C ) :   0.2400 B(  1-C , 26-O ) :   0.2509 B(  2-C ,  3-C ) :   1.1125
B(  2-C ,  6-S ) :   0.1364 B(  2-C , 20-C ) :   1.1150 B(  2-C , 21-H ) :   0.9074
B(  2-C , 22-H ) :   0.9217 B(  2-C , 23-C ) :   0.2536 B(  3-C ,  4-H ) :   0.8612
B(  3-C ,  5-H ) :   0.8742 B(  3-C ,  6-S ) :   0.7495 B(  3-C , 16-O ) :   0.1103
B(  3-C , 23-C ) :   0.1587 B(  6-S , 15-F ) :   1.0073 B(  6-S , 16-O ) :   1.7408
B(  6-S , 26-O ) :   1.8359 B(  7-C ,  8-N ) :   1.2003 B(  7-C ,  9-N ) :   1.0924
B(  7-C , 12-H ) :  -0.2562 B(  7-C , 17-C ) :   0.1912 B(  8-N , 13-H ) :   0.9183
B(  8-N , 14-H ) :   1.0685 B(  9-N , 10-H ) :   0.9500 B(  9-N , 11-H ) :   1.0615
B( 12-H , 26-O ) :  -0.3919 B( 17-C , 20-C ) :   0.2243 B( 17-C , 23-C ) :   1.1688
B( 17-C , 24-H ) :   0.9224 B( 17-C , 25-H ) :   0.8828 B( 20-C , 23-C ) :   0.6181
B( 20-C , 29-H ) :   0.9971 B( 20-C , 30-H ) :   0.8682 B( 23-C , 27-H ) :   1.0103
B( 23-C , 28-H ) :   0.9297

Dispersion correction           -0.033191757
FINAL SINGLE POINT ENERGY     -1072.415961218490

DIPOLE MOMENT
-------------
                                X             Y             Z
Electronic contribution:      0.72137      -1.01783     -23.53358
Nuclear contribution   :      0.18720       2.58739      22.98820
                        -----------------------------------------
Total Dipole Moment    :      0.90857       1.56956      -0.54537
                        -----------------------------------------
Magnitude (a.u.)       :      1.89380
Magnitude (Debye)      :      4.81365

Rotational constants in cm-1:     0.028798     0.014448     0.010940
Rotational constants in MHz :   863.355869   433.126694   327.985023

                             ****ORCA TERMINATED NORMALLY****
TOTAL RUN TIME: 0 days 0 hours 6 minutes 39 seconds 331 msec
