                         Program Version 5.0.0 -  RELEASE  -
|  1> !PBE0 D3BJ RIJCOSX def2-TZVPD def2/J TightSCF xyzfile
|  2>
|  3> *xyzfile 0 1 D2.xyz
|  4>
|  5> %MaxCore 64000
|  6>
|  7> %pal nprocs 4
|  8> end
|  9>
| 10> %scf
| 11>   MaxIter 150
| 12> end
| 13>
| 14>
| 15>                          ****END OF INPUT****

CARTESIAN COORDINATES (ANGSTROEM)
---------------------------------
  C      1.963365   -1.749150   -1.896887
  N      2.738490   -2.015170   -3.097113
  C      0.611877    1.657634   -4.500288
  C      1.694991    1.541794   -5.570447
  H      2.697326    1.734659   -5.183996
  H      1.506656    2.272239   -6.358076
  S      1.780287   -0.033128   -6.428739
  C      4.049736   -2.154717   -3.152044
  C      4.658206   -1.986293   -4.318655
  N      4.764231   -2.454435   -2.050491
  H      4.287363   -2.776259   -1.217496
  H      5.750825   -2.658351   -2.125988
  H      2.345176   -1.690274   -3.971447
  H      4.109004   -1.592677   -5.071760
  H      5.649095   -2.156462   -4.427237
  F      2.569287    0.213657   -7.607360
  O      0.416880   -0.462969   -6.618595
  C      2.088520   -0.300912   -1.415204
  H      2.231272   -2.451616   -1.102643
  H      0.930249   -1.977801   -2.155438
  C      0.680356    0.655418   -3.348038
  H     -0.356865    1.549231   -4.991128
  H      0.650228    2.675438   -4.096000
  C      1.968993    0.733582   -2.535654
  H      3.051356   -0.168602   -0.911868
  H      1.316501   -0.136231   -0.657252
  O      2.505129   -0.933263   -5.482570
  H      2.824195    0.624726   -3.208464
  H      2.058919    1.730331   -2.093112
  H      0.542252   -0.344731   -3.766662
  H     -0.174219    0.829692   -2.685182

 Total Charge           Charge          ....    0
 Multiplicity           Mult            ....    1
 Number of Electrons    NEL             ....  120
 Basis Dimension        Dim             ....  689

ORBITAL ENERGIES
----------------

  NO   OCC          E(Eh)            E(eV)
   0   2.0000     -89.274959     -2429.2951
   1   2.0000     -24.905005      -677.6996
   2   2.0000     -19.232891      -523.3536
   3   2.0000     -19.217690      -522.9399
   4   2.0000     -14.365160      -390.8959
   5   2.0000     -14.352775      -390.5589
   6   2.0000     -10.288584      -279.9666
   7   2.0000     -10.254083      -279.0278
   8   2.0000     -10.244287      -278.7612
   9   2.0000     -10.241482      -278.6849
  10   2.0000     -10.228629      -278.3351
  11   2.0000     -10.218836      -278.0687
  12   2.0000     -10.214051      -277.9385
  13   2.0000     -10.102251      -274.8962
  14   2.0000      -8.221575      -223.7204
  15   2.0000      -6.161632      -167.6665
  16   2.0000      -6.155664      -167.5041
  17   2.0000      -6.155555      -167.5012
  18   2.0000      -1.429478       -38.8981
  19   2.0000      -1.146132       -31.1878
  20   2.0000      -1.047306       -28.4987
  21   2.0000      -0.973640       -26.4941
  22   2.0000      -0.890414       -24.2294
  23   2.0000      -0.866231       -23.5713
  24   2.0000      -0.817060       -22.2333
  25   2.0000      -0.783264       -21.3137
  26   2.0000      -0.745680       -20.2910
  27   2.0000      -0.718827       -19.5603
  28   2.0000      -0.680845       -18.5267
  29   2.0000      -0.646358       -17.5883
  30   2.0000      -0.623739       -16.9728
  31   2.0000      -0.612780       -16.6746
  32   2.0000      -0.607193       -16.5226
  33   2.0000      -0.583246       -15.8709
  34   2.0000      -0.575182       -15.6515
  35   2.0000      -0.532498       -14.4900
  36   2.0000      -0.517446       -14.0804
  37   2.0000      -0.513730       -13.9793
  38   2.0000      -0.492940       -13.4136
  39   2.0000      -0.489731       -13.3263
  40   2.0000      -0.480575       -13.0771
  41   2.0000      -0.472832       -12.8664
  42   2.0000      -0.454555       -12.3691
  43   2.0000      -0.445630       -12.1262
  44   2.0000      -0.429894       -11.6980
  45   2.0000      -0.415190       -11.2979
  46   2.0000      -0.400767       -10.9054
  47   2.0000      -0.397372       -10.8130
  48   2.0000      -0.385336       -10.4855
  49   2.0000      -0.376571       -10.2470
  50   2.0000      -0.368465       -10.0264
  51   2.0000      -0.367514       -10.0006
  52   2.0000      -0.360781        -9.8173
  53   2.0000      -0.345779        -9.4091
  54   2.0000      -0.341230        -9.2853
  55   2.0000      -0.335451        -9.1281
  56   2.0000      -0.331333        -9.0160
  57   2.0000      -0.317037        -8.6270
  58   2.0000      -0.244803        -6.6614
  59   2.0000      -0.151035        -4.1099
  60   0.0000      -0.007761        -0.2112
  61   0.0000       0.006365         0.1732
  62   0.0000       0.014660         0.3989
  63   0.0000       0.018124         0.4932
  64   0.0000       0.031072         0.8455

MULLIKEN ATOMIC CHARGES
-----------------------
   0 C :   -0.712939
   1 N :    0.055750
   2 C :   -0.338251
   3 C :   -0.423104
   4 H :    0.300652
   5 H :    0.225109
   6 S :    0.893673
   7 C :    0.711479
   8 C :   -1.514561
   9 N :   -0.265349
  10 H :    0.135997
  11 H :    0.150297
  12 H :    0.297296
  13 H :    0.624658
  14 H :    0.180275
  15 F :   -0.094392
  16 O :   -0.577120
  17 C :   -0.090510
  18 H :    0.188381
  19 H :    0.197521
  20 C :   -0.308351
  21 H :    0.151532
  22 H :    0.145368
  23 C :   -0.288336
  24 H :    0.149493
  25 H :    0.166783
  26 O :   -0.675224
  27 H :    0.239641
  28 H :    0.140328
  29 H :    0.176485
  30 H :    0.157419
Sum of atomic charges:   -0.0000000

LOEWDIN ATOMIC CHARGES
----------------------
   0 C :   -0.191320
   1 N :    0.027355
   2 C :   -0.214435
   3 C :   -0.224734
   4 H :    0.108996
   5 H :    0.103359
   6 S :    0.652081
   7 C :   -0.559208
   8 C :    0.003747
   9 N :    0.121122
  10 H :    0.087326
  11 H :    0.105707
  12 H :    0.078655
  13 H :   -0.025374
  14 H :    0.009190
  15 F :   -0.029843
  16 O :   -0.245835
  17 C :   -0.185574
  18 H :    0.107007
  19 H :    0.114092
  20 C :   -0.211146
  21 H :    0.113950
  22 H :    0.123987
  23 C :   -0.207487
  24 H :    0.108288
  25 H :    0.108414
  26 O :   -0.326392
  27 H :    0.105186
  28 H :    0.117257
  29 H :    0.101681
  30 H :    0.123951

  Mayer bond orders larger than 0.100000
B(  0-C ,  1-N ) :   1.0421 B(  0-C ,  9-N ) :   0.1154 B(  0-C , 17-C ) :   0.7953
B(  0-C , 18-H ) :   0.9418 B(  0-C , 19-H ) :   0.9920 B(  0-C , 20-C ) :   0.1717
B(  1-N ,  7-C ) :   1.0398 B(  1-N , 12-H ) :   0.7887 B(  2-C ,  3-C ) :   1.0961
B(  2-C ,  6-S ) :   0.1366 B(  2-C , 20-C ) :   1.1357 B(  2-C , 21-H ) :   0.9061
B(  2-C , 22-H ) :   0.9209 B(  2-C , 23-C ) :   0.2465 B(  3-C ,  4-H ) :   0.8656
B(  3-C ,  5-H ) :   0.8803 B(  3-C ,  6-S ) :   0.7430 B(  3-C , 23-C ) :   0.1730
B(  6-S , 15-F ) :   1.0180 B(  6-S , 16-O ) :   1.7353 B(  6-S , 26-O ) :   1.8413
B(  7-C ,  8-C ) :   1.2063 B(  7-C ,  9-N ) :   1.0541 B(  7-C , 12-H ) :  -0.1053
B(  7-C , 14-H ) :  -0.1577 B(  8-C , 13-H ) :   0.6472 B(  8-C , 14-H ) :   1.1297
B(  8-C , 26-O ) :   0.1884 B(  9-N , 10-H ) :   1.0006 B(  9-N , 11-H ) :   1.0105
B( 13-H , 26-O ) :  -0.2313 B( 17-C , 20-C ) :   0.2135 B( 17-C , 23-C ) :   1.2061
B( 17-C , 24-H ) :   0.9192 B( 17-C , 25-H ) :   0.9781 B( 20-C , 23-C ) :   0.6068
B( 20-C , 29-H ) :   0.9813 B( 20-C , 30-H ) :   0.8895 B( 23-C , 27-H ) :   0.9737
B( 23-C , 28-H ) :   0.9039

Dispersion correction           -0.033028518
FINAL SINGLE POINT ENERGY     -1072.411203603137

DIPOLE MOMENT
-------------
                                X             Y             Z
Electronic contribution:     -0.89884      -0.82772     -22.49809
Nuclear contribution   :      0.43347       2.59110      22.83150
                        -----------------------------------------
Total Dipole Moment    :     -0.46538       1.76338       0.33341
                        -----------------------------------------
Magnitude (a.u.)       :      1.85398
Magnitude (Debye)      :      4.71245

Rotational constants in cm-1:     0.029257     0.014415     0.010996
Rotational constants in MHz :   877.098782   432.159206   329.643335

                             ****ORCA TERMINATED NORMALLY****
TOTAL RUN TIME: 0 days 0 hours 6 minutes 35 seconds 133 msec
