                         Program Version 5.0.0 -  RELEASE  -
|  1> !PBE0 D3BJ RIJCOSX def2-TZVPD def2/J TightSCF xyzfile
|  2>
|  3> *xyzfile 0 1 D3.xyz
|  4>
|  5> %MaxCore 64000
|  6>
|  7> %pal nprocs 4
|  8> end
|  9>
| 10> %scf
| 11>   MaxIter 150
| 12> end
| 13>
| 14>
| 15>                          ****END OF INPUT****

CARTESIAN COORDINATES (ANGSTROEM)
---------------------------------
  C      1.963365   -1.749150   -1.896887
  N      2.738490   -2.015170   -3.097113
  C      0.611877    1.657634   -4.500288
  C      1.694991    1.541794   -5.570447
  H      2.697326    1.734659   -5.183996
  H      1.506656    2.272239   -6.358076
  S      1.780287   -0.033128   -6.428739
  C      4.049736   -2.154717   -3.152044
  N      4.658206   -1.986293   -4.318655
  C      4.764231   -2.454435   -2.050491
  H      4.287363   -2.776259   -1.217496
  H      5.750825   -2.658351   -2.125988
  H      2.345176   -1.690274   -3.971447
  H      4.109004   -1.592677   -5.071760
  H      5.649095   -2.156462   -4.427237
  F      2.569287    0.213657   -7.607360
  O      0.416880   -0.462969   -6.618595
  C      2.088520   -0.300912   -1.415204
  H      2.231272   -2.451616   -1.102643
  H      0.930249   -1.977801   -2.155438
  C      0.680356    0.655418   -3.348038
  H     -0.356865    1.549231   -4.991128
  H      0.650228    2.675438   -4.096000
  C      1.968993    0.733582   -2.535654
  H      3.051356   -0.168602   -0.911868
  H      1.316501   -0.136231   -0.657252
  O      2.505129   -0.933263   -5.482570
  H      2.824195    0.624726   -3.208464
  H      2.058919    1.730331   -2.093112
  H      0.542252   -0.344731   -3.766662
  H     -0.174219    0.829692   -2.685182

 Total Charge           Charge          ....    0
 Multiplicity           Mult            ....    1
 Number of Electrons    NEL             ....  120
 Basis Dimension        Dim             ....  689

ORBITAL ENERGIES
----------------

  NO   OCC          E(Eh)            E(eV)
   0   2.0000     -89.291342     -2429.7409
   1   2.0000     -24.919630      -678.0976
   2   2.0000     -19.247392      -523.7482
   3   2.0000     -19.239292      -523.5277
   4   2.0000     -14.354096      -390.5948
   5   2.0000     -14.352198      -390.5432
   6   2.0000     -10.299396      -280.2608
   7   2.0000     -10.260257      -279.1958
   8   2.0000     -10.242791      -278.7205
   9   2.0000     -10.237750      -278.5833
  10   2.0000     -10.231653      -278.4174
  11   2.0000     -10.219590      -278.0892
  12   2.0000     -10.208590      -277.7899
  13   2.0000     -10.110534      -275.1216
  14   2.0000      -8.237895      -224.1645
  15   2.0000      -6.178031      -168.1128
  16   2.0000      -6.172129      -167.9522
  17   2.0000      -6.171684      -167.9401
  18   2.0000      -1.444278       -39.3008
  19   2.0000      -1.162376       -31.6299
  20   2.0000      -1.066104       -29.0102
  21   2.0000      -0.974816       -26.5261
  22   2.0000      -0.888836       -24.1865
  23   2.0000      -0.873781       -23.7768
  24   2.0000      -0.820442       -22.3254
  25   2.0000      -0.784247       -21.3405
  26   2.0000      -0.747077       -20.3290
  27   2.0000      -0.711560       -19.3625
  28   2.0000      -0.699574       -19.0364
  29   2.0000      -0.658027       -17.9058
  30   2.0000      -0.635090       -17.2817
  31   2.0000      -0.623578       -16.9684
  32   2.0000      -0.609498       -16.5853
  33   2.0000      -0.589162       -16.0319
  34   2.0000      -0.557226       -15.1629
  35   2.0000      -0.540663       -14.7122
  36   2.0000      -0.532767       -14.4973
  37   2.0000      -0.522372       -14.2145
  38   2.0000      -0.511945       -13.9307
  39   2.0000      -0.494684       -13.4610
  40   2.0000      -0.478948       -13.0328
  41   2.0000      -0.470498       -12.8029
  42   2.0000      -0.454736       -12.3740
  43   2.0000      -0.439697       -11.9648
  44   2.0000      -0.434902       -11.8343
  45   2.0000      -0.430185       -11.7059
  46   2.0000      -0.403944       -10.9919
  47   2.0000      -0.399037       -10.8583
  48   2.0000      -0.384579       -10.4649
  49   2.0000      -0.380620       -10.3572
  50   2.0000      -0.376634       -10.2487
  51   2.0000      -0.364830        -9.9275
  52   2.0000      -0.362925        -9.8757
  53   2.0000      -0.354796        -9.6545
  54   2.0000      -0.349065        -9.4985
  55   2.0000      -0.341490        -9.2924
  56   2.0000      -0.338415        -9.2088
  57   2.0000      -0.326603        -8.8873
  58   2.0000      -0.237270        -6.4564
  59   2.0000      -0.152769        -4.1570
  60   0.0000      -0.017804        -0.4845
  61   0.0000      -0.001178        -0.0320
  62   0.0000       0.011191         0.3045
  63   0.0000       0.019629         0.5341
  64   0.0000       0.027349         0.7442

MULLIKEN ATOMIC CHARGES
-----------------------
   0 C :   -0.729922
   1 N :    0.013607
   2 C :   -0.345128
   3 C :   -0.414139
   4 H :    0.299570
   5 H :    0.225693
   6 S :    0.898667
   7 C :    0.744684
   8 N :   -0.173892
   9 C :   -1.385631
  10 H :    0.225614
  11 H :    0.229934
  12 H :    0.423529
  13 H :    0.254701
  14 H :    0.098364
  15 F :   -0.092059
  16 O :   -0.555728
  17 C :   -0.109539
  18 H :    0.181335
  19 H :    0.210969
  20 C :   -0.282866
  21 H :    0.152314
  22 H :    0.152132
  23 C :   -0.285747
  24 H :    0.164306
  25 H :    0.177991
  26 O :   -0.741544
  27 H :    0.211228
  28 H :    0.134910
  29 H :    0.159938
  30 H :    0.156711
Sum of atomic charges:   -0.0000000

LOEWDIN ATOMIC CHARGES
----------------------
   0 C :   -0.185975
   1 N :    0.024830
   2 C :   -0.213683
   3 C :   -0.223677
   4 H :    0.108820
   5 H :    0.104807
   6 S :    0.656427
   7 C :   -0.565230
   8 N :    0.120627
   9 C :    0.000551
  10 H :   -0.004017
  11 H :   -0.001243
  12 H :    0.073352
  13 H :    0.052983
  14 H :    0.113242
  15 F :   -0.029986
  16 O :   -0.237419
  17 C :   -0.181336
  18 H :    0.112678
  19 H :    0.113880
  20 C :   -0.211384
  21 H :    0.114435
  22 H :    0.125241
  23 C :   -0.208799
  24 H :    0.108715
  25 H :    0.110501
  26 O :   -0.325832
  27 H :    0.103898
  28 H :    0.117430
  29 H :    0.101077
  30 H :    0.125086

  Mayer bond orders larger than 0.100000
B(  0-C ,  1-N ) :   0.9907 B(  0-C ,  9-C ) :   0.1256 B(  0-C , 12-H ) :  -0.1062
B(  0-C , 17-C ) :   0.8288 B(  0-C , 18-H ) :   0.9581 B(  0-C , 19-H ) :   0.9511
B(  0-C , 20-C ) :   0.1829 B(  1-N ,  7-C ) :   0.9923 B(  1-N , 12-H ) :   0.7217
B(  2-C ,  3-C ) :   1.0989 B(  2-C ,  6-S ) :   0.1344 B(  2-C , 20-C ) :   1.1330
B(  2-C , 21-H ) :   0.9089 B(  2-C , 22-H ) :   0.9207 B(  2-C , 23-C ) :   0.2486
B(  3-C ,  4-H ) :   0.8609 B(  3-C ,  5-H ) :   0.8734 B(  3-C ,  6-S ) :   0.7469
B(  3-C , 16-O ) :   0.1038 B(  3-C , 23-C ) :   0.1656 B(  6-S , 15-F ) :   1.0225
B(  6-S , 16-O ) :   1.7498 B(  6-S , 26-O ) :   1.8195 B(  7-C ,  8-N ) :   1.0307
B(  7-C ,  9-C ) :   1.1317 B(  8-N , 13-H ) :   0.9257 B(  8-N , 14-H ) :   1.0287
B(  9-C , 10-H ) :   0.9900 B(  9-C , 11-H ) :   1.0610 B( 17-C , 20-C ) :   0.2100
B( 17-C , 23-C ) :   1.2293 B( 17-C , 24-H ) :   0.9110 B( 17-C , 25-H ) :   0.9486
B( 20-C , 23-C ) :   0.6048 B( 20-C , 28-H ) :  -0.1009 B( 20-C , 29-H ) :   0.9914
B( 20-C , 30-H ) :   0.8844 B( 23-C , 27-H ) :   0.9919 B( 23-C , 28-H ) :   0.9056

Dispersion correction           -0.032971056
FINAL SINGLE POINT ENERGY     -1072.422302585383

DIPOLE MOMENT
-------------
                                X             Y             Z
Electronic contribution:     -1.13776      -0.23852     -24.52962
Nuclear contribution   :      0.44707       2.53104      23.12246
                        -----------------------------------------
Total Dipole Moment    :     -0.69069       2.29252      -1.40716
                        -----------------------------------------
Magnitude (a.u.)       :      2.77719
Magnitude (Debye)      :      7.05906

Rotational constants in cm-1:     0.028906     0.014696     0.011110
Rotational constants in MHz :   866.591909   440.585554   333.081943

                             ****ORCA TERMINATED NORMALLY****
TOTAL RUN TIME: 0 days 0 hours 6 minutes 35 seconds 352 msec
