                         Program Version 5.0.0 -  RELEASE  -
|  1> !PBE0 D3BJ RIJCOSX def2-TZVPD def2/J TightSCF xyzfile
|  2>
|  3> *xyzfile 0 1 D4.xyz
|  4>
|  5> %MaxCore 64000
|  6>
|  7> %pal nprocs 4
|  8> end
|  9>
| 10> %scf
| 11>   MaxIter 150
| 12> end
| 13>
| 14>
| 15>                          ****END OF INPUT****

CARTESIAN COORDINATES (ANGSTROEM)
---------------------------------
  C      1.963365   -1.749150   -1.896887
  C      2.738490   -2.015170   -3.097113
  C      0.611877    1.657634   -4.500288
  C      1.694991    1.541794   -5.570447
  H      2.697326    1.734659   -5.183996
  H      1.506656    2.272239   -6.358076
  S      1.780287   -0.033128   -6.428739
  C      4.049736   -2.154717   -3.152044
  N      4.658206   -1.986293   -4.318655
  N      4.764231   -2.454435   -2.050491
  H      4.287363   -2.776259   -1.217496
  H      5.750825   -2.658351   -2.125988
  H      2.345176   -1.690274   -3.971447
  H      4.109004   -1.592677   -5.071760
  H      5.649095   -2.156462   -4.427237
  O      2.569287    0.213657   -7.607360
  F      0.416880   -0.462969   -6.618595
  C      2.088520   -0.300912   -1.415204
  H      2.231272   -2.451616   -1.102643
  H      0.930249   -1.977801   -2.155438
  C      0.680356    0.655418   -3.348038
  H     -0.356865    1.549231   -4.991128
  H      0.650228    2.675438   -4.096000
  C      1.968993    0.733582   -2.535654
  H      3.051356   -0.168602   -0.911868
  H      1.316501   -0.136231   -0.657252
  O      2.505129   -0.933263   -5.482570
  H      2.824195    0.624726   -3.208464
  H      2.058919    1.730331   -2.093112
  H      0.542252   -0.344731   -3.766662
  H     -0.174219    0.829692   -2.685182

 Total Charge           Charge          ....    0
 Multiplicity           Mult            ....    1
 Number of Electrons    NEL             ....  120
 Basis Dimension        Dim             ....  689

ORBITAL ENERGIES
----------------

  NO   OCC          E(Eh)            E(eV)
   0   2.0000     -89.272839     -2429.2375
   1   2.0000     -24.903266      -677.6523
   2   2.0000     -19.230536      -523.2895
   3   2.0000     -19.216288      -522.9018
   4   2.0000     -14.368470      -390.9860
   5   2.0000     -14.352732      -390.5577
   6   2.0000     -10.285090      -279.8715
   7   2.0000     -10.250650      -278.9344
   8   2.0000     -10.241845      -278.6948
   9   2.0000     -10.222992      -278.1817
  10   2.0000     -10.207794      -277.7682
  11   2.0000     -10.196461      -277.4598
  12   2.0000     -10.184586      -277.1367
  13   2.0000     -10.110118      -275.1103
  14   2.0000      -8.219546      -223.6652
  15   2.0000      -6.159828      -167.6175
  16   2.0000      -6.153695      -167.4506
  17   2.0000      -6.153215      -167.4375
  18   2.0000      -1.426735       -38.8234
  19   2.0000      -1.145425       -31.1686
  20   2.0000      -1.045752       -28.4564
  21   2.0000      -0.965650       -26.2767
  22   2.0000      -0.875358       -23.8197
  23   2.0000      -0.864742       -23.5308
  24   2.0000      -0.816881       -22.2285
  25   2.0000      -0.777006       -21.1434
  26   2.0000      -0.749237       -20.3878
  27   2.0000      -0.716959       -19.5094
  28   2.0000      -0.674868       -18.3641
  29   2.0000      -0.640871       -17.4390
  30   2.0000      -0.621147       -16.9023
  31   2.0000      -0.617459       -16.8019
  32   2.0000      -0.602318       -16.3899
  33   2.0000      -0.571297       -15.5458
  34   2.0000      -0.562972       -15.3192
  35   2.0000      -0.538948       -14.6655
  36   2.0000      -0.512925       -13.9574
  37   2.0000      -0.509580       -13.8664
  38   2.0000      -0.494348       -13.4519
  39   2.0000      -0.488256       -13.2861
  40   2.0000      -0.482260       -13.1230
  41   2.0000      -0.459991       -12.5170
  42   2.0000      -0.451233       -12.2787
  43   2.0000      -0.445498       -12.1226
  44   2.0000      -0.432457       -11.7678
  45   2.0000      -0.409976       -11.1560
  46   2.0000      -0.400164       -10.8890
  47   2.0000      -0.393679       -10.7126
  48   2.0000      -0.385572       -10.4919
  49   2.0000      -0.378076       -10.2880
  50   2.0000      -0.365949        -9.9580
  51   2.0000      -0.353211        -9.6113
  52   2.0000      -0.349572        -9.5124
  53   2.0000      -0.342474        -9.3192
  54   2.0000      -0.331022        -9.0076
  55   2.0000      -0.325823        -8.8661
  56   2.0000      -0.312850        -8.5131
  57   2.0000      -0.292830        -7.9683
  58   2.0000      -0.256852        -6.9893
  59   2.0000      -0.149281        -4.0621
  60   0.0000      -0.010230        -0.2784
  61   0.0000       0.012851         0.3497
  62   0.0000       0.015098         0.4108
  63   0.0000       0.018356         0.4995
  64   0.0000       0.031212         0.8493

MULLIKEN ATOMIC CHARGES
-----------------------
   0 C :   -0.176857
   1 C :   -0.608370
   2 C :   -0.359440
   3 C :   -0.339019
   4 H :    0.275810
   5 H :    0.180825
   6 S :    0.869443
   7 C :   -0.500485
   8 N :   -0.191245
   9 N :   -0.254032
  10 H :    0.177205
  11 H :    0.112575
  12 H :    0.928485
  13 H :    0.254580
  14 H :    0.085961
  15 O :   -0.557386
  16 F :   -0.130833
  17 C :   -0.188139
  18 H :    0.256180
  19 H :    0.112531
  20 C :   -0.130343
  21 H :    0.153035
  22 H :    0.152982
  23 C :   -0.287121
  24 H :    0.130402
  25 H :    0.125105
  26 O :   -0.655901
  27 H :    0.179829
  28 H :    0.146999
  29 H :    0.076331
  30 H :    0.160892
Sum of atomic charges:   -0.0000000

LOEWDIN ATOMIC CHARGES
----------------------
   0 C :   -0.230789
   1 C :   -0.154771
   2 C :   -0.226239
   3 C :   -0.216239
   4 H :    0.117028
   5 H :    0.105755
   6 S :    0.648679
   7 C :   -0.535244
   8 N :    0.122690
   9 N :    0.127033
  10 H :    0.098348
  11 H :    0.094004
  12 H :    0.017491
  13 H :    0.066892
  14 H :    0.101931
  15 O :   -0.253923
  16 F :   -0.027714
  17 C :   -0.197672
  18 H :    0.098061
  19 H :    0.102804
  20 C :   -0.212135
  21 H :    0.108955
  22 H :    0.121561
  23 C :   -0.209309
  24 H :    0.108369
  25 H :    0.104564
  26 O :   -0.325428
  27 H :    0.105382
  28 H :    0.115199
  29 H :    0.101398
  30 H :    0.123315

  Mayer bond orders larger than 0.100000
B(  0-C ,  1-C ) :   0.6681 B(  0-C ,  7-C ) :   0.2298 B(  0-C , 17-C ) :   0.8278
B(  0-C , 18-H ) :   0.9177 B(  0-C , 19-H ) :   0.9347 B(  0-C , 20-C ) :   0.1745
B(  1-C ,  7-C ) :   1.7202 B(  1-C ,  8-N ) :  -0.1659 B(  1-C , 12-H ) :   0.5412
B(  1-C , 23-C ) :   0.2315 B(  1-C , 26-O ) :   0.3039 B(  2-C ,  3-C ) :   1.0491
B(  2-C ,  6-S ) :   0.1346 B(  2-C , 20-C ) :   1.0480 B(  2-C , 21-H ) :   0.9396
B(  2-C , 22-H ) :   0.9255 B(  2-C , 23-C ) :   0.2655 B(  3-C ,  4-H ) :   0.8780
B(  3-C ,  5-H ) :   0.9687 B(  3-C ,  6-S ) :   0.7427 B(  3-C , 15-O ) :   0.1233
B(  3-C , 23-C ) :   0.1557 B(  3-C , 26-O ) :   0.1008 B(  6-S , 15-O ) :   1.6792
B(  6-S , 16-F ) :   1.0481 B(  6-S , 26-O ) :   1.8661 B(  7-C ,  8-N ) :   1.1986
B(  7-C ,  9-N ) :   1.0971 B(  7-C , 12-H ) :  -0.2625 B(  7-C , 17-C ) :   0.1924
B(  8-N , 13-H ) :   0.9208 B(  8-N , 14-H ) :   1.0648 B(  9-N , 10-H ) :   0.9503
B(  9-N , 11-H ) :   1.0605 B( 12-H , 26-O ) :  -0.4792 B( 17-C , 20-C ) :   0.2249
B( 17-C , 23-C ) :   1.1741 B( 17-C , 24-H ) :   0.9183 B( 17-C , 25-H ) :   0.8807
B( 20-C , 23-C ) :   0.6796 B( 20-C , 29-H ) :   0.9805 B( 20-C , 30-H ) :   0.8885
B( 23-C , 27-H ) :   1.0136 B( 23-C , 28-H ) :   0.9222

Dispersion correction           -0.033091169
FINAL SINGLE POINT ENERGY     -1072.415533914015

DIPOLE MOMENT
-------------
                                X             Y             Z
Electronic contribution:     -2.99702      -2.17738     -21.75572
Nuclear contribution   :      2.64598       3.36033      21.85869
                        -----------------------------------------
Total Dipole Moment    :     -0.35103       1.18295       0.10297
                        -----------------------------------------
Magnitude (a.u.)       :      1.23823
Magnitude (Debye)      :      3.14733

Rotational constants in cm-1:     0.028973     0.014435     0.011026
Rotational constants in MHz :   868.588266   432.748309   330.548534

                             ****ORCA TERMINATED NORMALLY****
TOTAL RUN TIME: 0 days 0 hours 6 minutes 35 seconds 508 msec
