                         Program Version 5.0.0 -  RELEASE  -
|  1> !PBE0 D3BJ RIJCOSX def2-TZVPD def2/J TightSCF xyzfile
|  2>
|  3> *xyzfile 0 1 D5.xyz
|  4>
|  5> %MaxCore 64000
|  6>
|  7> %pal nprocs 4
|  8> end
|  9>
| 10> %scf
| 11>   MaxIter 150
| 12> end
| 13>
| 14>
| 15>                          ****END OF INPUT****

CARTESIAN COORDINATES (ANGSTROEM)
---------------------------------
  C      1.963365   -1.749150   -1.896887
  N      2.738490   -2.015170   -3.097113
  C      0.611877    1.657634   -4.500288
  C      1.694991    1.541794   -5.570447
  H      2.697326    1.734659   -5.183996
  H      1.506656    2.272239   -6.358076
  S      1.780287   -0.033128   -6.428739
  C      4.049736   -2.154717   -3.152044
  C      4.658206   -1.986293   -4.318655
  N      4.764231   -2.454435   -2.050491
  H      4.287363   -2.776259   -1.217496
  H      5.750825   -2.658351   -2.125988
  H      2.345176   -1.690274   -3.971447
  H      4.109004   -1.592677   -5.071760
  H      5.649095   -2.156462   -4.427237
  O      2.569287    0.213657   -7.607360
  F      0.416880   -0.462969   -6.618595
  C      2.088520   -0.300912   -1.415204
  H      2.231272   -2.451616   -1.102643
  H      0.930249   -1.977801   -2.155438
  C      0.680356    0.655418   -3.348038
  H     -0.356865    1.549231   -4.991128
  H      0.650228    2.675438   -4.096000
  C      1.968993    0.733582   -2.535654
  H      3.051356   -0.168602   -0.911868
  H      1.316501   -0.136231   -0.657252
  O      2.505129   -0.933263   -5.482570
  H      2.824195    0.624726   -3.208464
  H      2.058919    1.730331   -2.093112
  H      0.542252   -0.344731   -3.766662
  H     -0.174219    0.829692   -2.685182

 Total Charge           Charge          ....    0
 Multiplicity           Mult            ....    1
 Number of Electrons    NEL             ....  120
 Basis Dimension        Dim             ....  689

ORBITAL ENERGIES
----------------

  NO   OCC          E(Eh)            E(eV)
   0   2.0000     -89.273794     -2429.2634
   1   2.0000     -24.904378      -677.6826
   2   2.0000     -19.231790      -523.3236
   3   2.0000     -19.218710      -522.9677
   4   2.0000     -14.365149      -390.8956
   5   2.0000     -14.352851      -390.5609
   6   2.0000     -10.287866      -279.9471
   7   2.0000     -10.258232      -279.1407
   8   2.0000     -10.246918      -278.8328
   9   2.0000     -10.241038      -278.6728
  10   2.0000     -10.236647      -278.5533
  11   2.0000     -10.223086      -278.1843
  12   2.0000     -10.217026      -278.0194
  13   2.0000     -10.102140      -274.8932
  14   2.0000      -8.220512      -223.6915
  15   2.0000      -6.160918      -167.6471
  16   2.0000      -6.154644      -167.4764
  17   2.0000      -6.154105      -167.4617
  18   2.0000      -1.428199       -38.8633
  19   2.0000      -1.146226       -31.1904
  20   2.0000      -1.047175       -28.4951
  21   2.0000      -0.974053       -26.5053
  22   2.0000      -0.891051       -24.2467
  23   2.0000      -0.871221       -23.7071
  24   2.0000      -0.818992       -22.2859
  25   2.0000      -0.781963       -21.2783
  26   2.0000      -0.747409       -20.3380
  27   2.0000      -0.722119       -19.6499
  28   2.0000      -0.682251       -18.5650
  29   2.0000      -0.648615       -17.6497
  30   2.0000      -0.623669       -16.9709
  31   2.0000      -0.622174       -16.9302
  32   2.0000      -0.608399       -16.5554
  33   2.0000      -0.588463       -16.0129
  34   2.0000      -0.567493       -15.4423
  35   2.0000      -0.533508       -14.5175
  36   2.0000      -0.516913       -14.0659
  37   2.0000      -0.510767       -13.8987
  38   2.0000      -0.495074       -13.4716
  39   2.0000      -0.489392       -13.3170
  40   2.0000      -0.484940       -13.1959
  41   2.0000      -0.474641       -12.9156
  42   2.0000      -0.458628       -12.4799
  43   2.0000      -0.444864       -12.1054
  44   2.0000      -0.438820       -11.9409
  45   2.0000      -0.413329       -11.2472
  46   2.0000      -0.409821       -11.1518
  47   2.0000      -0.400488       -10.8978
  48   2.0000      -0.391302       -10.6479
  49   2.0000      -0.377411       -10.2699
  50   2.0000      -0.374223       -10.1831
  51   2.0000      -0.364686        -9.9236
  52   2.0000      -0.353113        -9.6087
  53   2.0000      -0.345983        -9.4147
  54   2.0000      -0.342939        -9.3318
  55   2.0000      -0.338661        -9.2154
  56   2.0000      -0.332958        -9.0602
  57   2.0000      -0.323925        -8.8145
  58   2.0000      -0.245450        -6.6790
  59   2.0000      -0.150742        -4.1019
  60   0.0000      -0.012549        -0.3415
  61   0.0000       0.010508         0.2860
  62   0.0000       0.010766         0.2930
  63   0.0000       0.015905         0.4328
  64   0.0000       0.029832         0.8118

MULLIKEN ATOMIC CHARGES
-----------------------
   0 C :   -0.715001
   1 N :    0.048715
   2 C :   -0.355562
   3 C :   -0.359623
   4 H :    0.279724
   5 H :    0.181678
   6 S :    0.883870
   7 C :    0.730483
   8 C :   -1.572092
   9 N :   -0.266935
  10 H :    0.134669
  11 H :    0.150703
  12 H :    0.312121
  13 H :    0.680063
  14 H :    0.171006
  15 O :   -0.549139
  16 F :   -0.132874
  17 C :   -0.096525
  18 H :    0.190260
  19 H :    0.187880
  20 C :   -0.210093
  21 H :    0.153341
  22 H :    0.149131
  23 C :   -0.293302
  24 H :    0.152665
  25 H :    0.168892
  26 O :   -0.671923
  27 H :    0.235322
  28 H :    0.144557
  29 H :    0.121571
  30 H :    0.146420
Sum of atomic charges:   -0.0000000

LOEWDIN ATOMIC CHARGES
----------------------
   0 C :   -0.193344
   1 N :    0.023168
   2 C :   -0.225116
   3 C :   -0.215493
   4 H :    0.118523
   5 H :    0.106466
   6 S :    0.648498
   7 C :   -0.559717
   8 C :    0.010313
   9 N :    0.120714
  10 H :    0.086848
  11 H :    0.105963
  12 H :    0.074051
  13 H :   -0.019154
  14 H :    0.011581
  15 O :   -0.244134
  16 F :   -0.032037
  17 C :   -0.185230
  18 H :    0.106960
  19 H :    0.112223
  20 C :   -0.216698
  21 H :    0.109753
  22 H :    0.122546
  23 C :   -0.205288
  24 H :    0.109073
  25 H :    0.108281
  26 O :   -0.324595
  27 H :    0.106693
  28 H :    0.118486
  29 H :    0.097394
  30 H :    0.123273

  Mayer bond orders larger than 0.100000
B(  0-C ,  1-N ) :   1.0413 B(  0-C ,  9-N ) :   0.1163 B(  0-C , 17-C ) :   0.7899
B(  0-C , 18-H ) :   0.9385 B(  0-C , 19-H ) :   1.0001 B(  0-C , 20-C ) :   0.1716
B(  1-N ,  7-C ) :   1.0424 B(  1-N , 12-H ) :   0.7881 B(  2-C ,  3-C ) :   1.0316
B(  2-C ,  6-S ) :   0.1346 B(  2-C , 20-C ) :   1.0715 B(  2-C , 21-H ) :   0.9394
B(  2-C , 22-H ) :   0.9243 B(  2-C , 23-C ) :   0.2582 B(  3-C ,  4-H ) :   0.8865
B(  3-C ,  5-H ) :   0.9751 B(  3-C ,  6-S ) :   0.7453 B(  3-C , 15-O ) :   0.1305
B(  3-C , 23-C ) :   0.1676 B(  6-S , 15-O ) :   1.6872 B(  6-S , 16-F ) :   1.0296
B(  6-S , 26-O ) :   1.8479 B(  7-C ,  8-C ) :   1.1741 B(  7-C ,  9-N ) :   1.0527
B(  7-C , 14-H ) :  -0.1673 B(  8-C , 13-H ) :   0.5703 B(  8-C , 14-H ) :   1.1475
B(  8-C , 26-O ) :   0.2131 B(  9-N , 10-H ) :   1.0021 B(  9-N , 11-H ) :   1.0100
B( 13-H , 14-H ) :   0.1016 B( 13-H , 26-O ) :  -0.2051 B( 17-C , 20-C ) :   0.2114
B( 17-C , 23-C ) :   1.2143 B( 17-C , 24-H ) :   0.9190 B( 17-C , 25-H ) :   0.9775
B( 20-C , 23-C ) :   0.6702 B( 20-C , 29-H ) :   0.9675 B( 20-C , 30-H ) :   0.9117
B( 23-C , 27-H ) :   0.9770 B( 23-C , 28-H ) :   0.8927

Dispersion correction           -0.032931596
FINAL SINGLE POINT ENERGY     -1072.410609336707

DIPOLE MOMENT
-------------
                                X             Y             Z
Electronic contribution:     -4.61345      -1.99750     -20.72821
Nuclear contribution   :      2.89225       3.36404      21.70199
                        -----------------------------------------
Total Dipole Moment    :     -1.72120       1.36654       0.97378
                        -----------------------------------------
Magnitude (a.u.)       :      2.40379
Magnitude (Debye)      :      6.10995

Rotational constants in cm-1:     0.029431     0.014408     0.011084
Rotational constants in MHz :   882.306106   431.946714   332.288152

                             ****ORCA TERMINATED NORMALLY****
TOTAL RUN TIME: 0 days 0 hours 6 minutes 34 seconds 380 msec
