                         Program Version 5.0.0 -  RELEASE  -
|  1> !PBE0 D3BJ RIJCOSX def2-TZVPD def2/J TightSCF xyzfile
|  2>
|  3> *xyzfile 0 1 D6.xyz
|  4>
|  5> %MaxCore 64000
|  6>
|  7> %pal nprocs 4
|  8> end
|  9>
| 10> %scf
| 11>   MaxIter 150
| 12> end
| 13>
| 14>
| 15>                          ****END OF INPUT****

CARTESIAN COORDINATES (ANGSTROEM)
---------------------------------
  C      1.963365   -1.749150   -1.896887
  N      2.738490   -2.015170   -3.097113
  C      0.611877    1.657634   -4.500288
  C      1.694991    1.541794   -5.570447
  H      2.697326    1.734659   -5.183996
  H      1.506656    2.272239   -6.358076
  S      1.780287   -0.033128   -6.428739
  C      4.049736   -2.154717   -3.152044
  N      4.658206   -1.986293   -4.318655
  C      4.764231   -2.454435   -2.050491
  H      4.287363   -2.776259   -1.217496
  H      5.750825   -2.658351   -2.125988
  H      2.345176   -1.690274   -3.971447
  H      4.109004   -1.592677   -5.071760
  H      5.649095   -2.156462   -4.427237
  O      2.569287    0.213657   -7.607360
  F      0.416880   -0.462969   -6.618595
  C      2.088520   -0.300912   -1.415204
  H      2.231272   -2.451616   -1.102643
  H      0.930249   -1.977801   -2.155438
  C      0.680356    0.655418   -3.348038
  H     -0.356865    1.549231   -4.991128
  H      0.650228    2.675438   -4.096000
  C      1.968993    0.733582   -2.535654
  H      3.051356   -0.168602   -0.911868
  H      1.316501   -0.136231   -0.657252
  O      2.505129   -0.933263   -5.482570
  H      2.824195    0.624726   -3.208464
  H      2.058919    1.730331   -2.093112
  H      0.542252   -0.344731   -3.766662
  H     -0.174219    0.829692   -2.685182

 Total Charge           Charge          ....    0
 Multiplicity           Mult            ....    1
 Number of Electrons    NEL             ....  120
 Basis Dimension        Dim             ....  689

ORBITAL ENERGIES
----------------

  NO   OCC          E(Eh)            E(eV)
   0   2.0000     -89.291050     -2429.7330
   1   2.0000     -24.918786      -678.0746
   2   2.0000     -19.246816      -523.7325
   3   2.0000     -19.238931      -523.5179
   4   2.0000     -14.354519      -390.6063
   5   2.0000     -14.351503      -390.5242
   6   2.0000     -10.299052      -280.2515
   7   2.0000     -10.264487      -279.3109
   8   2.0000     -10.242954      -278.7249
   9   2.0000     -10.240627      -278.6616
  10   2.0000     -10.239849      -278.6405
  11   2.0000     -10.223987      -278.2088
  12   2.0000     -10.211770      -277.8764
  13   2.0000     -10.110823      -275.1295
  14   2.0000      -8.237605      -224.1566
  15   2.0000      -6.177904      -168.1093
  16   2.0000      -6.171930      -167.9468
  17   2.0000      -6.171153      -167.9256
  18   2.0000      -1.442342       -39.2481
  19   2.0000      -1.163083       -31.6491
  20   2.0000      -1.065812       -29.0022
  21   2.0000      -0.975176       -26.5359
  22   2.0000      -0.889694       -24.2098
  23   2.0000      -0.878175       -23.8964
  24   2.0000      -0.821864       -22.3641
  25   2.0000      -0.782471       -21.2921
  26   2.0000      -0.751308       -20.4441
  27   2.0000      -0.713274       -19.4092
  28   2.0000      -0.700894       -19.0723
  29   2.0000      -0.660283       -17.9672
  30   2.0000      -0.635410       -17.2904
  31   2.0000      -0.632935       -17.2230
  32   2.0000      -0.606831       -16.5127
  33   2.0000      -0.592015       -16.1096
  34   2.0000      -0.554462       -15.0877
  35   2.0000      -0.540822       -14.7165
  36   2.0000      -0.526537       -14.3278
  37   2.0000      -0.523632       -14.2488
  38   2.0000      -0.512960       -13.9583
  39   2.0000      -0.500662       -13.6237
  40   2.0000      -0.482376       -13.1261
  41   2.0000      -0.472723       -12.8634
  42   2.0000      -0.456282       -12.4161
  43   2.0000      -0.447405       -12.1745
  44   2.0000      -0.440720       -11.9926
  45   2.0000      -0.424869       -11.5613
  46   2.0000      -0.408747       -11.1226
  47   2.0000      -0.405505       -11.0343
  48   2.0000      -0.389256       -10.5922
  49   2.0000      -0.382315       -10.4033
  50   2.0000      -0.374847       -10.2001
  51   2.0000      -0.373563       -10.1652
  52   2.0000      -0.362187        -9.8556
  53   2.0000      -0.354699        -9.6519
  54   2.0000      -0.348131        -9.4731
  55   2.0000      -0.343579        -9.3493
  56   2.0000      -0.341708        -9.2983
  57   2.0000      -0.329594        -8.9687
  58   2.0000      -0.237542        -6.4638
  59   2.0000      -0.153108        -4.1663
  60   0.0000      -0.021427        -0.5831
  61   0.0000       0.004763         0.1296
  62   0.0000       0.007258         0.1975
  63   0.0000       0.017819         0.4849
  64   0.0000       0.024653         0.6709

MULLIKEN ATOMIC CHARGES
-----------------------
   0 C :   -0.731512
   1 N :    0.003945
   2 C :   -0.364210
   3 C :   -0.351991
   4 H :    0.283028
   5 H :    0.185570
   6 S :    0.891424
   7 C :    0.748956
   8 N :   -0.172726
   9 C :   -1.383615
  10 H :    0.224461
  11 H :    0.230613
  12 H :    0.445115
  13 H :    0.245710
  14 H :    0.101901
  15 O :   -0.543950
  16 F :   -0.124814
  17 C :   -0.111262
  18 H :    0.182368
  19 H :    0.200693
  20 C :   -0.182860
  21 H :    0.155376
  22 H :    0.154788
  23 C :   -0.291675
  24 H :    0.167590
  25 H :    0.178810
  26 O :   -0.734932
  27 H :    0.205228
  28 H :    0.139015
  29 H :    0.104283
  30 H :    0.144673
Sum of atomic charges:   -0.0000000

LOEWDIN ATOMIC CHARGES
----------------------
   0 C :   -0.187863
   1 N :    0.021125
   2 C :   -0.224501
   3 C :   -0.213920
   4 H :    0.118532
   5 H :    0.108027
   6 S :    0.653948
   7 C :   -0.565509
   8 N :    0.125829
   9 C :    0.000681
  10 H :   -0.004353
  11 H :   -0.000718
  12 H :    0.068842
  13 H :    0.058599
  14 H :    0.115027
  15 O :   -0.243340
  16 F :   -0.025411
  17 C :   -0.180956
  18 H :    0.112675
  19 H :    0.112062
  20 C :   -0.216833
  21 H :    0.110202
  22 H :    0.123771
  23 C :   -0.206554
  24 H :    0.109491
  25 H :    0.110432
  26 O :   -0.324769
  27 H :    0.105470
  28 H :    0.118702
  29 H :    0.096857
  30 H :    0.124456

  Mayer bond orders larger than 0.100000
B(  0-C ,  1-N ) :   0.9889 B(  0-C ,  9-C ) :   0.1254 B(  0-C , 12-H ) :  -0.1079
B(  0-C , 17-C ) :   0.8229 B(  0-C , 18-H ) :   0.9565 B(  0-C , 19-H ) :   0.9574
B(  0-C , 20-C ) :   0.1814 B(  1-N ,  7-C ) :   0.9947 B(  1-N , 12-H ) :   0.7221
B(  2-C ,  3-C ) :   1.0335 B(  2-C ,  6-S ) :   0.1315 B(  2-C , 20-C ) :   1.0658
B(  2-C , 21-H ) :   0.9420 B(  2-C , 22-H ) :   0.9243 B(  2-C , 23-C ) :   0.2607
B(  3-C ,  4-H ) :   0.8808 B(  3-C ,  5-H ) :   0.9681 B(  3-C ,  6-S ) :   0.7425
B(  3-C , 15-O ) :   0.1221 B(  3-C , 23-C ) :   0.1626 B(  6-S , 15-O ) :   1.6983
B(  6-S , 16-F ) :   1.0517 B(  6-S , 26-O ) :   1.8406 B(  7-C ,  8-N ) :   1.0200
B(  7-C ,  9-C ) :   1.1295 B(  8-N ,  9-C ) :   0.1065 B(  8-N , 13-H ) :   0.9272
B(  8-N , 14-H ) :   1.0261 B(  9-C , 10-H ) :   0.9916 B(  9-C , 11-H ) :   1.0599
B( 17-C , 20-C ) :   0.2085 B( 17-C , 23-C ) :   1.2350 B( 17-C , 24-H ) :   0.9113
B( 17-C , 25-H ) :   0.9481 B( 20-C , 23-C ) :   0.6656 B( 20-C , 28-H ) :  -0.1024
B( 20-C , 29-H ) :   0.9773 B( 20-C , 30-H ) :   0.9071 B( 23-C , 27-H ) :   0.9970
B( 23-C , 28-H ) :   0.8960

Dispersion correction           -0.032872227
FINAL SINGLE POINT ENERGY     -1072.422215620350

DIPOLE MOMENT
-------------
                                X             Y             Z
Electronic contribution:     -4.85521      -1.40177     -22.75046
Nuclear contribution   :      2.90585       3.30398      21.99296
                        -----------------------------------------
Total Dipole Moment    :     -1.94936       1.90221      -0.75750
                        -----------------------------------------
Magnitude (a.u.)       :      2.82705
Magnitude (Debye)      :      7.18580

Rotational constants in cm-1:     0.029065     0.014689     0.011200
Rotational constants in MHz :   871.338526   440.374927   335.770911

                             ****ORCA TERMINATED NORMALLY****
TOTAL RUN TIME: 0 days 0 hours 6 minutes 34 seconds 289 msec
