                         Program Version 5.0.0 -  RELEASE  -
|  1> !PBE0 D3BJ RIJCOSX def2-TZVPD def2/J TightSCF xyzfile
|  2>
|  3> *xyzfile 0 1 D7.xyz
|  4>
|  5> %MaxCore 64000
|  6>
|  7> %pal nprocs 4
|  8> end
|  9>
| 10> %scf
| 11>   MaxIter 150
| 12> end
| 13>
| 14>
| 15>                          ****END OF INPUT****

CARTESIAN COORDINATES (ANGSTROEM)
---------------------------------
  C      1.963365   -1.749150   -1.896887
  C      2.738490   -2.015170   -3.097113
  C      0.611877    1.657634   -4.500288
  C      1.694991    1.541794   -5.570447
  H      2.697326    1.734659   -5.183996
  H      1.506656    2.272239   -6.358076
  S      1.780287   -0.033128   -6.428739
  C      4.049736   -2.154717   -3.152044
  N      4.658206   -1.986293   -4.318655
  N      4.764231   -2.454435   -2.050491
  H      4.287363   -2.776259   -1.217496
  H      5.750825   -2.658351   -2.125988
  H      2.345176   -1.690274   -3.971447
  H      4.109004   -1.592677   -5.071760
  H      5.649095   -2.156462   -4.427237
  O      2.569287    0.213657   -7.607360
  O      0.416880   -0.462969   -6.618595
  C      2.088520   -0.300912   -1.415204
  H      2.231272   -2.451616   -1.102643
  H      0.930249   -1.977801   -2.155438
  C      0.680356    0.655418   -3.348038
  H     -0.356865    1.549231   -4.991128
  H      0.650228    2.675438   -4.096000
  C      1.968993    0.733582   -2.535654
  H      3.051356   -0.168602   -0.911868
  H      1.316501   -0.136231   -0.657252
  F      2.505129   -0.933263   -5.482570
  H      2.824195    0.624726   -3.208464
  H      2.058919    1.730331   -2.093112
  H      0.542252   -0.344731   -3.766662
  H     -0.174219    0.829692   -2.685182

 Total Charge           Charge          ....    0
 Multiplicity           Mult            ....    1
 Number of Electrons    NEL             ....  120
 Basis Dimension        Dim             ....  689

ORBITAL ENERGIES
----------------

  NO   OCC          E(Eh)            E(eV)
   0   2.0000     -89.261880     -2428.9392
   1   2.0000     -24.877665      -676.9557
   2   2.0000     -19.224599      -523.1279
   3   2.0000     -19.224209      -523.1173
   4   2.0000     -14.387394      -391.5009
   5   2.0000     -14.382439      -391.3661
   6   2.0000     -10.279492      -279.7192
   7   2.0000     -10.265624      -279.3418
   8   2.0000     -10.243550      -278.7412
   9   2.0000     -10.224154      -278.2134
  10   2.0000     -10.215834      -277.9870
  11   2.0000     -10.206751      -277.7398
  12   2.0000     -10.199112      -277.5319
  13   2.0000     -10.138162      -275.8734
  14   2.0000      -8.208801      -223.3728
  15   2.0000      -6.149405      -167.3338
  16   2.0000      -6.142918      -167.1573
  17   2.0000      -6.142260      -167.1394
  18   2.0000      -1.390341       -37.8331
  19   2.0000      -1.149422       -31.2774
  20   2.0000      -1.058468       -28.8024
  21   2.0000      -0.989788       -26.9335
  22   2.0000      -0.899429       -24.4747
  23   2.0000      -0.860658       -23.4197
  24   2.0000      -0.824462       -22.4348
  25   2.0000      -0.778734       -21.1904
  26   2.0000      -0.755436       -20.5565
  27   2.0000      -0.717961       -19.5367
  28   2.0000      -0.687049       -18.6956
  29   2.0000      -0.645745       -17.5716
  30   2.0000      -0.608554       -16.5596
  31   2.0000      -0.598487       -16.2857
  32   2.0000      -0.594073       -16.1656
  33   2.0000      -0.583598       -15.8805
  34   2.0000      -0.562970       -15.3192
  35   2.0000      -0.558416       -15.1953
  36   2.0000      -0.523526       -14.2459
  37   2.0000      -0.508568       -13.8388
  38   2.0000      -0.503033       -13.6882
  39   2.0000      -0.486884       -13.2488
  40   2.0000      -0.483446       -13.1552
  41   2.0000      -0.473214       -12.8768
  42   2.0000      -0.459987       -12.5169
  43   2.0000      -0.446209       -12.1420
  44   2.0000      -0.435001       -11.8370
  45   2.0000      -0.412103       -11.2139
  46   2.0000      -0.411500       -11.1975
  47   2.0000      -0.406318       -11.0565
  48   2.0000      -0.398137       -10.8339
  49   2.0000      -0.380031       -10.3412
  50   2.0000      -0.369943       -10.0667
  51   2.0000      -0.357320        -9.7232
  52   2.0000      -0.354672        -9.6511
  53   2.0000      -0.346055        -9.4166
  54   2.0000      -0.341027        -9.2798
  55   2.0000      -0.334547        -9.1035
  56   2.0000      -0.324896        -8.8409
  57   2.0000      -0.320158        -8.7119
  58   2.0000      -0.280014        -7.6196
  59   2.0000      -0.172637        -4.6977
  60   0.0000      -0.003191        -0.0868
  61   0.0000       0.006664         0.1813
  62   0.0000       0.016641         0.4528
  63   0.0000       0.020217         0.5501
  64   0.0000       0.030614         0.8331

MULLIKEN ATOMIC CHARGES
-----------------------
   0 C :   -0.180161
   1 C :   -0.524345
   2 C :   -0.276573
   3 C :   -0.365100
   4 H :    0.286052
   5 H :    0.193750
   6 S :    0.851556
   7 C :   -0.455372
   8 N :   -0.210085
   9 N :   -0.255224
  10 H :    0.181713
  11 H :    0.116443
  12 H :    0.789057
  13 H :    0.232097
  14 H :    0.086386
  15 O :   -0.559525
  16 O :   -0.564934
  17 C :   -0.201352
  18 H :    0.265442
  19 H :    0.121431
  20 C :   -0.261075
  21 H :    0.146208
  22 H :    0.160561
  23 C :   -0.224532
  24 H :    0.135335
  25 H :    0.124730
  26 F :   -0.196114
  27 H :    0.168419
  28 H :    0.141152
  29 H :    0.118956
  30 H :    0.155104
Sum of atomic charges:   -0.0000000

LOEWDIN ATOMIC CHARGES
----------------------
   0 C :   -0.226004
   1 C :   -0.149140
   2 C :   -0.223552
   3 C :   -0.221743
   4 H :    0.105655
   5 H :    0.113373
   6 S :    0.614953
   7 C :   -0.531637
   8 N :    0.125086
   9 N :    0.134327
  10 H :    0.102203
  11 H :    0.098019
  12 H :    0.037324
  13 H :    0.081928
  14 H :    0.107850
  15 O :   -0.260958
  16 O :   -0.246047
  17 C :   -0.196425
  18 H :    0.101072
  19 H :    0.106828
  20 C :   -0.210205
  21 H :    0.113278
  22 H :    0.120932
  23 C :   -0.212546
  24 H :    0.108608
  25 H :    0.107211
  26 F :   -0.145026
  27 H :    0.101325
  28 H :    0.116676
  29 H :    0.101828
  30 H :    0.124807

  Mayer bond orders larger than 0.100000
B(  0-C ,  1-C ) :   0.6726 B(  0-C ,  7-C ) :   0.2155 B(  0-C , 17-C ) :   0.8396
B(  0-C , 18-H ) :   0.9063 B(  0-C , 19-H ) :   0.9508 B(  0-C , 20-C ) :   0.1498
B(  1-C ,  7-C ) :   1.6804 B(  1-C ,  8-N ) :  -0.1213 B(  1-C , 12-H ) :   0.5191
B(  1-C , 23-C ) :   0.2211 B(  1-C , 26-F ) :   0.1864 B(  2-C ,  3-C ) :   1.0676
B(  2-C ,  6-S ) :   0.1475 B(  2-C , 20-C ) :   1.1364 B(  2-C , 21-H ) :   0.9212
B(  2-C , 22-H ) :   0.9262 B(  2-C , 23-C ) :   0.2108 B(  3-C ,  4-H ) :   0.8591
B(  3-C ,  5-H ) :   0.9162 B(  3-C ,  6-S ) :   0.7798 B(  3-C , 15-O ) :   0.1156
B(  3-C , 20-C ) :   0.1107 B(  3-C , 23-C ) :   0.1612 B(  3-C , 26-F ) :   0.1074
B(  6-S , 15-O ) :   1.6172 B(  6-S , 16-O ) :   1.6808 B(  6-S , 26-F ) :   1.1816
B(  7-C ,  8-N ) :   1.1262 B(  7-C ,  9-N ) :   1.0963 B(  7-C , 12-H ) :  -0.2029
B(  7-C , 17-C ) :   0.1811 B(  8-N , 13-H ) :   0.9593 B(  8-N , 14-H ) :   1.0699
B(  9-N , 10-H ) :   0.9467 B(  9-N , 11-H ) :   1.0608 B( 12-H , 26-F ) :  -0.2520
B( 17-C , 20-C ) :   0.2318 B( 17-C , 23-C ) :   1.1882 B( 17-C , 24-H ) :   0.9197
B( 17-C , 25-H ) :   0.8817 B( 20-C , 23-C ) :   0.5430 B( 20-C , 29-H ) :   1.0246
B( 20-C , 30-H ) :   0.8712 B( 23-C , 27-H ) :   1.0390 B( 23-C , 28-H ) :   0.9269
B( 23-C , 29-H ) :  -0.1122

Dispersion correction           -0.032799931
FINAL SINGLE POINT ENERGY     -1072.432753609450

DIPOLE MOMENT
-------------
                                X             Y             Z
Electronic contribution:      0.77500      -3.14144     -19.41269
Nuclear contribution   :      0.26049       3.89757      20.56096
                        -----------------------------------------
Total Dipole Moment    :      1.03549       0.75613       1.14828
                        -----------------------------------------
Magnitude (a.u.)       :      1.72119
Magnitude (Debye)      :      4.37492

Rotational constants in cm-1:     0.029090     0.014735     0.011139
Rotational constants in MHz :   872.086433   441.731892   333.928051

                             ****ORCA TERMINATED NORMALLY****
TOTAL RUN TIME: 0 days 0 hours 6 minutes 4 seconds 132 msec
