                         Program Version 5.0.0 -  RELEASE  -
|  1> !PBE0 D3BJ RIJCOSX def2-TZVPD def2/J TightSCF xyzfile
|  2>
|  3> *xyzfile 0 1 D8.xyz
|  4>
|  5> %MaxCore 64000
|  6>
|  7> %pal nprocs 4
|  8> end
|  9>
| 10> %scf
| 11>   MaxIter 150
| 12> end
| 13>
| 14>
| 15>                          ****END OF INPUT****

CARTESIAN COORDINATES (ANGSTROEM)
---------------------------------
  C      1.963365   -1.749150   -1.896887
  N      2.738490   -2.015170   -3.097113
  C      0.611877    1.657634   -4.500288
  C      1.694991    1.541794   -5.570447
  H      2.697326    1.734659   -5.183996
  H      1.506656    2.272239   -6.358076
  S      1.780287   -0.033128   -6.428739
  C      4.049736   -2.154717   -3.152044
  C      4.658206   -1.986293   -4.318655
  N      4.764231   -2.454435   -2.050491
  H      4.287363   -2.776259   -1.217496
  H      5.750825   -2.658351   -2.125988
  H      2.345176   -1.690274   -3.971447
  H      4.109004   -1.592677   -5.071760
  H      5.649095   -2.156462   -4.427237
  O      2.569287    0.213657   -7.607360
  O      0.416880   -0.462969   -6.618595
  C      2.088520   -0.300912   -1.415204
  H      2.231272   -2.451616   -1.102643
  H      0.930249   -1.977801   -2.155438
  C      0.680356    0.655418   -3.348038
  H     -0.356865    1.549231   -4.991128
  H      0.650228    2.675438   -4.096000
  C      1.968993    0.733582   -2.535654
  H      3.051356   -0.168602   -0.911868
  H      1.316501   -0.136231   -0.657252
  F      2.505129   -0.933263   -5.482570
  H      2.824195    0.624726   -3.208464
  H      2.058919    1.730331   -2.093112
  H      0.542252   -0.344731   -3.766662
  H     -0.174219    0.829692   -2.685182

 Total Charge           Charge          ....    0
 Multiplicity           Mult            ....    1
 Number of Electrons    NEL             ....  120
 Basis Dimension        Dim             ....  689

ORBITAL ENERGIES
----------------

  NO   OCC          E(Eh)            E(eV)
   0   2.0000     -89.263393     -2428.9804
   1   2.0000     -24.878561      -676.9801
   2   2.0000     -19.226300      -523.1742
   3   2.0000     -19.224492      -523.1250
   4   2.0000     -14.384648      -391.4262
   5   2.0000     -14.381842      -391.3498
   6   2.0000     -10.282785      -279.8088
   7   2.0000     -10.265810      -279.3469
   8   2.0000     -10.262309      -279.2516
   9   2.0000     -10.251651      -278.9616
  10   2.0000     -10.238866      -278.6137
  11   2.0000     -10.231880      -278.4236
  12   2.0000     -10.227946      -278.3166
  13   2.0000     -10.129822      -275.6465
  14   2.0000      -8.210231      -223.4117
  15   2.0000      -6.150824      -167.3724
  16   2.0000      -6.144437      -167.1986
  17   2.0000      -6.143643      -167.1770
  18   2.0000      -1.391013       -37.8514
  19   2.0000      -1.150367       -31.3031
  20   2.0000      -1.059368       -28.8269
  21   2.0000      -0.998251       -27.1638
  22   2.0000      -0.912282       -24.8245
  23   2.0000      -0.868364       -23.6294
  24   2.0000      -0.824733       -22.4421
  25   2.0000      -0.788715       -21.4620
  26   2.0000      -0.743864       -20.2416
  27   2.0000      -0.732825       -19.9412
  28   2.0000      -0.694165       -18.8892
  29   2.0000      -0.655118       -17.8267
  30   2.0000      -0.615074       -16.7370
  31   2.0000      -0.614517       -16.7219
  32   2.0000      -0.593634       -16.1536
  33   2.0000      -0.587919       -15.9981
  34   2.0000      -0.569823       -15.5057
  35   2.0000      -0.549494       -14.9525
  36   2.0000      -0.519208       -14.1284
  37   2.0000      -0.513256       -13.9664
  38   2.0000      -0.504341       -13.7238
  39   2.0000      -0.498249       -13.5580
  40   2.0000      -0.486830       -13.2473
  41   2.0000      -0.479496       -13.0477
  42   2.0000      -0.461123       -12.5478
  43   2.0000      -0.453212       -12.3325
  44   2.0000      -0.439065       -11.9476
  45   2.0000      -0.421327       -11.4649
  46   2.0000      -0.415781       -11.3140
  47   2.0000      -0.408904       -11.1268
  48   2.0000      -0.398229       -10.8364
  49   2.0000      -0.390288       -10.6203
  50   2.0000      -0.383102       -10.4247
  51   2.0000      -0.378022       -10.2865
  52   2.0000      -0.362807        -9.8725
  53   2.0000      -0.357955        -9.7404
  54   2.0000      -0.352708        -9.5977
  55   2.0000      -0.344761        -9.3814
  56   2.0000      -0.343801        -9.3553
  57   2.0000      -0.340558        -9.2671
  58   2.0000      -0.267335        -7.2746
  59   2.0000      -0.175342        -4.7713
  60   0.0000      -0.002591        -0.0705
  61   0.0000       0.005588         0.1521
  62   0.0000       0.014341         0.3903
  63   0.0000       0.017016         0.4630
  64   0.0000       0.029288         0.7970

MULLIKEN ATOMIC CHARGES
-----------------------
   0 C :   -0.711851
   1 N :    0.032397
   2 C :   -0.273398
   3 C :   -0.387388
   4 H :    0.294966
   5 H :    0.194020
   6 S :    0.879966
   7 C :    0.725229
   8 C :   -1.561955
   9 N :   -0.267358
  10 H :    0.137916
  11 H :    0.153856
  12 H :    0.319796
  13 H :    0.629816
  14 H :    0.184521
  15 O :   -0.553321
  16 O :   -0.571736
  17 C :   -0.079906
  18 H :    0.189365
  19 H :    0.192370
  20 C :   -0.325498
  21 H :    0.146987
  22 H :    0.158306
  23 C :   -0.250673
  24 H :    0.152071
  25 H :    0.168339
  26 F :   -0.232846
  27 H :    0.217281
  28 H :    0.139762
  29 H :    0.162787
  30 H :    0.136178
Sum of atomic charges:   -0.0000000

LOEWDIN ATOMIC CHARGES
----------------------
   0 C :   -0.188400
   1 N :    0.027385
   2 C :   -0.222655
   3 C :   -0.220284
   4 H :    0.107481
   5 H :    0.114296
   6 S :    0.615215
   7 C :   -0.555134
   8 C :    0.012655
   9 N :    0.128977
  10 H :    0.091248
  11 H :    0.109787
  12 H :    0.096150
  13 H :   -0.007917
  14 H :    0.016131
  15 O :   -0.252197
  16 O :   -0.250173
  17 C :   -0.184086
  18 H :    0.109854
  19 H :    0.115876
  20 C :   -0.213992
  21 H :    0.114069
  22 H :    0.121993
  23 C :   -0.208195
  24 H :    0.109454
  25 H :    0.110991
  26 F :   -0.145122
  27 H :    0.103171
  28 H :    0.120069
  29 H :    0.098401
  30 H :    0.124954

  Mayer bond orders larger than 0.100000
B(  0-C ,  1-N ) :   1.0485 B(  0-C ,  7-C ) :  -0.1009 B(  0-C ,  9-N ) :   0.1199
B(  0-C , 17-C ) :   0.7841 B(  0-C , 18-H ) :   0.9425 B(  0-C , 19-H ) :   0.9944
B(  0-C , 20-C ) :   0.1455 B(  1-N ,  7-C ) :   1.0425 B(  1-N , 12-H ) :   0.7548
B(  2-C ,  3-C ) :   1.0331 B(  2-C ,  6-S ) :   0.1466 B(  2-C , 20-C ) :   1.1603
B(  2-C , 21-H ) :   0.9202 B(  2-C , 22-H ) :   0.9231 B(  2-C , 23-C ) :   0.2070
B(  3-C ,  4-H ) :   0.8715 B(  3-C ,  5-H ) :   0.9189 B(  3-C ,  6-S ) :   0.7577
B(  3-C , 15-O ) :   0.1257 B(  3-C , 20-C ) :   0.1303 B(  3-C , 23-C ) :   0.1751
B(  3-C , 26-F ) :   0.1016 B(  6-S , 15-O ) :   1.6278 B(  6-S , 16-O ) :   1.6866
B(  6-S , 26-F ) :   1.1880 B(  7-C ,  8-C ) :   1.2213 B(  7-C ,  9-N ) :   1.0612
B(  7-C , 14-H ) :  -0.1526 B(  8-C , 13-H ) :   0.5801 B(  8-C , 14-H ) :   1.1296
B(  8-C , 26-F ) :   0.2013 B(  9-N , 10-H ) :   0.9997 B(  9-N , 11-H ) :   1.0075
B( 13-H , 26-F ) :  -0.1141 B( 17-C , 20-C ) :   0.2197 B( 17-C , 23-C ) :   1.2250
B( 17-C , 24-H ) :   0.9240 B( 17-C , 25-H ) :   0.9821 B( 20-C , 23-C ) :   0.5201
B( 20-C , 29-H ) :   1.0084 B( 20-C , 30-H ) :   0.8918 B( 23-C , 27-H ) :   1.0086
B( 23-C , 28-H ) :   0.8977 B( 23-C , 29-H ) :  -0.1596

Dispersion correction           -0.032638375
FINAL SINGLE POINT ENERGY     -1072.427986525991

DIPOLE MOMENT
-------------
                                X             Y             Z
Electronic contribution:     -0.86785      -2.94767     -18.34976
Nuclear contribution   :      0.50676       3.90127      20.40426
                        -----------------------------------------
Total Dipole Moment    :     -0.36109       0.95360       2.05450
                        -----------------------------------------
Magnitude (a.u.)       :      2.29363
Magnitude (Debye)      :      5.82993

Rotational constants in cm-1:     0.029548     0.014706     0.011197
Rotational constants in MHz :   885.834387   440.871746   335.667619

                             ****ORCA TERMINATED NORMALLY****
TOTAL RUN TIME: 0 days 0 hours 6 minutes 2 seconds 167 msec
