                         Program Version 5.0.0 -  RELEASE  -
|  1> !PBE0 D3BJ RIJCOSX def2-TZVPD def2/J TightSCF xyzfile
|  2>
|  3> *xyzfile 0 1 D9.xyz
|  4>
|  5> %MaxCore 64000
|  6>
|  7> %pal nprocs 4
|  8> end
|  9>
| 10> %scf
| 11>   MaxIter 150
| 12> end
| 13>
| 14>
| 15>                          ****END OF INPUT****

CARTESIAN COORDINATES (ANGSTROEM)
---------------------------------
  C      1.963365   -1.749150   -1.896887
  N      2.738490   -2.015170   -3.097113
  C      0.611877    1.657634   -4.500288
  C      1.694991    1.541794   -5.570447
  H      2.697326    1.734659   -5.183996
  H      1.506656    2.272239   -6.358076
  S      1.780287   -0.033128   -6.428739
  C      4.049736   -2.154717   -3.152044
  N      4.658206   -1.986293   -4.318655
  C      4.764231   -2.454435   -2.050491
  H      4.287363   -2.776259   -1.217496
  H      5.750825   -2.658351   -2.125988
  H      2.345176   -1.690274   -3.971447
  H      4.109004   -1.592677   -5.071760
  H      5.649095   -2.156462   -4.427237
  O      2.569287    0.213657   -7.607360
  O      0.416880   -0.462969   -6.618595
  C      2.088520   -0.300912   -1.415204
  H      2.231272   -2.451616   -1.102643
  H      0.930249   -1.977801   -2.155438
  C      0.680356    0.655418   -3.348038
  H     -0.356865    1.549231   -4.991128
  H      0.650228    2.675438   -4.096000
  C      1.968993    0.733582   -2.535654
  H      3.051356   -0.168602   -0.911868
  H      1.316501   -0.136231   -0.657252
  F      2.505129   -0.933263   -5.482570
  H      2.824195    0.624726   -3.208464
  H      2.058919    1.730331   -2.093112
  H      0.542252   -0.344731   -3.766662
  H     -0.174219    0.829692   -2.685182

 Total Charge           Charge          ....    0
 Multiplicity           Mult            ....    1
 Number of Electrons    NEL             ....  120
 Basis Dimension        Dim             ....  689

ORBITAL ENERGIES
----------------

  NO   OCC          E(Eh)            E(eV)
   0   2.0000     -89.276971     -2429.3499
   1   2.0000     -24.900400      -677.5743
   2   2.0000     -19.238975      -523.5191
   3   2.0000     -19.238614      -523.5093
   4   2.0000     -14.383430      -391.3930
   5   2.0000     -14.381636      -391.3442
   6   2.0000     -10.292710      -280.0789
   7   2.0000     -10.265529      -279.3393
   8   2.0000     -10.257070      -279.1091
   9   2.0000     -10.255840      -279.0756
  10   2.0000     -10.241305      -278.6801
  11   2.0000     -10.232382      -278.4373
  12   2.0000     -10.222445      -278.1669
  13   2.0000     -10.131638      -275.6959
  14   2.0000      -8.223993      -223.7862
  15   2.0000      -6.164794      -167.7526
  16   2.0000      -6.157972      -167.5669
  17   2.0000      -6.157313      -167.5490
  18   2.0000      -1.412350       -38.4320
  19   2.0000      -1.164211       -31.6798
  20   2.0000      -1.072568       -29.1861
  21   2.0000      -1.002367       -27.2758
  22   2.0000      -0.914322       -24.8800
  23   2.0000      -0.874120       -23.7860
  24   2.0000      -0.825398       -22.4602
  25   2.0000      -0.786512       -21.4021
  26   2.0000      -0.757447       -20.6112
  27   2.0000      -0.721668       -19.6376
  28   2.0000      -0.714854       -19.4522
  29   2.0000      -0.660074       -17.9615
  30   2.0000      -0.626348       -17.0438
  31   2.0000      -0.620715       -16.8905
  32   2.0000      -0.604225       -16.4418
  33   2.0000      -0.586404       -15.9569
  34   2.0000      -0.567355       -15.4385
  35   2.0000      -0.557667       -15.1749
  36   2.0000      -0.536199       -14.5907
  37   2.0000      -0.523479       -14.2446
  38   2.0000      -0.516517       -14.0551
  39   2.0000      -0.499748       -13.5988
  40   2.0000      -0.490411       -13.3448
  41   2.0000      -0.479218       -13.0402
  42   2.0000      -0.461944       -12.5701
  43   2.0000      -0.454427       -12.3656
  44   2.0000      -0.443069       -12.0565
  45   2.0000      -0.427161       -11.6236
  46   2.0000      -0.415616       -11.3095
  47   2.0000      -0.414752       -11.2860
  48   2.0000      -0.396302       -10.7839
  49   2.0000      -0.386975       -10.5301
  50   2.0000      -0.385315       -10.4849
  51   2.0000      -0.379785       -10.3345
  52   2.0000      -0.373257       -10.1568
  53   2.0000      -0.361949        -9.8491
  54   2.0000      -0.356297        -9.6953
  55   2.0000      -0.353902        -9.6302
  56   2.0000      -0.350390        -9.5346
  57   2.0000      -0.340126        -9.2553
  58   2.0000      -0.262957        -7.1554
  59   2.0000      -0.174779        -4.7560
  60   0.0000      -0.009942        -0.2705
  61   0.0000       0.008093         0.2202
  62   0.0000       0.009939         0.2704
  63   0.0000       0.013536         0.3683
  64   0.0000       0.028673         0.7802

MULLIKEN ATOMIC CHARGES
-----------------------
   0 C :   -0.728079
   1 N :   -0.025664
   2 C :   -0.274009
   3 C :   -0.384909
   4 H :    0.296707
   5 H :    0.195864
   6 S :    0.864843
   7 C :    0.747742
   8 N :   -0.183550
   9 C :   -1.374454
  10 H :    0.228385
  11 H :    0.229906
  12 H :    0.435796
  13 H :    0.224418
  14 H :    0.103254
  15 O :   -0.550383
  16 O :   -0.555113
  17 C :   -0.103098
  18 H :    0.185098
  19 H :    0.207269
  20 C :   -0.302317
  21 H :    0.149146
  22 H :    0.162492
  23 C :   -0.238380
  24 H :    0.160699
  25 H :    0.179343
  26 F :   -0.249245
  27 H :    0.181596
  28 H :    0.134006
  29 H :    0.146483
  30 H :    0.136155
Sum of atomic charges:   -0.0000000

LOEWDIN ATOMIC CHARGES
----------------------
   0 C :   -0.183161
   1 N :    0.024220
   2 C :   -0.222012
   3 C :   -0.219900
   4 H :    0.106981
   5 H :    0.115442
   6 S :    0.616669
   7 C :   -0.563118
   8 N :    0.127967
   9 C :    0.011980
  10 H :    0.001515
  11 H :    0.004685
  12 H :    0.090754
  13 H :    0.073257
  14 H :    0.120139
  15 O :   -0.252316
  16 O :   -0.243367
  17 C :   -0.179824
  18 H :    0.115345
  19 H :    0.115697
  20 C :   -0.214407
  21 H :    0.114481
  22 H :    0.123067
  23 C :   -0.209674
  24 H :    0.110051
  25 H :    0.112921
  26 F :   -0.142738
  27 H :    0.101491
  28 H :    0.120165
  29 H :    0.097736
  30 H :    0.125955

  Mayer bond orders larger than 0.100000
B(  0-C ,  1-N ) :   1.0221 B(  0-C ,  9-C ) :   0.1260 B(  0-C , 12-H ) :  -0.1108
B(  0-C , 17-C ) :   0.8279 B(  0-C , 18-H ) :   0.9505 B(  0-C , 19-H ) :   0.9510
B(  0-C , 20-C ) :   0.1550 B(  1-N ,  7-C ) :   0.9627 B(  1-N , 12-H ) :   0.7034
B(  2-C ,  3-C ) :   1.0358 B(  2-C ,  6-S ) :   0.1401 B(  2-C , 20-C ) :   1.1576
B(  2-C , 21-H ) :   0.9231 B(  2-C , 22-H ) :   0.9262 B(  2-C , 23-C ) :   0.2111
B(  3-C ,  4-H ) :   0.8623 B(  3-C ,  5-H ) :   0.9141 B(  3-C ,  6-S ) :   0.7681
B(  3-C , 15-O ) :   0.1140 B(  3-C , 20-C ) :   0.1316 B(  3-C , 23-C ) :   0.1664
B(  6-S , 15-O ) :   1.6406 B(  6-S , 16-O ) :   1.7039 B(  6-S , 26-F ) :   1.1644
B(  7-C ,  8-N ) :   0.9663 B(  7-C ,  9-C ) :   1.1426 B(  8-N , 13-H ) :   0.9585
B(  8-N , 14-H ) :   1.0298 B(  9-C , 10-H ) :   0.9826 B(  9-C , 11-H ) :   1.0572
B( 17-C , 20-C ) :   0.2201 B( 17-C , 23-C ) :   1.2470 B( 17-C , 24-H ) :   0.9164
B( 17-C , 25-H ) :   0.9518 B( 17-C , 27-H ) :   0.1044 B( 20-C , 23-C ) :   0.5164
B( 20-C , 29-H ) :   1.0195 B( 20-C , 30-H ) :   0.8847 B( 23-C , 27-H ) :   1.0298
B( 23-C , 28-H ) :   0.8988 B( 23-C , 29-H ) :  -0.1605

Dispersion correction           -0.032584571
FINAL SINGLE POINT ENERGY     -1072.430681313327

DIPOLE MOMENT
-------------
                                X             Y             Z
Electronic contribution:     -1.05709      -2.38865     -20.34224
Nuclear contribution   :      0.52036       3.84122      20.69523
                        -----------------------------------------
Total Dipole Moment    :     -0.53674       1.45257       0.35299
                        -----------------------------------------
Magnitude (a.u.)       :      1.58829
Magnitude (Debye)      :      4.03711

Rotational constants in cm-1:     0.029184     0.014996     0.011314
Rotational constants in MHz :   874.907122   449.569665   339.178205

                             ****ORCA TERMINATED NORMALLY****
TOTAL RUN TIME: 0 days 0 hours 5 minutes 21 seconds 893 msec
