                         Program Version 5.0.0 -  RELEASE  -
|  1> !B3LYP D3BJ RIJCOSX def2-SVPD def2/J TightSCF
|  2> *xyz -1 1
|  3> C          1.44442        5.26658       -0.97546
|  4> O          1.56525        4.23349       -1.86489
|  5> C          0.14812        5.21087       -0.13809
|  6> H          1.47425        6.26464       -1.47692
|  7> H          2.28962        5.30327       -0.26445
|  8> H         -0.69779        5.17417       -0.79230
|  9> H          0.08430        6.08276        0.47887
| 10> H          0.15965        4.33708        0.47938
| 11> *
| 12> %MaxCore 64000
| 13>
| 14> %pal nprocs 4
| 15> end
| 16>
| 17> %scf
| 18>   MaxIter 150
| 19> end
| 20>
| 21>
| 22>                          ****END OF INPUT****

CARTESIAN COORDINATES (ANGSTROEM)
---------------------------------
  C      1.444420    5.266580   -0.975460
  O      1.565250    4.233490   -1.864890
  C      0.148120    5.210870   -0.138090
  H      1.474250    6.264640   -1.476920
  H      2.289620    5.303270   -0.264450
  H     -0.697790    5.174170   -0.792300
  H      0.084300    6.082760    0.478870
  H      0.159650    4.337080    0.479380

 Total Charge           Charge          ....   -1
 Multiplicity           Mult            ....    1
 Number of Electrons    NEL             ....   26
 Basis Dimension        Dim             ....  103

ORBITAL ENERGIES
----------------

  NO   OCC          E(Eh)            E(eV)
   0   2.0000     -18.809593      -511.8350
   1   2.0000      -9.999041      -272.0878
   2   2.0000      -9.976447      -271.4729
   3   2.0000      -0.670101       -18.2344
   4   2.0000      -0.518900       -14.1200
   5   2.0000      -0.367011        -9.9869
   6   2.0000      -0.249423        -6.7871
   7   2.0000      -0.227847        -6.2000
   8   2.0000      -0.174645        -4.7523
   9   2.0000      -0.157739        -4.2923
  10   2.0000      -0.113817        -3.0971
  11   2.0000       0.028506         0.7757
  12   2.0000       0.031481         0.8566
  13   0.0000       0.177919         4.8414
  14   0.0000       0.208349         5.6695
  15   0.0000       0.241747         6.5783
  16   0.0000       0.254308         6.9201
  17   0.0000       0.273496         7.4422

MULLIKEN ATOMIC CHARGES
-----------------------
   0 C :    0.287308
   1 O :   -0.883662
   2 C :    0.493264
   3 H :   -0.212154
   4 H :   -0.248243
   5 H :   -0.160603
   6 H :   -0.122889
   7 H :   -0.153019
Sum of atomic charges:   -1.0000000

LOEWDIN ATOMIC CHARGES
----------------------
   0 C :   -0.254722
   1 O :   -0.574981
   2 C :    0.072842
   3 H :   -0.037697
   4 H :   -0.042308
   5 H :   -0.047702
   6 H :   -0.066540
   7 H :   -0.048892

  Mayer bond orders larger than 0.100000
B(  0-C ,  1-O ) :   1.1351 B(  0-C ,  2-C ) :   1.1584 B(  0-C ,  3-H ) :   0.9507
B(  0-C ,  4-H ) :   0.9522 B(  0-C ,  5-H ) :   0.2020 B(  0-C ,  6-H ) :   0.1458
B(  0-C ,  7-H ) :   0.1912 B(  1-O ,  2-C ) :   0.1997 B(  2-C ,  3-H ) :   0.1426
B(  2-C ,  4-H ) :   0.1463 B(  2-C ,  5-H ) :   0.8769 B(  2-C ,  6-H ) :   0.8832
B(  2-C ,  7-H ) :   0.8755 B(  3-H ,  4-H ) :   0.1028

Dispersion correction           -0.006225260
FINAL SINGLE POINT ENERGY      -154.236848582724

DIPOLE MOMENT
-------------
                                X             Y             Z
Electronic contribution:      1.18620      -1.61013      -2.04782
Nuclear contribution   :     -1.83256       2.47114       3.17273
                        -----------------------------------------
Total Dipole Moment    :     -0.64635       0.86101       1.12491
                        -----------------------------------------
Magnitude (a.u.)       :      1.55710
Magnitude (Debye)      :      3.95783

Rotational constants in cm-1:     1.286062     0.322579     0.284728
Rotational constants in MHz : 38555.180127  9670.683110  8535.939140

                             ****ORCA TERMINATED NORMALLY****
TOTAL RUN TIME: 0 days 0 hours 0 minutes 10 seconds 942 msec
