                         Program Version 5.0.0 -  RELEASE  -
|  1> !B3LYP D3BJ RIJCOSX def2-SVPD def2/J TightSCF
|  2> *xyz 1 1
|  3> C         -0.70169        4.07250       -4.00392
|  4> N          0.68053        4.61482       -4.04800
|  5> H          0.69993        5.58489       -4.38827
|  6> H          1.27804        4.05598       -4.66824
|  7> H          1.08573        4.53358       -3.10652
|  8> C         -1.70347        5.09320       -3.47740
|  9> H         -0.99590        3.74039       -5.00065
| 10> H         -0.64358        3.20191       -3.35153
| 11> H         -1.73704        5.93384       -4.13853
| 12> H         -1.40338        5.41759       -2.50291
| 13> H         -2.67335        4.64479       -3.42108
| 14> *
| 15> %MaxCore 64000
| 16>
| 17> %pal nprocs 4
| 18> end
| 19>
| 20> %scf
| 21>   MaxIter 150
| 22> end
| 23>
| 24>
| 25>                          ****END OF INPUT****

CARTESIAN COORDINATES (ANGSTROEM)
---------------------------------
  C     -0.701690    4.072500   -4.003920
  N      0.680530    4.614820   -4.048000
  H      0.699930    5.584890   -4.388270
  H      1.278040    4.055980   -4.668240
  H      1.085730    4.533580   -3.106520
  C     -1.703470    5.093200   -3.477400
  H     -0.995900    3.740390   -5.000650
  H     -0.643580    3.201910   -3.351530
  H     -1.737040    5.933840   -4.138530
  H     -1.403380    5.417590   -2.502910
  H     -2.673350    4.644790   -3.421080

 Total Charge           Charge          ....    1
 Multiplicity           Mult            ....    1
 Number of Electrons    NEL             ....   26
 Basis Dimension        Dim             ....  124

ORBITAL ENERGIES
----------------

  NO   OCC          E(Eh)            E(eV)
   0   2.0000     -14.666762      -399.1029
   1   2.0000     -10.438047      -284.0337
   2   2.0000     -10.360323      -281.9187
   3   2.0000      -1.209647       -32.9162
   4   2.0000      -0.959922       -26.1208
   5   2.0000      -0.842022       -22.9126
   6   2.0000      -0.806603       -21.9488
   7   2.0000      -0.788278       -21.4501
   8   2.0000      -0.698192       -18.9988
   9   2.0000      -0.644041       -17.5252
  10   2.0000      -0.585211       -15.9244
  11   2.0000      -0.569707       -15.5025
  12   2.0000      -0.553043       -15.0491
  13   0.0000      -0.197790        -5.3821
  14   0.0000      -0.139949        -3.8082
  15   0.0000      -0.135056        -3.6751
  16   0.0000      -0.124786        -3.3956
  17   0.0000      -0.094267        -2.5651

MULLIKEN ATOMIC CHARGES
-----------------------
   0 C :    0.359267
   1 N :   -0.730119
   2 H :    0.380966
   3 H :    0.332388
   4 H :    0.392308
   5 C :    0.824832
   6 H :   -0.149732
   7 H :   -0.153621
   8 H :   -0.095519
   9 H :   -0.066461
  10 H :   -0.094309
Sum of atomic charges:    1.0000000

LOEWDIN ATOMIC CHARGES
----------------------
   0 C :    0.054622
   1 N :    0.333273
   2 H :    0.106273
   3 H :    0.105398
   4 H :    0.108134
   5 C :    0.181886
   6 H :    0.051379
   7 H :    0.050053
   8 H :   -0.002081
   9 H :   -0.001986
  10 H :    0.013050

  Mayer bond orders larger than 0.100000
B(  0-C ,  1-N ) :   0.7828 B(  0-C ,  5-C ) :   1.3208 B(  0-C ,  6-H ) :   0.9041
B(  0-C ,  7-H ) :   0.8736 B(  0-C ,  8-H ) :   0.1820 B(  0-C ,  9-H ) :   0.1681
B(  0-C , 10-H ) :   0.2101 B(  1-N ,  2-H ) :   0.7275 B(  1-N ,  3-H ) :   0.7960
B(  1-N ,  4-H ) :   0.7262 B(  1-N ,  7-H ) :   0.1373 B(  5-C ,  8-H ) :   0.7999
B(  5-C ,  9-H ) :   0.7923 B(  5-C , 10-H ) :   0.7810

Dispersion correction           -0.010029090
FINAL SINGLE POINT ENERGY      -135.359559859332

DIPOLE MOMENT
-------------
                                X             Y             Z
Electronic contribution:      1.76003      -0.32976      -0.45435
Nuclear contribution   :     -0.23930       0.27560       0.19485
                        -----------------------------------------
Total Dipole Moment    :      1.52072      -0.05416      -0.25949
                        -----------------------------------------
Magnitude (a.u.)       :      1.54366
Magnitude (Debye)      :      3.92366

Rotational constants in cm-1:     1.018556     0.279088     0.248454
Rotational constants in MHz : 30535.536069  8366.847891  7448.451392

                             ****ORCA TERMINATED NORMALLY****
TOTAL RUN TIME: 0 days 0 hours 0 minutes 12 seconds 289 msec
