                         Program Version 5.0.0 -  RELEASE  -
|  1> !B3LYP D3BJ RIJCOSX def2-SVPD def2/J TightSCF xyzfile
|  2>
|  3> *xyzfile 0 1 B.xyz
|  4>
|  5> %MaxCore 64000
|  6>
|  7> %pal nprocs 4
|  8> end
|  9>
| 10> %scf
| 11>   MaxIter 150
| 12> end
| 13>
| 14>
| 15>                          ****END OF INPUT****

CARTESIAN COORDINATES (ANGSTROEM)
---------------------------------
  C     -0.701686    4.072499   -4.003920
  N      0.680528    4.614820   -4.048005
  C      1.444422    5.266576   -0.975463
  O      1.565248    4.233493   -1.864885
  H      0.699926    5.584890   -4.388272
  H      1.278044    4.055977   -4.668235
  H      1.085729    4.533581   -3.106524
  C     -1.703475    5.093197   -3.477396
  H     -0.995895    3.740394   -5.000654
  H     -0.643580    3.201910   -3.351533
  C     -1.313997    5.785995   -2.169271
  H     -1.877057    5.850103   -4.251154
  H     -2.653264    4.564475   -3.354796
  H     -2.097137    6.509395   -1.929558
  H     -0.416875    6.387594   -2.339097
  C     -1.073895    4.844728   -0.979904
  H     -1.968893    4.809608   -0.352568
  C      0.148120    5.210874   -0.138092
  H     -0.909754    3.827531   -1.338975
  H      1.474250    6.264638   -1.476917
  H      2.289622    5.303267   -0.264450
  H      0.261827    4.450942    0.640711
  H     -0.002516    6.171031    0.371483

 Total Charge           Charge          ....    0
 Multiplicity           Mult            ....    1
 Number of Electrons    NEL             ....   66
 Basis Dimension        Dim             ....  283

ORBITAL ENERGIES
----------------

  NO   OCC          E(Eh)            E(eV)
   0   2.0000     -19.009224      -517.2673
   1   2.0000     -14.409394      -392.0996
   2   2.0000     -10.249283      -278.8972
   3   2.0000     -10.204311      -277.6734
   4   2.0000     -10.179017      -276.9851
   5   2.0000     -10.168725      -276.7051
   6   2.0000     -10.157528      -276.4004
   7   2.0000     -10.139515      -275.9102
   8   2.0000      -0.980963       -26.6934
   9   2.0000      -0.881110       -23.9762
  10   2.0000      -0.803693       -21.8696
  11   2.0000      -0.740594       -20.1526
  12   2.0000      -0.688842       -18.7443
  13   2.0000      -0.631531       -17.1848
  14   2.0000      -0.584996       -15.9185
  15   2.0000      -0.571706       -15.5569
  16   2.0000      -0.567741       -15.4490
  17   2.0000      -0.516087       -14.0434
  18   2.0000      -0.491796       -13.3824
  19   2.0000      -0.464200       -12.6315
  20   2.0000      -0.456768       -12.4293
  21   2.0000      -0.419800       -11.4233
  22   2.0000      -0.408955       -11.1282
  23   2.0000      -0.396171       -10.7804
  24   2.0000      -0.377066       -10.2605
  25   2.0000      -0.356437        -9.6992
  26   2.0000      -0.351240        -9.5577
  27   2.0000      -0.332137        -9.0379
  28   2.0000      -0.310614        -8.4522
  29   2.0000      -0.303066        -8.2468
  30   2.0000      -0.295339        -8.0366
  31   2.0000      -0.181887        -4.9494
  32   2.0000      -0.176025        -4.7899
  33   0.0000      -0.015456        -0.4206
  34   0.0000       0.018847         0.5128
  35   0.0000       0.025495         0.6938
  36   0.0000       0.042602         1.1593
  37   0.0000       0.055349         1.5061

MULLIKEN ATOMIC CHARGES
-----------------------
   0 C :    0.885016
   1 N :    0.018444
   2 C :    0.699064
   3 O :   -0.643549
   4 H :    0.315156
   5 H :    0.256164
   6 H :   -0.525357
   7 C :    0.340541
   8 H :   -0.397306
   9 H :    0.007211
  10 C :    0.297420
  11 H :   -0.082231
  12 H :   -0.226884
  13 H :   -0.342547
  14 H :   -0.090960
  15 C :    0.257084
  16 H :   -0.351885
  17 C :    0.368179
  18 H :    0.008602
  19 H :    0.091982
  20 H :   -0.558236
  21 H :   -0.080701
  22 H :   -0.245205
Sum of atomic charges:    0.0000000

LOEWDIN ATOMIC CHARGES
----------------------
   0 C :    0.086623
   1 N :    0.322944
   2 C :   -0.071158
   3 O :   -0.384274
   4 H :    0.081916
   5 H :    0.085283
   6 H :   -0.200094
   7 C :   -0.013228
   8 H :    0.023634
   9 H :    0.031915
  10 C :   -0.009819
  11 H :    0.018526
  12 H :    0.028287
  13 H :    0.018098
  14 H :   -0.009100
  15 C :   -0.018252
  16 H :    0.011838
  17 C :   -0.022982
  18 H :   -0.002598
  19 H :   -0.008033
  20 H :    0.002379
  21 H :    0.015397
  22 H :    0.012697

  Mayer bond orders larger than 0.100000
B(  0-C ,  1-N ) :   0.8233 B(  0-C ,  7-C ) :   1.1854 B(  0-C ,  8-H ) :   0.8174
B(  0-C ,  9-H ) :   0.6984 B(  0-C , 11-H ) :   0.1414 B(  0-C , 12-H ) :   0.1613
B(  1-N ,  4-H ) :   0.7809 B(  1-N ,  5-H ) :   0.8350 B(  1-N ,  6-H ) :   1.3611
B(  1-N ,  8-H ) :   0.1240 B(  1-N ,  9-H ) :   0.1704 B(  2-C ,  3-O ) :   1.0524
B(  2-C , 17-C ) :   1.1069 B(  2-C , 19-H ) :   0.7437 B(  2-C , 20-H ) :   0.9390
B(  2-C , 21-H ) :   0.1312 B(  2-C , 22-H ) :   0.1210 B(  3-O ,  6-H ) :   0.4375
B(  7-C ,  8-H ) :   0.1235 B(  7-C ,  9-H ) :   0.1401 B(  7-C , 10-C ) :   1.2165
B(  7-C , 11-H ) :   0.6796 B(  7-C , 12-H ) :   0.8370 B(  7-C , 13-H ) :   0.1470
B(  7-C , 14-H ) :   0.1121 B(  8-H ,  9-H ) :  -0.1730 B( 10-C , 11-H ) :   0.2082
B( 10-C , 12-H ) :   0.1080 B( 10-C , 13-H ) :   0.6911 B( 10-C , 14-H ) :   0.8377
B( 10-C , 15-C ) :   1.1828 B( 10-C , 16-H ) :   0.2238 B( 10-C , 18-H ) :   0.1021
B( 13-H , 15-C ) :   0.1631 B( 14-H , 15-C ) :   0.1404 B( 15-C , 16-H ) :   0.7806
B( 15-C , 17-C ) :   1.2499 B( 15-C , 18-H ) :   0.7875 B( 15-C , 21-H ) :   0.2302
B( 15-C , 22-H ) :   0.1417 B( 16-H , 18-H ) :  -0.1037 B( 17-C , 18-H ) :   0.1277
B( 17-C , 19-H ) :   0.1155 B( 17-C , 20-H ) :   0.1757 B( 17-C , 21-H ) :   0.6557
B( 17-C , 22-H ) :   0.8535 B( 19-H , 20-H ) :  -0.1281

Dispersion correction           -0.035848341
FINAL SINGLE POINT ENERGY      -367.150836275400

DIPOLE MOMENT
-------------
                                X             Y             Z
Electronic contribution:      1.98967      -1.53685      -1.28575
Nuclear contribution   :     -3.16446       1.92310      -1.11926
                        -----------------------------------------
Total Dipole Moment    :     -1.17479       0.38625      -2.40501
                        -----------------------------------------
Magnitude (a.u.)       :      2.70433
Magnitude (Debye)      :      6.87385

Rotational constants in cm-1:     0.085554     0.055600     0.038553
Rotational constants in MHz :  2564.854379  1666.836664  1155.798427

                             ****ORCA TERMINATED NORMALLY****
TOTAL RUN TIME: 0 days 0 hours 1 minutes 11 seconds 706 msec
