                         Program Version 5.0.0 -  RELEASE  -
|  1> !B3LYP D3BJ RIJCOSX def2-SVPD def2/J TightSCF
|  2> *xyz 0 1
|  3> C          1.44442        5.26658       -0.97546
|  4> F          1.56525        4.23349       -1.86489
|  5> C          0.14812        5.21087       -0.13809
|  6> H          1.47425        6.26464       -1.47692
|  7> H          2.28962        5.30327       -0.26445
|  8> H         -0.69779        5.17417       -0.79230
|  9> H          0.08430        6.08276        0.47887
| 10> H          0.15965        4.33708        0.47938
| 11> *
| 12> %MaxCore 64000
| 13>
| 14> %pal nprocs 4
| 15> end
| 16>
| 17> %scf
| 18>   MaxIter 150
| 19> end
| 20>
| 21>
| 22>                          ****END OF INPUT****

CARTESIAN COORDINATES (ANGSTROEM)
---------------------------------
  C      1.444420    5.266580   -0.975460
  F      1.565250    4.233490   -1.864890
  C      0.148120    5.210870   -0.138090
  H      1.474250    6.264640   -1.476920
  H      2.289620    5.303270   -0.264450
  H     -0.697790    5.174170   -0.792300
  H      0.084300    6.082760    0.478870
  H      0.159650    4.337080    0.479380

 Total Charge           Charge          ....    0
 Multiplicity           Mult            ....    1
 Number of Electrons    NEL             ....   26
 Basis Dimension        Dim             ....  103

ORBITAL ENERGIES
----------------

  NO   OCC          E(Eh)            E(eV)
   0   2.0000     -24.687155      -671.7716
   1   2.0000     -10.265920      -279.3499
   2   2.0000     -10.182328      -277.0752
   3   2.0000      -1.185500       -32.2591
   4   2.0000      -0.757665       -20.6171
   5   2.0000      -0.628316       -17.0974
   6   2.0000      -0.512475       -13.9452
   7   2.0000      -0.496874       -13.5206
   8   2.0000      -0.461703       -12.5636
   9   2.0000      -0.408381       -11.1126
  10   2.0000      -0.404160       -10.9978
  11   2.0000      -0.340138        -9.2556
  12   2.0000      -0.333576        -9.0771
  13   0.0000       0.020726         0.5640
  14   0.0000       0.052057         1.4166
  15   0.0000       0.072779         1.9804
  16   0.0000       0.079438         2.1616
  17   0.0000       0.105114         2.8603

MULLIKEN ATOMIC CHARGES
-----------------------
   0 C :    0.554852
   1 F :   -0.444381
   2 C :    0.557524
   3 H :   -0.120501
   4 H :   -0.156703
   5 H :   -0.143377
   6 H :   -0.113253
   7 H :   -0.134162
Sum of atomic charges:    0.0000000

LOEWDIN ATOMIC CHARGES
----------------------
   0 C :    0.068132
   1 F :   -0.214783
   2 C :    0.147603
   3 H :    0.030250
   4 H :    0.023688
   5 H :   -0.018457
   6 H :   -0.017159
   7 H :   -0.019275

  Mayer bond orders larger than 0.100000
B(  0-C ,  1-F ) :   0.7523 B(  0-C ,  2-C ) :   1.3208 B(  0-C ,  3-H ) :   0.9129
B(  0-C ,  4-H ) :   0.9141 B(  0-C ,  5-H ) :   0.1583 B(  0-C ,  6-H ) :   0.1352
B(  0-C ,  7-H ) :   0.1514 B(  2-C ,  5-H ) :   0.8553 B(  2-C ,  6-H ) :   0.8275
B(  2-C ,  7-H ) :   0.8562

Dispersion correction           -0.005732959
FINAL SINGLE POINT ENERGY      -178.847736427868

DIPOLE MOMENT
-------------
                                X             Y             Z
Electronic contribution:      2.29710      -2.73151      -3.68919
Nuclear contribution   :     -2.43357       3.25919       4.19687
                        -----------------------------------------
Total Dipole Moment    :     -0.13647       0.52769       0.50768
                        -----------------------------------------
Magnitude (a.u.)       :      0.74486
Magnitude (Debye)      :      1.89328

Rotational constants in cm-1:     1.264662     0.300144     0.266170
Rotational constants in MHz : 37913.611527  8998.095216  7979.576054

                             ****ORCA TERMINATED NORMALLY****
TOTAL RUN TIME: 0 days 0 hours 0 minutes 12 seconds 774 msec
