                         Program Version 5.0.0 -  RELEASE  -
|  1> !B3LYP D3BJ RIJCOSX def2-SVPD def2/J TightSCF
|  2> *xyz 0 1
|  3> C         -0.70169        4.07250       -4.00392
|  4> C          0.68053        4.61482       -4.04800
|  5> H          0.69993        5.58489       -4.38827
|  6> H          1.27804        4.05598       -4.66824
|  7> H          1.08573        4.53358       -3.10652
|  8> C         -1.70347        5.09320       -3.47740
|  9> H         -0.99590        3.74039       -5.00065
| 10> H         -0.64358        3.20191       -3.35153
| 11> H         -1.73704        5.93384       -4.13853
| 12> H         -1.40338        5.41759       -2.50291
| 13> H         -2.67335        4.64479       -3.42108
| 14> *
| 15> %MaxCore 64000
| 16>
| 17> %pal nprocs 4
| 18> end
| 19>
| 20> %scf
| 21>   MaxIter 150
| 22> end
| 23>
| 24>
| 25>                          ****END OF INPUT****

CARTESIAN COORDINATES (ANGSTROEM)
---------------------------------
  C     -0.701690    4.072500   -4.003920
  C      0.680530    4.614820   -4.048000
  H      0.699930    5.584890   -4.388270
  H      1.278040    4.055980   -4.668240
  H      1.085730    4.533580   -3.106520
  C     -1.703470    5.093200   -3.477400
  H     -0.995900    3.740390   -5.000650
  H     -0.643580    3.201910   -3.351530
  H     -1.737040    5.933840   -4.138530
  H     -1.403380    5.417590   -2.502910
  H     -2.673350    4.644790   -3.421080

 Total Charge           Charge          ....    0
 Multiplicity           Mult            ....    1
 Number of Electrons    NEL             ....   26
 Basis Dimension        Dim             ....  124

ORBITAL ENERGIES
----------------

  NO   OCC          E(Eh)            E(eV)
   0   2.0000     -10.169342      -276.7219
   1   2.0000     -10.162344      -276.5314
   2   2.0000     -10.145314      -276.0680
   3   2.0000      -0.784647       -21.3513
   4   2.0000      -0.683932       -18.6107
   5   2.0000      -0.579086       -15.7577
   6   2.0000      -0.469287       -12.7699
   7   2.0000      -0.444618       -12.0987
   8   2.0000      -0.402613       -10.9557
   9   2.0000      -0.391985       -10.6665
  10   2.0000      -0.338214        -9.2033
  11   2.0000      -0.334999        -9.1158
  12   2.0000      -0.326984        -8.8977
  13   0.0000       0.025361         0.6901
  14   0.0000       0.054165         1.4739
  15   0.0000       0.061011         1.6602
  16   0.0000       0.081478         2.2171
  17   0.0000       0.101608         2.7649

MULLIKEN ATOMIC CHARGES
-----------------------
   0 C :   -0.438916
   1 C :    1.169094
   2 H :   -0.305479
   3 H :   -0.276282
   4 H :   -0.220617
   5 C :    0.850003
   6 H :   -0.196460
   7 H :   -0.167797
   8 H :   -0.108162
   9 H :   -0.130634
  10 H :   -0.174751
Sum of atomic charges:   -0.0000000

LOEWDIN ATOMIC CHARGES
----------------------
   0 C :   -0.113702
   1 C :    0.120952
   2 H :   -0.033372
   3 H :   -0.037125
   4 H :   -0.031261
   5 C :    0.124598
   6 H :    0.017222
   7 H :    0.017250
   8 H :   -0.020298
   9 H :   -0.018928
  10 H :   -0.025336

  Mayer bond orders larger than 0.100000
B(  0-C ,  1-C ) :   1.2822 B(  0-C ,  2-H ) :   0.2168 B(  0-C ,  3-H ) :   0.2404
B(  0-C ,  4-H ) :   0.3036 B(  0-C ,  5-C ) :   1.2696 B(  0-C ,  6-H ) :   0.9068
B(  0-C ,  7-H ) :   0.8889 B(  0-C ,  8-H ) :   0.1839 B(  0-C ,  9-H ) :   0.2077
B(  0-C , 10-H ) :   0.2145 B(  1-C ,  2-H ) :   0.6661 B(  1-C ,  3-H ) :   0.6295
B(  1-C ,  4-H ) :   0.6094 B(  1-C ,  7-H ) :   0.1414 B(  5-C ,  8-H ) :   0.7909
B(  5-C ,  9-H ) :   0.7906 B(  5-C , 10-H ) :   0.7727

Dispersion correction           -0.010106681
FINAL SINGLE POINT ENERGY      -118.963199808901

DIPOLE MOMENT
-------------
                                X             Y             Z
Electronic contribution:     -0.13612      -0.30976      -0.13735
Nuclear contribution   :      0.16058       0.27975       0.12812
                        -----------------------------------------
Total Dipole Moment    :      0.02446      -0.03001      -0.00923
                        -----------------------------------------
Magnitude (a.u.)       :      0.03980
Magnitude (Debye)      :      0.10117

Rotational constants in cm-1:     1.027122     0.293327     0.260229
Rotational constants in MHz : 30792.337141  8793.723318  7801.458329

                             ****ORCA TERMINATED NORMALLY****
TOTAL RUN TIME: 0 days 0 hours 0 minutes 15 seconds 778 msec
