                         Program Version 5.0.0 -  RELEASE  -
|  1> !B3LYP D3BJ RIJCOSX def2-SVPD def2/J TightSCF
|  2> *xyz -1 1
|  3> C         -1.10433        0.25137       -2.86006
|  4> C         -0.71189        0.84252       -4.21834
|  5> H          0.15463        1.49980       -4.13091
|  6> H         -1.53813        1.45922       -4.58267
|  7> C         -0.39762       -0.20587       -5.28802
|  8> O          0.61717       -0.00535       -5.99827
|  9> O         -1.13317       -1.22138       -5.34147
| 10> H         -1.95489       -0.38644       -2.98099
| 11> H         -1.34603        1.04362       -2.18269
| 12> H         -0.28606       -0.31581       -2.46809
| 13> *
| 14>
| 15> %MaxCore 64000
| 16>
| 17> %pal nprocs 4
| 18> end
| 19>
| 20> %scf
| 21>   MaxIter 150
| 22> end
| 23>
| 24>
| 25>                          ****END OF INPUT****

CARTESIAN COORDINATES (ANGSTROEM)
---------------------------------
  C     -1.104330    0.251370   -2.860060
  C     -0.711890    0.842520   -4.218340
  H      0.154630    1.499800   -4.130910
  H     -1.538130    1.459220   -4.582670
  C     -0.397620   -0.205870   -5.288020
  O      0.617170   -0.005350   -5.998270
  O     -1.133170   -1.221380   -5.341470
  H     -1.954890   -0.386440   -2.980990
  H     -1.346030    1.043620   -2.182690
  H     -0.286060   -0.315810   -2.468090

 Total Charge           Charge          ....   -1
 Multiplicity           Mult            ....    1
 Number of Electrons    NEL             ....   40
 Basis Dimension        Dim             ....  146

ORBITAL ENERGIES
----------------

  NO   OCC          E(Eh)            E(eV)
   0   2.0000     -18.878286      -513.7043
   1   2.0000     -18.877393      -513.6800
   2   2.0000     -10.068744      -273.9844
   3   2.0000     -10.020247      -272.6648
   4   2.0000     -10.009526      -272.3730
   5   2.0000      -0.812384       -22.1061
   6   2.0000      -0.719921       -19.5900
   7   2.0000      -0.597521       -16.2594
   8   2.0000      -0.468642       -12.7524
   9   2.0000      -0.316789        -8.6203
  10   2.0000      -0.292699        -7.9647
  11   2.0000      -0.258056        -7.0221
  12   2.0000      -0.230298        -6.2667
  13   2.0000      -0.215904        -5.8750
  14   2.0000      -0.208185        -5.6650
  15   2.0000      -0.180710        -4.9174
  16   2.0000      -0.163051        -4.4368
  17   2.0000      -0.052007        -1.4152
  18   2.0000      -0.044430        -1.2090
  19   2.0000      -0.030441        -0.8283
  20   0.0000       0.153489         4.1766
  21   0.0000       0.187993         5.1155
  22   0.0000       0.203931         5.5492
  23   0.0000       0.214256         5.8302
  24   0.0000       0.241335         6.5671

MULLIKEN ATOMIC CHARGES
-----------------------
   0 C :    0.815848
   1 C :   -0.151094
   2 H :   -0.148237
   3 H :   -0.095137
   4 C :    0.424456
   5 O :   -0.685569
   6 O :   -0.717851
   7 H :   -0.113141
   8 H :   -0.177177
   9 H :   -0.152097
Sum of atomic charges:   -1.0000000

LOEWDIN ATOMIC CHARGES
----------------------
   0 C :    0.104812
   1 C :   -0.032432
   2 H :   -0.005415
   3 H :    0.004882
   4 C :   -0.308709
   5 O :   -0.331399
   6 O :   -0.320662
   7 H :   -0.033977
   8 H :   -0.049119
   9 H :   -0.027982

  Mayer bond orders larger than 0.100000
B(  0-C ,  1-C ) :   1.2641 B(  0-C ,  7-H ) :   0.7841 B(  0-C ,  8-H ) :   0.7751
B(  0-C ,  9-H ) :   0.7986 B(  1-C ,  2-H ) :   0.9307 B(  1-C ,  3-H ) :   0.8527
B(  1-C ,  4-C ) :   1.0264 B(  1-C ,  7-H ) :   0.2296 B(  1-C ,  8-H ) :   0.2173
B(  1-C ,  9-H ) :   0.1914 B(  2-H ,  4-C ) :   0.2149 B(  4-C ,  5-O ) :   1.4574
B(  4-C ,  6-O ) :   1.4755

Dispersion correction           -0.010944891
FINAL SINGLE POINT ENERGY      -267.526017281217

DIPOLE MOMENT
-------------
                                X             Y             Z
Electronic contribution:      1.54035      -2.35940      -5.21068
Nuclear contribution   :     -2.09607       3.44215       6.87744
                        -----------------------------------------
Total Dipole Moment    :     -0.55572       1.08274       1.66676
                        -----------------------------------------
Magnitude (a.u.)       :      2.06379
Magnitude (Debye)      :      5.24574

Rotational constants in cm-1:     0.324698     0.133739     0.103466
Rotational constants in MHz :  9734.203431  4009.406827  3101.846422

                             ****ORCA TERMINATED NORMALLY****
TOTAL RUN TIME: 0 days 0 hours 0 minutes 17 seconds 10 msec
