                         Program Version 5.0.0 -  RELEASE  -
|  1> !B3LYP D3BJ RIJCOSX def2-SVPD def2/J TightSCF
|  2> *xyz 1 1
|  3> C          2.23447       -2.98975       -2.39762
|  4> N          2.75680       -2.94555       -3.76503
|  5> C          1.98721       -2.59045       -4.81898
|  6> N          0.74322       -3.01749       -4.91352
|  7> N          2.49964       -1.84860       -5.80324
|  8> H          3.30978       -1.29282       -5.55895
|  9> H          1.80103       -1.30430       -6.28913
| 10> H          3.71612       -2.62880       -3.82953
| 11> H          0.39583       -3.62775       -4.18502
| 12> H          0.03920       -2.45438       -5.37137
| 13> C          2.19120       -1.61950       -1.71549
| 14> H          2.87278       -3.66637       -1.82801
| 15> H          1.24619       -3.44744       -2.40784
| 16> H          1.56387       -0.96046       -2.27853
| 17> H          3.18033       -1.21449       -1.66568
| 18> H          1.79916       -1.72608       -0.72562
| 19> *
| 20>
| 21> %MaxCore 64000
| 22>
| 23> %pal nprocs 4
| 24> end
| 25>
| 26> %scf
| 27>   MaxIter 150
| 28> end
| 29>
| 30>
| 31>                          ****END OF INPUT****

CARTESIAN COORDINATES (ANGSTROEM)
---------------------------------
  C      2.234470   -2.989750   -2.397620
  N      2.756800   -2.945550   -3.765030
  C      1.987210   -2.590450   -4.818980
  N      0.743220   -3.017490   -4.913520
  N      2.499640   -1.848600   -5.803240
  H      3.309780   -1.292820   -5.558950
  H      1.801030   -1.304300   -6.289130
  H      3.716120   -2.628800   -3.829530
  H      0.395830   -3.627750   -4.185020
  H      0.039200   -2.454380   -5.371370
  C      2.191200   -1.619500   -1.715490
  H      2.872780   -3.666370   -1.828010
  H      1.246190   -3.447440   -2.407840
  H      1.563870   -0.960460   -2.278530
  H      3.180330   -1.214490   -1.665680
  H      1.799160   -1.726080   -0.725620

 Total Charge           Charge          ....    1
 Multiplicity           Mult            ....    1
 Number of Electrons    NEL             ....   48
 Basis Dimension        Dim             ....  200

ORBITAL ENERGIES
----------------

  NO   OCC          E(Eh)            E(eV)
   0   2.0000     -14.561871      -396.2487
   1   2.0000     -14.557865      -396.1397
   2   2.0000     -14.554406      -396.0455
   3   2.0000     -10.523944      -286.3711
   4   2.0000     -10.393780      -282.8291
   5   2.0000     -10.326573      -281.0003
   6   2.0000      -1.213680       -33.0259
   7   2.0000      -1.100317       -29.9411
   8   2.0000      -1.096069       -29.8255
   9   2.0000      -0.924288       -25.1512
  10   2.0000      -0.841709       -22.9041
  11   2.0000      -0.803748       -21.8711
  12   2.0000      -0.787517       -21.4294
  13   2.0000      -0.742863       -20.2143
  14   2.0000      -0.704401       -19.1677
  15   2.0000      -0.688665       -18.7395
  16   2.0000      -0.652557       -17.7570
  17   2.0000      -0.623287       -16.9605
  18   2.0000      -0.604459       -16.4482
  19   2.0000      -0.571223       -15.5438
  20   2.0000      -0.537873       -14.6363
  21   2.0000      -0.519239       -14.1292
  22   2.0000      -0.491493       -13.3742
  23   2.0000      -0.454901       -12.3785
  24   0.0000      -0.199284        -5.4228
  25   0.0000      -0.159081        -4.3288
  26   0.0000      -0.127458        -3.4683
  27   0.0000      -0.114045        -3.1033
  28   0.0000      -0.094996        -2.5850

MULLIKEN ATOMIC CHARGES
-----------------------
   0 C :    0.524691
   1 N :   -0.350517
   2 C :    0.904174
   3 N :    0.170811
   4 N :    0.089369
   5 H :   -0.029225
   6 H :    0.008183
   7 H :   -0.213896
   8 H :   -0.047221
   9 H :   -0.063747
  10 C :    0.909189
  11 H :   -0.320681
  12 H :   -0.218328
  13 H :   -0.188093
  14 H :   -0.101184
  15 H :   -0.073523
Sum of atomic charges:    1.0000000

LOEWDIN ATOMIC CHARGES
----------------------
   0 C :    0.043456
   1 N :    0.057066
   2 C :   -0.050146
   3 N :    0.289717
   4 N :    0.278055
   5 H :    0.033319
   6 H :    0.033028
   7 H :    0.048443
   8 H :    0.023762
   9 H :    0.045926
  10 C :    0.172020
  11 H :    0.037715
  12 H :    0.013029
  13 H :   -0.017823
  14 H :   -0.009366
  15 H :    0.001799

  Mayer bond orders larger than 0.100000
B(  0-C ,  1-N ) :   0.8953 B(  0-C ,  7-H ) :  -0.1040 B(  0-C , 10-C ) :   1.2625
B(  0-C , 11-H ) :   0.8046 B(  0-C , 12-H ) :   0.8191 B(  0-C , 13-H ) :   0.2439
B(  0-C , 14-H ) :   0.2162 B(  0-C , 15-H ) :   0.2073 B(  1-N ,  2-C ) :   1.0712
B(  1-N ,  3-N ) :   0.1095 B(  1-N ,  4-N ) :   0.1544 B(  1-N ,  7-H ) :   1.2115
B(  1-N , 11-H ) :   0.2141 B(  1-N , 12-H ) :   0.1407 B(  2-C ,  3-N ) :   1.0618
B(  2-C ,  4-N ) :   1.0471 B(  2-C ,  7-H ) :  -0.1992 B(  2-C ,  9-H ) :  -0.1043
B(  3-N ,  4-N ) :   0.1465 B(  3-N ,  8-H ) :   0.9999 B(  3-N ,  9-H ) :   1.2101
B(  4-N ,  5-H ) :   1.0175 B(  4-N ,  6-H ) :   1.0024 B(  8-H ,  9-H ) :  -0.1623
B( 10-C , 13-H ) :   0.7776 B( 10-C , 14-H ) :   0.7687 B( 10-C , 15-H ) :   0.7602

Dispersion correction           -0.020339895
FINAL SINGLE POINT ENERGY      -284.044769954274

DIPOLE MOMENT
-------------
                                X             Y             Z
Electronic contribution:      0.18862      -1.69017      -5.18930
Nuclear contribution   :     -0.59121       2.30298       4.63196
                        -----------------------------------------
Total Dipole Moment    :     -0.40258       0.61281      -0.55734
                        -----------------------------------------
Magnitude (a.u.)       :      0.92100
Magnitude (Debye)      :      2.34099

Rotational constants in cm-1:     0.205874     0.074757     0.066901
Rotational constants in MHz :  6171.937773  2241.151057  2005.629823

                             ****ORCA TERMINATED NORMALLY****
TOTAL RUN TIME: 0 days 0 hours 0 minutes 28 seconds 893 msec
