                         Program Version 5.0.0 -  RELEASE  -
|  1> !B3LYP D3BJ RIJCOSX def2-SVPD def2/J TightSCF xyzfile
|  2>
|  3> *xyzfile 0 1 B.xyz
|  4>
|  5> %MaxCore 64000
|  6>
|  7> %pal nprocs 4
|  8> end
|  9>
| 10> %scf
| 11>   MaxIter 150
| 12> end
| 13>
| 14>
| 15>                          ****END OF INPUT****

CARTESIAN COORDINATES (ANGSTROEM)
---------------------------------
  C      2.234473   -2.989754   -2.397622
  N      2.756799   -2.945553   -3.765029
  C     -1.104325    0.251374   -2.860056
  C     -0.711893    0.842517   -4.218344
  H      0.154626    1.499800   -4.130909
  H     -1.538134    1.459222   -4.582671
  C     -0.397624   -0.205875   -5.288018
  C      1.987208   -2.590451   -4.818975
  N      0.743221   -3.017493   -4.913524
  N      2.499636   -1.848598   -5.803241
  H      3.309780   -1.292818   -5.558947
  H      1.801025   -1.304298   -6.289129
  H      3.716116   -2.628797   -3.829533
  H      0.395828   -3.627747   -4.185024
  H      0.039201   -2.454383   -5.371367
  O      0.617165   -0.005348   -5.998273
  O     -1.133173   -1.221380   -5.341465
  C      2.191199   -1.619503   -1.715492
  H      2.872783   -3.666368   -1.828014
  H      1.246188   -3.447444   -2.407842
  C      1.298729   -0.554314   -2.359773
  H      1.872917   -1.787955   -0.681310
  H      3.216809   -1.238432   -1.654428
  C     -0.196255   -0.863365   -2.325763
  H      1.612531   -0.371346   -3.393065
  H      1.480944    0.388638   -1.834444
  H     -0.404105   -1.761825   -2.909448
  H     -0.490439   -1.087880   -1.294131
  H     -1.143842    1.066711   -2.129680
  H     -2.114401   -0.156834   -2.930323

 Total Charge           Charge          ....    0
 Multiplicity           Mult            ....    1
 Number of Electrons    NEL             ....  102
 Basis Dimension        Dim             ....  402

ORBITAL ENERGIES
----------------

  NO   OCC          E(Eh)            E(eV)
   0   2.0000     -19.059758      -518.6424
   1   2.0000     -19.058157      -518.5988
   2   2.0000     -14.399068      -391.8186
   3   2.0000     -14.369480      -391.0134
   4   2.0000     -14.368712      -390.9925
   5   2.0000     -10.349467      -281.6233
   6   2.0000     -10.258906      -279.1590
   7   2.0000     -10.244643      -278.7709
   8   2.0000     -10.208228      -277.7800
   9   2.0000     -10.188354      -277.2392
  10   2.0000     -10.174535      -276.8632
  11   2.0000     -10.164913      -276.6013
  12   2.0000     -10.151766      -276.2436
  13   2.0000      -1.041828       -28.3496
  14   2.0000      -0.998535       -27.1715
  15   2.0000      -0.937179       -25.5019
  16   2.0000      -0.917919       -24.9778
  17   2.0000      -0.900942       -24.5159
  18   2.0000      -0.813266       -22.1301
  19   2.0000      -0.770911       -20.9776
  20   2.0000      -0.720791       -19.6137
  21   2.0000      -0.677221       -18.4281
  22   2.0000      -0.653136       -17.7727
  23   2.0000      -0.620744       -16.8913
  24   2.0000      -0.612457       -16.6658
  25   2.0000      -0.578587       -15.7442
  26   2.0000      -0.556551       -15.1445
  27   2.0000      -0.534825       -14.5533
  28   2.0000      -0.512837       -13.9550
  29   2.0000      -0.503466       -13.7000
  30   2.0000      -0.484806       -13.1922
  31   2.0000      -0.473040       -12.8721
  32   2.0000      -0.461906       -12.5691
  33   2.0000      -0.447887       -12.1876
  34   2.0000      -0.436718       -11.8837
  35   2.0000      -0.428406       -11.6575
  36   2.0000      -0.414673       -11.2838
  37   2.0000      -0.407594       -11.0912
  38   2.0000      -0.391419       -10.6511
  39   2.0000      -0.382349       -10.4042
  40   2.0000      -0.369405       -10.0520
  41   2.0000      -0.360438        -9.8080
  42   2.0000      -0.346934        -9.4406
  43   2.0000      -0.329789        -8.9740
  44   2.0000      -0.318071        -8.6552
  45   2.0000      -0.311103        -8.4655
  46   2.0000      -0.306580        -8.3425
  47   2.0000      -0.297484        -8.0950
  48   2.0000      -0.234298        -6.3756
  49   2.0000      -0.223359        -6.0779
  50   2.0000      -0.215237        -5.8569
  51   0.0000      -0.026190        -0.7127
  52   0.0000      -0.015859        -0.4316
  53   0.0000       0.005112         0.1391
  54   0.0000       0.020135         0.5479
  55   0.0000       0.031608         0.8601

MULLIKEN ATOMIC CHARGES
-----------------------
   0 C :    1.022879
   1 N :   -0.432442
   2 C :    0.726670
   3 C :    0.435996
   4 H :    0.080280
   5 H :   -0.374715
   6 C :    0.308764
   7 C :    0.900215
   8 N :    0.389889
   9 N :    0.165476
  10 H :    0.018753
  11 H :   -0.209888
  12 H :   -0.187587
  13 H :    0.004987
  14 H :   -0.381892
  15 O :   -0.621940
  16 O :   -0.759897
  17 C :    0.550994
  18 H :   -0.459306
  19 H :   -0.074060
  20 C :    0.117763
  21 H :   -0.045706
  22 H :   -0.176238
  23 C :    0.125813
  24 H :   -0.211803
  25 H :   -0.247457
  26 H :   -0.226297
  27 H :   -0.230267
  28 H :   -0.209534
  29 H :    0.000550
Sum of atomic charges:    0.0000000

LOEWDIN ATOMIC CHARGES
----------------------
   0 C :    0.069053
   1 N :    0.042983
   2 C :   -0.014597
   3 C :    0.038750
   4 H :    0.011342
   5 H :    0.026452
   6 C :   -0.216384
   7 C :   -0.056643
   8 N :    0.314891
   9 N :    0.280821
  10 H :    0.019887
  11 H :   -0.070799
  12 H :    0.031911
  13 H :    0.014360
  14 H :   -0.080045
  15 O :   -0.259010
  16 O :   -0.249222
  17 C :   -0.008352
  18 H :    0.022351
  19 H :    0.006567
  20 C :   -0.016752
  21 H :    0.024929
  22 H :    0.017517
  23 C :   -0.022771
  24 H :    0.002995
  25 H :    0.028064
  26 H :   -0.014164
  27 H :    0.020107
  28 H :    0.014461
  29 H :    0.021296

  Mayer bond orders larger than 0.100000
B(  0-C ,  1-N ) :   0.9099 B(  0-C , 17-C ) :   1.0892 B(  0-C , 18-H ) :   0.6660
B(  0-C , 19-H ) :   0.7503 B(  0-C , 21-H ) :   0.1625 B(  0-C , 22-H ) :   0.1415
B(  1-N ,  7-C ) :   0.9329 B(  1-N ,  8-N ) :   0.1138 B(  1-N ,  9-N ) :   0.1879
B(  1-N , 12-H ) :   1.1882 B(  1-N , 18-H ) :   0.2465 B(  1-N , 19-H ) :   0.1288
B(  2-C ,  3-C ) :   1.1488 B(  2-C ,  4-H ) :   0.1191 B(  2-C ,  5-H ) :   0.1770
B(  2-C , 23-C ) :   1.2241 B(  2-C , 28-H ) :   0.7099 B(  2-C , 29-H ) :   0.5610
B(  3-C ,  4-H ) :   0.7577 B(  3-C ,  5-H ) :   0.6926 B(  3-C ,  6-C ) :   1.1048
B(  3-C , 23-C ) :   0.1477 B(  3-C , 28-H ) :   0.1833 B(  3-C , 29-H ) :   0.1335
B(  4-H ,  5-H ) :  -0.1141 B(  4-H ,  6-C ) :   0.3211 B(  5-H ,  6-C ) :   0.1813
B(  6-C , 15-O ) :   1.3710 B(  6-C , 16-O ) :   1.3374 B(  7-C ,  8-N ) :   0.9860
B(  7-C ,  9-N ) :   0.8949 B(  7-C , 12-H ) :  -0.1974 B(  7-C , 14-H ) :  -0.1334
B(  8-N ,  9-N ) :   0.1483 B(  8-N , 13-H ) :   0.8804 B(  8-N , 14-H ) :   1.1983
B(  9-N , 10-H ) :   0.9431 B(  9-N , 11-H ) :   0.9995 B( 11-H , 15-O ) :   0.1351
B( 13-H , 14-H ) :  -0.2366 B( 14-H , 16-O ) :   0.2235 B( 15-O , 16-O ) :   0.1142
B( 17-C , 18-H ) :   0.1260 B( 17-C , 19-H ) :   0.1349 B( 17-C , 20-C ) :   1.1901
B( 17-C , 21-H ) :   0.7500 B( 17-C , 22-H ) :   0.6392 B( 17-C , 24-H ) :   0.1103
B( 18-H , 19-H ) :  -0.1633 B( 20-C , 21-H ) :   0.1931 B( 20-C , 22-H ) :   0.2890
B( 20-C , 23-C ) :   1.2699 B( 20-C , 24-H ) :   0.8742 B( 20-C , 25-H ) :   0.7626
B( 20-C , 26-H ) :   0.1713 B( 20-C , 27-H ) :   0.2603 B( 21-H , 22-H ) :  -0.1267
B( 23-C , 24-H ) :   0.1675 B( 23-C , 25-H ) :   0.2136 B( 23-C , 26-H ) :   0.8488
B( 23-C , 27-H ) :   0.6697 B( 23-C , 28-H ) :   0.1940 B( 23-C , 29-H ) :   0.2941
B( 28-H , 29-H ) :  -0.1458

Dispersion correction           -0.057346257
FINAL SINGLE POINT ENERGY      -629.095491561004

DIPOLE MOMENT
-------------
                                X             Y             Z
Electronic contribution:      0.58696      -2.84999     -10.22914
Nuclear contribution   :      1.76912       1.50070      12.36652
                        -----------------------------------------
Total Dipole Moment    :      2.35607      -1.34929       2.13739
                        -----------------------------------------
Magnitude (a.u.)       :      3.45545
Magnitude (Debye)      :      8.78304

Rotational constants in cm-1:     0.033272     0.023886     0.017112
Rotational constants in MHz :   997.469575   716.074432   513.001395

                             ****ORCA TERMINATED NORMALLY****
TOTAL RUN TIME: 0 days 0 hours 2 minutes 18 seconds 282 msec
