                         Program Version 5.0.0 -  RELEASE  -
|  1> !B3LYP D3BJ RIJCOSX def2-SVPD def2/J TightSCF
|  2> *xyz 0 1
|  3> C          2.23447       -2.98975       -2.39762
|  4> C          2.75680       -2.94555       -3.76503
|  5> C          1.98721       -2.59045       -4.81898
|  6> N          0.74322       -3.01749       -4.91352
|  7> N          2.49964       -1.84860       -5.80324
|  8> H          3.30978       -1.29282       -5.55895
|  9> H          1.80103       -1.30430       -6.28913
| 10> H          3.71612       -2.62880       -3.82953
| 11> H          0.39583       -3.62775       -4.18502
| 12> H          0.03920       -2.45438       -5.37137
| 13> C          2.19120       -1.61950       -1.71549
| 14> H          2.87278       -3.66637       -1.82801
| 15> H          1.24619       -3.44744       -2.40784
| 16> H          1.56387       -0.96046       -2.27853
| 17> H          3.18033       -1.21449       -1.66568
| 18> H          1.79916       -1.72608       -0.72562
| 19> *
| 20>
| 21> %MaxCore 64000
| 22>
| 23> %pal nprocs 4
| 24> end
| 25>
| 26> %scf
| 27>   MaxIter 150
| 28> end
| 29>
| 30>
| 31>                          ****END OF INPUT****

CARTESIAN COORDINATES (ANGSTROEM)
---------------------------------
  C      2.234470   -2.989750   -2.397620
  C      2.756800   -2.945550   -3.765030
  C      1.987210   -2.590450   -4.818980
  N      0.743220   -3.017490   -4.913520
  N      2.499640   -1.848600   -5.803240
  H      3.309780   -1.292820   -5.558950
  H      1.801030   -1.304300   -6.289130
  H      3.716120   -2.628800   -3.829530
  H      0.395830   -3.627750   -4.185020
  H      0.039200   -2.454380   -5.371370
  C      2.191200   -1.619500   -1.715490
  H      2.872780   -3.666370   -1.828010
  H      1.246190   -3.447440   -2.407840
  H      1.563870   -0.960460   -2.278530
  H      3.180330   -1.214490   -1.665680
  H      1.799160   -1.726080   -0.725620

 Total Charge           Charge          ....    0
 Multiplicity           Mult            ....    1
 Number of Electrons    NEL             ....   48
 Basis Dimension        Dim             ....  200

ORBITAL ENERGIES
----------------

  NO   OCC          E(Eh)            E(eV)
   0   2.0000     -14.338062      -390.1585
   1   2.0000     -14.333667      -390.0389
   2   2.0000     -10.231903      -278.4242
   3   2.0000     -10.161159      -276.4992
   4   2.0000     -10.153488      -276.2905
   5   2.0000     -10.110151      -275.1112
   6   2.0000      -0.963847       -26.2276
   7   2.0000      -0.872608       -23.7449
   8   2.0000      -0.767531       -20.8856
   9   2.0000      -0.687322       -18.7030
  10   2.0000      -0.616237       -16.7687
  11   2.0000      -0.578958       -15.7542
  12   2.0000      -0.544773       -14.8240
  13   2.0000      -0.508202       -13.8289
  14   2.0000      -0.472872       -12.8675
  15   2.0000      -0.451583       -12.2882
  16   2.0000      -0.414777       -11.2866
  17   2.0000      -0.394838       -10.7441
  18   2.0000      -0.374341       -10.1863
  19   2.0000      -0.361394        -9.8340
  20   2.0000      -0.330173        -8.9845
  21   2.0000      -0.323061        -8.7909
  22   2.0000      -0.277263        -7.5447
  23   2.0000      -0.162813        -4.4304
  24   0.0000       0.005535         0.1506
  25   0.0000       0.036150         0.9837
  26   0.0000       0.044101         1.2000
  27   0.0000       0.046998         1.2789
  28   0.0000       0.067317         1.8318

MULLIKEN ATOMIC CHARGES
-----------------------
   0 C :   -0.048488
   1 C :   -0.074106
   2 C :    0.262810
   3 N :    0.123044
   4 N :    0.088598
   5 H :    0.007830
   6 H :   -0.055534
   7 H :   -0.231009
   8 H :   -0.047510
   9 H :   -0.158846
  10 C :    0.964782
  11 H :   -0.130991
  12 H :   -0.276291
  13 H :   -0.184216
  14 H :   -0.117022
  15 H :   -0.123052
Sum of atomic charges:   -0.0000000

LOEWDIN ATOMIC CHARGES
----------------------
   0 C :   -0.100603
   1 C :   -0.016539
   2 C :   -0.239341
   3 N :    0.202658
   4 N :    0.195295
   5 H :    0.000358
   6 H :   -0.014806
   7 H :   -0.061104
   8 H :   -0.006269
   9 H :   -0.005756
  10 C :    0.130613
  11 H :    0.006511
  12 H :   -0.011338
  13 H :   -0.027401
  14 H :   -0.023322
  15 H :   -0.028954

  Mayer bond orders larger than 0.100000
B(  0-C ,  1-C ) :   1.2555 B(  0-C ,  2-C ) :   0.1546 B(  0-C ,  7-H ) :   0.3515
B(  0-C , 10-C ) :   1.2358 B(  0-C , 11-H ) :   0.7685 B(  0-C , 12-H ) :   0.8100
B(  0-C , 13-H ) :   0.2534 B(  0-C , 14-H ) :   0.2553 B(  0-C , 15-H ) :   0.2464
B(  1-C ,  2-C ) :   1.6802 B(  1-C ,  3-N ) :   0.1518 B(  1-C ,  4-N ) :   0.2152
B(  1-C ,  7-H ) :   0.5810 B(  1-C , 11-H ) :   0.2212 B(  1-C , 12-H ) :   0.2428
B(  2-C ,  3-N ) :   1.1199 B(  2-C ,  4-N ) :   1.0566 B(  2-C ,  7-H ) :   0.3082
B(  3-N ,  4-N ) :   0.1246 B(  3-N ,  8-H ) :   1.0107 B(  3-N ,  9-H ) :   1.2165
B(  4-N ,  5-H ) :   0.9639 B(  4-N ,  6-H ) :   0.9252 B(  8-H ,  9-H ) :  -0.1455
B( 10-C , 13-H ) :   0.7794 B( 10-C , 14-H ) :   0.7449 B( 10-C , 15-H ) :   0.7404
B( 11-H , 12-H ) :   0.1011

Dispersion correction           -0.021283865
FINAL SINGLE POINT ENERGY      -267.579052919809

DIPOLE MOMENT
-------------
                                X             Y             Z
Electronic contribution:     -0.31169      -1.38994      -4.98975
Nuclear contribution   :     -0.44240       2.20379       4.66256
                        -----------------------------------------
Total Dipole Moment    :     -0.75408       0.81385      -0.32718
                        -----------------------------------------
Magnitude (a.u.)       :      1.15674
Magnitude (Debye)      :      2.94019

Rotational constants in cm-1:     0.209447     0.075194     0.066975
Rotational constants in MHz :  6279.068019  2254.272519  2007.845458

                             ****ORCA TERMINATED NORMALLY****
TOTAL RUN TIME: 0 days 0 hours 0 minutes 30 seconds 990 msec
