                         Program Version 5.0.0 -  RELEASE  -
|  1> !B3LYP D3BJ RIJCOSX def2-SVPD def2/J TightSCF
|  2> *xyz 0 1
|  3> C         -1.10433        0.25137       -2.86006
|  4> C         -0.71189        0.84252       -4.21834
|  5> H          0.15463        1.49980       -4.13091
|  6> H         -1.53813        1.45922       -4.58267
|  7> C         -0.39762       -0.20587       -5.28802
|  8> O          0.61717       -0.00535       -5.99827
|  9> F         -1.13317       -1.22138       -5.34147
| 10> H         -1.95489       -0.38644       -2.98099
| 11> H         -1.34603        1.04362       -2.18269
| 12> H         -0.28606       -0.31581       -2.46809
| 13> *
| 14>
| 15> %MaxCore 64000
| 16>
| 17> %pal nprocs 4
| 18> end
| 19>
| 20> %scf
| 21>   MaxIter 150
| 22> end
| 23>
| 24>
| 25>                          ****END OF INPUT****

CARTESIAN COORDINATES (ANGSTROEM)
---------------------------------
  C     -1.104330    0.251370   -2.860060
  C     -0.711890    0.842520   -4.218340
  H      0.154630    1.499800   -4.130910
  H     -1.538130    1.459220   -4.582670
  C     -0.397620   -0.205870   -5.288020
  O      0.617170   -0.005350   -5.998270
  F     -1.133170   -1.221380   -5.341470
  H     -1.954890   -0.386440   -2.980990
  H     -1.346030    1.043620   -2.182690
  H     -0.286060   -0.315810   -2.468090

 Total Charge           Charge          ....    0
 Multiplicity           Mult            ....    1
 Number of Electrons    NEL             ....   40
 Basis Dimension        Dim             ....  146

ORBITAL ENERGIES
----------------

  NO   OCC          E(Eh)            E(eV)
   0   2.0000     -24.771459      -674.0657
   1   2.0000     -19.149512      -521.0847
   2   2.0000     -10.367080      -282.1026
   3   2.0000     -10.217439      -278.0307
   4   2.0000     -10.194357      -277.4026
   5   2.0000      -1.309537       -35.6343
   6   2.0000      -1.026934       -27.9443
   7   2.0000      -0.798509       -21.7285
   8   2.0000      -0.684383       -18.6230
   9   2.0000      -0.645607       -17.5679
  10   2.0000      -0.555970       -15.1287
  11   2.0000      -0.546635       -14.8747
  12   2.0000      -0.499375       -13.5887
  13   2.0000      -0.469279       -12.7697
  14   2.0000      -0.437130       -11.8949
  15   2.0000      -0.405734       -11.0406
  16   2.0000      -0.389317       -10.5939
  17   2.0000      -0.382089       -10.3972
  18   2.0000      -0.353983        -9.6324
  19   2.0000      -0.294159        -8.0045
  20   0.0000      -0.035412        -0.9636
  21   0.0000       0.008786         0.2391
  22   0.0000       0.044895         1.2216
  23   0.0000       0.053718         1.4617
  24   0.0000       0.071800         1.9538

MULLIKEN ATOMIC CHARGES
-----------------------
   0 C :    0.832628
   1 C :   -0.188235
   2 H :   -0.122904
   3 H :   -0.029168
   4 C :    0.722983
   5 O :   -0.454102
   6 F :   -0.388003
   7 H :   -0.108683
   8 H :   -0.137963
   9 H :   -0.126555
Sum of atomic charges:   -0.0000000

LOEWDIN ATOMIC CHARGES
----------------------
   0 C :    0.141377
   1 C :    0.016804
   2 H :    0.030937
   3 H :    0.035410
   4 C :   -0.014555
   5 O :   -0.133758
   6 F :   -0.029542
   7 H :   -0.018483
   8 H :   -0.016018
   9 H :   -0.012171

  Mayer bond orders larger than 0.100000
B(  0-C ,  1-C ) :   1.2902 B(  0-C ,  7-H ) :   0.7787 B(  0-C ,  8-H ) :   0.7856
B(  0-C ,  9-H ) :   0.8081 B(  1-C ,  2-H ) :   0.9537 B(  1-C ,  3-H ) :   0.8408
B(  1-C ,  4-C ) :   1.0469 B(  1-C ,  7-H ) :   0.1981 B(  1-C ,  8-H ) :   0.2079
B(  1-C ,  9-H ) :   0.1768 B(  2-H ,  4-C ) :   0.1564 B(  4-C ,  5-O ) :   1.8200
B(  4-C ,  6-F ) :   0.7355 B(  5-O ,  6-F ) :   0.1138

Dispersion correction           -0.010299873
FINAL SINGLE POINT ENERGY      -292.056519898097

DIPOLE MOMENT
-------------
                                X             Y             Z
Electronic contribution:      0.67459      -4.35974      -6.57854
Nuclear contribution   :     -1.45527       4.68977       7.53208
                        -----------------------------------------
Total Dipole Moment    :     -0.78067       0.33003       0.95354
                        -----------------------------------------
Magnitude (a.u.)       :      1.27578
Magnitude (Debye)      :      3.24277

Rotational constants in cm-1:     0.298240     0.132464     0.099915
Rotational constants in MHz :  8940.998095  3971.171647  2995.369122

                             ****ORCA TERMINATED NORMALLY****
TOTAL RUN TIME: 0 days 0 hours 0 minutes 15 seconds 285 msec
