                         Program Version 5.0.0 -  RELEASE  -
|  1> !B3LYP D3BJ RIJCOSX def2-SVPD def2/J TightSCF
|  2> *xyz 0 1
|  3> C          2.23447       -2.98975       -2.39762
|  4> N          2.75680       -2.94555       -3.76503
|  5> C          1.98721       -2.59045       -4.81898
|  6> C          0.74322       -3.01749       -4.91352
|  7> N          2.49964       -1.84860       -5.80324
|  8> H          3.30978       -1.29282       -5.55895
|  9> H          1.80103       -1.30430       -6.28913
| 10> H          3.71612       -2.62880       -3.82953
| 11> H          0.39583       -3.62775       -4.18502
| 12> H          0.03920       -2.45438       -5.37137
| 13> C          2.19120       -1.61950       -1.71549
| 14> H          2.87278       -3.66637       -1.82801
| 15> H          1.24619       -3.44744       -2.40784
| 16> H          1.56387       -0.96046       -2.27853
| 17> H          3.18033       -1.21449       -1.66568
| 18> H          1.79916       -1.72608       -0.72562
| 19> *
| 20>
| 21> %MaxCore 64000
| 22>
| 23> %pal nprocs 4
| 24> end
| 25>
| 26> %scf
| 27>   MaxIter 150
| 28> end
| 29>
| 30>
| 31>                          ****END OF INPUT****

CARTESIAN COORDINATES (ANGSTROEM)
---------------------------------
  C      2.234470   -2.989750   -2.397620
  N      2.756800   -2.945550   -3.765030
  C      1.987210   -2.590450   -4.818980
  C      0.743220   -3.017490   -4.913520
  N      2.499640   -1.848600   -5.803240
  H      3.309780   -1.292820   -5.558950
  H      1.801030   -1.304300   -6.289130
  H      3.716120   -2.628800   -3.829530
  H      0.395830   -3.627750   -4.185020
  H      0.039200   -2.454380   -5.371370
  C      2.191200   -1.619500   -1.715490
  H      2.872780   -3.666370   -1.828010
  H      1.246190   -3.447440   -2.407840
  H      1.563870   -0.960460   -2.278530
  H      3.180330   -1.214490   -1.665680
  H      1.799160   -1.726080   -0.725620

 Total Charge           Charge          ....    0
 Multiplicity           Mult            ....    1
 Number of Electrons    NEL             ....   48
 Basis Dimension        Dim             ....  200

ORBITAL ENERGIES
----------------

  NO   OCC          E(Eh)            E(eV)
   0   2.0000     -14.332368      -390.0036
   1   2.0000     -14.331675      -389.9847
   2   2.0000     -10.228994      -278.3451
   3   2.0000     -10.216380      -278.0018
   4   2.0000     -10.173864      -276.8449
   5   2.0000     -10.103145      -274.9206
   6   2.0000      -0.960227       -26.1291
   7   2.0000      -0.880969       -23.9724
   8   2.0000      -0.749797       -20.4030
   9   2.0000      -0.709679       -19.3113
  10   2.0000      -0.636570       -17.3219
  11   2.0000      -0.560680       -15.2569
  12   2.0000      -0.545139       -14.8340
  13   2.0000      -0.512656       -13.9501
  14   2.0000      -0.462847       -12.5947
  15   2.0000      -0.447634       -12.1807
  16   2.0000      -0.417858       -11.3705
  17   2.0000      -0.400710       -10.9039
  18   2.0000      -0.394635       -10.7386
  19   2.0000      -0.372628       -10.1397
  20   2.0000      -0.359332        -9.7779
  21   2.0000      -0.350160        -9.5283
  22   2.0000      -0.254534        -6.9262
  23   2.0000      -0.177849        -4.8395
  24   0.0000       0.009078         0.2470
  25   0.0000       0.037029         1.0076
  26   0.0000       0.041615         1.1324
  27   0.0000       0.050147         1.3646
  28   0.0000       0.062078         1.6892

MULLIKEN ATOMIC CHARGES
-----------------------
   0 C :    0.458305
   1 N :   -0.246686
   2 C :    0.410577
   3 C :    0.468222
   4 N :    0.124659
   5 H :   -0.121412
   6 H :   -0.000812
   7 H :   -0.337998
   8 H :   -0.194328
   9 H :   -0.479472
  10 C :    0.903033
  11 H :   -0.356715
  12 H :   -0.187903
  13 H :   -0.178192
  14 H :   -0.139488
  15 H :   -0.121789
Sum of atomic charges:   -0.0000000

LOEWDIN ATOMIC CHARGES
----------------------
   0 C :    0.019790
   1 N :   -0.004712
   2 C :   -0.247474
   3 C :    0.166827
   4 N :    0.192628
   5 H :   -0.018444
   6 H :   -0.001969
   7 H :    0.008413
   8 H :   -0.106962
   9 H :   -0.096521
  10 C :    0.143655
  11 H :    0.013374
  12 H :    0.004230
  13 H :   -0.023873
  14 H :   -0.026881
  15 H :   -0.022080

  Mayer bond orders larger than 0.100000
B(  0-C ,  1-N ) :   0.8946 B(  0-C , 10-C ) :   1.2378 B(  0-C , 11-H ) :   0.8061
B(  0-C , 12-H ) :   0.8277 B(  0-C , 13-H ) :   0.2632 B(  0-C , 14-H ) :   0.2278
B(  0-C , 15-H ) :   0.2213 B(  1-N ,  2-C ) :   1.0334 B(  1-N ,  3-C ) :   0.2673
B(  1-N ,  4-N ) :   0.1190 B(  1-N ,  7-H ) :   1.1279 B(  1-N , 11-H ) :   0.1992
B(  1-N , 12-H ) :   0.1295 B(  2-C ,  3-C ) :   1.6898 B(  2-C ,  4-N ) :   0.9776
B(  2-C ,  7-H ) :  -0.1475 B(  2-C ,  8-H ) :   0.3081 B(  2-C ,  9-H ) :   0.1384
B(  3-C ,  4-N ) :   0.2320 B(  3-C ,  8-H ) :   0.4706 B(  3-C ,  9-H ) :   0.8342
B(  4-N ,  5-H ) :   0.9619 B(  4-N ,  6-H ) :   0.9699 B(  8-H ,  9-H ) :   0.2084
B( 10-C , 13-H ) :   0.7704 B( 10-C , 14-H ) :   0.7707 B( 10-C , 15-H ) :   0.7648

Dispersion correction           -0.021133923
FINAL SINGLE POINT ENERGY      -267.573410001168

DIPOLE MOMENT
-------------
                                X             Y             Z
Electronic contribution:      1.48886      -1.26934      -3.84498
Nuclear contribution   :     -0.86957       2.18853       4.41892
                        -----------------------------------------
Total Dipole Moment    :      0.61929       0.91918       0.57394
                        -----------------------------------------
Magnitude (a.u.)       :      1.24813
Magnitude (Debye)      :      3.17250

Rotational constants in cm-1:     0.214718     0.075736     0.068547
Rotational constants in MHz :  6437.075121  2270.519635  2054.974198

                             ****ORCA TERMINATED NORMALLY****
TOTAL RUN TIME: 0 days 0 hours 0 minutes 28 seconds 63 msec
