                         Program Version 5.0.0 -  RELEASE  -
|  1> !B3LYP D3BJ RIJCOSX def2-SVPD def2/J TightSCF
|  2> *xyz 0 1
|  3> C          2.23447       -2.98975       -2.39762
|  4> N          2.75680       -2.94555       -3.76503
|  5> C          1.98721       -2.59045       -4.81898
|  6> N          0.74322       -3.01749       -4.91352
|  7> C          2.49964       -1.84860       -5.80324
|  8> H          3.30978       -1.29282       -5.55895
|  9> H          1.80103       -1.30430       -6.28913
| 10> H          3.71612       -2.62880       -3.82953
| 11> H          0.39583       -3.62775       -4.18502
| 12> H          0.03920       -2.45438       -5.37137
| 13> C          2.19120       -1.61950       -1.71549
| 14> H          2.87278       -3.66637       -1.82801
| 15> H          1.24619       -3.44744       -2.40784
| 16> H          1.56387       -0.96046       -2.27853
| 17> H          3.18033       -1.21449       -1.66568
| 18> H          1.79916       -1.72608       -0.72562
| 19> *
| 20>
| 21> %MaxCore 64000
| 22>
| 23> %pal nprocs 4
| 24> end
| 25>
| 26> %scf
| 27>   MaxIter 150
| 28> end
| 29>
| 30>
| 31>                          ****END OF INPUT****

CARTESIAN COORDINATES (ANGSTROEM)
---------------------------------
  C      2.234470   -2.989750   -2.397620
  N      2.756800   -2.945550   -3.765030
  C      1.987210   -2.590450   -4.818980
  N      0.743220   -3.017490   -4.913520
  C      2.499640   -1.848600   -5.803240
  H      3.309780   -1.292820   -5.558950
  H      1.801030   -1.304300   -6.289130
  H      3.716120   -2.628800   -3.829530
  H      0.395830   -3.627750   -4.185020
  H      0.039200   -2.454380   -5.371370
  C      2.191200   -1.619500   -1.715490
  H      2.872780   -3.666370   -1.828010
  H      1.246190   -3.447440   -2.407840
  H      1.563870   -0.960460   -2.278530
  H      3.180330   -1.214490   -1.665680
  H      1.799160   -1.726080   -0.725620

 Total Charge           Charge          ....    0
 Multiplicity           Mult            ....    1
 Number of Electrons    NEL             ....   48
 Basis Dimension        Dim             ....  200

ORBITAL ENERGIES
----------------

  NO   OCC          E(Eh)            E(eV)
   0   2.0000     -14.334871      -390.0717
   1   2.0000     -14.331081      -389.9685
   2   2.0000     -10.232151      -278.4310
   3   2.0000     -10.224647      -278.2268
   4   2.0000     -10.177750      -276.9507
   5   2.0000     -10.097832      -274.7760
   6   2.0000      -0.962055       -26.1788
   7   2.0000      -0.880925       -23.9712
   8   2.0000      -0.761965       -20.7341
   9   2.0000      -0.702566       -19.1178
  10   2.0000      -0.626126       -17.0377
  11   2.0000      -0.600360       -16.3366
  12   2.0000      -0.540512       -14.7081
  13   2.0000      -0.493111       -13.4182
  14   2.0000      -0.490144       -13.3375
  15   2.0000      -0.440176       -11.9778
  16   2.0000      -0.428643       -11.6640
  17   2.0000      -0.403524       -10.9804
  18   2.0000      -0.379770       -10.3341
  19   2.0000      -0.368130       -10.0173
  20   2.0000      -0.365805        -9.9541
  21   2.0000      -0.356409        -9.6984
  22   2.0000      -0.256730        -6.9860
  23   2.0000      -0.173043        -4.7087
  24   0.0000       0.008142         0.2216
  25   0.0000       0.034822         0.9475
  26   0.0000       0.038281         1.0417
  27   0.0000       0.047194         1.2842
  28   0.0000       0.061045         1.6611

MULLIKEN ATOMIC CHARGES
-----------------------
   0 C :    0.505426
   1 N :   -0.382000
   2 C :    0.330697
   3 N :    0.297593
   4 C :    0.621333
   5 H :   -0.234844
   6 H :   -0.506187
   7 H :   -0.212068
   8 H :   -0.159630
   9 H :   -0.128095
  10 C :    0.884383
  11 H :   -0.363036
  12 H :   -0.237419
  13 H :   -0.191777
  14 H :   -0.137079
  15 H :   -0.087296
Sum of atomic charges:    0.0000000

LOEWDIN ATOMIC CHARGES
----------------------
   0 C :    0.012754
   1 N :   -0.001888
   2 C :   -0.243693
   3 N :    0.203679
   4 C :    0.148655
   5 H :   -0.109087
   6 H :   -0.109732
   7 H :    0.022585
   8 H :   -0.021736
   9 H :    0.010481
  10 C :    0.144821
  11 H :    0.012308
  12 H :   -0.002554
  13 H :   -0.022311
  14 H :   -0.021862
  15 H :   -0.022422

  Mayer bond orders larger than 0.100000
B(  0-C ,  1-N ) :   0.9136 B(  0-C ,  7-H ) :  -0.1035 B(  0-C , 10-C ) :   1.2444
B(  0-C , 11-H ) :   0.8000 B(  0-C , 12-H ) :   0.8152 B(  0-C , 13-H ) :   0.2475
B(  0-C , 14-H ) :   0.2334 B(  0-C , 15-H ) :   0.2098 B(  1-N ,  2-C ) :   1.0207
B(  1-N ,  4-C ) :   0.2064 B(  1-N ,  7-H ) :   1.1573 B(  1-N , 11-H ) :   0.2221
B(  1-N , 12-H ) :   0.1454 B(  2-C ,  3-N ) :   1.0922 B(  2-C ,  4-C ) :   1.8464
B(  2-C ,  5-H ) :   0.2543 B(  2-C ,  6-H ) :   0.2679 B(  2-C ,  7-H ) :  -0.1393
B(  3-N ,  4-C ) :   0.2278 B(  3-N ,  8-H ) :   0.9901 B(  3-N ,  9-H ) :   1.1442
B(  4-C ,  5-H ) :   0.6743 B(  4-C ,  6-H ) :   0.6386 B(  5-H ,  6-H ) :   0.2830
B(  8-H ,  9-H ) :  -0.1588 B( 10-C , 13-H ) :   0.7826 B( 10-C , 14-H ) :   0.7569
B( 10-C , 15-H ) :   0.7589

Dispersion correction           -0.021049621
FINAL SINGLE POINT ENERGY      -267.568504501106

DIPOLE MOMENT
-------------
                                X             Y             Z
Electronic contribution:     -0.11524      -2.39806      -2.96940
Nuclear contribution   :     -0.49695       2.43650       4.23017
                        -----------------------------------------
Total Dipole Moment    :     -0.61219       0.03844       1.26077
                        -----------------------------------------
Magnitude (a.u.)       :      1.40207
Magnitude (Debye)      :      3.56377

Rotational constants in cm-1:     0.211102     0.077011     0.069221
Rotational constants in MHz :  6328.667765  2308.731604  2075.192956

                             ****ORCA TERMINATED NORMALLY****
TOTAL RUN TIME: 0 days 0 hours 0 minutes 28 seconds 85 msec
