                         Program Version 5.0.0 -  RELEASE  -
|  1> !B3LYP D3BJ RIJCOSX def2-SVPD def2/J TightSCF xyzfile
|  2>
|  3> *xyzfile 0 1 D1.xyz
|  4>
|  5> %MaxCore 64000
|  6>
|  7> %pal nprocs 4
|  8> end
|  9>
| 10> %scf
| 11>   MaxIter 150
| 12> end
| 13>
| 14>
| 15>                          ****END OF INPUT****

CARTESIAN COORDINATES (ANGSTROEM)
---------------------------------
  C      2.234473   -2.989754   -2.397622
  C      2.756799   -2.945553   -3.765029
  C     -1.104325    0.251374   -2.860056
  C     -0.711893    0.842517   -4.218344
  H      0.154626    1.499800   -4.130909
  H     -1.538134    1.459222   -4.582671
  C     -0.397624   -0.205875   -5.288018
  C      1.987208   -2.590451   -4.818975
  N      0.743221   -3.017493   -4.913524
  N      2.499636   -1.848598   -5.803241
  H      3.309780   -1.292818   -5.558947
  H      1.801025   -1.304298   -6.289129
  H      3.716116   -2.628797   -3.829533
  H      0.395828   -3.627747   -4.185024
  H      0.039201   -2.454383   -5.371367
  F      0.617165   -0.005348   -5.998273
  O     -1.133173   -1.221380   -5.341465
  C      2.191199   -1.619503   -1.715492
  H      2.872783   -3.666368   -1.828014
  H      1.246188   -3.447444   -2.407842
  C      1.298729   -0.554314   -2.359773
  H      1.872917   -1.787955   -0.681310
  H      3.216809   -1.238432   -1.654428
  C     -0.196255   -0.863365   -2.325763
  H      1.612531   -0.371346   -3.393065
  H      1.480944    0.388638   -1.834444
  H     -0.404105   -1.761825   -2.909448
  H     -0.490439   -1.087880   -1.294131
  H     -1.143842    1.066711   -2.129680
  H     -2.114401   -0.156834   -2.930323

 Total Charge           Charge          ....    0
 Multiplicity           Mult            ....    1
 Number of Electrons    NEL             ....  102
 Basis Dimension        Dim             ....  402

ORBITAL ENERGIES
----------------

  NO   OCC          E(Eh)            E(eV)
   0   2.0000     -24.804226      -674.9573
   1   2.0000     -19.180340      -521.9236
   2   2.0000     -14.319561      -389.6551
   3   2.0000     -14.310146      -389.3989
   4   2.0000     -10.393753      -282.8284
   5   2.0000     -10.228653      -278.3358
   6   2.0000     -10.220548      -278.1152
   7   2.0000     -10.202669      -277.6287
   8   2.0000     -10.182321      -277.0750
   9   2.0000     -10.178802      -276.9793
  10   2.0000     -10.166339      -276.6401
  11   2.0000     -10.156263      -276.3660
  12   2.0000     -10.099731      -274.8276
  13   2.0000      -1.343970       -36.5713
  14   2.0000      -1.063087       -28.9281
  15   2.0000      -0.950182       -25.8558
  16   2.0000      -0.857863       -23.3436
  17   2.0000      -0.824571       -22.4377
  18   2.0000      -0.784418       -21.3451
  19   2.0000      -0.749060       -20.3830
  20   2.0000      -0.707767       -19.2593
  21   2.0000      -0.686791       -18.6885
  22   2.0000      -0.650602       -17.7038
  23   2.0000      -0.611744       -16.6464
  24   2.0000      -0.591691       -16.1007
  25   2.0000      -0.582418       -15.8484
  26   2.0000      -0.570448       -15.5227
  27   2.0000      -0.550971       -14.9927
  28   2.0000      -0.542066       -14.7504
  29   2.0000      -0.517791       -14.0898
  30   2.0000      -0.494944       -13.4681
  31   2.0000      -0.482283       -13.1236
  32   2.0000      -0.476972       -12.9791
  33   2.0000      -0.459796       -12.5117
  34   2.0000      -0.446023       -12.1369
  35   2.0000      -0.440196       -11.9783
  36   2.0000      -0.424976       -11.5642
  37   2.0000      -0.411806       -11.2058
  38   2.0000      -0.396986       -10.8026
  39   2.0000      -0.389705       -10.6044
  40   2.0000      -0.380146       -10.3443
  41   2.0000      -0.367882       -10.0106
  42   2.0000      -0.360322        -9.8049
  43   2.0000      -0.350004        -9.5241
  44   2.0000      -0.339876        -9.2485
  45   2.0000      -0.329868        -8.9762
  46   2.0000      -0.319446        -8.6926
  47   2.0000      -0.314121        -8.5477
  48   2.0000      -0.307987        -8.3808
  49   2.0000      -0.259035        -7.0487
  50   2.0000      -0.152458        -4.1486
  51   0.0000      -0.065472        -1.7816
  52   0.0000       0.003064         0.0834
  53   0.0000       0.025582         0.6961
  54   0.0000       0.030441         0.8284
  55   0.0000       0.032932         0.8961

MULLIKEN ATOMIC CHARGES
-----------------------
   0 C :    0.502464
   1 C :   -0.062658
   2 C :    0.724610
   3 C :    0.330386
   4 H :    0.114564
   5 H :   -0.337414
   6 C :    0.676601
   7 C :    0.287520
   8 N :    0.369237
   9 N :    0.200684
  10 H :    0.087004
  11 H :   -0.215965
  12 H :   -0.263305
  13 H :    0.029429
  14 H :   -0.521114
  15 F :   -0.402118
  16 O :   -0.594341
  17 C :    0.604044
  18 H :   -0.255720
  19 H :   -0.238669
  20 C :    0.152616
  21 H :   -0.100888
  22 H :   -0.176727
  23 C :    0.142339
  24 H :   -0.225306
  25 H :   -0.198763
  26 H :   -0.230522
  27 H :   -0.214424
  28 H :   -0.178334
  29 H :   -0.005231
Sum of atomic charges:    0.0000000

LOEWDIN ATOMIC CHARGES
----------------------
   0 C :   -0.055926
   1 C :   -0.010827
   2 C :   -0.004737
   3 C :    0.063026
   4 H :    0.024140
   5 H :    0.039542
   6 C :    0.029406
   7 C :   -0.225291
   8 N :    0.236971
   9 N :    0.214400
  10 H :    0.004912
  11 H :   -0.067300
  12 H :   -0.062941
  13 H :    0.002069
  14 H :   -0.101425
  15 F :   -0.030860
  16 O :   -0.114937
  17 C :   -0.017018
  18 H :    0.007185
  19 H :   -0.011279
  20 C :   -0.022166
  21 H :    0.014094
  22 H :    0.018842
  23 C :   -0.016984
  24 H :   -0.002876
  25 H :    0.020757
  26 H :   -0.008907
  27 H :    0.027314
  28 H :    0.025308
  29 H :    0.025508

  Mayer bond orders larger than 0.100000
B(  0-C ,  1-C ) :   1.1733 B(  0-C ,  7-C ) :   0.1573 B(  0-C , 12-H ) :   0.4077
B(  0-C , 17-C ) :   1.1195 B(  0-C , 18-H ) :   0.6309 B(  0-C , 19-H ) :   0.6926
B(  0-C , 21-H ) :   0.2366 B(  0-C , 22-H ) :   0.2121 B(  1-C ,  7-C ) :   1.5170
B(  1-C ,  8-N ) :   0.1459 B(  1-C ,  9-N ) :   0.3310 B(  1-C , 12-H ) :   0.4463
B(  1-C , 18-H ) :   0.2444 B(  1-C , 19-H ) :   0.2459 B(  2-C ,  3-C ) :   1.1552
B(  2-C ,  4-H ) :   0.1250 B(  2-C ,  5-H ) :   0.1929 B(  2-C , 23-C ) :   1.2244
B(  2-C , 26-H ) :   0.1097 B(  2-C , 28-H ) :   0.7043 B(  2-C , 29-H ) :   0.5702
B(  3-C ,  4-H ) :   0.7870 B(  3-C ,  5-H ) :   0.6924 B(  3-C ,  6-C ) :   1.1796
B(  3-C , 23-C ) :   0.1452 B(  3-C , 28-H ) :   0.1785 B(  3-C , 29-H ) :   0.1147
B(  4-H ,  5-H ) :  -0.1059 B(  4-H ,  6-C ) :   0.1829 B(  5-H ,  6-C ) :   0.2076
B(  6-C , 15-F ) :   0.6373 B(  6-C , 16-O ) :   1.6501 B(  7-C ,  8-N ) :   1.0374
B(  7-C ,  9-N ) :   0.8800 B(  7-C , 11-H ) :   0.1229 B(  7-C , 12-H ) :   0.4165
B(  8-N ,  9-N ) :   0.1209 B(  8-N , 13-H ) :   0.8909 B(  8-N , 14-H ) :   1.1490
B(  9-N , 10-H ) :   0.8597 B(  9-N , 11-H ) :   0.8139 B( 11-H , 12-H ) :   0.1007
B( 13-H , 14-H ) :  -0.2413 B( 14-H , 16-O ) :   0.1719 B( 17-C , 18-H ) :   0.1259
B( 17-C , 19-H ) :   0.1414 B( 17-C , 20-C ) :   1.2149 B( 17-C , 21-H ) :   0.7027
B( 17-C , 22-H ) :   0.6014 B( 17-C , 24-H ) :   0.1338 B( 20-C , 21-H ) :   0.1828
B( 20-C , 22-H ) :   0.3173 B( 20-C , 23-C ) :   1.2520 B( 20-C , 24-H ) :   0.8380
B( 20-C , 25-H ) :   0.6966 B( 20-C , 26-H ) :   0.1630 B( 20-C , 27-H ) :   0.2354
B( 21-H , 22-H ) :  -0.1609 B( 23-C , 24-H ) :   0.1744 B( 23-C , 25-H ) :   0.2297
B( 23-C , 26-H ) :   0.8697 B( 23-C , 27-H ) :   0.6868 B( 23-C , 28-H ) :   0.1890
B( 23-C , 29-H ) :   0.2996 B( 28-H , 29-H ) :  -0.1410

Dispersion correction           -0.057339788
FINAL SINGLE POINT ENERGY      -636.968483276231

DIPOLE MOMENT
-------------
                                X             Y             Z
Electronic contribution:     -3.07162       2.21286     -14.50881
Nuclear contribution   :      2.31842      -0.27661      14.74721
                        -----------------------------------------
Total Dipole Moment    :     -0.75319       1.93625       0.23840
                        -----------------------------------------
Magnitude (a.u.)       :      2.09122
Magnitude (Debye)      :      5.31546

Rotational constants in cm-1:     0.032691     0.023990     0.017099
Rotational constants in MHz :   980.050971   719.190545   512.606858

                             ****ORCA TERMINATED NORMALLY****
TOTAL RUN TIME: 0 days 0 hours 2 minutes 47 seconds 899 msec
