                         Program Version 5.0.0 -  RELEASE  -
|  1> !B3LYP D3BJ RIJCOSX def2-SVPD def2/J TightSCF xyzfile
|  2>
|  3> *xyzfile 0 1 D3.xyz
|  4>
|  5> %MaxCore 64000
|  6>
|  7> %pal nprocs 4
|  8> end
|  9>
| 10> %scf
| 11>   MaxIter 150
| 12> end
| 13>
| 14>
| 15>                          ****END OF INPUT****

CARTESIAN COORDINATES (ANGSTROEM)
---------------------------------
  C      2.234473   -2.989754   -2.397622
  N      2.756799   -2.945553   -3.765029
  C     -1.104325    0.251374   -2.860056
  C     -0.711893    0.842517   -4.218344
  H      0.154626    1.499800   -4.130909
  H     -1.538134    1.459222   -4.582671
  C     -0.397624   -0.205875   -5.288018
  C      1.987208   -2.590451   -4.818975
  N      0.743221   -3.017493   -4.913524
  C      2.499636   -1.848598   -5.803241
  H      3.309780   -1.292818   -5.558947
  H      1.801025   -1.304298   -6.289129
  H      3.716116   -2.628797   -3.829533
  H      0.395828   -3.627747   -4.185024
  H      0.039201   -2.454383   -5.371367
  F      0.617165   -0.005348   -5.998273
  O     -1.133173   -1.221380   -5.341465
  C      2.191199   -1.619503   -1.715492
  H      2.872783   -3.666368   -1.828014
  H      1.246188   -3.447444   -2.407842
  C      1.298729   -0.554314   -2.359773
  H      1.872917   -1.787955   -0.681310
  H      3.216809   -1.238432   -1.654428
  C     -0.196255   -0.863365   -2.325763
  H      1.612531   -0.371346   -3.393065
  H      1.480944    0.388638   -1.834444
  H     -0.404105   -1.761825   -2.909448
  H     -0.490439   -1.087880   -1.294131
  H     -1.143842    1.066711   -2.129680
  H     -2.114401   -0.156834   -2.930323

 Total Charge           Charge          ....    0
 Multiplicity           Mult            ....    1
 Number of Electrons    NEL             ....  102
 Basis Dimension        Dim             ....  402

ORBITAL ENERGIES
----------------

  NO   OCC          E(Eh)            E(eV)
   0   2.0000     -24.781776      -674.3464
   1   2.0000     -19.170256      -521.6492
   2   2.0000     -14.322899      -389.7459
   3   2.0000     -14.306799      -389.3078
   4   2.0000     -10.385165      -282.5947
   5   2.0000     -10.224111      -278.2122
   6   2.0000     -10.219718      -278.0927
   7   2.0000     -10.218254      -278.0528
   8   2.0000     -10.203435      -277.6496
   9   2.0000     -10.187937      -277.2279
  10   2.0000     -10.187761      -277.2231
  11   2.0000     -10.187430      -277.2141
  12   2.0000     -10.084023      -274.4002
  13   2.0000      -1.322782       -35.9947
  14   2.0000      -1.053593       -28.6697
  15   2.0000      -0.949838       -25.8464
  16   2.0000      -0.868033       -23.6204
  17   2.0000      -0.823982       -22.4217
  18   2.0000      -0.784988       -21.3606
  19   2.0000      -0.740277       -20.1440
  20   2.0000      -0.705030       -19.1849
  21   2.0000      -0.686574       -18.6826
  22   2.0000      -0.652136       -17.7455
  23   2.0000      -0.615413       -16.7462
  24   2.0000      -0.595275       -16.1983
  25   2.0000      -0.578814       -15.7503
  26   2.0000      -0.563730       -15.3399
  27   2.0000      -0.544143       -14.8069
  28   2.0000      -0.531560       -14.4645
  29   2.0000      -0.525820       -14.3083
  30   2.0000      -0.493656       -13.4331
  31   2.0000      -0.482658       -13.1338
  32   2.0000      -0.474722       -12.9178
  33   2.0000      -0.464566       -12.6415
  34   2.0000      -0.450801       -12.2669
  35   2.0000      -0.437353       -11.9010
  36   2.0000      -0.418116       -11.3775
  37   2.0000      -0.413089       -11.2407
  38   2.0000      -0.393892       -10.7184
  39   2.0000      -0.384772       -10.4702
  40   2.0000      -0.380165       -10.3448
  41   2.0000      -0.371951       -10.1213
  42   2.0000      -0.364957        -9.9310
  43   2.0000      -0.359378        -9.7792
  44   2.0000      -0.348111        -9.4726
  45   2.0000      -0.338186        -9.2025
  46   2.0000      -0.333912        -9.0862
  47   2.0000      -0.328712        -8.9447
  48   2.0000      -0.314290        -8.5523
  49   2.0000      -0.242166        -6.5897
  50   2.0000      -0.161394        -4.3918
  51   0.0000      -0.055995        -1.5237
  52   0.0000       0.007571         0.2060
  53   0.0000       0.020403         0.5552
  54   0.0000       0.024621         0.6700
  55   0.0000       0.033767         0.9188

MULLIKEN ATOMIC CHARGES
-----------------------
   0 C :    1.041477
   1 N :   -0.424558
   2 C :    0.741264
   3 C :    0.308644
   4 H :    0.106907
   5 H :   -0.326673
   6 C :    0.692984
   7 C :    0.238376
   8 N :    0.489801
   9 C :    0.950014
  10 H :   -0.173059
  11 H :   -0.790943
  12 H :   -0.174200
  13 H :   -0.077674
  14 H :   -0.394325
  15 F :   -0.435895
  16 O :   -0.587750
  17 C :    0.499967
  18 H :   -0.477306
  19 H :   -0.092522
  20 C :    0.122668
  21 H :   -0.060495
  22 H :   -0.202584
  23 C :    0.117710
  24 H :   -0.149539
  25 H :   -0.306264
  26 H :   -0.217554
  27 H :   -0.232872
  28 H :   -0.180464
  29 H :   -0.005135
Sum of atomic charges:   -0.0000000

LOEWDIN ATOMIC CHARGES
----------------------
   0 C :    0.056235
   1 N :    0.009579
   2 C :   -0.004121
   3 C :    0.064107
   4 H :    0.024901
   5 H :    0.039584
   6 C :    0.037575
   7 C :   -0.231619
   8 N :    0.235148
   9 C :    0.156317
  10 H :   -0.102037
  11 H :   -0.148756
  12 H :    0.022195
  13 H :   -0.011916
  14 H :   -0.090422
  15 F :   -0.029419
  16 O :   -0.118594
  17 C :   -0.010376
  18 H :    0.013528
  19 H :   -0.001846
  20 C :   -0.017702
  21 H :    0.017385
  22 H :    0.018244
  23 C :   -0.018748
  24 H :    0.001914
  25 H :    0.022538
  26 H :   -0.010007
  27 H :    0.025555
  28 H :    0.024800
  29 H :    0.025962

  Mayer bond orders larger than 0.100000
B(  0-C ,  1-N ) :   0.9296 B(  0-C , 12-H ) :  -0.1086 B(  0-C , 17-C ) :   1.0798
B(  0-C , 18-H ) :   0.6716 B(  0-C , 19-H ) :   0.7291 B(  0-C , 21-H ) :   0.1596
B(  0-C , 22-H ) :   0.1640 B(  1-N ,  7-C ) :   1.0484 B(  1-N ,  9-C ) :   0.2125
B(  1-N , 12-H ) :   1.1202 B(  1-N , 18-H ) :   0.2585 B(  1-N , 19-H ) :   0.1487
B(  2-C ,  3-C ) :   1.1606 B(  2-C ,  4-H ) :   0.1166 B(  2-C ,  5-H ) :   0.1862
B(  2-C , 23-C ) :   1.2271 B(  2-C , 28-H ) :   0.7101 B(  2-C , 29-H ) :   0.5669
B(  3-C ,  4-H ) :   0.8001 B(  3-C ,  5-H ) :   0.6857 B(  3-C ,  6-C ) :   1.1806
B(  3-C , 23-C ) :   0.1384 B(  3-C , 28-H ) :   0.1786 B(  3-C , 29-H ) :   0.1074
B(  4-H ,  6-C ) :   0.1927 B(  5-H ,  6-C ) :   0.2129 B(  6-C , 15-F ) :   0.6641
B(  6-C , 16-O ) :   1.6358 B(  7-C ,  8-N ) :   0.9884 B(  7-C ,  9-C ) :   1.8822
B(  7-C , 10-H ) :   0.3676 B(  7-C , 11-H ) :   0.3963 B(  7-C , 12-H ) :  -0.1233
B(  8-N ,  9-C ) :   0.2290 B(  8-N , 13-H ) :   0.9155 B(  8-N , 14-H ) :   1.0006
B(  9-C , 10-H ) :   0.3904 B( 10-H , 11-H ) :   0.3279 B( 11-H , 15-F ) :   0.1983
B( 13-H , 14-H ) :  -0.2327 B( 14-H , 16-O ) :   0.1497 B( 15-F , 16-O ) :   0.1037
B( 17-C , 18-H ) :   0.1327 B( 17-C , 19-H ) :   0.1503 B( 17-C , 20-C ) :   1.2176
B( 17-C , 21-H ) :   0.7752 B( 17-C , 22-H ) :   0.6199 B( 17-C , 24-H ) :   0.1307
B( 18-H , 19-H ) :  -0.1708 B( 20-C , 21-H ) :   0.1813 B( 20-C , 22-H ) :   0.2915
B( 20-C , 23-C ) :   1.2601 B( 20-C , 24-H ) :   0.8668 B( 20-C , 25-H ) :   0.7422
B( 20-C , 26-H ) :   0.1755 B( 20-C , 27-H ) :   0.2372 B( 21-H , 22-H ) :  -0.1334
B( 23-C , 24-H ) :   0.1617 B( 23-C , 25-H ) :   0.2003 B( 23-C , 26-H ) :   0.8804
B( 23-C , 27-H ) :   0.6698 B( 23-C , 28-H ) :   0.1931 B( 23-C , 29-H ) :   0.2980
B( 28-H , 29-H ) :  -0.1452

Dispersion correction           -0.057188487
FINAL SINGLE POINT ENERGY      -636.953451157608

DIPOLE MOMENT
-------------
                                X             Y             Z
Electronic contribution:     -2.87062       1.34716     -12.73487
Nuclear contribution   :      2.27881      -0.10762      14.43322
                        -----------------------------------------
Total Dipole Moment    :     -0.59181       1.23954       1.69834
                        -----------------------------------------
Magnitude (a.u.)       :      2.18428
Magnitude (Debye)      :      5.55200

Rotational constants in cm-1:     0.033336     0.023673     0.017062
Rotational constants in MHz :   999.388459   709.685364   511.514310

                             ****ORCA TERMINATED NORMALLY****
TOTAL RUN TIME: 0 days 0 hours 2 minutes 35 seconds 144 msec
