                         Program Version 5.0.0 -  RELEASE  -
|  1> !CAM-B3LYP RIJCOSX def2-SVPD def2/J TightSCF
|  2> *xyz -1 1
|  3> C          3.80351        1.37472       -3.26081
|  4> C          3.93993        0.32036       -4.36773
|  5> H          4.10504       -0.65508       -3.90773
|  6> H          3.02280        0.28052       -4.95712
|  7> C          5.10585        0.66802       -5.30546
|  8> O          4.80913        1.15019       -6.41436
|  9> O          6.26737        0.56500       -4.81948
| 10> H          3.64113        2.33595       -3.70189
| 11> H          4.69995        1.39701       -2.67703
| 12> H          2.97435        1.12625       -2.63180
| 13> *
| 14>
| 15> %MaxCore 64000
| 16>
| 17> %pal nprocs 4
| 18> end
| 19>
| 20> %scf
| 21>   MaxIter 150
| 22> end
| 23>
| 24>
| 25>                          ****END OF INPUT****

CARTESIAN COORDINATES (ANGSTROEM)
---------------------------------
  C      3.803510    1.374720   -3.260810
  C      3.939930    0.320360   -4.367730
  H      4.105040   -0.655080   -3.907730
  H      3.022800    0.280520   -4.957120
  C      5.105850    0.668020   -5.305460
  O      4.809130    1.150190   -6.414360
  O      6.267370    0.565000   -4.819480
  H      3.641130    2.335950   -3.701890
  H      4.699950    1.397010   -2.677030
  H      2.974350    1.126250   -2.631800

 Total Charge           Charge          ....   -1
 Multiplicity           Mult            ....    1
 Number of Electrons    NEL             ....   40
 Basis Dimension        Dim             ....  146

ORBITAL ENERGIES
----------------

  NO   OCC          E(Eh)            E(eV)
   0   2.0000     -18.955284      -515.7995
   1   2.0000     -18.951379      -515.6932
   2   2.0000     -10.148513      -276.1551
   3   2.0000     -10.098309      -274.7890
   4   2.0000     -10.084685      -274.4182
   5   2.0000      -0.896740       -24.4015
   6   2.0000      -0.801989       -21.8232
   7   2.0000      -0.682722       -18.5778
   8   2.0000      -0.546472       -14.8703
   9   2.0000      -0.393057       -10.6956
  10   2.0000      -0.363448        -9.8899
  11   2.0000      -0.329791        -8.9741
  12   2.0000      -0.301881        -8.2146
  13   2.0000      -0.283821        -7.7232
  14   2.0000      -0.280234        -7.6256
  15   2.0000      -0.247110        -6.7242
  16   2.0000      -0.235081        -6.3969
  17   2.0000      -0.116422        -3.1680
  18   2.0000      -0.108688        -2.9576
  19   2.0000      -0.099520        -2.7081
  20   0.0000       0.184264         5.0141
  21   0.0000       0.216213         5.8835
  22   0.0000       0.230696         6.2775
  23   0.0000       0.252461         6.8698
  24   0.0000       0.275438         7.4950

MULLIKEN ATOMIC CHARGES
-----------------------
   0 C :    0.698048
   1 C :   -0.113496
   2 H :   -0.090038
   3 H :   -0.098723
   4 C :    0.370642
   5 O :   -0.647088
   6 O :   -0.702651
   7 H :   -0.144616
   8 H :   -0.112143
   9 H :   -0.159935
Sum of atomic charges:   -1.0000000

LOEWDIN ATOMIC CHARGES
----------------------
   0 C :    0.104742
   1 C :   -0.039716
   2 H :    0.003158
   3 H :   -0.001278
   4 C :   -0.315730
   5 O :   -0.323201
   6 O :   -0.336103
   7 H :   -0.021755
   8 H :   -0.026289
   9 H :   -0.043828

  Mayer bond orders larger than 0.100000
B(  0-C ,  1-C ) :   1.2842 B(  0-C ,  2-H ) :   0.1083 B(  0-C ,  3-H ) :   0.1062
B(  0-C ,  7-H ) :   0.8166 B(  0-C ,  8-H ) :   0.8106 B(  0-C ,  9-H ) :   0.8215
B(  1-C ,  2-H ) :   0.8890 B(  1-C ,  3-H ) :   0.9299 B(  1-C ,  4-C ) :   1.0172
B(  1-C ,  7-H ) :   0.1900 B(  1-C ,  8-H ) :   0.1955 B(  1-C ,  9-H ) :   0.1651
B(  3-H ,  4-C ) :   0.1591 B(  4-C ,  5-O ) :   1.5244 B(  4-C ,  6-O ) :   1.5080

FINAL SINGLE POINT ENERGY      -267.544701727711

DIPOLE MOMENT
-------------
                                X             Y             Z
Electronic contribution:      3.66363      -0.50475      -4.44550
Nuclear contribution   :     -5.15232       0.33441       5.87398
                        -----------------------------------------
Total Dipole Moment    :     -1.48869      -0.17034       1.42848
                        -----------------------------------------
Magnitude (a.u.)       :      2.07021
Magnitude (Debye)      :      5.26204

Rotational constants in cm-1:     0.295355     0.137164     0.110193
Rotational constants in MHz :  8854.523706  4112.077980  3303.490503

                             ****ORCA TERMINATED NORMALLY****
TOTAL RUN TIME: 0 days 0 hours 0 minutes 21 seconds 591 msec
