                         Program Version 5.0.0 -  RELEASE  -
|  1> !CAM-B3LYP RIJCOSX def2-SVPD def2/J TightSCF
|  2> *xyz 1 1
|  3> C          3.90595        2.81985       -3.75292
|  4> N          5.29562        3.13151       -4.10533
|  5> C          3.80351        1.37472       -3.26081
|  6> C          5.70862        3.46889       -5.32419
|  7> N          6.90470        3.03895       -5.71708
|  8> N          4.98188        4.29357       -6.09746
|  9> H          5.00055        4.10131       -7.08776
| 10> H          4.08469        4.59690       -5.73965
| 11> H          5.96336        2.52611       -3.64239
| 12> H          7.04716        2.06686       -5.47360
| 13> H          7.19815        3.30799       -6.64523
| 14> H          3.28202        2.94919       -4.64026
| 15> H          3.56525        3.51457       -2.98252
| 16> H          4.14157        0.71142       -4.02935
| 17> H          2.78528        1.15146       -3.01944
| 18> H          4.41205        1.25066       -2.38949
| 19> *
| 20>
| 21> %MaxCore 64000
| 22>
| 23> %pal nprocs 4
| 24> end
| 25>
| 26> %scf
| 27>   MaxIter 150
| 28> end
| 29>
| 30>
| 31>                          ****END OF INPUT****

CARTESIAN COORDINATES (ANGSTROEM)
---------------------------------
  C      3.905950    2.819850   -3.752920
  N      5.295620    3.131510   -4.105330
  C      3.803510    1.374720   -3.260810
  C      5.708620    3.468890   -5.324190
  N      6.904700    3.038950   -5.717080
  N      4.981880    4.293570   -6.097460
  H      5.000550    4.101310   -7.087760
  H      4.084690    4.596900   -5.739650
  H      5.963360    2.526110   -3.642390
  H      7.047160    2.066860   -5.473600
  H      7.198150    3.307990   -6.645230
  H      3.282020    2.949190   -4.640260
  H      3.565250    3.514570   -2.982520
  H      4.141570    0.711420   -4.029350
  H      2.785280    1.151460   -3.019440
  H      4.412050    1.250660   -2.389490

 Total Charge           Charge          ....    1
 Multiplicity           Mult            ....    1
 Number of Electrons    NEL             ....   48
 Basis Dimension        Dim             ....  200

ORBITAL ENERGIES
----------------

  NO   OCC          E(Eh)            E(eV)
   0   2.0000     -14.634753      -398.2319
   1   2.0000     -14.633463      -398.1968
   2   2.0000     -14.633020      -398.1847
   3   2.0000     -10.602500      -288.5087
   4   2.0000     -10.470315      -284.9118
   5   2.0000     -10.403801      -283.1018
   6   2.0000      -1.300788       -35.3962
   7   2.0000      -1.185463       -32.2581
   8   2.0000      -1.176714       -32.0200
   9   2.0000      -1.012142       -27.5418
  10   2.0000      -0.909152       -24.7393
  11   2.0000      -0.884252       -24.0617
  12   2.0000      -0.853004       -23.2114
  13   2.0000      -0.819955       -22.3121
  14   2.0000      -0.775433       -21.1006
  15   2.0000      -0.760975       -20.7072
  16   2.0000      -0.724672       -19.7193
  17   2.0000      -0.699101       -19.0235
  18   2.0000      -0.668002       -18.1773
  19   2.0000      -0.629577       -17.1317
  20   2.0000      -0.604908       -16.4604
  21   2.0000      -0.589501       -16.0411
  22   2.0000      -0.557872       -15.1805
  23   2.0000      -0.525498       -14.2995
  24   0.0000      -0.148709        -4.0466
  25   0.0000      -0.122426        -3.3314
  26   0.0000      -0.088290        -2.4025
  27   0.0000      -0.075998        -2.0680
  28   0.0000      -0.057270        -1.5584

MULLIKEN ATOMIC CHARGES
-----------------------
   0 C :    0.452146
   1 N :   -0.309590
   2 C :    0.883479
   3 C :    0.720900
   4 N :    0.125232
   5 N :    0.124869
   6 H :   -0.042765
   7 H :   -0.022786
   8 H :   -0.099591
   9 H :   -0.009032
  10 H :   -0.017894
  11 H :   -0.155899
  12 H :   -0.305237
  13 H :   -0.124724
  14 H :   -0.132336
  15 H :   -0.086770
Sum of atomic charges:    1.0000000

LOEWDIN ATOMIC CHARGES
----------------------
   0 C :    0.038448
   1 N :    0.056612
   2 C :    0.160755
   3 C :   -0.054345
   4 N :    0.274342
   5 N :    0.286082
   6 H :    0.037478
   7 H :    0.023983
   8 H :    0.045634
   9 H :    0.037311
  10 H :    0.036716
  11 H :    0.023518
  12 H :    0.038217
  13 H :   -0.007193
  14 H :    0.005512
  15 H :   -0.003070

  Mayer bond orders larger than 0.100000
B(  0-C ,  1-N ) :   0.8949 B(  0-C ,  2-C ) :   1.2926 B(  0-C , 11-H ) :   0.7888
B(  0-C , 12-H ) :   0.8658 B(  0-C , 13-H ) :   0.2392 B(  0-C , 14-H ) :   0.2535
B(  0-C , 15-H ) :   0.1642 B(  1-N ,  3-C ) :   1.1980 B(  1-N ,  4-N ) :   0.1862
B(  1-N ,  8-H ) :   1.1294 B(  1-N , 11-H ) :   0.1219 B(  1-N , 12-H ) :   0.1645
B(  2-C , 13-H ) :   0.7599 B(  2-C , 14-H ) :   0.7629 B(  2-C , 15-H ) :   0.7914
B(  3-C ,  4-N ) :   1.0551 B(  3-C ,  5-N ) :   1.0401 B(  3-C ,  8-H ) :  -0.1730
B(  4-N ,  5-N ) :   0.1028 B(  4-N ,  9-H ) :   1.0358 B(  4-N , 10-H ) :   0.9853
B(  5-N ,  6-H ) :   1.1366 B(  5-N ,  7-H ) :   0.9730 B(  6-H ,  7-H ) :  -0.1175

FINAL SINGLE POINT ENERGY      -284.054302025890

DIPOLE MOMENT
-------------
                                X             Y             Z
Electronic contribution:      3.51354       3.40625      -2.66225
Nuclear contribution   :     -3.31456      -3.64300       1.57303
                        -----------------------------------------
Total Dipole Moment    :      0.19898      -0.23675      -1.08921
                        -----------------------------------------
Magnitude (a.u.)       :      1.13227
Magnitude (Debye)      :      2.87799

Rotational constants in cm-1:     0.229487     0.071000     0.059428
Rotational constants in MHz :  6879.840828  2128.520047  1781.605314

                             ****ORCA TERMINATED NORMALLY****
TOTAL RUN TIME: 0 days 0 hours 0 minutes 43 seconds 52 msec
