                         Program Version 5.0.0 -  RELEASE  -
|  1> !CAM-B3LYP RIJCOSX def2-SVPD def2/J TightSCF
|  2> *xyz 0 1
|  3> C          3.80351        1.37472       -3.26081
|  4> C          3.93993        0.32036       -4.36773
|  5> H          4.10504       -0.65508       -3.90773
|  6> H          3.02280        0.28052       -4.95712
|  7> C          5.10585        0.66802       -5.30546
|  8> F          4.80913        1.15019       -6.41436
|  9> O          6.26737        0.56500       -4.81948
| 10> H          3.64113        2.33595       -3.70189
| 11> H          4.69995        1.39701       -2.67703
| 12> H          2.97435        1.12625       -2.63180
| 13> *
| 14>
| 15> %MaxCore 64000
| 16>
| 17> %pal nprocs 4
| 18> end
| 19>
| 20> %scf
| 21>   MaxIter 150
| 22> end
| 23>
| 24>
| 25>                          ****END OF INPUT****

CARTESIAN COORDINATES (ANGSTROEM)
---------------------------------
  C      3.803510    1.374720   -3.260810
  C      3.939930    0.320360   -4.367730
  H      4.105040   -0.655080   -3.907730
  H      3.022800    0.280520   -4.957120
  C      5.105850    0.668020   -5.305460
  F      4.809130    1.150190   -6.414360
  O      6.267370    0.565000   -4.819480
  H      3.641130    2.335950   -3.701890
  H      4.699950    1.397010   -2.677030
  H      2.974350    1.126250   -2.631800

 Total Charge           Charge          ....    0
 Multiplicity           Mult            ....    1
 Number of Electrons    NEL             ....   40
 Basis Dimension        Dim             ....  146

ORBITAL ENERGIES
----------------

  NO   OCC          E(Eh)            E(eV)
   0   2.0000     -24.853520      -676.2987
   1   2.0000     -19.226365      -523.1760
   2   2.0000     -10.448964      -284.3308
   3   2.0000     -10.293307      -280.0951
   4   2.0000     -10.268368      -279.4165
   5   2.0000      -1.401289       -38.1310
   6   2.0000      -1.106425       -30.1073
   7   2.0000      -0.880686       -23.9647
   8   2.0000      -0.768125       -20.9017
   9   2.0000      -0.721697       -19.6384
  10   2.0000      -0.636179       -17.3113
  11   2.0000      -0.620200       -16.8765
  12   2.0000      -0.582599       -15.8533
  13   2.0000      -0.539130       -14.6705
  14   2.0000      -0.509102       -13.8534
  15   2.0000      -0.471684       -12.8352
  16   2.0000      -0.451076       -12.2744
  17   2.0000      -0.443265       -12.0618
  18   2.0000      -0.417340       -11.3564
  19   2.0000      -0.364138        -9.9087
  20   0.0000       0.012012         0.3269
  21   0.0000       0.042194         1.1482
  22   0.0000       0.074397         2.0244
  23   0.0000       0.084848         2.3088
  24   0.0000       0.105597         2.8734

MULLIKEN ATOMIC CHARGES
-----------------------
   0 C :    0.732096
   1 C :   -0.146571
   2 H :   -0.042473
   3 H :   -0.070781
   4 C :    0.676679
   5 F :   -0.337575
   6 O :   -0.469909
   7 H :   -0.128206
   8 H :   -0.094467
   9 H :   -0.118793
Sum of atomic charges:    0.0000000

LOEWDIN ATOMIC CHARGES
----------------------
   0 C :    0.143328
   1 C :    0.007347
   2 H :    0.036488
   3 H :    0.021662
   4 C :   -0.017783
   5 F :   -0.023015
   6 O :   -0.138553
   7 H :   -0.009510
   8 H :   -0.007533
   9 H :   -0.012432

  Mayer bond orders larger than 0.100000
B(  0-C ,  1-C ) :   1.3011 B(  0-C ,  2-H ) :   0.1030 B(  0-C ,  3-H ) :   0.1030
B(  0-C ,  7-H ) :   0.8117 B(  0-C ,  8-H ) :   0.8118 B(  0-C ,  9-H ) :   0.8294
B(  1-C ,  2-H ) :   0.8877 B(  1-C ,  3-H ) :   0.9282 B(  1-C ,  4-C ) :   1.0710
B(  1-C ,  7-H ) :   0.1719 B(  1-C ,  8-H ) :   0.1757 B(  1-C ,  9-H ) :   0.1549
B(  4-C ,  5-F ) :   0.7885 B(  4-C ,  6-O ) :   1.8427 B(  5-F ,  6-O ) :   0.1081

FINAL SINGLE POINT ENERGY      -292.073881663393

DIPOLE MOMENT
-------------
                                X             Y             Z
Electronic contribution:      3.95871      -0.02096      -7.42407
Nuclear contribution   :     -5.17129      -0.01923       7.59895
                        -----------------------------------------
Total Dipole Moment    :     -1.21258      -0.04019       0.17488
                        -----------------------------------------
Magnitude (a.u.)       :      1.22578
Magnitude (Debye)      :      3.11570

Rotational constants in cm-1:     0.282073     0.131822     0.105134
Rotational constants in MHz :  8456.328792  3951.925810  3151.840112

                             ****ORCA TERMINATED NORMALLY****
TOTAL RUN TIME: 0 days 0 hours 0 minutes 24 seconds 617 msec
