                         Program Version 5.0.0 -  RELEASE  -
|  1> !CAM-B3LYP RIJCOSX def2-SVPD def2/J TightSCF
|  2> *xyz 0 1
|  3> C          3.90595        2.81985       -3.75292
|  4> C          5.29562        3.13151       -4.10533
|  5> C          3.80351        1.37472       -3.26081
|  6> C          5.70862        3.46889       -5.32419
|  7> N          6.90470        3.03895       -5.71708
|  8> N          4.98188        4.29357       -6.09746
|  9> H          5.00055        4.10131       -7.08776
| 10> H          4.08469        4.59690       -5.73965
| 11> H          5.96336        2.52611       -3.64239
| 12> H          7.04716        2.06686       -5.47360
| 13> H          7.19815        3.30799       -6.64523
| 14> H          3.28202        2.94919       -4.64026
| 15> H          3.56525        3.51457       -2.98252
| 16> H          4.14157        0.71142       -4.02935
| 17> H          2.78528        1.15146       -3.01944
| 18> H          4.41205        1.25066       -2.38949
| 19> *
| 20>
| 21> %MaxCore 64000
| 22>
| 23> %pal nprocs 4
| 24> end
| 25>
| 26> %scf
| 27>   MaxIter 150
| 28> end
| 29>
| 30>
| 31>                          ****END OF INPUT****

CARTESIAN COORDINATES (ANGSTROEM)
---------------------------------
  C      3.905950    2.819850   -3.752920
  C      5.295620    3.131510   -4.105330
  C      3.803510    1.374720   -3.260810
  C      5.708620    3.468890   -5.324190
  N      6.904700    3.038950   -5.717080
  N      4.981880    4.293570   -6.097460
  H      5.000550    4.101310   -7.087760
  H      4.084690    4.596900   -5.739650
  H      5.963360    2.526110   -3.642390
  H      7.047160    2.066860   -5.473600
  H      7.198150    3.307990   -6.645230
  H      3.282020    2.949190   -4.640260
  H      3.565250    3.514570   -2.982520
  H      4.141570    0.711420   -4.029350
  H      2.785280    1.151460   -3.019440
  H      4.412050    1.250660   -2.389490

 Total Charge           Charge          ....    0
 Multiplicity           Mult            ....    1
 Number of Electrons    NEL             ....   48
 Basis Dimension        Dim             ....  200

ORBITAL ENERGIES
----------------

  NO   OCC          E(Eh)            E(eV)
   0   2.0000     -14.410500      -392.1297
   1   2.0000     -14.406855      -392.0305
   2   2.0000     -10.304523      -280.4003
   3   2.0000     -10.237047      -278.5642
   4   2.0000     -10.230527      -278.3868
   5   2.0000     -10.185425      -277.1595
   6   2.0000      -1.043004       -28.3816
   7   2.0000      -0.951519       -25.8922
   8   2.0000      -0.855284       -23.2734
   9   2.0000      -0.771462       -20.9926
  10   2.0000      -0.687198       -18.6996
  11   2.0000      -0.650825       -17.7099
  12   2.0000      -0.608822       -16.5669
  13   2.0000      -0.582829       -15.8596
  14   2.0000      -0.549324       -14.9479
  15   2.0000      -0.518571       -14.1110
  16   2.0000      -0.492654       -13.4058
  17   2.0000      -0.459361       -12.4998
  18   2.0000      -0.439249       -11.9526
  19   2.0000      -0.419247       -11.4083
  20   2.0000      -0.393864       -10.7176
  21   2.0000      -0.390633       -10.6297
  22   2.0000      -0.342160        -9.3107
  23   2.0000      -0.229560        -6.2466
  24   0.0000       0.043166         1.1746
  25   0.0000       0.072446         1.9713
  26   0.0000       0.073862         2.0099
  27   0.0000       0.089999         2.4490
  28   0.0000       0.102599         2.7919

MULLIKEN ATOMIC CHARGES
-----------------------
   0 C :    0.092134
   1 C :    0.007423
   2 C :    0.956604
   3 C :    0.157187
   4 N :    0.163207
   5 N :    0.131307
   6 H :   -0.121775
   7 H :   -0.030972
   8 H :   -0.327976
   9 H :   -0.010627
  10 H :   -0.136655
  11 H :   -0.240874
  12 H :   -0.229260
  13 H :   -0.110093
  14 H :   -0.199730
  15 H :   -0.099901
Sum of atomic charges:    0.0000000

LOEWDIN ATOMIC CHARGES
----------------------
   0 C :   -0.103994
   1 C :   -0.021292
   2 C :    0.114214
   3 C :   -0.244132
   4 N :    0.189962
   5 N :    0.201113
   6 H :   -0.012496
   7 H :   -0.007617
   8 H :   -0.056792
   9 H :    0.002764
  10 H :   -0.012583
  11 H :    0.001643
  12 H :    0.008650
  13 H :   -0.017405
  14 H :   -0.024865
  15 H :   -0.017168

  Mayer bond orders larger than 0.100000
B(  0-C ,  1-C ) :   0.9701 B(  0-C ,  2-C ) :   1.2644 B(  0-C ,  3-C ) :   0.1004
B(  0-C ,  8-H ) :   0.2141 B(  0-C , 11-H ) :   0.8117 B(  0-C , 12-H ) :   0.7918
B(  0-C , 13-H ) :   0.2506 B(  0-C , 14-H ) :   0.2947 B(  0-C , 15-H ) :   0.2070
B(  1-C ,  3-C ) :   1.9070 B(  1-C ,  4-N ) :   0.3012 B(  1-C ,  5-N ) :   0.1682
B(  1-C ,  8-H ) :   0.5271 B(  1-C , 11-H ) :   0.1170 B(  1-C , 12-H ) :   0.1805
B(  2-C , 13-H ) :   0.7461 B(  2-C , 14-H ) :   0.7307 B(  2-C , 15-H ) :   0.7709
B(  3-C ,  4-N ) :   0.9983 B(  3-C ,  5-N ) :   1.0230 B(  3-C ,  8-H ) :   0.3553
B(  4-N ,  9-H ) :   1.0269 B(  4-N , 10-H ) :   0.9282 B(  5-N ,  6-H ) :   1.0881
B(  5-N ,  7-H ) :   0.9787

FINAL SINGLE POINT ENERGY      -267.586283504528

DIPOLE MOMENT
-------------
                                X             Y             Z
Electronic contribution:      3.15745       3.24825      -2.82781
Nuclear contribution   :     -3.27358      -3.61654       1.70633
                        -----------------------------------------
Total Dipole Moment    :     -0.11612      -0.36829      -1.12148
                        -----------------------------------------
Magnitude (a.u.)       :      1.18610
Magnitude (Debye)      :      3.01484

Rotational constants in cm-1:     0.231961     0.071249     0.059473
Rotational constants in MHz :  6954.024434  2135.976855  1782.962814

                             ****ORCA TERMINATED NORMALLY****
TOTAL RUN TIME: 0 days 0 hours 0 minutes 46 seconds 389 msec
