                         Program Version 5.0.0 -  RELEASE  -
|  1> !CAM-B3LYP RIJCOSX def2-SVPD def2/J TightSCF
|  2> *xyz 0 1
|  3> C          3.80351        1.37472       -3.26081
|  4> C          3.93993        0.32036       -4.36773
|  5> H          4.10504       -0.65508       -3.90773
|  6> H          3.02280        0.28052       -4.95712
|  7> C          5.10585        0.66802       -5.30546
|  8> O          4.80913        1.15019       -6.41436
|  9> F          6.26737        0.56500       -4.81948
| 10> H          3.64113        2.33595       -3.70189
| 11> H          4.69995        1.39701       -2.67703
| 12> H          2.97435        1.12625       -2.63180
| 13> *
| 14>
| 15> %MaxCore 64000
| 16>
| 17> %pal nprocs 4
| 18> end
| 19>
| 20> %scf
| 21>   MaxIter 150
| 22> end
| 23>
| 24>
| 25>                          ****END OF INPUT****

CARTESIAN COORDINATES (ANGSTROEM)
---------------------------------
  C      3.803510    1.374720   -3.260810
  C      3.939930    0.320360   -4.367730
  H      4.105040   -0.655080   -3.907730
  H      3.022800    0.280520   -4.957120
  C      5.105850    0.668020   -5.305460
  O      4.809130    1.150190   -6.414360
  F      6.267370    0.565000   -4.819480
  H      3.641130    2.335950   -3.701890
  H      4.699950    1.397010   -2.677030
  H      2.974350    1.126250   -2.631800

 Total Charge           Charge          ....    0
 Multiplicity           Mult            ....    1
 Number of Electrons    NEL             ....   40
 Basis Dimension        Dim             ....  146

ORBITAL ENERGIES
----------------

  NO   OCC          E(Eh)            E(eV)
   0   2.0000     -24.846782      -676.1153
   1   2.0000     -19.229301      -523.2559
   2   2.0000     -10.447047      -284.2786
   3   2.0000     -10.292802      -280.0814
   4   2.0000     -10.271142      -279.4920
   5   2.0000      -1.387499       -37.7558
   6   2.0000      -1.117538       -30.4098
   7   2.0000      -0.882578       -24.0162
   8   2.0000      -0.762181       -20.7400
   9   2.0000      -0.719775       -19.5861
  10   2.0000      -0.630012       -17.1435
  11   2.0000      -0.616058       -16.7638
  12   2.0000      -0.579477       -15.7684
  13   2.0000      -0.539142       -14.6708
  14   2.0000      -0.510062       -13.8795
  15   2.0000      -0.475888       -12.9496
  16   2.0000      -0.456762       -12.4291
  17   2.0000      -0.443696       -12.0736
  18   2.0000      -0.426389       -11.6026
  19   2.0000      -0.364688        -9.9237
  20   0.0000       0.016212         0.4411
  21   0.0000       0.041635         1.1329
  22   0.0000       0.074583         2.0295
  23   0.0000       0.084764         2.3065
  24   0.0000       0.106216         2.8903

MULLIKEN ATOMIC CHARGES
-----------------------
   0 C :    0.717195
   1 C :   -0.127168
   2 H :   -0.053323
   3 H :   -0.072864
   4 C :    0.685699
   5 O :   -0.429747
   6 F :   -0.376529
   7 H :   -0.120703
   8 H :   -0.108403
   9 H :   -0.114155
Sum of atomic charges:    0.0000000

LOEWDIN ATOMIC CHARGES
----------------------
   0 C :    0.140614
   1 C :    0.009493
   2 H :    0.028748
   3 H :    0.032990
   4 C :   -0.019159
   5 O :   -0.126719
   6 F :   -0.035027
   7 H :   -0.006175
   8 H :   -0.012827
   9 H :   -0.011938

  Mayer bond orders larger than 0.100000
B(  0-C ,  1-C ) :   1.2869 B(  0-C ,  2-H ) :   0.1039 B(  0-C ,  7-H ) :   0.8267
B(  0-C ,  8-H ) :   0.8017 B(  0-C ,  9-H ) :   0.8361 B(  1-C ,  2-H ) :   0.8868
B(  1-C ,  3-H ) :   0.9444 B(  1-C ,  4-C ) :   1.0433 B(  1-C ,  7-H ) :   0.1713
B(  1-C ,  8-H ) :   0.1702 B(  1-C ,  9-H ) :   0.1529 B(  3-H ,  4-C ) :   0.1203
B(  4-C ,  5-O ) :   1.8657 B(  4-C ,  6-F ) :   0.7445 B(  5-O ,  6-F ) :   0.1133

FINAL SINGLE POINT ENERGY      -292.079343650244

DIPOLE MOMENT
-------------
                                X             Y             Z
Electronic contribution:      6.38993      -1.00267      -4.74194
Nuclear contribution   :     -6.76123       0.61881       5.86003
                        -----------------------------------------
Total Dipole Moment    :     -0.37130      -0.38386       1.11809
                        -----------------------------------------
Magnitude (a.u.)       :      1.23909
Magnitude (Debye)      :      3.14951

Rotational constants in cm-1:     0.275298     0.134631     0.105723
Rotational constants in MHz :  8253.224169  4036.137572  3169.487264

                             ****ORCA TERMINATED NORMALLY****
TOTAL RUN TIME: 0 days 0 hours 0 minutes 23 seconds 150 msec
