                         Program Version 5.0.0 -  RELEASE  -
|  1> !CAM-B3LYP RIJCOSX def2-SVPD def2/J TightSCF
|  2> *xyz 0 1
|  3> C          3.90595        2.81985       -3.75292
|  4> N          5.29562        3.13151       -4.10533
|  5> C          3.80351        1.37472       -3.26081
|  6> C          5.70862        3.46889       -5.32419
|  7> C          6.90470        3.03895       -5.71708
|  8> N          4.98188        4.29357       -6.09746
|  9> H          5.00055        4.10131       -7.08776
| 10> H          4.08469        4.59690       -5.73965
| 11> H          5.96336        2.52611       -3.64239
| 12> H          7.04716        2.06686       -5.47360
| 13> H          7.19815        3.30799       -6.64523
| 14> H          3.28202        2.94919       -4.64026
| 15> H          3.56525        3.51457       -2.98252
| 16> H          4.14157        0.71142       -4.02935
| 17> H          2.78528        1.15146       -3.01944
| 18> H          4.41205        1.25066       -2.38949
| 19> *
| 20>
| 21> %MaxCore 64000
| 22>
| 23> %pal nprocs 4
| 24> end
| 25>
| 26> %scf
| 27>   MaxIter 150
| 28> end
| 29>
| 30>
| 31>                          ****END OF INPUT****

CARTESIAN COORDINATES (ANGSTROEM)
---------------------------------
  C      3.905950    2.819850   -3.752920
  N      5.295620    3.131510   -4.105330
  C      3.803510    1.374720   -3.260810
  C      5.708620    3.468890   -5.324190
  C      6.904700    3.038950   -5.717080
  N      4.981880    4.293570   -6.097460
  H      5.000550    4.101310   -7.087760
  H      4.084690    4.596900   -5.739650
  H      5.963360    2.526110   -3.642390
  H      7.047160    2.066860   -5.473600
  H      7.198150    3.307990   -6.645230
  H      3.282020    2.949190   -4.640260
  H      3.565250    3.514570   -2.982520
  H      4.141570    0.711420   -4.029350
  H      2.785280    1.151460   -3.019440
  H      4.412050    1.250660   -2.389490

 Total Charge           Charge          ....    0
 Multiplicity           Mult            ....    1
 Number of Electrons    NEL             ....   48
 Basis Dimension        Dim             ....  200

ORBITAL ENERGIES
----------------

  NO   OCC          E(Eh)            E(eV)
   0   2.0000     -14.409872      -392.1125
   1   2.0000     -14.406661      -392.0252
   2   2.0000     -10.309570      -280.5377
   3   2.0000     -10.300161      -280.2816
   4   2.0000     -10.259581      -279.1774
   5   2.0000     -10.171182      -276.7719
   6   2.0000      -1.047987       -28.5172
   7   2.0000      -0.963550       -26.2195
   8   2.0000      -0.851554       -23.1720
   9   2.0000      -0.782898       -21.3037
  10   2.0000      -0.704634       -19.1741
  11   2.0000      -0.671246       -18.2655
  12   2.0000      -0.608055       -16.5460
  13   2.0000      -0.567059       -15.4305
  14   2.0000      -0.557675       -15.1751
  15   2.0000      -0.523508       -14.2454
  16   2.0000      -0.492863       -13.4115
  17   2.0000      -0.472285       -12.8515
  18   2.0000      -0.449813       -12.2400
  19   2.0000      -0.443635       -12.0719
  20   2.0000      -0.439634       -11.9630
  21   2.0000      -0.406018       -11.0483
  22   2.0000      -0.327438        -8.9101
  23   2.0000      -0.233621        -6.3571
  24   0.0000       0.041891         1.1399
  25   0.0000       0.063109         1.7173
  26   0.0000       0.078458         2.1349
  27   0.0000       0.085846         2.3360
  28   0.0000       0.103704         2.8219

MULLIKEN ATOMIC CHARGES
-----------------------
   0 C :    0.449007
   1 N :   -0.332940
   2 C :    0.890139
   3 C :    0.209118
   4 C :    0.623326
   5 N :    0.145723
   6 H :   -0.061205
   7 H :   -0.124256
   8 H :   -0.071483
   9 H :   -0.328244
  10 H :   -0.438646
  11 H :   -0.166369
  12 H :   -0.364954
  13 H :   -0.141444
  14 H :   -0.186900
  15 H :   -0.100874
Sum of atomic charges:   -0.0000000

LOEWDIN ATOMIC CHARGES
----------------------
   0 C :    0.007435
   1 N :   -0.006122
   2 C :    0.132532
   3 C :   -0.246817
   4 C :    0.142867
   5 N :    0.204916
   6 H :    0.003438
   7 H :   -0.020573
   8 H :    0.018013
   9 H :   -0.105118
  10 H :   -0.106407
  11 H :    0.009822
  12 H :    0.012917
  13 H :   -0.012476
  14 H :   -0.017732
  15 H :   -0.016695

  Mayer bond orders larger than 0.100000
B(  0-C ,  1-N ) :   0.8837 B(  0-C ,  2-C ) :   1.2722 B(  0-C , 11-H ) :   0.7827
B(  0-C , 12-H ) :   0.8409 B(  0-C , 13-H ) :   0.2575 B(  0-C , 14-H ) :   0.2604
B(  0-C , 15-H ) :   0.1728 B(  1-N ,  3-C ) :   1.1763 B(  1-N ,  4-C ) :   0.2205
B(  1-N ,  8-H ) :   1.0768 B(  1-N , 11-H ) :   0.1278 B(  1-N , 12-H ) :   0.1712
B(  2-C , 13-H ) :   0.7551 B(  2-C , 14-H ) :   0.7631 B(  2-C , 15-H ) :   0.7839
B(  3-C ,  4-C ) :   1.8037 B(  3-C ,  5-N ) :   0.9611 B(  3-C ,  8-H ) :  -0.1314
B(  3-C ,  9-H ) :   0.2342 B(  3-C , 10-H ) :   0.3651 B(  4-C ,  5-N ) :   0.2153
B(  4-C ,  9-H ) :   0.8084 B(  4-C , 10-H ) :   0.4849 B(  5-N ,  6-H ) :   1.1055
B(  5-N ,  7-H ) :   0.9398 B(  6-H ,  7-H ) :  -0.1151 B(  9-H , 10-H ) :   0.1770

FINAL SINGLE POINT ENERGY      -267.574932692031

DIPOLE MOMENT
-------------
                                X             Y             Z
Electronic contribution:      1.51537       3.23046      -1.27141
Nuclear contribution   :     -2.93222      -3.63618       1.36440
                        -----------------------------------------
Total Dipole Moment    :     -1.41685      -0.40572       0.09299
                        -----------------------------------------
Magnitude (a.u.)       :      1.47673
Magnitude (Debye)      :      3.75354

Rotational constants in cm-1:     0.237993     0.072843     0.061284
Rotational constants in MHz :  7134.860770  2183.763760  1837.240960

                             ****ORCA TERMINATED NORMALLY****
TOTAL RUN TIME: 0 days 0 hours 0 minutes 42 seconds 626 msec
