                         Program Version 5.0.0 -  RELEASE  -
|  1> !CAM-B3LYP RIJCOSX def2-SVPD def2/J TightSCF
|  2> *xyz 0 1
|  3> C          3.90595        2.81985       -3.75292
|  4> N          5.29562        3.13151       -4.10533
|  5> C          3.80351        1.37472       -3.26081
|  6> C          5.70862        3.46889       -5.32419
|  7> N          6.90470        3.03895       -5.71708
|  8> C          4.98188        4.29357       -6.09746
|  9> H          5.00055        4.10131       -7.08776
| 10> H          4.08469        4.59690       -5.73965
| 11> H          5.96336        2.52611       -3.64239
| 12> H          7.04716        2.06686       -5.47360
| 13> H          7.19815        3.30799       -6.64523
| 14> H          3.28202        2.94919       -4.64026
| 15> H          3.56525        3.51457       -2.98252
| 16> H          4.14157        0.71142       -4.02935
| 17> H          2.78528        1.15146       -3.01944
| 18> H          4.41205        1.25066       -2.38949
| 19> *
| 20>
| 21> %MaxCore 64000
| 22>
| 23> %pal nprocs 4
| 24> end
| 25>
| 26> %scf
| 27>   MaxIter 150
| 28> end
| 29>
| 30>
| 31>                          ****END OF INPUT****

CARTESIAN COORDINATES (ANGSTROEM)
---------------------------------
  C      3.905950    2.819850   -3.752920
  N      5.295620    3.131510   -4.105330
  C      3.803510    1.374720   -3.260810
  C      5.708620    3.468890   -5.324190
  N      6.904700    3.038950   -5.717080
  C      4.981880    4.293570   -6.097460
  H      5.000550    4.101310   -7.087760
  H      4.084690    4.596900   -5.739650
  H      5.963360    2.526110   -3.642390
  H      7.047160    2.066860   -5.473600
  H      7.198150    3.307990   -6.645230
  H      3.282020    2.949190   -4.640260
  H      3.565250    3.514570   -2.982520
  H      4.141570    0.711420   -4.029350
  H      2.785280    1.151460   -3.019440
  H      4.412050    1.250660   -2.389490

 Total Charge           Charge          ....    0
 Multiplicity           Mult            ....    1
 Number of Electrons    NEL             ....   48
 Basis Dimension        Dim             ....  200

ORBITAL ENERGIES
----------------

  NO   OCC          E(Eh)            E(eV)
   0   2.0000     -14.409011      -392.0891
   1   2.0000     -14.408883      -392.0856
   2   2.0000     -10.308750      -280.5154
   3   2.0000     -10.294042      -280.1151
   4   2.0000     -10.257395      -279.1179
   5   2.0000     -10.177022      -276.9309
   6   2.0000      -1.053018       -28.6541
   7   2.0000      -0.965702       -26.2781
   8   2.0000      -0.839978       -22.8570
   9   2.0000      -0.784750       -21.3541
  10   2.0000      -0.718833       -19.5604
  11   2.0000      -0.640430       -17.4270
  12   2.0000      -0.611073       -16.6281
  13   2.0000      -0.589569       -16.0430
  14   2.0000      -0.545504       -14.8439
  15   2.0000      -0.528348       -14.3771
  16   2.0000      -0.476264       -12.9598
  17   2.0000      -0.471561       -12.8318
  18   2.0000      -0.463112       -12.6019
  19   2.0000      -0.441763       -12.0210
  20   2.0000      -0.431724       -11.7478
  21   2.0000      -0.407750       -11.0954
  22   2.0000      -0.325123        -8.8470
  23   2.0000      -0.236821        -6.4442
  24   0.0000       0.041809         1.1377
  25   0.0000       0.067992         1.8502
  26   0.0000       0.077897         2.1197
  27   0.0000       0.089254         2.4287
  28   0.0000       0.099719         2.7135

MULLIKEN ATOMIC CHARGES
-----------------------
   0 C :    0.468422
   1 N :   -0.221293
   2 C :    0.912658
   3 C :    0.087224
   4 N :    0.097514
   5 C :    0.579420
   6 H :   -0.498156
   7 H :   -0.190737
   8 H :   -0.208215
   9 H :   -0.060582
  10 H :   -0.011427
  11 H :   -0.120261
  12 H :   -0.391141
  13 H :   -0.150673
  14 H :   -0.166156
  15 H :   -0.126596
Sum of atomic charges:   -0.0000000

LOEWDIN ATOMIC CHARGES
----------------------
   0 C :    0.018569
   1 N :   -0.004897
   2 C :    0.129559
   3 C :   -0.257955
   4 N :    0.192178
   5 C :    0.161141
   6 H :   -0.106256
   7 H :   -0.111058
   8 H :    0.007770
   9 H :   -0.010229
  10 H :    0.002364
  11 H :    0.014876
  12 H :    0.017704
  13 H :   -0.016793
  14 H :   -0.016846
  15 H :   -0.020128

  Mayer bond orders larger than 0.100000
B(  0-C ,  1-N ) :   0.9249 B(  0-C ,  2-C ) :   1.2455 B(  0-C , 11-H ) :   0.8160
B(  0-C , 12-H ) :   0.8428 B(  0-C , 13-H ) :   0.2269 B(  0-C , 14-H ) :   0.2654
B(  0-C , 15-H ) :   0.1808 B(  1-N ,  3-C ) :   1.1469 B(  1-N ,  4-N ) :   0.1609
B(  1-N ,  5-C ) :   0.2107 B(  1-N ,  8-H ) :   1.0340 B(  1-N , 11-H ) :   0.1285
B(  1-N , 12-H ) :   0.1620 B(  2-C , 13-H ) :   0.7782 B(  2-C , 14-H ) :   0.7482
B(  2-C , 15-H ) :   0.7750 B(  3-C ,  4-N ) :   1.0531 B(  3-C ,  5-C ) :   1.9020
B(  3-C ,  6-H ) :   0.2253 B(  3-C ,  7-H ) :   0.3296 B(  3-C ,  8-H ) :  -0.1084
B(  4-N ,  5-C ) :   0.1419 B(  4-N ,  9-H ) :   0.9600 B(  4-N , 10-H ) :   0.9807
B(  5-C ,  6-H ) :   0.7503 B(  5-C ,  7-H ) :   0.4842 B(  6-H ,  7-H ) :   0.3021

FINAL SINGLE POINT ENERGY      -267.579325139265

DIPOLE MOMENT
-------------
                                X             Y             Z
Electronic contribution:      3.37754       2.06396      -0.98583
Nuclear contribution   :     -3.34013      -3.37002       1.28371
                        -----------------------------------------
Total Dipole Moment    :      0.03741      -1.30606       0.29788
                        -----------------------------------------
Magnitude (a.u.)       :      1.34012
Magnitude (Debye)      :      3.40631

Rotational constants in cm-1:     0.239537     0.072280     0.060961
Rotational constants in MHz :  7181.153552  2166.902802  1827.551447

                             ****ORCA TERMINATED NORMALLY****
TOTAL RUN TIME: 0 days 0 hours 0 minutes 43 seconds 486 msec
