                         Program Version 5.0.0 -  RELEASE  -
|  1> !CAM-B3LYP RIJCOSX def2-SVPD def2/J TightSCF xyzfile
|  2>
|  3> *xyzfile 0 1 D5.xyz
|  4>
|  5> %MaxCore 64000
|  6>
|  7> %pal nprocs 4
|  8> end
|  9>
| 10> %scf
| 11>   MaxIter 150
| 12> end
| 13>
| 14>
| 15>                          ****END OF INPUT****

CARTESIAN COORDINATES (ANGSTROEM)
---------------------------------
  C      3.905947    2.819855   -3.752920
  N      5.295615    3.131515   -4.105334
  C      3.803511    1.374716   -3.260807
  C      3.939934    0.320362   -4.367729
  H      4.105043   -0.655085   -3.907733
  H      3.022801    0.280517   -4.957117
  C      5.105846    0.668022   -5.305463
  C      5.708619    3.468885   -5.324190
  C      6.904696    3.038954   -5.717084
  N      4.981884    4.293570   -6.097457
  H      5.000546    4.101311   -7.087761
  H      4.084693    4.596899   -5.739652
  H      5.963358    2.526112   -3.642391
  H      7.047164    2.066861   -5.473604
  H      7.198145    3.307994   -6.645225
  H      3.282025    2.949187   -4.640259
  H      3.565254    3.514574   -2.982523
  H      4.574833    1.215157   -2.500443
  H      2.843514    1.260845   -2.751465
  O      4.809132    1.150187   -6.414361
  F      6.267366    0.564999   -4.819481

 Total Charge           Charge          ....    0
 Multiplicity           Mult            ....    1
 Number of Electrons    NEL             ....   78
 Basis Dimension        Dim             ....  294

ORBITAL ENERGIES
----------------

  NO   OCC          E(Eh)            E(eV)
   0   2.0000     -24.851338      -676.2393
   1   2.0000     -19.230839      -523.2977
   2   2.0000     -14.411985      -392.1701
   3   2.0000     -14.402571      -391.9139
   4   2.0000     -10.450833      -284.3816
   5   2.0000     -10.307836      -280.4905
   6   2.0000     -10.302200      -280.3371
   7   2.0000     -10.299629      -280.2672
   8   2.0000     -10.292746      -280.0799
   9   2.0000     -10.159625      -276.4574
  10   2.0000      -1.395258       -37.9669
  11   2.0000      -1.121871       -30.5277
  12   2.0000      -1.048965       -28.5438
  13   2.0000      -0.964312       -26.2403
  14   2.0000      -0.899654       -24.4808
  15   2.0000      -0.821977       -22.3671
  16   2.0000      -0.778875       -21.1943
  17   2.0000      -0.738822       -20.1044
  18   2.0000      -0.699038       -19.0218
  19   2.0000      -0.675160       -18.3720
  20   2.0000      -0.637858       -17.3570
  21   2.0000      -0.633772       -17.2458
  22   2.0000      -0.597026       -16.2459
  23   2.0000      -0.582536       -15.8516
  24   2.0000      -0.572303       -15.5731
  25   2.0000      -0.561103       -15.2684
  26   2.0000      -0.538848       -14.6628
  27   2.0000      -0.513682       -13.9780
  28   2.0000      -0.495868       -13.4933
  29   2.0000      -0.476319       -12.9613
  30   2.0000      -0.465726       -12.6731
  31   2.0000      -0.455192       -12.3864
  32   2.0000      -0.443841       -12.0775
  33   2.0000      -0.435418       -11.8483
  34   2.0000      -0.429383       -11.6841
  35   2.0000      -0.393485       -10.7073
  36   2.0000      -0.366958        -9.9854
  37   2.0000      -0.328045        -8.9266
  38   2.0000      -0.225864        -6.1461
  39   0.0000       0.010532         0.2866
  40   0.0000       0.037027         1.0076
  41   0.0000       0.056581         1.5396
  42   0.0000       0.065266         1.7760
  43   0.0000       0.073558         2.0016

MULLIKEN ATOMIC CHARGES
-----------------------
   0 C :    0.925771
   1 N :   -0.243966
   2 C :    0.238556
   3 C :    0.431811
   4 H :   -0.148250
   5 H :   -0.050655
   6 C :    0.554655
   7 C :   -0.050590
   8 C :    1.001264
   9 N :    0.149340
  10 H :   -0.044576
  11 H :   -0.047446
  12 H :   -0.092109
  13 H :   -0.634178
  14 H :   -0.319285
  15 H :   -0.064973
  16 H :   -0.431175
  17 H :   -0.058103
  18 H :   -0.238608
  19 O :   -0.388939
  20 F :   -0.488546
Sum of atomic charges:    0.0000000

LOEWDIN ATOMIC CHARGES
----------------------
   0 C :    0.058469
   1 N :    0.013131
   2 C :   -0.009755
   3 C :    0.066104
   4 H :    0.031839
   5 H :    0.036959
   6 C :   -0.014258
   7 C :   -0.257812
   8 C :    0.159641
   9 N :    0.218346
  10 H :    0.007813
  11 H :   -0.018637
  12 H :    0.011678
  13 H :   -0.138549
  14 H :   -0.087204
  15 H :    0.020211
  16 H :    0.016557
  17 H :    0.027243
  18 H :    0.025780
  19 O :   -0.118489
  20 F :   -0.049067

  Mayer bond orders larger than 0.100000
B(  0-C ,  1-N ) :   0.8648 B(  0-C ,  2-C ) :   1.1571 B(  0-C , 15-H ) :   0.7027
B(  0-C , 16-H ) :   0.7913 B(  0-C , 18-H ) :   0.1923 B(  1-N ,  2-C ) :   0.1566
B(  1-N ,  7-C ) :   1.1753 B(  1-N ,  8-C ) :   0.1716 B(  1-N , 12-H ) :   1.0326
B(  1-N , 15-H ) :   0.1427 B(  2-C ,  3-C ) :   1.1709 B(  2-C ,  4-H ) :   0.1969
B(  2-C ,  5-H ) :   0.1205 B(  2-C , 17-H ) :   0.8107 B(  2-C , 18-H ) :   0.8811
B(  3-C ,  4-H ) :   0.7725 B(  3-C ,  5-H ) :   0.8190 B(  3-C ,  6-C ) :   1.0902
B(  4-H ,  6-C ) :   0.1190 B(  5-H ,  6-C ) :   0.2289 B(  6-C , 13-H ) :   0.1041
B(  6-C , 19-O ) :   1.8608 B(  6-C , 20-F ) :   0.6402 B(  7-C ,  8-C ) :   1.8809
B(  7-C ,  9-N ) :   0.9268 B(  7-C , 11-H ) :   0.1753 B(  7-C , 12-H ) :  -0.1369
B(  7-C , 13-H ) :   0.2180 B(  7-C , 14-H ) :   0.5039 B(  8-C ,  9-N ) :   0.2718
B(  8-C , 13-H ) :   0.3478 B(  8-C , 14-H ) :   0.2334 B(  9-N , 10-H ) :   1.0482
B(  9-N , 11-H ) :   0.8507 B( 10-H , 11-H ) :  -0.1295 B( 13-H , 14-H ) :   0.1589
B( 13-H , 20-F ) :   0.2212 B( 15-H , 16-H ) :  -0.1391 B( 19-O , 20-F ) :   0.1011

FINAL SINGLE POINT ENERGY      -519.181065695152

DIPOLE MOMENT
-------------
                                X             Y             Z
Electronic contribution:      4.38597      -4.68712      -2.57281
Nuclear contribution   :     -6.05797       3.87976       3.55209
                        -----------------------------------------
Total Dipole Moment    :     -1.67200      -0.80736       0.97928
                        -----------------------------------------
Magnitude (a.u.)       :      2.09914
Magnitude (Debye)      :      5.33559

Rotational constants in cm-1:     0.061282     0.043164     0.033679
Rotational constants in MHz :  1837.191639  1294.028651  1009.659886

                             ****ORCA TERMINATED NORMALLY****
TOTAL RUN TIME: 0 days 0 hours 1 minutes 52 seconds 847 msec
