                         Program Version 5.0.0 -  RELEASE  -
|  1> !CAM-B3LYP RIJCOSX def2-SVPD def2/J TightSCF xyzfile
|  2>
|  3> *xyzfile 0 1 D6.xyz
|  4>
|  5> %MaxCore 64000
|  6>
|  7> %pal nprocs 4
|  8> end
|  9>
| 10> %scf
| 11>   MaxIter 150
| 12> end
| 13>
| 14>
| 15>                          ****END OF INPUT****

CARTESIAN COORDINATES (ANGSTROEM)
---------------------------------
  C      3.905947    2.819855   -3.752920
  N      5.295615    3.131515   -4.105334
  C      3.803511    1.374716   -3.260807
  C      3.939934    0.320362   -4.367729
  H      4.105043   -0.655085   -3.907733
  H      3.022801    0.280517   -4.957117
  C      5.105846    0.668022   -5.305463
  C      5.708619    3.468885   -5.324190
  N      6.904696    3.038954   -5.717084
  C      4.981884    4.293570   -6.097457
  H      5.000546    4.101311   -7.087761
  H      4.084693    4.596899   -5.739652
  H      5.963358    2.526112   -3.642391
  H      7.047164    2.066861   -5.473604
  H      7.198145    3.307994   -6.645225
  H      3.282025    2.949187   -4.640259
  H      3.565254    3.514574   -2.982523
  H      4.574833    1.215157   -2.500443
  H      2.843514    1.260845   -2.751465
  O      4.809132    1.150187   -6.414361
  F      6.267366    0.564999   -4.819481

 Total Charge           Charge          ....    0
 Multiplicity           Mult            ....    1
 Number of Electrons    NEL             ....   78
 Basis Dimension        Dim             ....  294

ORBITAL ENERGIES
----------------

  NO   OCC          E(Eh)            E(eV)
   0   2.0000     -24.869725      -676.7396
   1   2.0000     -19.240118      -523.5502
   2   2.0000     -14.414396      -392.2357
   3   2.0000     -14.394374      -391.6908
   4   2.0000     -10.458066      -284.5784
   5   2.0000     -10.303369      -280.3689
   6   2.0000     -10.303224      -280.3650
   7   2.0000     -10.302593      -280.3478
   8   2.0000     -10.292105      -280.0624
   9   2.0000     -10.170553      -276.7548
  10   2.0000      -1.413215       -38.4555
  11   2.0000      -1.130285       -30.7566
  12   2.0000      -1.052820       -28.6487
  13   2.0000      -0.966864       -26.3097
  14   2.0000      -0.897248       -24.4154
  15   2.0000      -0.816344       -22.2139
  16   2.0000      -0.779846       -21.2207
  17   2.0000      -0.760025       -20.6813
  18   2.0000      -0.712001       -19.3745
  19   2.0000      -0.659715       -17.9518
  20   2.0000      -0.652234       -17.7482
  21   2.0000      -0.639654       -17.4059
  22   2.0000      -0.599000       -16.2996
  23   2.0000      -0.585725       -15.9384
  24   2.0000      -0.575167       -15.6511
  25   2.0000      -0.558178       -15.1888
  26   2.0000      -0.553637       -15.0652
  27   2.0000      -0.504234       -13.7209
  28   2.0000      -0.500434       -13.6175
  29   2.0000      -0.476158       -12.9569
  30   2.0000      -0.465869       -12.6770
  31   2.0000      -0.460127       -12.5207
  32   2.0000      -0.452291       -12.3075
  33   2.0000      -0.436548       -11.8791
  34   2.0000      -0.429323       -11.6825
  35   2.0000      -0.401663       -10.9298
  36   2.0000      -0.372740       -10.1428
  37   2.0000      -0.323440        -8.8012
  38   2.0000      -0.231397        -6.2966
  39   0.0000       0.003852         0.1048
  40   0.0000       0.035030         0.9532
  41   0.0000       0.063105         1.7172
  42   0.0000       0.066330         1.8049
  43   0.0000       0.075203         2.0464

MULLIKEN ATOMIC CHARGES
-----------------------
   0 C :    0.937024
   1 N :   -0.159043
   2 C :    0.285961
   3 C :    0.465765
   4 H :   -0.149664
   5 H :   -0.052756
   6 C :    0.581619
   7 C :    0.016838
   8 N :    0.263874
   9 C :    0.565946
  10 H :   -0.496492
  11 H :   -0.250880
  12 H :   -0.210043
  13 H :   -0.176983
  14 H :    0.039655
  15 H :   -0.035797
  16 H :   -0.509017
  17 H :   -0.065043
  18 H :   -0.231985
  19 O :   -0.378443
  20 F :   -0.440534
Sum of atomic charges:   -0.0000000

LOEWDIN ATOMIC CHARGES
----------------------
   0 C :    0.071428
   1 N :    0.013132
   2 C :   -0.009803
   3 C :    0.067390
   4 H :    0.031400
   5 H :    0.039276
   6 C :   -0.015957
   7 C :   -0.272143
   8 N :    0.219615
   9 C :    0.167418
  10 H :   -0.095009
  11 H :   -0.108537
  12 H :    0.003043
  13 H :   -0.064265
  14 H :    0.014310
  15 H :    0.025950
  16 H :    0.021310
  17 H :    0.024502
  18 H :    0.027164
  19 O :   -0.110251
  20 F :   -0.049972

  Mayer bond orders larger than 0.100000
B(  0-C ,  1-N ) :   0.8865 B(  0-C ,  2-C ) :   1.1246 B(  0-C , 15-H ) :   0.7302
B(  0-C , 16-H ) :   0.8291 B(  0-C , 18-H ) :   0.2037 B(  1-N ,  2-C ) :   0.1763
B(  1-N ,  7-C ) :   1.2455 B(  1-N ,  9-C ) :   0.2304 B(  1-N , 12-H ) :   0.9578
B(  1-N , 15-H ) :   0.1544 B(  2-C ,  3-C ) :   1.1661 B(  2-C ,  4-H ) :   0.1969
B(  2-C ,  5-H ) :   0.1213 B(  2-C , 17-H ) :   0.8080 B(  2-C , 18-H ) :   0.8666
B(  3-C ,  4-H ) :   0.7648 B(  3-C ,  5-H ) :   0.8035 B(  3-C ,  6-C ) :   1.0904
B(  4-H ,  6-C ) :   0.1182 B(  5-H ,  6-C ) :   0.2504 B(  6-C , 19-O ) :   1.8606
B(  6-C , 20-F ) :   0.6115 B(  7-C ,  8-N ) :   1.0359 B(  7-C ,  9-C ) :   1.9420
B(  7-C , 10-H ) :   0.2380 B(  7-C , 11-H ) :   0.3363 B(  7-C , 12-H ) :  -0.1465
B(  7-C , 13-H ) :   0.1506 B(  7-C , 14-H ) :   0.1094 B(  7-C , 15-H ) :   0.1042
B(  8-N ,  9-C ) :   0.1505 B(  8-N , 13-H ) :   0.8474 B(  8-N , 14-H ) :   0.8941
B(  9-C , 10-H ) :   0.7390 B(  9-C , 11-H ) :   0.5039 B( 10-H , 11-H ) :   0.1722
B( 15-H , 16-H ) :  -0.1346 B( 19-O , 20-F ) :   0.1038

FINAL SINGLE POINT ENERGY      -519.191572680604

DIPOLE MOMENT
-------------
                                X             Y             Z
Electronic contribution:      5.93497      -5.70507      -2.30747
Nuclear contribution   :     -6.29470       4.03423       3.50525
                        -----------------------------------------
Total Dipole Moment    :     -0.35974      -1.67084       1.19779
                        -----------------------------------------
Magnitude (a.u.)       :      2.08705
Magnitude (Debye)      :      5.30487

Rotational constants in cm-1:     0.061094     0.043661     0.033867
Rotational constants in MHz :  1831.559881  1308.929520  1015.295167

                             ****ORCA TERMINATED NORMALLY****
TOTAL RUN TIME: 0 days 0 hours 1 minutes 56 seconds 581 msec
