                         Program Version 5.0.0 -  RELEASE  -
|  1> !LC-BLYP RIJCOSX def2-SVPD def2/J TightSCF
|  2> *xyz -1 1
|  3> C         -0.10608        1.76991       -4.08984
|  4> C         -0.25875        1.00432       -5.40983
|  5> C          0.39596       -0.37070       -5.33994
|  6> H          0.23915        1.56939       -6.20125
|  7> H         -1.30936        0.88869       -5.68245
|  8> O         -0.32633       -1.39040       -5.49128
|  9> O          1.61941       -0.40073       -5.03683
| 10> H         -0.57627        2.72718       -4.17630
| 11> H          0.93321        1.90140       -3.87192
| 12> H         -0.56868        1.21534       -3.30031
| 13> *
| 14> %MaxCore 64000
| 15>
| 16> %pal nprocs 4
| 17> end
| 18>
| 19> %scf
| 20>   MaxIter 150
| 21> end
| 22>
| 23>
| 24>                          ****END OF INPUT****

CARTESIAN COORDINATES (ANGSTROEM)
---------------------------------
  C     -0.106080    1.769910   -4.089840
  C     -0.258750    1.004320   -5.409830
  C      0.395960   -0.370700   -5.339940
  H      0.239150    1.569390   -6.201250
  H     -1.309360    0.888690   -5.682450
  O     -0.326330   -1.390400   -5.491280
  O      1.619410   -0.400730   -5.036830
  H     -0.576270    2.727180   -4.176300
  H      0.933210    1.901400   -3.871920
  H     -0.568680    1.215340   -3.300310

 Total Charge           Charge          ....   -1
 Multiplicity           Mult            ....    1
 Number of Electrons    NEL             ....   40
 Basis Dimension        Dim             ....  146

ORBITAL ENERGIES
----------------

  NO   OCC          E(Eh)            E(eV)
   0   2.0000     -18.697341      -508.7805
   1   2.0000     -18.695987      -508.7437
   2   2.0000      -9.975427      -271.4452
   3   2.0000      -9.925197      -270.0784
   4   2.0000      -9.914801      -269.7954
   5   2.0000      -0.906766       -24.6744
   6   2.0000      -0.810409       -22.0523
   7   2.0000      -0.712205       -19.3801
   8   2.0000      -0.580174       -15.7873
   9   2.0000      -0.427995       -11.6463
  10   2.0000      -0.401437       -10.9237
  11   2.0000      -0.362840        -9.8734
  12   2.0000      -0.338012        -9.1978
  13   2.0000      -0.318349        -8.6627
  14   2.0000      -0.311881        -8.4867
  15   2.0000      -0.280345        -7.6286
  16   2.0000      -0.268123        -7.2960
  17   2.0000      -0.150494        -4.0952
  18   2.0000      -0.145109        -3.9486
  19   2.0000      -0.129409        -3.5214
  20   0.0000       0.205235         5.5847
  21   0.0000       0.237791         6.4706
  22   0.0000       0.250301         6.8110
  23   0.0000       0.273324         7.4375
  24   0.0000       0.298256         8.1160

MULLIKEN ATOMIC CHARGES
-----------------------
   0 C :    0.755905
   1 C :   -0.075350
   2 C :    0.126574
   3 H :   -0.072754
   4 H :   -0.135393
   5 O :   -0.558944
   6 O :   -0.596626
   7 H :   -0.169393
   8 H :   -0.110733
   9 H :   -0.163287
Sum of atomic charges:   -1.0000000

LOEWDIN ATOMIC CHARGES
----------------------
   0 C :    0.091912
   1 C :   -0.052190
   2 C :   -0.347608
   3 H :    0.013357
   4 H :    0.005932
   5 O :   -0.316082
   6 O :   -0.313024
   7 H :   -0.039461
   8 H :   -0.025065
   9 H :   -0.017770

  Mayer bond orders larger than 0.100000
B(  0-C ,  1-C ) :   1.2805 B(  0-C ,  3-H ) :   0.1016 B(  0-C ,  4-H ) :   0.1072
B(  0-C ,  7-H ) :   0.7964 B(  0-C ,  8-H ) :   0.7902 B(  0-C ,  9-H ) :   0.8014
B(  1-C ,  2-C ) :   1.0367 B(  1-C ,  3-H ) :   0.8461 B(  1-C ,  4-H ) :   0.9374
B(  1-C ,  7-H ) :   0.1882 B(  1-C ,  8-H ) :   0.2094 B(  1-C ,  9-H ) :   0.1887
B(  2-C ,  4-H ) :   0.1899 B(  2-C ,  5-O ) :   1.6085 B(  2-C ,  6-O ) :   1.6334

FINAL SINGLE POINT ENERGY      -267.061877464753

DIPOLE MOMENT
-------------
                                X             Y             Z
Electronic contribution:      1.70618      -5.22288      -1.70282
Nuclear contribution   :     -2.46071       7.20791       1.95694
                        -----------------------------------------
Total Dipole Moment    :     -0.75454       1.98503       0.25411
                        -----------------------------------------
Magnitude (a.u.)       :      2.13875
Magnitude (Debye)      :      5.43628

Rotational constants in cm-1:     0.309435     0.135317     0.107436
Rotational constants in MHz :  9276.637721  4056.700783  3220.846587

                             ****ORCA TERMINATED NORMALLY****
TOTAL RUN TIME: 0 days 0 hours 0 minutes 19 seconds 148 msec
