                         Program Version 5.0.0 -  RELEASE  -
|  1> !LC-BLYP RIJCOSX def2-SVPD def2/J TightSCF
|  2> *xyz 1 1
|  3> C          0.81607       -2.10149       -2.18655
|  4> H          1.69623       -2.36869       -1.60046
|  5> N          1.10055       -2.46749       -3.59927
|  6> C          0.51624       -0.61363       -2.03937
|  7> H         -0.02007       -2.71285       -1.84084
|  8> H          1.70061       -1.75723       -4.07838
|  9> H          0.29386       -2.35977       -4.25632
| 10> H          1.50132       -3.42848       -3.69491
| 11> H         -0.34841       -0.36504       -2.61858
| 12> H          1.35358       -0.04503       -2.38643
| 13> H          0.33317       -0.38682       -1.00984
| 14> *
| 15> %MaxCore 64000
| 16>
| 17> %pal nprocs 4
| 18> end
| 19>
| 20> %scf
| 21>   MaxIter 150
| 22> end
| 23>
| 24>
| 25>                          ****END OF INPUT****

CARTESIAN COORDINATES (ANGSTROEM)
---------------------------------
  C      0.816070   -2.101490   -2.186550
  H      1.696230   -2.368690   -1.600460
  N      1.100550   -2.467490   -3.599270
  C      0.516240   -0.613630   -2.039370
  H     -0.020070   -2.712850   -1.840840
  H      1.700610   -1.757230   -4.078380
  H      0.293860   -2.359770   -4.256320
  H      1.501320   -3.428480   -3.694910
  H     -0.348410   -0.365040   -2.618580
  H      1.353580   -0.045030   -2.386430
  H      0.333170   -0.386820   -1.009840

 Total Charge           Charge          ....    1
 Multiplicity           Mult            ....    1
 Number of Electrons    NEL             ....   26
 Basis Dimension        Dim             ....  124

ORBITAL ENERGIES
----------------

  NO   OCC          E(Eh)            E(eV)
   0   2.0000     -14.524676      -395.2365
   1   2.0000     -10.339288      -281.3463
   2   2.0000     -10.261423      -279.2275
   3   2.0000      -1.303982       -35.4832
   4   2.0000      -1.069694       -29.1079
   5   2.0000      -0.956099       -26.0168
   6   2.0000      -0.893242       -24.3064
   7   2.0000      -0.878919       -23.9166
   8   2.0000      -0.805894       -21.9295
   9   2.0000      -0.741347       -20.1731
  10   2.0000      -0.684556       -18.6277
  11   2.0000      -0.669543       -18.2192
  12   2.0000      -0.648823       -17.6554
  13   0.0000      -0.134392        -3.6570
  14   0.0000      -0.074714        -2.0331
  15   0.0000      -0.069434        -1.8894
  16   0.0000      -0.066805        -1.8178
  17   0.0000      -0.027497        -0.7482

MULLIKEN ATOMIC CHARGES
-----------------------
   0 C :    0.399738
   1 H :   -0.140621
   2 N :   -0.836631
   3 C :    0.849527
   4 H :   -0.160437
   5 H :    0.407523
   6 H :    0.372444
   7 H :    0.374740
   8 H :   -0.060964
   9 H :   -0.097869
  10 H :   -0.107450
Sum of atomic charges:    1.0000000

LOEWDIN ATOMIC CHARGES
----------------------
   0 C :    0.031462
   1 H :    0.057481
   2 N :    0.305438
   3 C :    0.159838
   4 H :    0.058710
   5 H :    0.114790
   6 H :    0.120066
   7 H :    0.124880
   8 H :    0.004608
   9 H :    0.003237
  10 H :    0.019490

  Mayer bond orders larger than 0.100000
B(  0-C ,  1-H ) :   0.8688 B(  0-C ,  2-N ) :   0.7428 B(  0-C ,  3-C ) :   1.3110
B(  0-C ,  4-H ) :   0.8893 B(  0-C ,  8-H ) :   0.1669 B(  0-C ,  9-H ) :   0.1793
B(  0-C , 10-H ) :   0.2171 B(  1-H ,  2-N ) :   0.1090 B(  2-N ,  4-H ) :   0.1253
B(  2-N ,  5-H ) :   0.6954 B(  2-N ,  6-H ) :   0.7639 B(  2-N ,  7-H ) :   0.7124
B(  3-C ,  8-H ) :   0.7809 B(  3-C ,  9-H ) :   0.7934 B(  3-C , 10-H ) :   0.7751

FINAL SINGLE POINT ENERGY      -135.042241853532

DIPOLE MOMENT
-------------
                                X             Y             Z
Electronic contribution:      0.42220      -1.44129      -1.08567
Nuclear contribution   :     -0.07506       0.54337      -0.16191
                        -----------------------------------------
Total Dipole Moment    :      0.34715      -0.89792      -1.24758
                        -----------------------------------------
Magnitude (a.u.)       :      1.57583
Magnitude (Debye)      :      4.00544

Rotational constants in cm-1:     0.999557     0.280801     0.246932
Rotational constants in MHz : 29965.963633  8418.199581  7402.841054

                             ****ORCA TERMINATED NORMALLY****
TOTAL RUN TIME: 0 days 0 hours 0 minutes 12 seconds 513 msec
