                         Program Version 5.0.0 -  RELEASE  -
|  1> !LC-BLYP RIJCOSX def2-SVPD def2/J TightSCF xyzfile
|  2>
|  3> *xyzfile 0 1 B.xyz
|  4>
|  5> %MaxCore 64000
|  6>
|  7> %pal nprocs 4
|  8> end
|  9>
| 10> %scf
| 11>   MaxIter 150
| 12> end
| 13>
| 14>
| 15>                          ****END OF INPUT****

CARTESIAN COORDINATES (ANGSTROEM)
---------------------------------
  C      0.816067   -2.101491   -2.186546
  H      1.696232   -2.368691   -1.600457
  N      1.100552   -2.467492   -3.599269
  C      0.516243   -0.613634   -2.039373
  H     -0.020066   -2.712849   -1.840844
  C     -0.868621   -0.193925   -2.546303
  C     -0.984801    1.284739   -2.928686
  H     -0.764939    1.904116   -2.051568
  H     -2.032613    1.478953   -3.178952
  C     -0.106085    1.769914   -4.089836
  H     -0.347744    2.822196   -4.262942
  H      0.949683    1.745875   -3.808781
  C     -0.258747    1.004323   -5.409829
  C      0.395958   -0.370696   -5.339939
  H      0.239150    1.569393   -6.201253
  H     -1.309360    0.888694   -5.682455
  H      1.700606   -1.757225   -4.078378
  H      0.293855   -2.359766   -4.256324
  H      1.501324   -3.428479   -3.694915
  O     -0.326329   -1.390398   -5.491279
  O      1.619412   -0.400726   -5.036827
  H     -1.607271   -0.412651   -1.768955
  H     -1.157234   -0.796164   -3.409254
  H      1.299044   -0.056805   -2.558982
  H      0.612393   -0.365579   -0.979171

 Total Charge           Charge          ....    0
 Multiplicity           Mult            ....    1
 Number of Electrons    NEL             ....   80
 Basis Dimension        Dim             ....  326

ORBITAL ENERGIES
----------------

  NO   OCC          E(Eh)            E(eV)
   0   2.0000     -18.897200      -514.2189
   1   2.0000     -18.895791      -514.1806
   2   2.0000     -14.273278      -388.3956
   3   2.0000     -10.167099      -276.6608
   4   2.0000     -10.158509      -276.4271
   5   2.0000     -10.099823      -274.8301
   6   2.0000     -10.081783      -274.3393
   7   2.0000     -10.077455      -274.2215
   8   2.0000     -10.070985      -274.0454
   9   2.0000     -10.062371      -273.8110
  10   2.0000      -1.119664       -30.4676
  11   2.0000      -1.072143       -29.1745
  12   2.0000      -1.015341       -27.6288
  13   2.0000      -0.920877       -25.0583
  14   2.0000      -0.877293       -23.8723
  15   2.0000      -0.830915       -22.6103
  16   2.0000      -0.766223       -20.8500
  17   2.0000      -0.734990       -20.0001
  18   2.0000      -0.684906       -18.6373
  19   2.0000      -0.672008       -18.2863
  20   2.0000      -0.646846       -17.6016
  21   2.0000      -0.623814       -16.9749
  22   2.0000      -0.586622       -15.9628
  23   2.0000      -0.576531       -15.6882
  24   2.0000      -0.562599       -15.3091
  25   2.0000      -0.550322       -14.9750
  26   2.0000      -0.530765       -14.4428
  27   2.0000      -0.523407       -14.2426
  28   2.0000      -0.502679       -13.6786
  29   2.0000      -0.494567       -13.4578
  30   2.0000      -0.493011       -13.4155
  31   2.0000      -0.473901       -12.8955
  32   2.0000      -0.451968       -12.2987
  33   2.0000      -0.449075       -12.2199
  34   2.0000      -0.424529       -11.5520
  35   2.0000      -0.408758       -11.1229
  36   2.0000      -0.406014       -11.0482
  37   2.0000      -0.352626        -9.5954
  38   2.0000      -0.339582        -9.2405
  39   2.0000      -0.331439        -9.0189
  40   0.0000       0.046818         1.2740
  41   0.0000       0.078315         2.1310
  42   0.0000       0.087468         2.3801
  43   0.0000       0.090097         2.4517
  44   0.0000       0.104390         2.8406

MULLIKEN ATOMIC CHARGES
-----------------------
   0 C :    1.163850
   1 H :   -0.249394
   2 N :   -0.328122
   3 C :    0.322297
   4 H :   -0.263310
   5 C :    0.435820
   6 C :    0.502715
   7 H :   -0.149376
   8 H :   -0.012213
   9 C :    0.216336
  10 H :   -0.311659
  11 H :    0.001719
  12 C :    0.522315
  13 C :   -0.074307
  14 H :   -0.070901
  15 H :   -0.133083
  16 H :    0.211810
  17 H :    0.165561
  18 H :    0.227884
  19 O :   -0.526106
  20 O :   -0.569525
  21 H :   -0.226261
  22 H :   -0.401762
  23 H :   -0.110655
  24 H :   -0.343633
Sum of atomic charges:    0.0000000

LOEWDIN ATOMIC CHARGES
----------------------
   0 C :    0.070606
   1 H :    0.035933
   2 N :    0.310690
   3 C :   -0.010914
   4 H :    0.040939
   5 C :   -0.022577
   6 C :   -0.031799
   7 H :    0.026925
   8 H :    0.029213
   9 C :   -0.033214
  10 H :    0.023883
  11 H :    0.015386
  12 C :    0.036093
  13 C :   -0.238048
  14 H :    0.037669
  15 H :    0.031483
  16 H :   -0.027955
  17 H :   -0.025689
  18 H :    0.105983
  19 O :   -0.229801
  20 O :   -0.220703
  21 H :    0.029077
  22 H :   -0.000506
  23 H :    0.013887
  24 H :    0.033439

  Mayer bond orders larger than 0.100000
B(  0-C ,  1-H ) :   0.6507 B(  0-C ,  2-N ) :   0.7735 B(  0-C ,  3-C ) :   1.1275
B(  0-C ,  4-H ) :   0.7209 B(  0-C ,  5-C ) :   0.1073 B(  1-H ,  3-C ) :   0.2617
B(  1-H ,  4-H ) :  -0.1566 B(  2-N ,  4-H ) :   0.2290 B(  2-N , 13-C ) :   0.1117
B(  2-N , 16-H ) :   0.8522 B(  2-N , 17-H ) :   0.9416 B(  2-N , 18-H ) :   0.7928
B(  3-C ,  5-C ) :   1.1238 B(  3-C , 21-H ) :   0.2551 B(  3-C , 22-H ) :   0.1483
B(  3-C , 23-H ) :   0.8405 B(  3-C , 24-H ) :   0.7998 B(  5-C ,  6-C ) :   1.2210
B(  5-C ,  7-H ) :   0.1662 B(  5-C ,  8-H ) :   0.2593 B(  5-C ,  9-C ) :   0.1385
B(  5-C , 21-H ) :   0.7013 B(  5-C , 22-H ) :   0.7006 B(  5-C , 23-H ) :   0.1162
B(  5-C , 24-H ) :   0.1906 B(  6-C ,  7-H ) :   0.7592 B(  6-C ,  8-H ) :   0.5955
B(  6-C ,  9-C ) :   1.2172 B(  6-C , 10-H ) :   0.1648 B(  6-C , 11-H ) :   0.1161
B(  6-C , 21-H ) :   0.1255 B(  6-C , 22-H ) :   0.1013 B(  7-H ,  8-H ) :  -0.1062
B(  7-H ,  9-C ) :   0.1782 B(  8-H ,  9-C ) :   0.1712 B(  9-C , 10-H ) :   0.8083
B(  9-C , 11-H ) :   0.7879 B(  9-C , 12-C ) :   1.2250 B(  9-C , 13-C ) :   0.1098
B(  9-C , 14-H ) :   0.1938 B(  9-C , 15-H ) :   0.1358 B( 10-H , 11-H ) :  -0.1530
B( 10-H , 12-C ) :   0.1316 B( 11-H , 12-C ) :   0.1099 B( 12-C , 13-C ) :   1.1487
B( 12-C , 14-H ) :   0.6476 B( 12-C , 15-H ) :   0.7763 B( 13-C , 14-H ) :   0.1973
B( 13-C , 15-H ) :   0.3071 B( 13-C , 19-O ) :   1.6258 B( 13-C , 20-O ) :   1.5452
B( 14-H , 15-H ) :  -0.1040 B( 15-H , 19-O ) :  -0.1001 B( 16-H , 20-O ) :   0.2365
B( 17-H , 19-O ) :   0.2344 B( 19-O , 20-O ) :   0.1182 B( 22-H , 23-H ) :   0.1118

FINAL SINGLE POINT ENERGY      -479.486110801052

DIPOLE MOMENT
-------------
                                X             Y             Z
Electronic contribution:      2.28472      -3.08159      -6.23781
Nuclear contribution   :     -2.02598       1.95876       8.24116
                        -----------------------------------------
Total Dipole Moment    :      0.25874      -1.12283       2.00335
                        -----------------------------------------
Magnitude (a.u.)       :      2.31108
Magnitude (Debye)      :      5.87431

Rotational constants in cm-1:     0.052900     0.041948     0.028766
Rotational constants in MHz :  1585.892512  1257.572595   862.390225

                             ****ORCA TERMINATED NORMALLY****
TOTAL RUN TIME: 0 days 0 hours 1 minutes 40 seconds 98 msec
