                         Program Version 5.0.0 -  RELEASE  -
|  1> !LC-BLYP RIJCOSX def2-SVPD def2/J TightSCF
|  2> *xyz 0 1
|  3> C         -0.10608        1.76991       -4.08984
|  4> C         -0.25875        1.00432       -5.40983
|  5> C          0.39596       -0.37070       -5.33994
|  6> H          0.23915        1.56939       -6.20125
|  7> H         -1.30936        0.88869       -5.68245
|  8> F         -0.32633       -1.39040       -5.49128
|  9> O          1.61941       -0.40073       -5.03683
| 10> H         -0.57627        2.72718       -4.17630
| 11> H          0.93321        1.90140       -3.87192
| 12> H         -0.56868        1.21534       -3.30031
| 13> *
| 14> %MaxCore 64000
| 15>
| 16> %pal nprocs 4
| 17> end
| 18>
| 19> %scf
| 20>   MaxIter 150
| 21> end
| 22>
| 23>
| 24>                          ****END OF INPUT****

CARTESIAN COORDINATES (ANGSTROEM)
---------------------------------
  C     -0.106080    1.769910   -4.089840
  C     -0.258750    1.004320   -5.409830
  C      0.395960   -0.370700   -5.339940
  H      0.239150    1.569390   -6.201250
  H     -1.309360    0.888690   -5.682450
  F     -0.326330   -1.390400   -5.491280
  O      1.619410   -0.400730   -5.036830
  H     -0.576270    2.727180   -4.176300
  H      0.933210    1.901400   -3.871920
  H     -0.568680    1.215340   -3.300310

 Total Charge           Charge          ....    0
 Multiplicity           Mult            ....    1
 Number of Electrons    NEL             ....   40
 Basis Dimension        Dim             ....  146

ORBITAL ENERGIES
----------------

  NO   OCC          E(Eh)            E(eV)
   0   2.0000     -24.549070      -668.0142
   1   2.0000     -18.968990      -516.1725
   2   2.0000     -10.272575      -279.5310
   3   2.0000     -10.121750      -275.4268
   4   2.0000     -10.093131      -274.6481
   5   2.0000      -1.387905       -37.7668
   6   2.0000      -1.119405       -30.4606
   7   2.0000      -0.908442       -24.7200
   8   2.0000      -0.793954       -21.6046
   9   2.0000      -0.745261       -20.2796
  10   2.0000      -0.661468       -17.9995
  11   2.0000      -0.643070       -17.4988
  12   2.0000      -0.613882       -16.7046
  13   2.0000      -0.573632       -15.6093
  14   2.0000      -0.540137       -14.6979
  15   2.0000      -0.505656       -13.7596
  16   2.0000      -0.481543       -13.1035
  17   2.0000      -0.476830       -12.9752
  18   2.0000      -0.451826       -12.2948
  19   2.0000      -0.398456       -10.8425
  20   0.0000       0.043570         1.1856
  21   0.0000       0.064751         1.7620
  22   0.0000       0.095496         2.5986
  23   0.0000       0.105541         2.8719
  24   0.0000       0.127995         3.4829

MULLIKEN ATOMIC CHARGES
-----------------------
   0 C :    0.798567
   1 C :   -0.114203
   2 C :    0.449685
   3 H :   -0.013778
   4 H :   -0.113079
   5 F :   -0.270641
   6 O :   -0.364735
   7 H :   -0.132415
   8 H :   -0.097533
   9 H :   -0.141868
Sum of atomic charges:    0.0000000

LOEWDIN ATOMIC CHARGES
----------------------
   0 C :    0.132003
   1 C :   -0.007338
   2 C :   -0.050782
   3 H :    0.044916
   4 H :    0.029194
   5 F :   -0.013168
   6 O :   -0.116931
   7 H :   -0.008344
   8 H :   -0.005364
   9 H :   -0.004185

  Mayer bond orders larger than 0.100000
B(  0-C ,  1-C ) :   1.3108 B(  0-C ,  4-H ) :   0.1072 B(  0-C ,  7-H ) :   0.7989
B(  0-C ,  8-H ) :   0.7870 B(  0-C ,  9-H ) :   0.7962 B(  1-C ,  2-C ) :   1.0918
B(  1-C ,  3-H ) :   0.8388 B(  1-C ,  4-H ) :   0.9399 B(  1-C ,  7-H ) :   0.1812
B(  1-C ,  8-H ) :   0.1917 B(  1-C ,  9-H ) :   0.1771 B(  2-C ,  4-H ) :   0.1052
B(  2-C ,  5-F ) :   0.8853 B(  2-C ,  6-O ) :   1.9517 B(  5-F ,  6-O ) :   0.1054

FINAL SINGLE POINT ENERGY      -291.578815288217

DIPOLE MOMENT
-------------
                                X             Y             Z
Electronic contribution:      0.82465      -8.15210      -2.57802
Nuclear contribution   :     -1.80992       8.85192       2.42184
                        -----------------------------------------
Total Dipole Moment    :     -0.98527       0.69982      -0.15617
                        -----------------------------------------
Magnitude (a.u.)       :      1.21856
Magnitude (Debye)      :      3.09735

Rotational constants in cm-1:     0.298360     0.128849     0.102271
Rotational constants in MHz :  8944.606599  3862.796179  3066.020510

                             ****ORCA TERMINATED NORMALLY****
TOTAL RUN TIME: 0 days 0 hours 0 minutes 18 seconds 125 msec
