                         Program Version 5.0.0 -  RELEASE  -
|  1> !LC-BLYP RIJCOSX def2-SVPD def2/J TightSCF
|  2> *xyz 0 1
|  3> C          0.81607       -2.10149       -2.18655
|  4> H          1.69623       -2.36869       -1.60046
|  5> C          1.10055       -2.46749       -3.59927
|  6> C          0.51624       -0.61363       -2.03937
|  7> H         -0.02007       -2.71285       -1.84084
|  8> H          1.70061       -1.75723       -4.07838
|  9> H          0.29386       -2.35977       -4.25632
| 10> H          1.50132       -3.42848       -3.69491
| 11> H         -0.34841       -0.36504       -2.61858
| 12> H          1.35358       -0.04503       -2.38643
| 13> H          0.33317       -0.38682       -1.00984
| 14> *
| 15> %MaxCore 64000
| 16>
| 17> %pal nprocs 4
| 18> end
| 19>
| 20> %scf
| 21>   MaxIter 150
| 22> end
| 23>
| 24>
| 25>                          ****END OF INPUT****

CARTESIAN COORDINATES (ANGSTROEM)
---------------------------------
  C      0.816070   -2.101490   -2.186550
  H      1.696230   -2.368690   -1.600460
  C      1.100550   -2.467490   -3.599270
  C      0.516240   -0.613630   -2.039370
  H     -0.020070   -2.712850   -1.840840
  H      1.700610   -1.757230   -4.078380
  H      0.293860   -2.359770   -4.256320
  H      1.501320   -3.428480   -3.694910
  H     -0.348410   -0.365040   -2.618580
  H      1.353580   -0.045030   -2.386430
  H      0.333170   -0.386820   -1.009840

 Total Charge           Charge          ....    0
 Multiplicity           Mult            ....    1
 Number of Electrons    NEL             ....   26
 Basis Dimension        Dim             ....  124

ORBITAL ENERGIES
----------------

  NO   OCC          E(Eh)            E(eV)
   0   2.0000     -10.074235      -274.1339
   1   2.0000     -10.064656      -273.8732
   2   2.0000     -10.053149      -273.5601
   3   2.0000      -0.894594       -24.3431
   4   2.0000      -0.791431       -21.5359
   5   2.0000      -0.692896       -18.8546
   6   2.0000      -0.568245       -15.4627
   7   2.0000      -0.552300       -15.0288
   8   2.0000      -0.515560       -14.0291
   9   2.0000      -0.476784       -12.9740
  10   2.0000      -0.440729       -11.9928
  11   2.0000      -0.436645       -11.8817
  12   2.0000      -0.417129       -11.3507
  13   0.0000       0.078554         2.1376
  14   0.0000       0.104667         2.8481
  15   0.0000       0.111883         3.0445
  16   0.0000       0.145274         3.9531
  17   0.0000       0.163601         4.4518

MULLIKEN ATOMIC CHARGES
-----------------------
   0 C :   -0.307735
   1 H :   -0.156504
   2 C :    0.994219
   3 C :    0.832645
   4 H :   -0.182054
   5 H :   -0.263015
   6 H :   -0.249458
   7 H :   -0.256718
   8 H :   -0.117799
   9 H :   -0.108296
  10 H :   -0.185286
Sum of atomic charges:   -0.0000000

LOEWDIN ATOMIC CHARGES
----------------------
   0 C :   -0.130457
   1 H :    0.025340
   2 C :    0.088713
   3 C :    0.103799
   4 H :    0.026175
   5 H :   -0.026895
   6 H :   -0.023890
   7 H :   -0.019446
   8 H :   -0.011805
   9 H :   -0.013480
  10 H :   -0.018054

  Mayer bond orders larger than 0.100000
B(  0-C ,  1-H ) :   0.8825 B(  0-C ,  2-C ) :   1.3008 B(  0-C ,  3-C ) :   1.2874
B(  0-C ,  4-H ) :   0.9057 B(  0-C ,  5-H ) :   0.1870 B(  0-C ,  6-H ) :   0.1989
B(  0-C ,  7-H ) :   0.2150 B(  0-C ,  8-H ) :   0.2030 B(  0-C ,  9-H ) :   0.1863
B(  0-C , 10-H ) :   0.2134 B(  1-H ,  2-C ) :   0.1039 B(  2-C ,  4-H ) :   0.1222
B(  2-C ,  5-H ) :   0.6462 B(  2-C ,  6-H ) :   0.6266 B(  2-C ,  7-H ) :   0.7156
B(  3-C ,  8-H ) :   0.7790 B(  3-C ,  9-H ) :   0.7923 B(  3-C , 10-H ) :   0.7749
B(  5-H ,  6-H ) :   0.3241

FINAL SINGLE POINT ENERGY      -118.655197164523

DIPOLE MOMENT
-------------
                                X             Y             Z
Electronic contribution:     -0.01849      -0.30918       0.46063
Nuclear contribution   :      0.01737       0.30387      -0.47422
                        -----------------------------------------
Total Dipole Moment    :     -0.00112      -0.00531      -0.01359
                        -----------------------------------------
Magnitude (a.u.)       :      0.01463
Magnitude (Debye)      :      0.03719

Rotational constants in cm-1:     1.006891     0.295208     0.258491
Rotational constants in MHz : 30185.831813  8850.104914  7749.351732

                             ****ORCA TERMINATED NORMALLY****
TOTAL RUN TIME: 0 days 0 hours 0 minutes 14 seconds 0 msec
