                         Program Version 5.0.0 -  RELEASE  -
|  1> !LC-BLYP RIJCOSX def2-SVPD def2/J TightSCF
|  2> *xyz 0 1
|  3> C         -0.10608        1.76991       -4.08984
|  4> C         -0.25875        1.00432       -5.40983
|  5> C          0.39596       -0.37070       -5.33994
|  6> H          0.23915        1.56939       -6.20125
|  7> H         -1.30936        0.88869       -5.68245
|  8> O         -0.32633       -1.39040       -5.49128
|  9> F          1.61941       -0.40073       -5.03683
| 10> H         -0.57627        2.72718       -4.17630
| 11> H          0.93321        1.90140       -3.87192
| 12> H         -0.56868        1.21534       -3.30031
| 13> *
| 14> %MaxCore 64000
| 15>
| 16> %pal nprocs 4
| 17> end
| 18>
| 19> %scf
| 20>   MaxIter 150
| 21> end
| 22>
| 23>
| 24>                          ****END OF INPUT****

CARTESIAN COORDINATES (ANGSTROEM)
---------------------------------
  C     -0.106080    1.769910   -4.089840
  C     -0.258750    1.004320   -5.409830
  C      0.395960   -0.370700   -5.339940
  H      0.239150    1.569390   -6.201250
  H     -1.309360    0.888690   -5.682450
  O     -0.326330   -1.390400   -5.491280
  F      1.619410   -0.400730   -5.036830
  H     -0.576270    2.727180   -4.176300
  H      0.933210    1.901400   -3.871920
  H     -0.568680    1.215340   -3.300310

 Total Charge           Charge          ....    0
 Multiplicity           Mult            ....    1
 Number of Electrons    NEL             ....   40
 Basis Dimension        Dim             ....  146

ORBITAL ENERGIES
----------------

  NO   OCC          E(Eh)            E(eV)
   0   2.0000     -24.547943      -667.9835
   1   2.0000     -18.969577      -516.1884
   2   2.0000     -10.271830      -279.5107
   3   2.0000     -10.121519      -275.4205
   4   2.0000     -10.098410      -274.7917
   5   2.0000      -1.386609       -37.7316
   6   2.0000      -1.119212       -30.4553
   7   2.0000      -0.913217       -24.8499
   8   2.0000      -0.791070       -21.5261
   9   2.0000      -0.748905       -20.3788
  10   2.0000      -0.662631       -18.0311
  11   2.0000      -0.647622       -17.6227
  12   2.0000      -0.606744       -16.5104
  13   2.0000      -0.573486       -15.6053
  14   2.0000      -0.540528       -14.7085
  15   2.0000      -0.509562       -13.8659
  16   2.0000      -0.488376       -13.2894
  17   2.0000      -0.479688       -13.0530
  18   2.0000      -0.457541       -12.4503
  19   2.0000      -0.394768       -10.7422
  20   0.0000       0.046886         1.2758
  21   0.0000       0.063760         1.7350
  22   0.0000       0.095835         2.6078
  23   0.0000       0.104350         2.8395
  24   0.0000       0.128567         3.4985

MULLIKEN ATOMIC CHARGES
-----------------------
   0 C :    0.784155
   1 C :   -0.085536
   2 C :    0.457225
   3 H :   -0.031923
   4 H :   -0.117061
   5 O :   -0.329637
   6 F :   -0.296843
   7 H :   -0.128866
   8 H :   -0.109246
   9 H :   -0.142267
Sum of atomic charges:   -0.0000000

LOEWDIN ATOMIC CHARGES
----------------------
   0 C :    0.127695
   1 C :   -0.003080
   2 C :   -0.056133
   3 H :    0.040070
   4 H :    0.040644
   5 O :   -0.115007
   6 F :   -0.014274
   7 H :   -0.007600
   8 H :   -0.009890
   9 H :   -0.002425

  Mayer bond orders larger than 0.100000
B(  0-C ,  1-C ) :   1.2898 B(  0-C ,  7-H ) :   0.8084 B(  0-C ,  8-H ) :   0.7776
B(  0-C ,  9-H ) :   0.8094 B(  1-C ,  2-C ) :   1.0674 B(  1-C ,  3-H ) :   0.8412
B(  1-C ,  4-H ) :   0.9538 B(  1-C ,  7-H ) :   0.1798 B(  1-C ,  8-H ) :   0.1847
B(  1-C ,  9-H ) :   0.1741 B(  2-C ,  4-H ) :   0.1410 B(  2-C ,  5-O ) :   1.9533
B(  2-C ,  6-F ) :   0.8566 B(  5-O ,  6-F ) :   0.1118

FINAL SINGLE POINT ENERGY      -291.580068333582

DIPOLE MOMENT
-------------
                                X             Y             Z
Electronic contribution:      4.06699      -6.47031      -1.81182
Nuclear contribution   :     -3.93139       7.77287       1.92635
                        -----------------------------------------
Total Dipole Moment    :      0.13560       1.30256       0.11453
                        -----------------------------------------
Magnitude (a.u.)       :      1.31460
Magnitude (Debye)      :      3.34144

Rotational constants in cm-1:     0.286068     0.133630     0.103472
Rotational constants in MHz :  8576.109806  4006.118234  3102.010802

                             ****ORCA TERMINATED NORMALLY****
TOTAL RUN TIME: 0 days 0 hours 0 minutes 17 seconds 859 msec
