                         Program Version 5.0.0 -  RELEASE  -
|  1> !wB97X-D3 RIJCOSX def2-SVP def2/J TightSCF
|  2> *xyz -1 1
|  3> C          4.08422        1.74208       -2.11472
|  4> C          4.26524        2.50052       -0.79589
|  5> H          4.86853        3.39267       -0.98113
|  6> H          3.30764        2.82457       -0.38781
|  7> C          4.98224        1.65026        0.24742
|  8> O          4.36806        1.38927        1.31371
|  9> O          6.12892        1.23351       -0.04562
| 10> H          3.57911        2.36849       -2.81997
| 11> H          3.50424        0.85965       -1.94198
| 12> H          5.04288        1.46841       -2.50327
| 13> *
| 14> %MaxCore 64000
| 15> %pal nprocs 8
| 16> end
| 17> %scf
| 18>   MaxIter 150
| 19> end
| 20>
| 21>
| 22>                          ****END OF INPUT****

CARTESIAN COORDINATES (ANGSTROEM)
---------------------------------
  C      4.084220    1.742080   -2.114720
  C      4.265240    2.500520   -0.795890
  H      4.868530    3.392670   -0.981130
  H      3.307640    2.824570   -0.387810
  C      4.982240    1.650260    0.247420
  O      4.368060    1.389270    1.313710
  O      6.128920    1.233510   -0.045620
  H      3.579110    2.368490   -2.819970
  H      3.504240    0.859650   -1.941980
  H      5.042880    1.468410   -2.503270

 Total Charge           Charge          ....   -1
 Multiplicity           Mult            ....    1
 Number of Electrons    NEL             ....   40
 Basis Dimension        Dim             ....   95

ORBITAL ENERGIES
----------------

  NO   OCC          E(Eh)            E(eV)
   0   2.0000     -18.937733      -515.3219
   1   2.0000     -18.936840      -515.2976
   2   2.0000     -10.141731      -275.9705
   3   2.0000     -10.119789      -275.3735
   4   2.0000     -10.098066      -274.7823
   5   2.0000      -0.891433       -24.2571
   6   2.0000      -0.793939       -21.6042
   7   2.0000      -0.703816       -19.1518
   8   2.0000      -0.567255       -15.4358
   9   2.0000      -0.406167       -11.0524
  10   2.0000      -0.382545       -10.4096
  11   2.0000      -0.338504        -9.2112
  12   2.0000      -0.311308        -8.4711
  13   2.0000      -0.293801        -7.9947
  14   2.0000      -0.283444        -7.7129
  15   2.0000      -0.248293        -6.7564
  16   2.0000      -0.234859        -6.3908
  17   2.0000      -0.105176        -2.8620
  18   2.0000      -0.103529        -2.8172
  19   2.0000      -0.088197        -2.4000
  20   0.0000       0.300159         8.1677
  21   0.0000       0.351872         9.5749
  22   0.0000       0.364771         9.9259
  23   0.0000       0.367989        10.0135
  24   0.0000       0.374949        10.2029

MULLIKEN ATOMIC CHARGES
-----------------------
   0 C :   -0.022168
   1 C :   -0.030911
   2 H :   -0.025222
   3 H :   -0.036571
   4 C :    0.047895
   5 O :   -0.451901
   6 O :   -0.458057
   7 H :   -0.034382
   8 H :    0.000874
   9 H :    0.010443
Sum of atomic charges:   -1.0000000

LOEWDIN ATOMIC CHARGES
----------------------
   0 C :   -0.063242
   1 C :   -0.093941
   2 H :    0.004702
   3 H :   -0.002473
   4 C :   -0.045026
   5 O :   -0.408161
   6 O :   -0.411000
   7 H :   -0.006055
   8 H :    0.011681
   9 H :    0.013516

  Mayer bond orders larger than 0.100000
B(  0-C ,  1-C ) :   1.0827 B(  0-C ,  7-H ) :   0.9713 B(  0-C ,  8-H ) :   0.9763
B(  0-C ,  9-H ) :   0.9672 B(  1-C ,  2-H ) :   0.9432 B(  1-C ,  3-H ) :   0.9456
B(  1-C ,  4-C ) :   0.9202 B(  4-C ,  5-O ) :   1.8642 B(  4-C ,  6-O ) :   1.8275
B(  5-O ,  6-O ) :   0.1086

Dispersion correction           -0.001959198
FINAL SINGLE POINT ENERGY      -267.543540586581

DIPOLE MOMENT
-------------
                                X             Y             Z
Electronic contribution:      2.49670      -1.55038       5.22002
Nuclear contribution   :     -3.31311       2.28398      -6.76358
                        -----------------------------------------
Total Dipole Moment    :     -0.81641       0.73361      -1.54356
                        -----------------------------------------
Magnitude (a.u.)       :      1.89401
Magnitude (Debye)      :      4.81420

Rotational constants in cm-1:     0.309287     0.135287     0.107346
Rotational constants in MHz :  9272.201029  4055.789113  3218.155789

                             ****ORCA TERMINATED NORMALLY****
TOTAL RUN TIME: 0 days 0 hours 0 minutes 13 seconds 41 msec
