                         Program Version 5.0.0 -  RELEASE  -
|  1> !wB97X-D3 RIJCOSX def2-SVP def2/J TightSCF
|  2> *xyz 1 1
|  3> C          3.91385       -1.65829        3.01513
|  4> N          5.03927       -0.90115        2.49282
|  5> C          6.21038       -1.41726        2.17824
|  6> N          6.53591       -2.67712        2.55608
|  7> N          7.07675       -0.70082        1.47891
|  8> H          7.95464       -1.12155        1.20755
|  9> H          6.75616        0.10664        0.96028
| 10> H          4.84217        0.01761        2.11519
| 11> H          5.99388       -3.12692        3.28278
| 12> C          3.13916       -2.37657        1.91061
| 13> H          3.26723       -0.93940        3.52069
| 14> H          4.24720       -2.35509        3.79006
| 15> H          7.49844       -2.97548        2.46878
| 16> H          2.82969       -1.66654        1.17238
| 17> H          2.27790       -2.85264        2.33072
| 18> H          3.76754       -3.11338        1.45548
| 19> *
| 20> %MaxCore 64000
| 21> %pal nprocs 8
| 22> end
| 23> %scf
| 24>   MaxIter 150
| 25> end
| 26>
| 27>
| 28>                          ****END OF INPUT****

CARTESIAN COORDINATES (ANGSTROEM)
---------------------------------
  C      3.913850   -1.658290    3.015130
  N      5.039270   -0.901150    2.492820
  C      6.210380   -1.417260    2.178240
  N      6.535910   -2.677120    2.556080
  N      7.076750   -0.700820    1.478910
  H      7.954640   -1.121550    1.207550
  H      6.756160    0.106640    0.960280
  H      4.842170    0.017610    2.115190
  H      5.993880   -3.126920    3.282780
  C      3.139160   -2.376570    1.910610
  H      3.267230   -0.939400    3.520690
  H      4.247200   -2.355090    3.790060
  H      7.498440   -2.975480    2.468780
  H      2.829690   -1.666540    1.172380
  H      2.277900   -2.852640    2.330720
  H      3.767540   -3.113380    1.455480

 Total Charge           Charge          ....    1
 Multiplicity           Mult            ....    1
 Number of Electrons    NEL             ....   48
 Basis Dimension        Dim             ....  134

ORBITAL ENERGIES
----------------

  NO   OCC          E(Eh)            E(eV)
   0   2.0000     -14.660567      -398.9343
   1   2.0000     -14.660519      -398.9330
   2   2.0000     -14.657404      -398.8482
   3   2.0000     -10.627832      -289.1980
   4   2.0000     -10.497003      -285.6380
   5   2.0000     -10.423746      -283.6445
   6   2.0000      -1.328477       -36.1497
   7   2.0000      -1.216205       -33.0946
   8   2.0000      -1.198163       -32.6037
   9   2.0000      -1.040298       -28.3080
  10   2.0000      -0.946961       -25.7681
  11   2.0000      -0.907592       -24.6968
  12   2.0000      -0.891584       -24.2612
  13   2.0000      -0.847171       -23.0527
  14   2.0000      -0.793238       -21.5851
  15   2.0000      -0.786125       -21.3915
  16   2.0000      -0.757284       -20.6067
  17   2.0000      -0.731786       -19.9129
  18   2.0000      -0.700770       -19.0689
  19   2.0000      -0.659908       -17.9570
  20   2.0000      -0.626770       -17.0553
  21   2.0000      -0.606332       -16.4991
  22   2.0000      -0.572148       -15.5690
  23   2.0000      -0.542037       -14.7496
  24   0.0000      -0.077080        -2.0974
  25   0.0000      -0.049201        -1.3388
  26   0.0000      -0.017421        -0.4741
  27   0.0000      -0.006144        -0.1672
  28   0.0000       0.013737         0.3738

MULLIKEN ATOMIC CHARGES
-----------------------
   0 C :   -0.020784
   1 N :   -0.155651
   2 C :    0.105558
   3 N :   -0.096789
   4 N :   -0.059593
   5 H :    0.183432
   6 H :    0.185373
   7 H :    0.176780
   8 H :    0.178621
   9 C :   -0.025926
  10 H :    0.091851
  11 H :    0.069691
  12 H :    0.180747
  13 H :    0.056120
  14 H :    0.083598
  15 H :    0.046971
Sum of atomic charges:    1.0000000

LOEWDIN ATOMIC CHARGES
----------------------
   0 C :    0.037749
   1 N :    0.028412
   2 C :    0.160395
   3 N :    0.025386
   4 N :    0.042947
   5 H :    0.113257
   6 H :    0.114042
   7 H :    0.109685
   8 H :    0.106713
   9 C :   -0.050455
  10 H :    0.051896
  11 H :    0.034309
  12 H :    0.111298
  13 H :    0.035152
  14 H :    0.049871
  15 H :    0.029344

  Mayer bond orders larger than 0.100000
B(  0-C ,  1-N ) :   0.9193 B(  0-C ,  9-C ) :   1.0763 B(  0-C , 10-H ) :   0.9517
B(  0-C , 11-H ) :   0.9583 B(  1-N ,  2-C ) :   1.3883 B(  1-N ,  7-H ) :   0.9099
B(  2-C ,  3-N ) :   1.3677 B(  2-C ,  4-N ) :   1.4011 B(  3-N ,  8-H ) :   0.9237
B(  3-N , 12-H ) :   0.9261 B(  4-N ,  5-H ) :   0.9260 B(  4-N ,  6-H ) :   0.9244
B(  9-C , 13-H ) :   0.9715 B(  9-C , 14-H ) :   0.9679 B(  9-C , 15-H ) :   0.9701

Dispersion correction           -0.003823302
FINAL SINGLE POINT ENERGY      -284.119670531793

DIPOLE MOMENT
-------------
                                X             Y             Z
Electronic contribution:      4.78877       1.92525       0.05917
Nuclear contribution   :     -3.67981      -1.62355      -0.28562
                        -----------------------------------------
Total Dipole Moment    :      1.10896       0.30171      -0.22645
                        -----------------------------------------
Magnitude (a.u.)       :      1.17136
Magnitude (Debye)      :      2.97737

Rotational constants in cm-1:     0.222027     0.074735     0.065694
Rotational constants in MHz :  6656.200457  2240.503315  1969.451902

                             ****ORCA TERMINATED NORMALLY****
TOTAL RUN TIME: 0 days 0 hours 0 minutes 25 seconds 527 msec
