                         Program Version 5.0.0 -  RELEASE  -
|  1> !wB97X-D3 RIJCOSX def2-SVP def2/J TightSCF
|  2> *xyz 0 1
|  3> C          4.08422        1.74208       -2.11472
|  4> C          4.26524        2.50052       -0.79589
|  5> H          4.86853        3.39267       -0.98113
|  6> H          3.30764        2.82457       -0.38781
|  7> C          4.98224        1.65026        0.24742
|  8> F          4.36806        1.38927        1.31371
|  9> O          6.12892        1.23351       -0.04562
| 10> H          3.57911        2.36849       -2.81997
| 11> H          3.50424        0.85965       -1.94198
| 12> H          5.04288        1.46841       -2.50327
| 13> *
| 14> %MaxCore 64000
| 15> %pal nprocs 8
| 16> end
| 17> %scf
| 18>   MaxIter 150
| 19> end
| 20>
| 21>
| 22>                          ****END OF INPUT****

CARTESIAN COORDINATES (ANGSTROEM)
---------------------------------
  C      4.084220    1.742080   -2.114720
  C      4.265240    2.500520   -0.795890
  H      4.868530    3.392670   -0.981130
  H      3.307640    2.824570   -0.387810
  C      4.982240    1.650260    0.247420
  F      4.368060    1.389270    1.313710
  O      6.128920    1.233510   -0.045620
  H      3.579110    2.368490   -2.819970
  H      3.504240    0.859650   -1.941980
  H      5.042880    1.468410   -2.503270

 Total Charge           Charge          ....    0
 Multiplicity           Mult            ....    1
 Number of Electrons    NEL             ....   40
 Basis Dimension        Dim             ....   95

ORBITAL ENERGIES
----------------

  NO   OCC          E(Eh)            E(eV)
   0   2.0000     -24.857564      -676.4087
   1   2.0000     -19.240062      -523.5487
   2   2.0000     -10.462223      -284.6916
   3   2.0000     -10.317783      -280.7611
   4   2.0000     -10.294541      -280.1287
   5   2.0000      -1.412237       -38.4289
   6   2.0000      -1.132752       -30.8238
   7   2.0000      -0.910064       -24.7641
   8   2.0000      -0.792103       -21.5542
   9   2.0000      -0.739271       -20.1166
  10   2.0000      -0.649298       -17.6683
  11   2.0000      -0.634308       -17.2604
  12   2.0000      -0.605037       -16.4639
  13   2.0000      -0.564262       -15.3543
  14   2.0000      -0.530034       -14.4230
  15   2.0000      -0.494757       -13.4630
  16   2.0000      -0.473067       -12.8728
  17   2.0000      -0.468099       -12.7376
  18   2.0000      -0.437160       -11.8957
  19   2.0000      -0.383459       -10.4345
  20   0.0000       0.063623         1.7313
  21   0.0000       0.148992         4.0543
  22   0.0000       0.192410         5.2357
  23   0.0000       0.195784         5.3275
  24   0.0000       0.215628         5.8675

MULLIKEN ATOMIC CHARGES
-----------------------
   0 C :   -0.039004
   1 C :   -0.120509
   2 H :    0.077568
   3 H :    0.043531
   4 C :    0.259162
   5 F :   -0.084903
   6 O :   -0.274873
   7 H :    0.041868
   8 H :    0.037734
   9 H :    0.059427
Sum of atomic charges:    0.0000000

LOEWDIN ATOMIC CHARGES
----------------------
   0 C :   -0.039707
   1 C :   -0.075952
   2 H :    0.052073
   3 H :    0.028917
   4 C :    0.113893
   5 F :    0.037098
   6 O :   -0.205829
   7 H :    0.029160
   8 H :    0.026763
   9 H :    0.033586

  Mayer bond orders larger than 0.100000
B(  0-C ,  1-C ) :   1.0767 B(  0-C ,  7-H ) :   0.9743 B(  0-C ,  8-H ) :   0.9795
B(  0-C ,  9-H ) :   0.9725 B(  1-C ,  2-H ) :   0.9383 B(  1-C ,  3-H ) :   0.9462
B(  1-C ,  4-C ) :   0.9901 B(  4-C ,  5-F ) :   1.1919 B(  4-C ,  6-O ) :   2.0650

Dispersion correction           -0.001915034
FINAL SINGLE POINT ENERGY      -292.097260379472

DIPOLE MOMENT
-------------
                                X             Y             Z
Electronic contribution:      1.95598      -2.06571       8.16825
Nuclear contribution   :     -2.87511       2.61564      -8.50037
                        -----------------------------------------
Total Dipole Moment    :     -0.91912       0.54993      -0.33211
                        -----------------------------------------
Magnitude (a.u.)       :      1.12139
Magnitude (Debye)      :      2.85034

Rotational constants in cm-1:     0.297822     0.128965     0.102219
Rotational constants in MHz :  8928.481997  3866.271686  3064.463504

                             ****ORCA TERMINATED NORMALLY****
TOTAL RUN TIME: 0 days 0 hours 0 minutes 13 seconds 566 msec
