                         Program Version 5.0.0 -  RELEASE  -
|  1> !wB97X-D3 RIJCOSX def2-SVP def2/J TightSCF
|  2> *xyz 0 1
|  3> C          3.91385       -1.65829        3.01513
|  4> C          5.03927       -0.90115        2.49282
|  5> C          6.21038       -1.41726        2.17824
|  6> N          6.53591       -2.67712        2.55608
|  7> N          7.07675       -0.70082        1.47891
|  8> H          7.95464       -1.12155        1.20755
|  9> H          6.75616        0.10664        0.96028
| 10> H          4.84217        0.01761        2.11519
| 11> H          5.99388       -3.12692        3.28278
| 12> C          3.13916       -2.37657        1.91061
| 13> H          3.26723       -0.93940        3.52069
| 14> H          4.24720       -2.35509        3.79006
| 15> H          7.49844       -2.97548        2.46878
| 16> H          2.82969       -1.66654        1.17238
| 17> H          2.27790       -2.85264        2.33072
| 18> H          3.76754       -3.11338        1.45548
| 19> *
| 20> %MaxCore 64000
| 21> %pal nprocs 8
| 22> end
| 23> %scf
| 24>   MaxIter 150
| 25> end
| 26>
| 27>
| 28>                          ****END OF INPUT****

CARTESIAN COORDINATES (ANGSTROEM)
---------------------------------
  C      3.913850   -1.658290    3.015130
  C      5.039270   -0.901150    2.492820
  C      6.210380   -1.417260    2.178240
  N      6.535910   -2.677120    2.556080
  N      7.076750   -0.700820    1.478910
  H      7.954640   -1.121550    1.207550
  H      6.756160    0.106640    0.960280
  H      4.842170    0.017610    2.115190
  H      5.993880   -3.126920    3.282780
  C      3.139160   -2.376570    1.910610
  H      3.267230   -0.939400    3.520690
  H      4.247200   -2.355090    3.790060
  H      7.498440   -2.975480    2.468780
  H      2.829690   -1.666540    1.172380
  H      2.277900   -2.852640    2.330720
  H      3.767540   -3.113380    1.455480

 Total Charge           Charge          ....    0
 Multiplicity           Mult            ....    1
 Number of Electrons    NEL             ....   48
 Basis Dimension        Dim             ....  134

ORBITAL ENERGIES
----------------

  NO   OCC          E(Eh)            E(eV)
   0   2.0000     -14.428887      -392.6300
   1   2.0000     -14.427051      -392.5800
   2   2.0000     -10.325552      -280.9725
   3   2.0000     -10.258303      -279.1426
   4   2.0000     -10.249016      -278.8899
   5   2.0000     -10.199275      -277.5364
   6   2.0000      -1.061942       -28.8969
   7   2.0000      -0.968734       -26.3606
   8   2.0000      -0.877468       -23.8771
   9   2.0000      -0.794653       -21.6236
  10   2.0000      -0.715651       -19.4739
  11   2.0000      -0.674093       -18.3430
  12   2.0000      -0.636332       -17.3155
  13   2.0000      -0.605611       -16.4795
  14   2.0000      -0.565483       -15.3876
  15   2.0000      -0.531827       -14.4717
  16   2.0000      -0.513446       -13.9716
  17   2.0000      -0.481364       -13.0986
  18   2.0000      -0.473323       -12.8798
  19   2.0000      -0.445045       -12.1103
  20   2.0000      -0.416101       -11.3227
  21   2.0000      -0.406808       -11.0698
  22   2.0000      -0.353623        -9.6226
  23   2.0000      -0.237311        -6.4576
  24   0.0000       0.132616         3.6087
  25   0.0000       0.164216         4.4686
  26   0.0000       0.169490         4.6120
  27   0.0000       0.191938         5.2229
  28   0.0000       0.196452         5.3457

MULLIKEN ATOMIC CHARGES
-----------------------
   0 C :   -0.001267
   1 C :   -0.207830
   2 C :   -0.004858
   3 N :   -0.132718
   4 N :   -0.100252
   5 H :    0.109888
   6 H :    0.134152
   7 H :   -0.082840
   8 H :    0.127456
   9 C :    0.021856
  10 H :    0.007678
  11 H :   -0.013210
  12 H :    0.112080
  13 H :    0.009274
  14 H :    0.008557
  15 H :    0.012032
Sum of atomic charges:    0.0000000

LOEWDIN ATOMIC CHARGES
----------------------
   0 C :   -0.042938
   1 C :   -0.224950
   2 C :    0.033672
   3 N :   -0.043628
   4 N :   -0.028332
   5 H :    0.065836
   6 H :    0.084630
   7 H :   -0.009432
   8 H :    0.077724
   9 C :   -0.056187
  10 H :    0.023579
  11 H :    0.007466
  12 H :    0.065694
  13 H :    0.018376
  14 H :    0.012280
  15 H :    0.016210

  Mayer bond orders larger than 0.100000
B(  0-C ,  1-C ) :   1.0647 B(  0-C ,  9-C ) :   1.0733 B(  0-C , 10-H ) :   0.9337
B(  0-C , 11-H ) :   0.9460 B(  1-C ,  2-C ) :   1.7191 B(  1-C ,  7-H ) :   0.9540
B(  2-C ,  3-N ) :   1.2267 B(  2-C ,  4-N ) :   1.2285 B(  3-N ,  8-H ) :   0.9424
B(  3-N , 12-H ) :   0.9514 B(  4-N ,  5-H ) :   0.9532 B(  4-N ,  6-H ) :   0.9421
B(  9-C , 13-H ) :   0.9712 B(  9-C , 14-H ) :   0.9708 B(  9-C , 15-H ) :   0.9753

Dispersion correction           -0.003816138
FINAL SINGLE POINT ENERGY      -267.646468502121

DIPOLE MOMENT
-------------
                                X             Y             Z
Electronic contribution:      4.77855       1.17605      -0.07386
Nuclear contribution   :     -3.74303      -1.46908      -0.23637
                        -----------------------------------------
Total Dipole Moment    :      1.03553      -0.29303      -0.31023
                        -----------------------------------------
Magnitude (a.u.)       :      1.12001
Magnitude (Debye)      :      2.84684

Rotational constants in cm-1:     0.225937     0.074877     0.065953
Rotational constants in MHz :  6773.424301  2244.750632  1977.214101

                             ****ORCA TERMINATED NORMALLY****
TOTAL RUN TIME: 0 days 0 hours 0 minutes 24 seconds 11 msec
