                         Program Version 5.0.0 -  RELEASE  -
|  1> !wB97X-D3 RIJCOSX def2-SVP def2/J TightSCF
|  2> *xyz 0 1
|  3> C          4.08422        1.74208       -2.11472
|  4> C          4.26524        2.50052       -0.79589
|  5> H          4.86853        3.39267       -0.98113
|  6> H          3.30764        2.82457       -0.38781
|  7> C          4.98224        1.65026        0.24742
|  8> O          4.36806        1.38927        1.31371
|  9> F          6.12892        1.23351       -0.04562
| 10> H          3.57911        2.36849       -2.81997
| 11> H          3.50424        0.85965       -1.94198
| 12> H          5.04288        1.46841       -2.50327
| 13> *
| 14> %MaxCore 64000
| 15> %pal nprocs 8
| 16> end
| 17> %scf
| 18>   MaxIter 150
| 19> end
| 20>
| 21>
| 22>                          ****END OF INPUT****

CARTESIAN COORDINATES (ANGSTROEM)
---------------------------------
  C      4.084220    1.742080   -2.114720
  C      4.265240    2.500520   -0.795890
  H      4.868530    3.392670   -0.981130
  H      3.307640    2.824570   -0.387810
  C      4.982240    1.650260    0.247420
  O      4.368060    1.389270    1.313710
  F      6.128920    1.233510   -0.045620
  H      3.579110    2.368490   -2.819970
  H      3.504240    0.859650   -1.941980
  H      5.042880    1.468410   -2.503270

 Total Charge           Charge          ....    0
 Multiplicity           Mult            ....    1
 Number of Electrons    NEL             ....   40
 Basis Dimension        Dim             ....   95

ORBITAL ENERGIES
----------------

  NO   OCC          E(Eh)            E(eV)
   0   2.0000     -24.859407      -676.4589
   1   2.0000     -19.238954      -523.5186
   2   2.0000     -10.461549      -284.6732
   3   2.0000     -10.317171      -280.7445
   4   2.0000     -10.299035      -280.2510
   5   2.0000      -1.415285       -38.5119
   6   2.0000      -1.129224       -30.7277
   7   2.0000      -0.914139       -24.8750
   8   2.0000      -0.789603       -21.4862
   9   2.0000      -0.744854       -20.2685
  10   2.0000      -0.652714       -17.7612
  11   2.0000      -0.640116       -17.4185
  12   2.0000      -0.598277       -16.2799
  13   2.0000      -0.563900       -15.3445
  14   2.0000      -0.531993       -14.4763
  15   2.0000      -0.497968       -13.5504
  16   2.0000      -0.477425       -12.9914
  17   2.0000      -0.470969       -12.8157
  18   2.0000      -0.439524       -11.9600
  19   2.0000      -0.378444       -10.2980
  20   0.0000       0.067145         1.8271
  21   0.0000       0.144933         3.9438
  22   0.0000       0.189536         5.1575
  23   0.0000       0.197465         5.3733
  24   0.0000       0.218741         5.9522

MULLIKEN ATOMIC CHARGES
-----------------------
   0 C :   -0.059686
   1 C :   -0.112696
   2 H :    0.060902
   3 H :    0.069982
   4 C :    0.256296
   5 O :   -0.270131
   6 F :   -0.085891
   7 H :    0.047654
   8 H :    0.049136
   9 H :    0.044436
Sum of atomic charges:    0.0000000

LOEWDIN ATOMIC CHARGES
----------------------
   0 C :   -0.048466
   1 C :   -0.071952
   2 H :    0.041215
   3 H :    0.045731
   4 C :    0.111695
   5 O :   -0.204976
   6 F :    0.039157
   7 H :    0.031643
   8 H :    0.029521
   9 H :    0.026431

  Mayer bond orders larger than 0.100000
B(  0-C ,  1-C ) :   1.0620 B(  0-C ,  7-H ) :   0.9737 B(  0-C ,  8-H ) :   0.9785
B(  0-C ,  9-H ) :   0.9755 B(  1-C ,  2-H ) :   0.9376 B(  1-C ,  3-H ) :   0.9549
B(  1-C ,  4-C ) :   0.9993 B(  4-C ,  5-O ) :   2.0834 B(  4-C ,  6-F ) :   1.1809

Dispersion correction           -0.001919580
FINAL SINGLE POINT ENERGY      -292.096236413427

DIPOLE MOMENT
-------------
                                X             Y             Z
Electronic contribution:      4.86176      -2.32247       5.90517
Nuclear contribution   :     -4.79499       2.78546      -7.01827
                        -----------------------------------------
Total Dipole Moment    :      0.06677       0.46299      -1.11310
                        -----------------------------------------
Magnitude (a.u.)       :      1.20740
Magnitude (Debye)      :      3.06897

Rotational constants in cm-1:     0.286098     0.133492     0.103343
Rotational constants in MHz :  8577.003657  4001.981591  3098.148068

                             ****ORCA TERMINATED NORMALLY****
TOTAL RUN TIME: 0 days 0 hours 0 minutes 13 seconds 775 msec
