                         Program Version 5.0.0 -  RELEASE  -
|  1> !wB97X-D3 RIJCOSX def2-SVP def2/J TightSCF
|  2> *xyz 0 1
|  3> C          3.91385       -1.65829        3.01513
|  4> N          5.03927       -0.90115        2.49282
|  5> C          6.21038       -1.41726        2.17824
|  6> C          6.53591       -2.67712        2.55608
|  7> N          7.07675       -0.70082        1.47891
|  8> H          7.95464       -1.12155        1.20755
|  9> H          6.75616        0.10664        0.96028
| 10> H          4.84217        0.01761        2.11519
| 11> H          5.99388       -3.12692        3.28278
| 12> C          3.13916       -2.37657        1.91061
| 13> H          3.26723       -0.93940        3.52069
| 14> H          4.24720       -2.35509        3.79006
| 15> H          7.49844       -2.97548        2.46878
| 16> H          2.82969       -1.66654        1.17238
| 17> H          2.27790       -2.85264        2.33072
| 18> H          3.76754       -3.11338        1.45548
| 19> *
| 20> %MaxCore 64000
| 21> %pal nprocs 8
| 22> end
| 23> %scf
| 24>   MaxIter 150
| 25> end
| 26>
| 27>
| 28>                          ****END OF INPUT****

CARTESIAN COORDINATES (ANGSTROEM)
---------------------------------
  C      3.913850   -1.658290    3.015130
  N      5.039270   -0.901150    2.492820
  C      6.210380   -1.417260    2.178240
  C      6.535910   -2.677120    2.556080
  N      7.076750   -0.700820    1.478910
  H      7.954640   -1.121550    1.207550
  H      6.756160    0.106640    0.960280
  H      4.842170    0.017610    2.115190
  H      5.993880   -3.126920    3.282780
  C      3.139160   -2.376570    1.910610
  H      3.267230   -0.939400    3.520690
  H      4.247200   -2.355090    3.790060
  H      7.498440   -2.975480    2.468780
  H      2.829690   -1.666540    1.172380
  H      2.277900   -2.852640    2.330720
  H      3.767540   -3.113380    1.455480

 Total Charge           Charge          ....    0
 Multiplicity           Mult            ....    1
 Number of Electrons    NEL             ....   48
 Basis Dimension        Dim             ....  134

ORBITAL ENERGIES
----------------

  NO   OCC          E(Eh)            E(eV)
   0   2.0000     -14.433228      -392.7481
   1   2.0000     -14.431292      -392.6954
   2   2.0000     -10.332597      -281.1643
   3   2.0000     -10.319050      -280.7956
   4   2.0000     -10.268349      -279.4160
   5   2.0000     -10.191507      -277.3250
   6   2.0000      -1.077335       -29.3158
   7   2.0000      -0.991301       -26.9747
   8   2.0000      -0.859089       -23.3770
   9   2.0000      -0.806558       -21.9476
  10   2.0000      -0.743857       -20.2414
  11   2.0000      -0.662216       -18.0198
  12   2.0000      -0.649280       -17.6678
  13   2.0000      -0.616561       -16.7775
  14   2.0000      -0.563099       -15.3227
  15   2.0000      -0.536086       -14.5876
  16   2.0000      -0.514216       -13.9925
  17   2.0000      -0.490646       -13.3512
  18   2.0000      -0.470235       -12.7957
  19   2.0000      -0.456728       -12.4282
  20   2.0000      -0.455287       -12.3890
  21   2.0000      -0.435750       -11.8574
  22   2.0000      -0.339082        -9.2269
  23   2.0000      -0.241685        -6.5766
  24   0.0000       0.131482         3.5778
  25   0.0000       0.162684         4.4269
  26   0.0000       0.172982         4.7071
  27   0.0000       0.183315         4.9882
  28   0.0000       0.204019         5.5516

MULLIKEN ATOMIC CHARGES
-----------------------
   0 C :    0.049097
   1 N :   -0.198133
   2 C :   -0.002332
   3 C :   -0.142008
   4 N :   -0.111463
   5 H :    0.136445
   6 H :    0.111770
   7 H :    0.109407
   8 H :   -0.041832
   9 C :   -0.012201
  10 H :    0.023504
  11 H :    0.048589
  12 H :   -0.050015
  13 H :    0.011819
  14 H :    0.024434
  15 H :    0.042918
Sum of atomic charges:   -0.0000000

LOEWDIN ATOMIC CHARGES
----------------------
   0 C :    0.041595
   1 N :   -0.031346
   2 C :    0.045108
   3 C :   -0.285787
   4 N :   -0.024357
   5 H :    0.086528
   6 H :    0.065861
   7 H :    0.066903
   8 H :   -0.010182
   9 C :   -0.063958
  10 H :    0.020931
  11 H :    0.029859
  12 H :   -0.010951
  13 H :    0.016934
  14 H :    0.023404
  15 H :    0.029460

  Mayer bond orders larger than 0.100000
B(  0-C ,  1-N ) :   0.9870 B(  0-C ,  9-C ) :   1.0882 B(  0-C , 10-H ) :   0.9633
B(  0-C , 11-H ) :   0.9522 B(  1-N ,  2-C ) :   1.1873 B(  1-N ,  7-H ) :   0.9390
B(  2-C ,  3-C ) :   1.7208 B(  2-C ,  4-N ) :   1.2379 B(  3-C ,  8-H ) :   0.9494
B(  3-C , 12-H ) :   0.9509 B(  4-N ,  5-H ) :   0.9449 B(  4-N ,  6-H ) :   0.9527
B(  9-C , 13-H ) :   0.9715 B(  9-C , 14-H ) :   0.9702 B(  9-C , 15-H ) :   0.9679

Dispersion correction           -0.003813183
FINAL SINGLE POINT ENERGY      -267.637930444416

DIPOLE MOMENT
-------------
                                X             Y             Z
Electronic contribution:      3.09378       2.91562      -0.26808
Nuclear contribution   :     -3.42552      -1.84584      -0.22295
                        -----------------------------------------
Total Dipole Moment    :     -0.33175       1.06978      -0.49103
                        -----------------------------------------
Magnitude (a.u.)       :      1.22295
Magnitude (Debye)      :      3.10848

Rotational constants in cm-1:     0.233526     0.075277     0.067092
Rotational constants in MHz :  7000.931279  2256.752901  2011.361214

                             ****ORCA TERMINATED NORMALLY****
TOTAL RUN TIME: 0 days 0 hours 0 minutes 22 seconds 891 msec
