                         Program Version 5.0.0 -  RELEASE  -
|  1> !wB97X-D3 RIJCOSX def2-SVP def2/J TightSCF
|  2> *xyz 0 1
|  3> C          3.91385       -1.65829        3.01513
|  4> N          5.03927       -0.90115        2.49282
|  5> C          6.21038       -1.41726        2.17824
|  6> N          6.53591       -2.67712        2.55608
|  7> C          7.07675       -0.70082        1.47891
|  8> H          7.95464       -1.12155        1.20755
|  9> H          6.75616        0.10664        0.96028
| 10> H          4.84217        0.01761        2.11519
| 11> H          5.99388       -3.12692        3.28278
| 12> C          3.13916       -2.37657        1.91061
| 13> H          3.26723       -0.93940        3.52069
| 14> H          4.24720       -2.35509        3.79006
| 15> H          7.49844       -2.97548        2.46878
| 16> H          2.82969       -1.66654        1.17238
| 17> H          2.27790       -2.85264        2.33072
| 18> H          3.76754       -3.11338        1.45548
| 19> *
| 20> %MaxCore 64000
| 21> %pal nprocs 8
| 22> end
| 23> %scf
| 24>   MaxIter 150
| 25> end
| 26>
| 27>
| 28>                          ****END OF INPUT****

CARTESIAN COORDINATES (ANGSTROEM)
---------------------------------
  C      3.913850   -1.658290    3.015130
  N      5.039270   -0.901150    2.492820
  C      6.210380   -1.417260    2.178240
  N      6.535910   -2.677120    2.556080
  C      7.076750   -0.700820    1.478910
  H      7.954640   -1.121550    1.207550
  H      6.756160    0.106640    0.960280
  H      4.842170    0.017610    2.115190
  H      5.993880   -3.126920    3.282780
  C      3.139160   -2.376570    1.910610
  H      3.267230   -0.939400    3.520690
  H      4.247200   -2.355090    3.790060
  H      7.498440   -2.975480    2.468780
  H      2.829690   -1.666540    1.172380
  H      2.277900   -2.852640    2.330720
  H      3.767540   -3.113380    1.455480

 Total Charge           Charge          ....    0
 Multiplicity           Mult            ....    1
 Number of Electrons    NEL             ....   48
 Basis Dimension        Dim             ....  134

ORBITAL ENERGIES
----------------

  NO   OCC          E(Eh)            E(eV)
   0   2.0000     -14.429620      -392.6499
   1   2.0000     -14.428711      -392.6252
   2   2.0000     -10.329376      -281.0766
   3   2.0000     -10.328665      -281.0573
   4   2.0000     -10.276954      -279.6501
   5   2.0000     -10.191780      -277.3324
   6   2.0000      -1.072689       -29.1894
   7   2.0000      -0.983574       -26.7644
   8   2.0000      -0.877505       -23.8781
   9   2.0000      -0.804340       -21.8872
  10   2.0000      -0.731795       -19.9132
  11   2.0000      -0.698891       -19.0178
  12   2.0000      -0.633112       -17.2279
  13   2.0000      -0.595178       -16.1956
  14   2.0000      -0.572557       -15.5801
  15   2.0000      -0.536520       -14.5994
  16   2.0000      -0.528587       -14.3836
  17   2.0000      -0.498819       -13.5736
  18   2.0000      -0.472565       -12.8592
  19   2.0000      -0.462998       -12.5988
  20   2.0000      -0.452948       -12.3253
  21   2.0000      -0.448198       -12.1961
  22   2.0000      -0.342350        -9.3158
  23   2.0000      -0.242516        -6.5992
  24   0.0000       0.130273         3.5449
  25   0.0000       0.156855         4.2682
  26   0.0000       0.170712         4.6453
  27   0.0000       0.185733         5.0541
  28   0.0000       0.195309         5.3146

MULLIKEN ATOMIC CHARGES
-----------------------
   0 C :    0.021306
   1 N :   -0.179765
   2 C :    0.008328
   3 N :   -0.141175
   4 C :   -0.125524
   5 H :   -0.047529
   6 H :   -0.043191
   7 H :    0.131523
   8 H :    0.109693
   9 C :   -0.008235
  10 H :    0.031534
  11 H :    0.024015
  12 H :    0.134149
  13 H :    0.026462
  14 H :    0.024265
  15 H :    0.034144
Sum of atomic charges:    0.0000000

LOEWDIN ATOMIC CHARGES
----------------------
   0 C :    0.028009
   1 N :   -0.031405
   2 C :    0.047231
   3 N :   -0.040770
   4 C :   -0.264511
   5 H :   -0.009080
   6 H :   -0.008502
   7 H :    0.086208
   8 H :    0.061958
   9 C :   -0.066405
  10 H :    0.025014
  11 H :    0.016552
  12 H :    0.084638
  13 H :    0.023358
  14 H :    0.022673
  15 H :    0.025032

  Mayer bond orders larger than 0.100000
B(  0-C ,  1-N ) :   1.0073 B(  0-C ,  9-C ) :   1.0698 B(  0-C , 10-H ) :   0.9608
B(  0-C , 11-H ) :   0.9594 B(  1-N ,  2-C ) :   1.1992 B(  1-N ,  7-H ) :   0.9292
B(  2-C ,  3-N ) :   1.2019 B(  2-C ,  4-C ) :   1.7586 B(  3-N ,  8-H ) :   0.9525
B(  3-N , 12-H ) :   0.9453 B(  4-C ,  5-H ) :   0.9494 B(  4-C ,  6-H ) :   0.9512
B(  9-C , 13-H ) :   0.9718 B(  9-C , 14-H ) :   0.9684 B(  9-C , 15-H ) :   0.9694

Dispersion correction           -0.003849970
FINAL SINGLE POINT ENERGY      -267.638558130141

DIPOLE MOMENT
-------------
                                X             Y             Z
Electronic contribution:      2.53604       0.88186       1.01230
Nuclear contribution   :     -3.31079      -1.42658      -0.45147
                        -----------------------------------------
Total Dipole Moment    :     -0.77475      -0.54472       0.56083
                        -----------------------------------------
Magnitude (a.u.)       :      1.10067
Magnitude (Debye)      :      2.79769

Rotational constants in cm-1:     0.225507     0.077571     0.068070
Rotational constants in MHz :  6760.542142  2325.533779  2040.680522

                             ****ORCA TERMINATED NORMALLY****
TOTAL RUN TIME: 0 days 0 hours 0 minutes 22 seconds 863 msec
