                         Program Version 5.0.0 -  RELEASE  -
|  1> !wB97X-D3 RIJCOSX def2-SVP def2/J TightSCF xyzfile
|  2>
|  3> *xyzfile 0 1 D3.xyz
|  4>
|  5> %MaxCore 64000
|  6>
|  7> %pal nprocs 18
|  8> end
|  9>
| 10> %scf
| 11>   MaxIter 150
| 12> end
| 13>
| 14>
| 15>                          ****END OF INPUT****

CARTESIAN COORDINATES (ANGSTROEM)
---------------------------------
  C      3.913853   -1.658291    3.015134
  N      5.039266   -0.901154    2.492821
  C      4.084215    1.742081   -2.114724
  C      4.265245    2.500518   -0.795890
  H      4.868534    3.392674   -0.981134
  H      3.307640    2.824571   -0.387809
  C      4.982240    1.650257    0.247422
  C      6.210384   -1.417261    2.178244
  N      6.535913   -2.677122    2.556078
  C      7.076754   -0.700820    1.478906
  H      7.954643   -1.121554    1.207554
  H      6.756161    0.106637    0.960278
  H      4.842168    0.017609    2.115191
  H      5.993876   -3.126918    3.282784
  H      7.498441   -2.975482    2.468776
  F      4.368065    1.389270    1.313706
  O      6.128919    1.233512   -0.045620
  C      3.139159   -2.376572    1.910609
  H      3.267235   -0.939401    3.520693
  H      4.247195   -2.355095    3.790065
  C      1.997274    0.430918   -1.399218
  C      3.412746    0.376886   -1.965497
  H      4.047407   -0.246590   -1.326706
  H      3.390774   -0.118719   -2.942839
  H      5.068475    1.598504   -2.565728
  H      3.503356    2.363939   -2.804565
  C      2.399946   -1.389579    1.009490
  H      2.440750   -3.087118    2.362976
  H      3.844475   -2.970462    1.318677
  C      2.070177   -1.936705   -0.372401
  H      1.481611   -1.061542    1.509912
  H      3.008628   -0.490001    0.897451
  C      1.322238   -0.935775   -1.256413
  H      1.472747   -2.850902   -0.283997
  H      3.003539   -2.234041   -0.862535
  H      1.376444    1.058920   -2.047420
  H      2.015341    0.929780   -0.426535
  H      0.316648   -0.787213   -0.848278
  H      1.185611   -1.379252   -2.248613

 Total Charge           Charge          ....    0
 Multiplicity           Mult            ....    1
 Number of Electrons    NEL             ....  126
 Basis Dimension        Dim             ....  339

ORBITAL ENERGIES
----------------

  NO   OCC          E(Eh)            E(eV)
   0   2.0000     -24.889086      -677.2665
   1   2.0000     -19.254474      -523.9409
   2   2.0000     -14.408633      -392.0788
   3   2.0000     -14.405232      -391.9863
   4   2.0000     -10.480980      -285.2020
   5   2.0000     -10.324180      -280.9352
   6   2.0000     -10.314968      -280.6846
   7   2.0000     -10.306356      -280.4502
   8   2.0000     -10.303887      -280.3830
   9   2.0000     -10.293238      -280.0933
  10   2.0000     -10.291079      -280.0345
  11   2.0000     -10.287019      -279.9240
  12   2.0000     -10.282910      -279.8122
  13   2.0000     -10.282825      -279.8099
  14   2.0000     -10.278020      -279.6791
  15   2.0000     -10.153833      -276.2999
  16   2.0000      -1.445193       -39.3257
  17   2.0000      -1.153855       -31.3980
  18   2.0000      -1.052940       -28.6520
  19   2.0000      -0.966343       -26.2955
  20   2.0000      -0.945558       -25.7299
  21   2.0000      -0.918242       -24.9866
  22   2.0000      -0.887353       -24.1461
  23   2.0000      -0.848800       -23.0970
  24   2.0000      -0.821726       -22.3603
  25   2.0000      -0.794891       -21.6301
  26   2.0000      -0.771066       -20.9818
  27   2.0000      -0.748354       -20.3637
  28   2.0000      -0.714531       -19.4434
  29   2.0000      -0.702058       -19.1040
  30   2.0000      -0.684347       -18.6220
  31   2.0000      -0.675609       -18.3842
  32   2.0000      -0.665946       -18.1213
  33   2.0000      -0.647273       -17.6132
  34   2.0000      -0.630664       -17.1612
  35   2.0000      -0.607072       -16.5193
  36   2.0000      -0.591184       -16.0869
  37   2.0000      -0.584386       -15.9020
  38   2.0000      -0.571429       -15.5494
  39   2.0000      -0.561373       -15.2757
  40   2.0000      -0.553871       -15.0716
  41   2.0000      -0.540541       -14.7089
  42   2.0000      -0.530160       -14.4264
  43   2.0000      -0.526838       -14.3360
  44   2.0000      -0.515531       -14.0283
  45   2.0000      -0.498227       -13.5574
  46   2.0000      -0.492785       -13.4094
  47   2.0000      -0.484384       -13.1808
  48   2.0000      -0.469374       -12.7723
  49   2.0000      -0.463854       -12.6221
  50   2.0000      -0.460120       -12.5205
  51   2.0000      -0.458291       -12.4707
  52   2.0000      -0.448091       -12.1932
  53   2.0000      -0.439954       -11.9718
  54   2.0000      -0.435612       -11.8536
  55   2.0000      -0.429094       -11.6762
  56   2.0000      -0.421295       -11.4640
  57   2.0000      -0.409812       -11.1516
  58   2.0000      -0.407639       -11.0924
  59   2.0000      -0.404048       -10.9947
  60   2.0000      -0.359978        -9.7955
  61   2.0000      -0.324187        -8.8216
  62   2.0000      -0.217368        -5.9149
  63   0.0000       0.044911         1.2221
  64   0.0000       0.130450         3.5497
  65   0.0000       0.144323         3.9272
  66   0.0000       0.149849         4.0776
  67   0.0000       0.154077         4.1927

MULLIKEN ATOMIC CHARGES
-----------------------
   0 C :    0.081216
   1 N :   -0.194907
   2 C :   -0.022447
   3 C :   -0.032244
   4 H :    0.080054
   5 H :    0.045344
   6 C :    0.269227
   7 C :   -0.007802
   8 N :   -0.140748
   9 C :   -0.138104
  10 H :   -0.066594
  11 H :   -0.030242
  12 H :    0.124658
  13 H :    0.100846
  14 H :    0.127982
  15 F :   -0.088305
  16 O :   -0.228754
  17 C :    0.017355
  18 H :    0.014833
  19 H :    0.016859
  20 C :   -0.063434
  21 C :   -0.082129
  22 H :    0.048871
  23 H :    0.030713
  24 H :    0.055564
  25 H :    0.035683
  26 C :   -0.064870
  27 H :    0.015039
  28 H :    0.025090
  29 C :   -0.047406
  30 H :    0.014992
  31 H :   -0.032806
  32 C :    0.009130
  33 H :    0.022818
  34 H :    0.031571
  35 H :    0.019890
  36 H :    0.012768
  37 H :    0.019659
  38 H :    0.020630
Sum of atomic charges:   -0.0000000

LOEWDIN ATOMIC CHARGES
----------------------
   0 C :    0.031102
   1 N :   -0.042336
   2 C :   -0.023894
   3 C :   -0.063058
   4 H :    0.057149
   5 H :    0.028713
   6 C :    0.135802
   7 C :    0.033219
   8 N :   -0.048452
   9 C :   -0.270553
  10 H :   -0.016374
  11 H :   -0.032608
  12 H :    0.044007
  13 H :    0.056541
  14 H :    0.080915
  15 F :    0.073420
  16 O :   -0.133251
  17 C :   -0.050414
  18 H :    0.021111
  19 H :    0.014981
  20 C :   -0.045371
  21 C :   -0.045496
  22 H :    0.023992
  23 H :    0.030116
  24 H :    0.035859
  25 H :    0.029162
  26 C :   -0.044477
  27 H :    0.020168
  28 H :    0.025900
  29 C :   -0.040334
  30 H :    0.020329
  31 H :    0.001509
  32 C :   -0.036390
  33 H :    0.024344
  34 H :    0.022452
  35 H :    0.023838
  36 H :    0.012237
  37 H :    0.022988
  38 H :    0.023157

  Mayer bond orders larger than 0.100000
B(  0-C ,  1-N ) :   1.0258 B(  0-C , 17-C ) :   1.0445 B(  0-C , 18-H ) :   0.9536
B(  0-C , 19-H ) :   0.9557 B(  1-N ,  7-C ) :   1.1804 B(  1-N , 12-H ) :   0.9100
B(  2-C ,  3-C ) :   1.0619 B(  2-C , 21-C ) :   1.0882 B(  2-C , 24-H ) :   0.9472
B(  2-C , 25-H ) :   0.9519 B(  3-C ,  4-H ) :   0.9286 B(  3-C ,  5-H ) :   0.9344
B(  3-C ,  6-C ) :   0.9921 B(  6-C , 15-F ) :   1.0909 B(  6-C , 16-O ) :   1.9887
B(  7-C ,  8-N ) :   1.1840 B(  7-C ,  9-C ) :   1.7810 B(  8-N , 13-H ) :   0.9533
B(  8-N , 14-H ) :   0.9465 B(  9-C , 10-H ) :   0.9434 B(  9-C , 11-H ) :   0.9242
B( 11-H , 16-O ) :   0.1206 B( 17-C , 26-C ) :   1.0585 B( 17-C , 27-H ) :   0.9425
B( 17-C , 28-H ) :   0.9446 B( 20-C , 21-C ) :   1.0470 B( 20-C , 32-C ) :   1.0810
B( 20-C , 35-H ) :   0.9470 B( 20-C , 36-H ) :   0.9403 B( 21-C , 22-H ) :   0.9348
B( 21-C , 23-H ) :   0.9435 B( 26-C , 29-C ) :   1.0639 B( 26-C , 30-H ) :   0.9457
B( 26-C , 31-H ) :   0.9370 B( 29-C , 32-C ) :   1.0738 B( 29-C , 33-H ) :   0.9471
B( 29-C , 34-H ) :   0.9470 B( 32-C , 37-H ) :   0.9483 B( 32-C , 38-H ) :   0.9492

Dispersion correction           -0.020075480
FINAL SINGLE POINT ENERGY      -754.902340934805

DIPOLE MOMENT
-------------
                                X             Y             Z
Electronic contribution:      9.52116       8.69087       6.74950
Nuclear contribution   :    -11.12616      -8.32792      -6.96231
                        -----------------------------------------
Total Dipole Moment    :     -1.60499       0.36295      -0.21281
                        -----------------------------------------
Magnitude (a.u.)       :      1.65923
Magnitude (Debye)      :      4.21742

Rotational constants in cm-1:     0.020226     0.013574     0.009520
Rotational constants in MHz :   606.360011   406.923773   285.390769

                             ****ORCA TERMINATED NORMALLY****
TOTAL RUN TIME: 0 days 0 hours 1 minutes 1 seconds 346 msec
