                         Program Version 5.0.0 -  RELEASE  -
|  1> !wB97X-D3 RIJCOSX def2-SVP def2/J TightSCF xyzfile
|  2>
|  3> *xyzfile 0 1 D4.xyz
|  4>
|  5> %MaxCore 64000
|  6>
|  7> %pal nprocs 18
|  8> end
|  9>
| 10> %scf
| 11>   MaxIter 150
| 12> end
| 13>
| 14>
| 15>                          ****END OF INPUT****

CARTESIAN COORDINATES (ANGSTROEM)
---------------------------------
  C      3.913853   -1.658291    3.015134
  C      5.039266   -0.901154    2.492821
  C      4.084215    1.742081   -2.114724
  C      4.265245    2.500518   -0.795890
  H      4.868534    3.392674   -0.981134
  H      3.307640    2.824571   -0.387809
  C      4.982240    1.650257    0.247422
  C      6.210384   -1.417261    2.178244
  N      6.535913   -2.677122    2.556078
  N      7.076754   -0.700820    1.478906
  H      7.954643   -1.121554    1.207554
  H      6.756161    0.106637    0.960278
  H      4.842168    0.017609    2.115191
  H      5.993876   -3.126918    3.282784
  H      7.498441   -2.975482    2.468776
  O      4.368065    1.389270    1.313706
  F      6.128919    1.233512   -0.045620
  C      3.139159   -2.376572    1.910609
  H      3.267235   -0.939401    3.520693
  H      4.247195   -2.355095    3.790065
  C      1.997274    0.430918   -1.399218
  C      3.412746    0.376886   -1.965497
  H      4.047407   -0.246590   -1.326706
  H      3.390774   -0.118719   -2.942839
  H      5.068475    1.598504   -2.565728
  H      3.503356    2.363939   -2.804565
  C      2.399946   -1.389579    1.009490
  H      2.440750   -3.087118    2.362976
  H      3.844475   -2.970462    1.318677
  C      2.070177   -1.936705   -0.372401
  H      1.481611   -1.061542    1.509912
  H      3.008628   -0.490001    0.897451
  C      1.322238   -0.935775   -1.256413
  H      1.472747   -2.850902   -0.283997
  H      3.003539   -2.234041   -0.862535
  H      1.376444    1.058920   -2.047420
  H      2.015341    0.929780   -0.426535
  H      0.316648   -0.787213   -0.848278
  H      1.185611   -1.379252   -2.248613

 Total Charge           Charge          ....    0
 Multiplicity           Mult            ....    1
 Number of Electrons    NEL             ....  126
 Basis Dimension        Dim             ....  339

ORBITAL ENERGIES
----------------

  NO   OCC          E(Eh)            E(eV)
   0   2.0000     -24.892584      -677.3616
   1   2.0000     -19.257991      -524.0366
   2   2.0000     -14.411141      -392.1471
   3   2.0000     -14.401383      -391.8816
   4   2.0000     -10.483164      -285.2614
   5   2.0000     -10.324504      -280.9441
   6   2.0000     -10.310177      -280.5542
   7   2.0000     -10.303281      -280.3665
   8   2.0000     -10.292926      -280.0848
   9   2.0000     -10.282062      -279.7891
  10   2.0000     -10.275588      -279.6130
  11   2.0000     -10.266265      -279.3593
  12   2.0000     -10.253917      -279.0233
  13   2.0000     -10.248330      -278.8712
  14   2.0000     -10.240615      -278.6613
  15   2.0000     -10.163872      -276.5730
  16   2.0000      -1.450064       -39.4582
  17   2.0000      -1.154510       -31.4158
  18   2.0000      -1.042075       -28.3563
  19   2.0000      -0.951441       -25.8900
  20   2.0000      -0.944302       -25.6958
  21   2.0000      -0.908997       -24.7351
  22   2.0000      -0.877483       -23.8775
  23   2.0000      -0.848465       -23.0879
  24   2.0000      -0.814036       -22.1511
  25   2.0000      -0.790320       -21.5057
  26   2.0000      -0.771472       -20.9928
  27   2.0000      -0.735644       -20.0179
  28   2.0000      -0.708337       -19.2748
  29   2.0000      -0.691398       -18.8139
  30   2.0000      -0.680566       -18.5191
  31   2.0000      -0.671561       -18.2741
  32   2.0000      -0.651498       -17.7282
  33   2.0000      -0.640428       -17.4269
  34   2.0000      -0.629083       -17.1182
  35   2.0000      -0.608159       -16.5489
  36   2.0000      -0.583028       -15.8650
  37   2.0000      -0.580526       -15.7969
  38   2.0000      -0.578478       -15.7412
  39   2.0000      -0.555563       -15.1176
  40   2.0000      -0.544684       -14.8216
  41   2.0000      -0.533394       -14.5144
  42   2.0000      -0.523926       -14.2568
  43   2.0000      -0.507657       -13.8140
  44   2.0000      -0.503034       -13.6883
  45   2.0000      -0.497642       -13.5415
  46   2.0000      -0.487217       -13.2579
  47   2.0000      -0.479334       -13.0433
  48   2.0000      -0.471551       -12.8315
  49   2.0000      -0.466603       -12.6969
  50   2.0000      -0.455039       -12.3822
  51   2.0000      -0.452803       -12.3214
  52   2.0000      -0.432610       -11.7719
  53   2.0000      -0.425006       -11.5650
  54   2.0000      -0.422924       -11.5083
  55   2.0000      -0.417944       -11.3728
  56   2.0000      -0.397962       -10.8291
  57   2.0000      -0.391556       -10.6548
  58   2.0000      -0.385633       -10.4936
  59   2.0000      -0.381243       -10.3741
  60   2.0000      -0.350201        -9.5294
  61   2.0000      -0.334979        -9.1152
  62   2.0000      -0.215176        -5.8552
  63   0.0000       0.045309         1.2329
  64   0.0000       0.130588         3.5535
  65   0.0000       0.148974         4.0538
  66   0.0000       0.156195         4.2503
  67   0.0000       0.159674         4.3449

MULLIKEN ATOMIC CHARGES
-----------------------
   0 C :    0.073308
   1 C :   -0.225605
   2 C :   -0.056980
   3 C :   -0.023975
   4 H :    0.063570
   5 H :    0.075717
   6 C :    0.275765
   7 C :   -0.022158
   8 N :   -0.131995
   9 N :   -0.106358
  10 H :    0.099873
  11 H :    0.108289
  12 H :   -0.073283
  13 H :    0.122615
  14 H :    0.104004
  15 O :   -0.231102
  16 F :   -0.090859
  17 C :    0.042864
  18 H :   -0.004381
  19 H :   -0.028002
  20 C :   -0.065072
  21 C :   -0.062783
  22 H :    0.035664
  23 H :    0.028355
  24 H :    0.036756
  25 H :    0.040914
  26 C :   -0.065247
  27 H :   -0.004034
  28 H :   -0.003057
  29 C :   -0.040864
  30 H :    0.005468
  31 H :    0.002813
  32 C :    0.010138
  33 H :    0.015920
  34 H :    0.014346
  35 H :    0.014376
  36 H :    0.034133
  37 H :    0.018697
  38 H :    0.012170
Sum of atomic charges:    0.0000000

LOEWDIN ATOMIC CHARGES
----------------------
   0 C :   -0.037719
   1 C :   -0.234581
   2 C :   -0.035214
   3 C :   -0.059433
   4 H :    0.045791
   5 H :    0.047470
   6 C :    0.137884
   7 C :    0.024624
   8 N :   -0.049432
   9 N :   -0.043667
  10 H :    0.059070
  11 H :    0.039670
  12 H :   -0.029950
  13 H :    0.074666
  14 H :    0.060816
  15 O :   -0.136806
  16 F :    0.074352
  17 C :   -0.036164
  18 H :    0.022047
  19 H :    0.003342
  20 C :   -0.044172
  21 C :   -0.044091
  22 H :    0.020222
  23 H :    0.028325
  24 H :    0.025736
  25 H :    0.031113
  26 C :   -0.043037
  27 H :    0.009370
  28 H :    0.014395
  29 C :   -0.041700
  30 H :    0.018245
  31 H :    0.013624
  32 C :   -0.036829
  33 H :    0.021329
  34 H :    0.015671
  35 H :    0.021545
  36 H :    0.021210
  37 H :    0.023256
  38 H :    0.019024

  Mayer bond orders larger than 0.100000
B(  0-C ,  1-C ) :   1.0646 B(  0-C , 17-C ) :   1.0614 B(  0-C , 18-H ) :   0.9217
B(  0-C , 19-H ) :   0.9368 B(  1-C ,  7-C ) :   1.7228 B(  1-C , 12-H ) :   0.9432
B(  2-C ,  3-C ) :   1.0475 B(  2-C , 21-C ) :   1.0812 B(  2-C , 24-H ) :   0.9524
B(  2-C , 25-H ) :   0.9498 B(  3-C ,  4-H ) :   0.9309 B(  3-C ,  5-H ) :   0.9435
B(  3-C ,  6-C ) :   0.9973 B(  6-C , 15-O ) :   1.9733 B(  6-C , 16-F ) :   1.0998
B(  7-C ,  8-N ) :   1.2159 B(  7-C ,  9-N ) :   1.2257 B(  8-N , 13-H ) :   0.9426
B(  8-N , 14-H ) :   0.9522 B(  9-N , 10-H ) :   0.9520 B(  9-N , 11-H ) :   0.9272
B( 12-H , 15-O ) :   0.1184 B( 17-C , 26-C ) :   1.0640 B( 17-C , 27-H ) :   0.9424
B( 17-C , 28-H ) :   0.9476 B( 20-C , 21-C ) :   1.0502 B( 20-C , 32-C ) :   1.0816
B( 20-C , 35-H ) :   0.9472 B( 20-C , 36-H ) :   0.9406 B( 21-C , 22-H ) :   0.9329
B( 21-C , 23-H ) :   0.9441 B( 26-C , 29-C ) :   1.0614 B( 26-C , 30-H ) :   0.9428
B( 26-C , 31-H ) :   0.9423 B( 29-C , 32-C ) :   1.0745 B( 29-C , 33-H ) :   0.9457
B( 29-C , 34-H ) :   0.9449 B( 32-C , 37-H ) :   0.9469 B( 32-C , 38-H ) :   0.9494

Dispersion correction           -0.020074327
FINAL SINGLE POINT ENERGY      -754.911527502149

DIPOLE MOMENT
-------------
                                X             Y             Z
Electronic contribution:     14.50288       8.76029       3.66805
Nuclear contribution   :    -13.61164      -8.17416      -5.14068
                        -----------------------------------------
Total Dipole Moment    :      0.89124       0.58613      -1.47262
                        -----------------------------------------
Magnitude (a.u.)       :      1.81837
Magnitude (Debye)      :      4.62193

Rotational constants in cm-1:     0.019858     0.013613     0.009401
Rotational constants in MHz :   595.331791   408.100423   281.843625

                             ****ORCA TERMINATED NORMALLY****
TOTAL RUN TIME: 0 days 0 hours 1 minutes 13 seconds 154 msec
