                         Program Version 5.0.0 -  RELEASE  -
|  1> !wB97X-D3 RIJCOSX def2-SVP def2/J TightSCF xyzfile
|  2>
|  3> *xyzfile 0 1 D5.xyz
|  4>
|  5> %MaxCore 64000
|  6>
|  7> %pal nprocs 18
|  8> end
|  9>
| 10> %scf
| 11>   MaxIter 150
| 12> end
| 13>
| 14>
| 15>                          ****END OF INPUT****

CARTESIAN COORDINATES (ANGSTROEM)
---------------------------------
  C      3.913853   -1.658291    3.015134
  N      5.039266   -0.901154    2.492821
  C      4.084215    1.742081   -2.114724
  C      4.265245    2.500518   -0.795890
  H      4.868534    3.392674   -0.981134
  H      3.307640    2.824571   -0.387809
  C      4.982240    1.650257    0.247422
  C      6.210384   -1.417261    2.178244
  C      6.535913   -2.677122    2.556078
  N      7.076754   -0.700820    1.478906
  H      7.954643   -1.121554    1.207554
  H      6.756161    0.106637    0.960278
  H      4.842168    0.017609    2.115191
  H      5.993876   -3.126918    3.282784
  H      7.498441   -2.975482    2.468776
  O      4.368065    1.389270    1.313706
  F      6.128919    1.233512   -0.045620
  C      3.139159   -2.376572    1.910609
  H      3.267235   -0.939401    3.520693
  H      4.247195   -2.355095    3.790065
  C      1.997274    0.430918   -1.399218
  C      3.412746    0.376886   -1.965497
  H      4.047407   -0.246590   -1.326706
  H      3.390774   -0.118719   -2.942839
  H      5.068475    1.598504   -2.565728
  H      3.503356    2.363939   -2.804565
  C      2.399946   -1.389579    1.009490
  H      2.440750   -3.087118    2.362976
  H      3.844475   -2.970462    1.318677
  C      2.070177   -1.936705   -0.372401
  H      1.481611   -1.061542    1.509912
  H      3.008628   -0.490001    0.897451
  C      1.322238   -0.935775   -1.256413
  H      1.472747   -2.850902   -0.283997
  H      3.003539   -2.234041   -0.862535
  H      1.376444    1.058920   -2.047420
  H      2.015341    0.929780   -0.426535
  H      0.316648   -0.787213   -0.848278
  H      1.185611   -1.379252   -2.248613

 Total Charge           Charge          ....    0
 Multiplicity           Mult            ....    1
 Number of Electrons    NEL             ....  126
 Basis Dimension        Dim             ....  339

ORBITAL ENERGIES
----------------

  NO   OCC          E(Eh)            E(eV)
   0   2.0000     -24.912005      -677.8901
   1   2.0000     -19.287802      -524.8478
   2   2.0000     -14.404665      -391.9709
   3   2.0000     -14.394194      -391.6859
   4   2.0000     -10.508700      -285.9563
   5   2.0000     -10.340155      -281.3699
   6   2.0000     -10.322514      -280.8899
   7   2.0000     -10.309534      -280.5367
   8   2.0000     -10.304357      -280.3958
   9   2.0000     -10.296696      -280.1874
  10   2.0000     -10.293089      -280.0892
  11   2.0000     -10.285686      -279.8878
  12   2.0000     -10.277688      -279.6701
  13   2.0000     -10.270383      -279.4713
  14   2.0000     -10.263426      -279.2820
  15   2.0000     -10.170903      -276.7643
  16   2.0000      -1.469875       -39.9973
  17   2.0000      -1.182815       -32.1860
  18   2.0000      -1.051631       -28.6163
  19   2.0000      -0.968860       -26.3640
  20   2.0000      -0.958643       -26.0860
  21   2.0000      -0.920181       -25.0394
  22   2.0000      -0.882077       -24.0025
  23   2.0000      -0.851370       -23.1669
  24   2.0000      -0.815698       -22.1963
  25   2.0000      -0.800428       -21.7807
  26   2.0000      -0.782618       -21.2961
  27   2.0000      -0.756472       -20.5846
  28   2.0000      -0.725617       -19.7450
  29   2.0000      -0.700209       -19.0536
  30   2.0000      -0.698321       -19.0023
  31   2.0000      -0.694877       -18.9086
  32   2.0000      -0.659713       -17.9517
  33   2.0000      -0.653568       -17.7845
  34   2.0000      -0.632519       -17.2117
  35   2.0000      -0.606157       -16.4944
  36   2.0000      -0.600894       -16.3512
  37   2.0000      -0.592341       -16.1184
  38   2.0000      -0.588903       -16.0249
  39   2.0000      -0.567416       -15.4402
  40   2.0000      -0.550108       -14.9692
  41   2.0000      -0.544971       -14.8294
  42   2.0000      -0.530765       -14.4428
  43   2.0000      -0.520581       -14.1657
  44   2.0000      -0.513058       -13.9610
  45   2.0000      -0.510419       -13.8892
  46   2.0000      -0.499255       -13.5854
  47   2.0000      -0.486708       -13.2440
  48   2.0000      -0.483106       -13.1460
  49   2.0000      -0.471291       -12.8245
  50   2.0000      -0.462798       -12.5934
  51   2.0000      -0.454294       -12.3620
  52   2.0000      -0.448935       -12.2161
  53   2.0000      -0.440011       -11.9733
  54   2.0000      -0.435403       -11.8479
  55   2.0000      -0.430380       -11.7112
  56   2.0000      -0.416683       -11.3385
  57   2.0000      -0.408830       -11.1248
  58   2.0000      -0.403337       -10.9754
  59   2.0000      -0.399628       -10.8744
  60   2.0000      -0.394000       -10.7213
  61   2.0000      -0.313312        -8.5256
  62   2.0000      -0.220623        -6.0035
  63   0.0000       0.022087         0.6010
  64   0.0000       0.119434         3.2500
  65   0.0000       0.145658         3.9635
  66   0.0000       0.148402         4.0382
  67   0.0000       0.155533         4.2323

MULLIKEN ATOMIC CHARGES
-----------------------
   0 C :    0.120073
   1 N :   -0.216591
   2 C :   -0.058802
   3 C :   -0.029281
   4 H :    0.072104
   5 H :    0.080030
   6 C :    0.286245
   7 C :    0.000914
   8 C :   -0.150993
   9 N :   -0.126442
  10 H :    0.126640
  11 H :    0.092818
  12 H :    0.121012
  13 H :   -0.049506
  14 H :   -0.062385
  15 O :   -0.265602
  16 F :   -0.080031
  17 C :    0.008676
  18 H :    0.010809
  19 H :    0.034542
  20 C :   -0.066580
  21 C :   -0.066400
  22 H :    0.034680
  23 H :    0.034982
  24 H :    0.042961
  25 H :    0.046859
  26 C :   -0.071116
  27 H :    0.013954
  28 H :    0.025242
  29 C :   -0.045666
  30 H :    0.011137
  31 H :   -0.018059
  32 C :    0.008808
  33 H :    0.023005
  34 H :    0.023029
  35 H :    0.018830
  36 H :    0.030751
  37 H :    0.021693
  38 H :    0.017661
Sum of atomic charges:    0.0000000

LOEWDIN ATOMIC CHARGES
----------------------
   0 C :    0.046539
   1 N :   -0.038127
   2 C :   -0.033399
   3 C :   -0.057765
   4 H :    0.049916
   5 H :    0.049251
   6 C :    0.150137
   7 C :    0.045168
   8 C :   -0.301670
   9 N :   -0.039877
  10 H :    0.079756
  11 H :    0.025836
  12 H :    0.022186
  13 H :   -0.013432
  14 H :   -0.016277
  15 O :   -0.152046
  16 F :    0.082279
  17 C :   -0.046278
  18 H :    0.019704
  19 H :    0.024974
  20 C :   -0.044583
  21 C :   -0.044087
  22 H :    0.019179
  23 H :    0.031280
  24 H :    0.028159
  25 H :    0.033979
  26 C :   -0.047426
  27 H :    0.020444
  28 H :    0.027004
  29 C :   -0.041004
  30 H :    0.019218
  31 H :    0.005315
  32 C :   -0.036300
  33 H :    0.024503
  34 H :    0.018802
  35 H :    0.023393
  36 H :    0.019473
  37 H :    0.024345
  38 H :    0.021432

  Mayer bond orders larger than 0.100000
B(  0-C ,  1-N ) :   1.0059 B(  0-C , 17-C ) :   1.0691 B(  0-C , 18-H ) :   0.9545
B(  0-C , 19-H ) :   0.9480 B(  1-N ,  7-C ) :   1.2082 B(  1-N , 12-H ) :   0.8902
B(  2-C ,  3-C ) :   1.0461 B(  2-C , 21-C ) :   1.0810 B(  2-C , 24-H ) :   0.9526
B(  2-C , 25-H ) :   0.9496 B(  3-C ,  4-H ) :   0.9294 B(  3-C ,  5-H ) :   0.9424
B(  3-C ,  6-C ) :   0.9987 B(  6-C , 15-O ) :   1.9394 B(  6-C , 16-F ) :   1.1212
B(  7-C ,  8-C ) :   1.7038 B(  7-C ,  9-N ) :   1.2343 B(  8-C , 13-H ) :   0.9480
B(  8-C , 14-H ) :   0.9485 B(  9-N , 10-H ) :   0.9449 B(  9-N , 11-H ) :   0.9402
B( 12-H , 15-O ) :   0.1131 B( 17-C , 26-C ) :   1.0565 B( 17-C , 27-H ) :   0.9452
B( 17-C , 28-H ) :   0.9423 B( 20-C , 21-C ) :   1.0484 B( 20-C , 32-C ) :   1.0813
B( 20-C , 35-H ) :   0.9474 B( 20-C , 36-H ) :   0.9411 B( 21-C , 22-H ) :   0.9332
B( 21-C , 23-H ) :   0.9439 B( 26-C , 29-C ) :   1.0622 B( 26-C , 30-H ) :   0.9443
B( 26-C , 31-H ) :   0.9366 B( 29-C , 32-C ) :   1.0736 B( 29-C , 33-H ) :   0.9463
B( 29-C , 34-H ) :   0.9465 B( 32-C , 37-H ) :   0.9475 B( 32-C , 38-H ) :   0.9498

Dispersion correction           -0.020119603
FINAL SINGLE POINT ENERGY      -754.922158088764

DIPOLE MOMENT
-------------
                                X             Y             Z
Electronic contribution:     12.85949      10.51724       3.19312
Nuclear contribution   :    -13.35170      -8.48261      -5.12969
                        -----------------------------------------
Total Dipole Moment    :     -0.49221       2.03462      -1.93657
                        -----------------------------------------
Magnitude (a.u.)       :      2.85171
Magnitude (Debye)      :      7.24848

Rotational constants in cm-1:     0.019886     0.013843     0.009504
Rotational constants in MHz :   596.157485   415.004628   284.931121

                             ****ORCA TERMINATED NORMALLY****
TOTAL RUN TIME: 0 days 0 hours 0 minutes 57 seconds 600 msec
