                         Program Version 5.0.0 -  RELEASE  -
|  1> !BLYP D3BJ RIJCOSX def2-SVPD def2/J TightSCF
|  2> *xyz -1 1
|  3> C          0.28725       -1.71177       -2.52740
|  4> O          0.71050       -0.92751       -1.48177
|  5> H          0.92384       -1.55316       -3.37267
|  6> H         -0.71828       -1.45137       -2.78433
|  7> H          0.32655       -2.74158       -2.23955
|  8> *
|  9> %MaxCore 64000
| 10>
| 11> %pal nprocs 4
| 12> end
| 13>
| 14> %scf
| 15>   MaxIter 150
| 16> end
| 17>
| 18>
| 19>                          ****END OF INPUT****

CARTESIAN COORDINATES (ANGSTROEM)
---------------------------------
  C      0.287250   -1.711770   -2.527400
  O      0.710500   -0.927510   -1.481770
  H      0.923840   -1.553160   -3.372670
  H     -0.718280   -1.451370   -2.784330
  H      0.326550   -2.741580   -2.239550

 Total Charge           Charge          ....   -1
 Multiplicity           Mult            ....    1
 Number of Electrons    NEL             ....   18
 Basis Dimension        Dim             ....   67

ORBITAL ENERGIES
----------------

  NO   OCC          E(Eh)            E(eV)
   0   2.0000     -18.444545      -501.9016
   1   2.0000      -9.711551      -264.2647
   2   2.0000      -0.561820       -15.2879
   3   2.0000      -0.323972        -8.8157
   4   2.0000      -0.146227        -3.9790
   5   2.0000      -0.146225        -3.9790
   6   2.0000      -0.051739        -1.4079
   7   2.0000       0.093561         2.5459
   8   2.0000       0.093562         2.5460
   9   0.0000       0.181146         4.9292
  10   0.0000       0.249996         6.8027
  11   0.0000       0.249997         6.8028
  12   0.0000       0.257561         7.0086
  13   0.0000       0.295398         8.0382

MULLIKEN ATOMIC CHARGES
-----------------------
   0 C :    1.159722
   1 O :   -0.991206
   2 H :   -0.389523
   3 H :   -0.389497
   4 H :   -0.389496
Sum of atomic charges:   -1.0000000

LOEWDIN ATOMIC CHARGES
----------------------
   0 C :   -0.111915
   1 O :   -0.619715
   2 H :   -0.089459
   3 H :   -0.089454
   4 H :   -0.089456

  Mayer bond orders larger than 0.100000
B(  0-C ,  1-O ) :   1.1642 B(  0-C ,  2-H ) :   0.8330 B(  0-C ,  3-H ) :   0.8330
B(  0-C ,  4-H ) :   0.8330

Dispersion correction           -0.003031276
FINAL SINGLE POINT ENERGY      -114.985684162219

DIPOLE MOMENT
-------------
                                X             Y             Z
Electronic contribution:      0.58668       1.08708       1.44935
Nuclear contribution   :     -0.89006      -1.64923      -2.19886
                        -----------------------------------------
Total Dipole Moment    :     -0.30338      -0.56215      -0.74951
                        -----------------------------------------
Magnitude (a.u.)       :      0.98479
Magnitude (Debye)      :      2.50315

Rotational constants in cm-1:     5.477712     0.934243     0.934241
Rotational constants in MHz : 164217.678885 28007.889263 28007.851448

                             ****ORCA TERMINATED NORMALLY****
TOTAL RUN TIME: 0 days 0 hours 0 minutes 2 seconds 235 msec
