                         Program Version 5.0.0 -  RELEASE  -
|  1> !BLYP D3BJ RIJCOSX def2-SVPD def2/J TightSCF
|  2> *xyz 1 1
|  3> C          3.48828        1.60092       -1.52204
|  4> N          2.81029        0.42878       -1.01420
|  5> C          3.29098       -0.41802       -0.12908
|  6> N          2.51754       -1.43202        0.23936
|  7> N          4.53549       -0.28441        0.39580
|  8> H          5.04363        0.57189        0.22290
|  9> H          4.72335       -0.73327        1.28180
| 10> H          1.93479        0.10230       -1.40379
| 11> H          1.67464       -1.50562       -0.31610
| 12> H          2.92850       -2.21850        0.72549
| 13> H          2.85802        2.09943       -2.22855
| 14> H          4.39853        1.30677       -2.00144
| 15> H          3.70992        2.26379       -0.71187
| 16> *
| 17> %MaxCore 64000
| 18>
| 19> %pal nprocs 4
| 20> end
| 21>
| 22> %scf
| 23>   MaxIter 150
| 24> end
| 25>
| 26>
| 27>                          ****END OF INPUT****

CARTESIAN COORDINATES (ANGSTROEM)
---------------------------------
  C      3.488280    1.600920   -1.522040
  N      2.810290    0.428780   -1.014200
  C      3.290980   -0.418020   -0.129080
  N      2.517540   -1.432020    0.239360
  N      4.535490   -0.284410    0.395800
  H      5.043630    0.571890    0.222900
  H      4.723350   -0.733270    1.281800
  H      1.934790    0.102300   -1.403790
  H      1.674640   -1.505620   -0.316100
  H      2.928500   -2.218500    0.725490
  H      2.858020    2.099430   -2.228550
  H      4.398530    1.306770   -2.001440
  H      3.709920    2.263790   -0.711870

 Total Charge           Charge          ....    1
 Multiplicity           Mult            ....    1
 Number of Electrons    NEL             ....   40
 Basis Dimension        Dim             ....  164

ORBITAL ENERGIES
----------------

  NO   OCC          E(Eh)            E(eV)
   0   2.0000     -14.257386      -387.9632
   1   2.0000     -14.250799      -387.7840
   2   2.0000     -14.250685      -387.7809
   3   2.0000     -10.251447      -278.9561
   4   2.0000     -10.132504      -275.7194
   5   2.0000      -1.124167       -30.5901
   6   2.0000      -1.019360       -27.7382
   7   2.0000      -1.006948       -27.4004
   8   2.0000      -0.837931       -22.8013
   9   2.0000      -0.765574       -20.8323
  10   2.0000      -0.726210       -19.7612
  11   2.0000      -0.702756       -19.1230
  12   2.0000      -0.646354       -17.5882
  13   2.0000      -0.636782       -17.3277
  14   2.0000      -0.610590       -16.6150
  15   2.0000      -0.598731       -16.2923
  16   2.0000      -0.545755       -14.8508
  17   2.0000      -0.537134       -14.6162
  18   2.0000      -0.439715       -11.9652
  19   2.0000      -0.419974       -11.4281
  20   0.0000      -0.207436        -5.6446
  21   0.0000      -0.186744        -5.0816
  22   0.0000      -0.149734        -4.0745
  23   0.0000      -0.139153        -3.7865
  24   0.0000      -0.112043        -3.0488

MULLIKEN ATOMIC CHARGES
-----------------------
   0 C :    1.469213
   1 N :   -0.376308
   2 C :    0.868015
   3 N :    0.275391
   4 N :    0.195133
   5 H :   -0.109283
   6 H :   -0.136483
   7 H :   -0.253927
   8 H :   -0.037562
   9 H :   -0.164557
  10 H :   -0.507937
  11 H :   -0.105014
  12 H :   -0.116681
Sum of atomic charges:    1.0000000

LOEWDIN ATOMIC CHARGES
----------------------
   0 C :    0.263772
   1 N :    0.034799
   2 C :   -0.064725
   3 N :    0.283640
   4 N :    0.303861
   5 H :    0.010116
   6 H :    0.030758
   7 H :    0.050562
   8 H :    0.028396
   9 H :    0.040473
  10 H :    0.011009
  11 H :    0.004124
  12 H :    0.003215

  Mayer bond orders larger than 0.100000
B(  0-C ,  1-N ) :   1.0604 B(  0-C ,  7-H ) :  -0.1338 B(  0-C , 10-H ) :   0.6845
B(  0-C , 11-H ) :   0.7485 B(  0-C , 12-H ) :   0.7319 B(  1-N ,  2-C ) :   1.0993
B(  1-N ,  3-N ) :   0.2533 B(  1-N ,  4-N ) :   0.2301 B(  1-N ,  7-H ) :   1.2462
B(  1-N , 10-H ) :   0.2254 B(  1-N , 11-H ) :   0.1831 B(  1-N , 12-H ) :   0.1905
B(  2-C ,  3-N ) :   1.0341 B(  2-C ,  4-N ) :   1.0771 B(  2-C ,  5-H ) :  -0.1289
B(  2-C ,  7-H ) :  -0.2443 B(  2-C ,  9-H ) :  -0.1148 B(  3-N ,  4-N ) :   0.1558
B(  3-N ,  8-H ) :   1.0661 B(  3-N ,  9-H ) :   1.1928 B(  4-N ,  5-H ) :   1.0740
B(  4-N ,  6-H ) :   1.1717 B(  5-H ,  6-H ) :  -0.1473 B(  8-H ,  9-H ) :  -0.1510

Dispersion correction           -0.018585111
FINAL SINGLE POINT ENERGY      -244.833363435576

DIPOLE MOMENT
-------------
                                X             Y             Z
Electronic contribution:     -0.68094      -2.28049       1.33290
Nuclear contribution   :      0.56176       1.95858      -1.15445
                        -----------------------------------------
Total Dipole Moment    :     -0.11918      -0.32191       0.17845
                        -----------------------------------------
Magnitude (a.u.)       :      0.38687
Magnitude (Debye)      :      0.98336

Rotational constants in cm-1:     0.309570     0.135399     0.096056
Rotational constants in MHz :  9280.673410  4059.171112  2879.675555

                             ****ORCA TERMINATED NORMALLY****
TOTAL RUN TIME: 0 days 0 hours 0 minutes 6 seconds 169 msec
