                         Program Version 5.0.0 -  RELEASE  -
|  1> !BLYP D3BJ RIJCOSX def2-SVPD def2/J TightSCF
|  2> *xyz 0 1
|  3> C          0.28725       -1.71177       -2.52740
|  4> F          0.71050       -0.92751       -1.48177
|  5> H          0.92384       -1.55316       -3.37267
|  6> H         -0.71828       -1.45137       -2.78433
|  7> H          0.32655       -2.74158       -2.23955
|  8> *
|  9> %MaxCore 64000
| 10>
| 11> %pal nprocs 4
| 12> end
| 13>
| 14> %scf
| 15>   MaxIter 150
| 16> end
| 17>
| 18>
| 19>                          ****END OF INPUT****

CARTESIAN COORDINATES (ANGSTROEM)
---------------------------------
  C      0.287250   -1.711770   -2.527400
  F      0.710500   -0.927510   -1.481770
  H      0.923840   -1.553160   -3.372670
  H     -0.718280   -1.451370   -2.784330
  H      0.326550   -2.741580   -2.239550

 Total Charge           Charge          ....    0
 Multiplicity           Mult            ....    1
 Number of Electrons    NEL             ....   18
 Basis Dimension        Dim             ....   67

ORBITAL ENERGIES
----------------

  NO   OCC          E(Eh)            E(eV)
   0   2.0000     -24.290393      -660.9752
   1   2.0000      -9.994289      -271.9584
   2   2.0000      -1.075023       -29.2529
   3   2.0000      -0.629077       -17.1180
   4   2.0000      -0.442782       -12.0487
   5   2.0000      -0.430969       -11.7273
   6   2.0000      -0.430969       -11.7273
   7   2.0000      -0.296771        -8.0756
   8   2.0000      -0.296770        -8.0755
   9   0.0000       0.006465         0.1759
  10   0.0000       0.032030         0.8716
  11   0.0000       0.078565         2.1379
  12   0.0000       0.078565         2.1379
  13   0.0000       0.125250         3.4082

MULLIKEN ATOMIC CHARGES
-----------------------
   0 C :    1.212988
   1 F :   -0.443644
   2 H :   -0.256470
   3 H :   -0.256432
   4 H :   -0.256442
Sum of atomic charges:   -0.0000000

LOEWDIN ATOMIC CHARGES
----------------------
   0 C :    0.266175
   1 F :   -0.229673
   2 H :   -0.012173
   3 H :   -0.012165
   4 H :   -0.012165

  Mayer bond orders larger than 0.100000
B(  0-C ,  1-F ) :   0.9041 B(  0-C ,  2-H ) :   0.8707 B(  0-C ,  3-H ) :   0.8707
B(  0-C ,  4-H ) :   0.8707

Dispersion correction           -0.002646913
FINAL SINGLE POINT ENERGY      -139.611176677736

DIPOLE MOMENT
-------------
                                X             Y             Z
Electronic contribution:      0.91173       1.68939       2.25240
Nuclear contribution   :     -1.12906      -2.09208      -2.78929
                        -----------------------------------------
Total Dipole Moment    :     -0.21732      -0.40269      -0.53689
                        -----------------------------------------
Magnitude (a.u.)       :      0.70544
Magnitude (Debye)      :      1.79307

Rotational constants in cm-1:     5.477712     0.869598     0.869597
Rotational constants in MHz : 164217.678885 26069.889584 26069.856821

                             ****ORCA TERMINATED NORMALLY****
TOTAL RUN TIME: 0 days 0 hours 0 minutes 2 seconds 123 msec
