                         Program Version 5.0.0 -  RELEASE  -
|  1> !BLYP D3BJ RIJCOSX def2-SVPD def2/J TightSCF
|  2> *xyz 0 1
|  3> C          3.48828        1.60092       -1.52204
|  4> C          2.81029        0.42878       -1.01420
|  5> C          3.29098       -0.41802       -0.12908
|  6> N          2.51754       -1.43202        0.23936
|  7> N          4.53549       -0.28441        0.39580
|  8> H          5.04363        0.57189        0.22290
|  9> H          4.72335       -0.73327        1.28180
| 10> H          1.93479        0.10230       -1.40379
| 11> H          1.67464       -1.50562       -0.31610
| 12> H          2.92850       -2.21850        0.72549
| 13> H          2.85802        2.09943       -2.22855
| 14> H          4.39853        1.30677       -2.00144
| 15> H          3.70992        2.26379       -0.71187
| 16> *
| 17> %MaxCore 64000
| 18>
| 19> %pal nprocs 4
| 20> end
| 21>
| 22> %scf
| 23>   MaxIter 150
| 24> end
| 25>
| 26>
| 27>                          ****END OF INPUT****

CARTESIAN COORDINATES (ANGSTROEM)
---------------------------------
  C      3.488280    1.600920   -1.522040
  C      2.810290    0.428780   -1.014200
  C      3.290980   -0.418020   -0.129080
  N      2.517540   -1.432020    0.239360
  N      4.535490   -0.284410    0.395800
  H      5.043630    0.571890    0.222900
  H      4.723350   -0.733270    1.281800
  H      1.934790    0.102300   -1.403790
  H      1.674640   -1.505620   -0.316100
  H      2.928500   -2.218500    0.725490
  H      2.858020    2.099430   -2.228550
  H      4.398530    1.306770   -2.001440
  H      3.709920    2.263790   -0.711870

 Total Charge           Charge          ....    0
 Multiplicity           Mult            ....    1
 Number of Electrons    NEL             ....   40
 Basis Dimension        Dim             ....  164

ORBITAL ENERGIES
----------------

  NO   OCC          E(Eh)            E(eV)
   0   2.0000     -14.026340      -381.6761
   1   2.0000     -14.018927      -381.4744
   2   2.0000      -9.954429      -270.8738
   3   2.0000      -9.890246      -269.1273
   4   2.0000      -9.847565      -267.9659
   5   2.0000      -0.860447       -23.4140
   6   2.0000      -0.779348       -21.2071
   7   2.0000      -0.671044       -18.2600
   8   2.0000      -0.582291       -15.8449
   9   2.0000      -0.522507       -14.2181
  10   2.0000      -0.480349       -13.0710
  11   2.0000      -0.451045       -12.2736
  12   2.0000      -0.415140       -11.2965
  13   2.0000      -0.377173       -10.2634
  14   2.0000      -0.360389        -9.8067
  15   2.0000      -0.324400        -8.8274
  16   2.0000      -0.318123        -8.6566
  17   2.0000      -0.296825        -8.0770
  18   2.0000      -0.219098        -5.9620
  19   2.0000      -0.126718        -3.4482
  20   0.0000      -0.005716        -0.1555
  21   0.0000       0.021524         0.5857
  22   0.0000       0.033835         0.9207
  23   0.0000       0.048450         1.3184
  24   0.0000       0.060315         1.6412

MULLIKEN ATOMIC CHARGES
-----------------------
   0 C :    1.274598
   1 C :   -0.518300
   2 C :    0.382069
   3 N :    0.337813
   4 N :    0.192860
   5 H :   -0.090588
   6 H :   -0.269901
   7 H :   -0.520154
   8 H :   -0.012283
   9 H :   -0.277544
  10 H :   -0.231383
  11 H :   -0.141041
  12 H :   -0.126145
Sum of atomic charges:   -0.0000000

LOEWDIN ATOMIC CHARGES
----------------------
   0 C :    0.099199
   1 C :   -0.059606
   2 C :   -0.246044
   3 N :    0.192808
   4 N :    0.225627
   5 H :   -0.023719
   6 H :   -0.022719
   7 H :   -0.061076
   8 H :   -0.007172
   9 H :   -0.016594
  10 H :   -0.022653
  11 H :   -0.028372
  12 H :   -0.029678

  Mayer bond orders larger than 0.100000
B(  0-C ,  1-C ) :   1.1518 B(  0-C ,  2-C ) :   0.1286 B(  0-C ,  7-H ) :   0.1955
B(  0-C , 10-H ) :   0.6362 B(  0-C , 11-H ) :   0.5594 B(  0-C , 12-H ) :   0.5037
B(  1-C ,  2-C ) :   1.3574 B(  1-C ,  3-N ) :   0.3420 B(  1-C ,  4-N ) :   0.2443
B(  1-C ,  5-H ) :  -0.1454 B(  1-C ,  7-H ) :   0.8916 B(  1-C , 10-H ) :   0.3920
B(  1-C , 11-H ) :   0.3320 B(  1-C , 12-H ) :   0.4178 B(  2-C ,  3-N ) :   1.0463
B(  2-C ,  4-N ) :   1.0524 B(  2-C ,  7-H ) :   0.2473 B(  3-N ,  4-N ) :   0.1092
B(  3-N ,  8-H ) :   1.0490 B(  3-N ,  9-H ) :   1.1253 B(  4-N ,  5-H ) :   1.0451
B(  4-N ,  6-H ) :   1.1702 B(  5-H ,  6-H ) :  -0.1238 B(  7-H , 10-H ) :  -0.1760
B(  8-H ,  9-H ) :  -0.1415

Dispersion correction           -0.019534989
FINAL SINGLE POINT ENERGY      -228.359343352976

DIPOLE MOMENT
-------------
                                X             Y             Z
Electronic contribution:     -0.25030      -2.55571       1.78825
Nuclear contribution   :      0.45569       2.05070      -1.27895
                        -----------------------------------------
Total Dipole Moment    :      0.20540      -0.50501       0.50931
                        -----------------------------------------
Magnitude (a.u.)       :      0.74607
Magnitude (Debye)      :      1.89636

Rotational constants in cm-1:     0.314404     0.136412     0.097030
Rotational constants in MHz :  9425.600285  4089.541372  2908.875289

                             ****ORCA TERMINATED NORMALLY****
TOTAL RUN TIME: 0 days 0 hours 0 minutes 6 seconds 371 msec
