                         Program Version 5.0.0 -  RELEASE  -
|  1> !BLYP D3BJ RIJCOSX def2-SVPD def2/J TightSCF
|  2> *xyz 0 1
|  3> C          3.48828        1.60092       -1.52204
|  4> N          2.81029        0.42878       -1.01420
|  5> C          3.29098       -0.41802       -0.12908
|  6> C          2.51754       -1.43202        0.23936
|  7> N          4.53549       -0.28441        0.39580
|  8> H          5.04363        0.57189        0.22290
|  9> H          4.72335       -0.73327        1.28180
| 10> H          1.93479        0.10230       -1.40379
| 11> H          1.67464       -1.50562       -0.31610
| 12> H          2.92850       -2.21850        0.72549
| 13> H          2.85802        2.09943       -2.22855
| 14> H          4.39853        1.30677       -2.00144
| 15> H          3.70992        2.26379       -0.71187
| 16> *
| 17> %MaxCore 64000
| 18>
| 19> %pal nprocs 4
| 20> end
| 21>
| 22> %scf
| 23>   MaxIter 150
| 24> end
| 25>
| 26>
| 27>                          ****END OF INPUT****

CARTESIAN COORDINATES (ANGSTROEM)
---------------------------------
  C      3.488280    1.600920   -1.522040
  N      2.810290    0.428780   -1.014200
  C      3.290980   -0.418020   -0.129080
  C      2.517540   -1.432020    0.239360
  N      4.535490   -0.284410    0.395800
  H      5.043630    0.571890    0.222900
  H      4.723350   -0.733270    1.281800
  H      1.934790    0.102300   -1.403790
  H      1.674640   -1.505620   -0.316100
  H      2.928500   -2.218500    0.725490
  H      2.858020    2.099430   -2.228550
  H      4.398530    1.306770   -2.001440
  H      3.709920    2.263790   -0.711870

 Total Charge           Charge          ....    0
 Multiplicity           Mult            ....    1
 Number of Electrons    NEL             ....   40
 Basis Dimension        Dim             ....  164

ORBITAL ENERGIES
----------------

  NO   OCC          E(Eh)            E(eV)
   0   2.0000     -14.025306      -381.6480
   1   2.0000     -14.024827      -381.6350
   2   2.0000      -9.959841      -271.0210
   3   2.0000      -9.957380      -270.9541
   4   2.0000      -9.833224      -267.5756
   5   2.0000      -0.871098       -23.7038
   6   2.0000      -0.791199       -21.5296
   7   2.0000      -0.669070       -18.2063
   8   2.0000      -0.590067       -16.0565
   9   2.0000      -0.535753       -14.5786
  10   2.0000      -0.476900       -12.9771
  11   2.0000      -0.438442       -11.9306
  12   2.0000      -0.427968       -11.6456
  13   2.0000      -0.404253       -11.0003
  14   2.0000      -0.360668        -9.8143
  15   2.0000      -0.337335        -9.1793
  16   2.0000      -0.328583        -8.9412
  17   2.0000      -0.315634        -8.5888
  18   2.0000      -0.214980        -5.8499
  19   2.0000      -0.125713        -3.4208
  20   0.0000      -0.008971        -0.2441
  21   0.0000       0.023708         0.6451
  22   0.0000       0.026615         0.7242
  23   0.0000       0.043383         1.1805
  24   0.0000       0.063506         1.7281

MULLIKEN ATOMIC CHARGES
-----------------------
   0 C :    1.487671
   1 N :   -0.266737
   2 C :    0.409624
   3 C :    0.689294
   4 N :    0.265169
   5 H :   -0.250000
   6 H :   -0.133094
   7 H :   -0.292556
   8 H :   -0.390335
   9 H :   -0.606922
  10 H :   -0.562229
  11 H :   -0.166125
  12 H :   -0.183761
Sum of atomic charges:   -0.0000000

LOEWDIN ATOMIC CHARGES
----------------------
   0 C :    0.208374
   1 N :   -0.027943
   2 C :   -0.246076
   3 C :    0.146508
   4 N :    0.222132
   5 H :   -0.036956
   6 H :   -0.003653
   7 H :    0.021817
   8 H :   -0.112807
   9 H :   -0.106062
  10 H :   -0.016715
  11 H :   -0.023944
  12 H :   -0.024676

  Mayer bond orders larger than 0.100000
B(  0-C ,  1-N ) :   1.0386 B(  0-C ,  7-H ) :  -0.1474 B(  0-C , 10-H ) :   0.6599
B(  0-C , 11-H ) :   0.7434 B(  0-C , 12-H ) :   0.7299 B(  1-N ,  2-C ) :   1.1511
B(  1-N ,  3-C ) :   0.2486 B(  1-N ,  4-N ) :   0.1338 B(  1-N ,  7-H ) :   1.2051
B(  1-N , 10-H ) :   0.2234 B(  1-N , 11-H ) :   0.2117 B(  1-N , 12-H ) :   0.1958
B(  2-C ,  3-C ) :   1.4850 B(  2-C ,  4-N ) :   1.0077 B(  2-C ,  7-H ) :  -0.1597
B(  2-C ,  8-H ) :   0.3078 B(  2-C ,  9-H ) :   0.2528 B(  3-C ,  4-N ) :   0.2675
B(  3-C ,  8-H ) :   0.6897 B(  3-C ,  9-H ) :   0.5663 B(  4-N ,  5-H ) :   1.0607
B(  4-N ,  6-H ) :   1.1354 B(  5-H ,  6-H ) :  -0.1382

Dispersion correction           -0.019370485
FINAL SINGLE POINT ENERGY      -228.345394554533

DIPOLE MOMENT
-------------
                                X             Y             Z
Electronic contribution:      0.09106      -0.73354       0.64259
Nuclear contribution   :      0.39640       1.67380      -1.02505
                        -----------------------------------------
Total Dipole Moment    :      0.48746       0.94026      -0.38245
                        -----------------------------------------
Magnitude (a.u.)       :      1.12604
Magnitude (Debye)      :      2.86217

Rotational constants in cm-1:     0.316500     0.141146     0.099607
Rotational constants in MHz :  9488.425850  4231.454938  2986.155520

                             ****ORCA TERMINATED NORMALLY****
TOTAL RUN TIME: 0 days 0 hours 0 minutes 6 seconds 439 msec
