                         Program Version 5.0.0 -  RELEASE  -
|  1> !BLYP D3BJ RIJCOSX def2-SVPD def2/J TightSCF
|  2> *xyz 0 1
|  3> C          3.48828        1.60092       -1.52204
|  4> N          2.81029        0.42878       -1.01420
|  5> C          3.29098       -0.41802       -0.12908
|  6> N          2.51754       -1.43202        0.23936
|  7> C          4.53549       -0.28441        0.39580
|  8> H          5.04363        0.57189        0.22290
|  9> H          4.72335       -0.73327        1.28180
| 10> H          1.93479        0.10230       -1.40379
| 11> H          1.67464       -1.50562       -0.31610
| 12> H          2.92850       -2.21850        0.72549
| 13> H          2.85802        2.09943       -2.22855
| 14> H          4.39853        1.30677       -2.00144
| 15> H          3.70992        2.26379       -0.71187
| 16> *
| 17> %MaxCore 64000
| 18>
| 19> %pal nprocs 4
| 20> end
| 21>
| 22> %scf
| 23>   MaxIter 150
| 24> end
| 25>
| 26>
| 27>                          ****END OF INPUT****

CARTESIAN COORDINATES (ANGSTROEM)
---------------------------------
  C      3.488280    1.600920   -1.522040
  N      2.810290    0.428780   -1.014200
  C      3.290980   -0.418020   -0.129080
  N      2.517540   -1.432020    0.239360
  C      4.535490   -0.284410    0.395800
  H      5.043630    0.571890    0.222900
  H      4.723350   -0.733270    1.281800
  H      1.934790    0.102300   -1.403790
  H      1.674640   -1.505620   -0.316100
  H      2.928500   -2.218500    0.725490
  H      2.858020    2.099430   -2.228550
  H      4.398530    1.306770   -2.001440
  H      3.709920    2.263790   -0.711870

 Total Charge           Charge          ....    0
 Multiplicity           Mult            ....    1
 Number of Electrons    NEL             ....   40
 Basis Dimension        Dim             ....  164

ORBITAL ENERGIES
----------------

  NO   OCC          E(Eh)            E(eV)
   0   2.0000     -14.032216      -381.8360
   1   2.0000     -14.026208      -381.6725
   2   2.0000      -9.962587      -271.0958
   3   2.0000      -9.950710      -270.7726
   4   2.0000      -9.837329      -267.6873
   5   2.0000      -0.880320       -23.9547
   6   2.0000      -0.795658       -21.6509
   7   2.0000      -0.641560       -17.4577
   8   2.0000      -0.622350       -16.9350
   9   2.0000      -0.506426       -13.7806
  10   2.0000      -0.486963       -13.2509
  11   2.0000      -0.472143       -12.8477
  12   2.0000      -0.407936       -11.1005
  13   2.0000      -0.398321       -10.8389
  14   2.0000      -0.365955        -9.9581
  15   2.0000      -0.338045        -9.1987
  16   2.0000      -0.320883        -8.7317
  17   2.0000      -0.316477        -8.6118
  18   2.0000      -0.208272        -5.6674
  19   2.0000      -0.132758        -3.6125
  20   0.0000      -0.011938        -0.3248
  21   0.0000       0.016389         0.4460
  22   0.0000       0.030722         0.8360
  23   0.0000       0.045482         1.2376
  24   0.0000       0.067746         1.8435

MULLIKEN ATOMIC CHARGES
-----------------------
   0 C :    1.446666
   1 N :   -0.308582
   2 C :    0.295467
   3 N :    0.321556
   4 C :    0.732522
   5 H :   -0.343765
   6 H :   -0.602105
   7 H :   -0.417243
   8 H :   -0.198130
   9 H :   -0.155605
  10 H :   -0.590462
  11 H :   -0.085263
  12 H :   -0.095053
Sum of atomic charges:   -0.0000000

LOEWDIN ATOMIC CHARGES
----------------------
   0 C :    0.215596
   1 N :   -0.030539
   2 C :   -0.258591
   3 N :    0.204938
   4 C :    0.174191
   5 H :   -0.132399
   6 H :   -0.115449
   7 H :    0.007757
   8 H :   -0.022494
   9 H :    0.006170
  10 H :   -0.018329
  11 H :   -0.015764
  12 H :   -0.015087

  Mayer bond orders larger than 0.100000
B(  0-C ,  1-N ) :   1.0623 B(  0-C ,  7-H ) :  -0.1456 B(  0-C , 10-H ) :   0.6754
B(  0-C , 11-H ) :   0.7534 B(  0-C , 12-H ) :   0.7404 B(  1-N ,  2-C ) :   1.1207
B(  1-N ,  3-N ) :   0.1657 B(  1-N ,  4-C ) :   0.3697 B(  1-N ,  7-H ) :   1.2797
B(  1-N , 10-H ) :   0.2095 B(  1-N , 11-H ) :   0.1798 B(  1-N , 12-H ) :   0.1797
B(  2-C ,  3-N ) :   0.9927 B(  2-C ,  4-C ) :   1.6544 B(  2-C ,  5-H ) :   0.3668
B(  2-C ,  6-H ) :   0.3186 B(  2-C ,  7-H ) :  -0.2236 B(  3-N ,  4-C ) :   0.2969
B(  3-N ,  8-H ) :   1.0765 B(  3-N ,  9-H ) :   1.1675 B(  4-C ,  5-H ) :   0.6174
B(  4-C ,  6-H ) :   0.5492 B(  5-H ,  6-H ) :   0.2198 B(  8-H ,  9-H ) :  -0.1363

Dispersion correction           -0.019486567
FINAL SINGLE POINT ENERGY      -228.348019267803

DIPOLE MOMENT
-------------
                                X             Y             Z
Electronic contribution:     -1.82785      -1.95024       0.41445
Nuclear contribution   :      0.80512       1.90624      -0.99336
                        -----------------------------------------
Total Dipole Moment    :     -1.02273      -0.04400      -0.57891
                        -----------------------------------------
Magnitude (a.u.)       :      1.17603
Magnitude (Debye)      :      2.98923

Rotational constants in cm-1:     0.332728     0.136065     0.098521
Rotational constants in MHz :  9974.927067  4079.126590  2953.598000

                             ****ORCA TERMINATED NORMALLY****
TOTAL RUN TIME: 0 days 0 hours 0 minutes 6 seconds 589 msec
