                         Program Version 5.0.0 -  RELEASE  -
|  1> !BLYP D3BJ RIJCOSX def2-SVPD def2/J TightSCF xyzfile
|  2>
|  3> *xyzfile 0 1 D2.xyz
|  4>
|  5> %MaxCore 64000
|  6>
|  7> %pal nprocs 4
|  8> end
|  9>
| 10> %scf
| 11>   MaxIter 150
| 12> end
| 13>
| 14>
| 15>                          ****END OF INPUT****

CARTESIAN COORDINATES (ANGSTROEM)
---------------------------------
  C      3.488276    1.600919   -1.522040
  C      4.342970    1.313419   -2.756826
  N      2.810285    0.428783   -1.014196
  H      5.132033    0.604994   -2.484466
  C      3.535896    0.749253   -3.924604
  H      4.841247    2.242136   -3.054083
  H      2.991617   -0.132199   -3.574137
  H      4.225505    0.392784   -4.695962
  C      2.564776    1.750890   -4.544523
  H      1.918749    2.171679   -3.769419
  C      1.686235    1.161657   -5.650111
  H      3.132494    2.594775   -4.951604
  C      0.839616   -0.037582   -5.220473
  H      2.323886    0.866395   -6.490796
  H      1.029518    1.951850   -6.029329
  C     -0.151019    0.254955   -4.094256
  H      1.499442   -0.857141   -4.922958
  H      0.290097   -0.410143   -6.091131
  H      0.328265    0.833022   -3.299125
  C     -0.721843   -0.999513   -3.439309
  H     -0.957367    0.884951   -4.485450
  H     -1.083403   -1.697555   -4.205656
  H     -1.581056   -0.723848   -2.820490
  C      0.287250   -1.711771   -2.527405
  H      1.131780   -2.067380   -3.159396
  H     -0.204137   -2.637326   -2.170480
  F      0.710505   -0.927506   -1.481767
  H      2.714548    2.331455   -1.760302
  H      4.090991    2.063151   -0.733382
  C      3.290978   -0.418021   -0.129083
  C      2.517536   -1.432017    0.239360
  N      4.535490   -0.284410    0.395800
  H      5.043627    0.571888    0.222899
  H      4.723346   -0.733273    1.281800
  H      1.934787    0.102305   -1.403788
  H      1.674638   -1.505616   -0.316095
  H      2.928503   -2.218502    0.725494

 Total Charge           Charge          ....    0
 Multiplicity           Mult            ....    1
 Number of Electrons    NEL             ....  112
 Basis Dimension        Dim             ....  467

ORBITAL ENERGIES
----------------

  NO   OCC          E(Eh)            E(eV)
   0   2.0000     -24.320695      -661.7998
   1   2.0000     -14.008984      -381.2038
   2   2.0000     -13.997036      -380.8787
   3   2.0000     -10.010304      -272.3942
   4   2.0000      -9.947444      -270.6837
   5   2.0000      -9.940996      -270.5082
   6   2.0000      -9.935653      -270.3629
   7   2.0000      -9.925658      -270.0909
   8   2.0000      -9.921970      -269.9905
   9   2.0000      -9.919699      -269.9287
  10   2.0000      -9.916656      -269.8459
  11   2.0000      -9.914640      -269.7911
  12   2.0000      -9.913249      -269.7532
  13   2.0000      -9.806715      -266.8543
  14   2.0000      -1.111830       -30.2544
  15   2.0000      -0.853560       -23.2266
  16   2.0000      -0.776353       -21.1256
  17   2.0000      -0.739305       -20.1175
  18   2.0000      -0.713783       -19.4230
  19   2.0000      -0.689255       -18.7556
  20   2.0000      -0.647128       -17.6092
  21   2.0000      -0.625693       -17.0260
  22   2.0000      -0.593282       -16.1440
  23   2.0000      -0.569770       -15.5042
  24   2.0000      -0.542878       -14.7725
  25   2.0000      -0.531220       -14.4552
  26   2.0000      -0.511516       -13.9191
  27   2.0000      -0.495607       -13.4861
  28   2.0000      -0.475222       -12.9314
  29   2.0000      -0.463787       -12.6203
  30   2.0000      -0.454267       -12.3612
  31   2.0000      -0.439303       -11.9541
  32   2.0000      -0.428637       -11.6638
  33   2.0000      -0.419381       -11.4119
  34   2.0000      -0.413399       -11.2492
  35   2.0000      -0.401515       -10.9258
  36   2.0000      -0.385603       -10.4928
  37   2.0000      -0.380370       -10.3504
  38   2.0000      -0.377180       -10.2636
  39   2.0000      -0.364191        -9.9102
  40   2.0000      -0.345610        -9.4045
  41   2.0000      -0.335188        -9.1209
  42   2.0000      -0.326662        -8.8889
  43   2.0000      -0.325876        -8.8675
  44   2.0000      -0.317090        -8.6284
  45   2.0000      -0.313140        -8.5210
  46   2.0000      -0.301373        -8.2008
  47   2.0000      -0.299129        -8.1397
  48   2.0000      -0.291892        -7.9428
  49   2.0000      -0.285496        -7.7687
  50   2.0000      -0.276095        -7.5129
  51   2.0000      -0.273591        -7.4448
  52   2.0000      -0.272638        -7.4189
  53   2.0000      -0.268743        -7.3129
  54   2.0000      -0.196822        -5.3558
  55   2.0000      -0.108735        -2.9588
  56   0.0000      -0.002292        -0.0624
  57   0.0000       0.002269         0.0618
  58   0.0000       0.008351         0.2272
  59   0.0000       0.013040         0.3548
  60   0.0000       0.025810         0.7023

MULLIKEN ATOMIC CHARGES
-----------------------
   0 C :    1.480198
   1 C :    0.630438
   2 N :    0.616053
   3 H :   -0.211967
   4 C :    0.759659
   5 H :   -0.312730
   6 H :   -0.601491
   7 H :   -0.296876
   8 C :    0.204157
   9 H :   -0.084469
  10 C :    0.973297
  11 H :   -0.389545
  12 C :    0.296747
  13 H :   -0.183752
  14 H :   -0.312369
  15 C :    0.547635
  16 H :   -0.179174
  17 H :   -0.400622
  18 H :   -0.504125
  19 C :    0.617082
  20 H :   -0.242422
  21 H :   -0.217875
  22 H :   -0.219105
  23 C :    1.172215
  24 H :   -0.281942
  25 H :   -0.420471
  26 F :   -0.554506
  27 H :   -0.526633
  28 H :   -0.486385
  29 C :    0.380159
  30 C :    1.100707
  31 N :    0.422598
  32 H :   -0.229163
  33 H :   -0.233474
  34 H :   -1.026895
  35 H :   -0.816779
  36 H :   -0.468175
Sum of atomic charges:    0.0000000

LOEWDIN ATOMIC CHARGES
----------------------
   0 C :    0.063227
   1 C :   -0.010136
   2 N :    0.027639
   3 H :    0.013855
   4 C :   -0.020221
   5 H :    0.014816
   6 H :   -0.005799
   7 H :    0.023290
   8 C :   -0.025807
   9 H :   -0.007013
  10 C :   -0.018713
  11 H :    0.021776
  12 C :   -0.024188
  13 H :    0.018648
  14 H :    0.017902
  15 C :   -0.016153
  16 H :   -0.006367
  17 H :    0.020459
  18 H :   -0.000588
  19 C :   -0.000653
  20 H :    0.025735
  21 H :    0.030922
  22 H :    0.023709
  23 C :    0.157726
  24 H :    0.028522
  25 H :    0.036579
  26 F :   -0.192585
  27 H :    0.004146
  28 H :    0.004199
  29 C :   -0.220610
  30 C :    0.173012
  31 N :    0.220655
  32 H :   -0.045984
  33 H :   -0.006838
  34 H :   -0.054018
  35 H :   -0.164853
  36 H :   -0.106290

  Mayer bond orders larger than 0.100000
B(  0-C ,  1-C ) :   1.0138 B(  0-C ,  2-N ) :   1.1194 B(  0-C ,  4-C ) :   0.2109
B(  0-C ,  5-H ) :   0.1631 B(  0-C , 27-H ) :   0.4308 B(  0-C , 28-H ) :   0.6088
B(  0-C , 34-H ) :  -0.6985 B(  1-C ,  3-H ) :   0.5988 B(  1-C ,  4-C ) :   1.1524
B(  1-C ,  5-H ) :   0.7725 B(  1-C ,  6-H ) :   0.1866 B(  1-C ,  7-H ) :   0.1288
B(  1-C , 27-H ) :   0.1299 B(  1-C , 28-H ) :   0.1748 B(  2-N , 27-H ) :   0.1907
B(  2-N , 29-C ) :   1.1000 B(  2-N , 30-C ) :   0.2175 B(  2-N , 31-N ) :   0.2005
B(  2-N , 34-H ) :   0.5757 B(  3-H ,  4-C ) :   0.2798 B(  3-H ,  5-H ) :  -0.1387
B(  3-H , 34-H ) :   0.1237 B(  4-C ,  6-H ) :   0.5178 B(  4-C ,  7-H ) :   0.5767
B(  4-C ,  8-C ) :   1.1478 B(  4-C ,  9-H ) :   0.1079 B(  4-C , 11-H ) :   0.1879
B(  4-C , 27-H ) :  -0.1004 B(  6-H ,  8-C ) :   0.2457 B(  6-H , 34-H ) :   0.1094
B(  7-H ,  8-C ) :   0.1776 B(  8-C ,  9-H ) :   0.7502 B(  8-C , 10-C ) :   1.1129
B(  8-C , 11-H ) :   0.7483 B(  8-C , 12-C ) :   0.1947 B(  8-C , 13-H ) :   0.1425
B(  8-C , 14-H ) :   0.4067 B(  9-H , 10-C ) :   0.1198 B(  9-H , 18-H ) :   0.1099
B( 10-C , 11-H ) :   0.1144 B( 10-C , 12-C ) :   1.1560 B( 10-C , 13-H ) :   0.5332
B( 10-C , 14-H ) :   0.4587 B( 10-C , 16-H ) :   0.1085 B( 10-C , 17-H ) :   0.1293
B( 12-C , 13-H ) :   0.3263 B( 12-C , 14-H ) :   0.1456 B( 12-C , 15-C ) :   1.1587
B( 12-C , 16-H ) :   0.7718 B( 12-C , 17-H ) :   0.6775 B( 12-C , 18-H ) :   0.2319
B( 12-C , 20-H ) :   0.2423 B( 13-H , 14-H ) :  -0.2025 B( 15-C , 16-H ) :   0.1565
B( 15-C , 17-H ) :   0.2984 B( 15-C , 18-H ) :   0.6502 B( 15-C , 19-C ) :   1.1563
B( 15-C , 20-H ) :   0.6622 B( 15-C , 21-H ) :   0.1110 B( 15-C , 22-H ) :   0.2972
B( 15-C , 23-C ) :   0.1501 B( 18-H , 19-C ) :   0.1999 B( 18-H , 26-F ) :   0.1014
B( 19-C , 21-H ) :   0.6578 B( 19-C , 22-H ) :   0.5575 B( 19-C , 23-C ) :   1.1846
B( 19-C , 24-H ) :   0.1526 B( 19-C , 25-H ) :   0.1950 B( 21-H , 22-H ) :  -0.1145
B( 21-H , 23-C ) :   0.2075 B( 22-H , 23-C ) :   0.2045 B( 23-C , 24-H ) :   0.7262
B( 23-C , 25-H ) :   0.7333 B( 23-C , 26-F ) :   0.6499 B( 24-H , 26-F ) :   0.1292
B( 25-H , 26-F ) :  -0.1114 B( 26-F , 34-H ) :   0.1424 B( 26-F , 35-H ) :   0.2035
B( 27-H , 28-H ) :  -0.1718 B( 27-H , 34-H ) :   0.2342 B( 29-C , 30-C ) :   1.5386
B( 29-C , 31-N ) :   0.9433 B( 29-C , 34-H ) :  -0.7112 B( 29-C , 35-H ) :   0.3256
B( 29-C , 36-H ) :   0.5166 B( 30-C , 31-N ) :   0.3078 B( 30-C , 35-H ) :   0.1107
B( 30-C , 36-H ) :   0.1992 B( 31-N , 32-H ) :   0.9577 B( 31-N , 33-H ) :   1.1766
B( 32-H , 33-H ) :  -0.1537 B( 34-H , 35-H ) :  -0.1314 B( 35-H , 36-H ) :   0.2929

Dispersion correction           -0.079329546
FINAL SINGLE POINT ENERGY      -641.619839623038

DIPOLE MOMENT
-------------
                                X             Y             Z
Electronic contribution:     -1.29491      -3.15015       9.46242
Nuclear contribution   :      1.09892       3.58083     -10.64472
                        -----------------------------------------
Total Dipole Moment    :     -0.19599       0.43068      -1.18229
                        -----------------------------------------
Magnitude (a.u.)       :      1.27347
Magnitude (Debye)      :      3.23690

Rotational constants in cm-1:     0.026768     0.016312     0.010954
Rotational constants in MHz :   802.489946   489.033275   328.388904

                             ****ORCA TERMINATED NORMALLY****
TOTAL RUN TIME: 0 days 0 hours 0 minutes 49 seconds 298 msec
