                         Program Version 5.0.0 -  RELEASE  -
|  1> !LC-PBE RIJCOSX def2-TZVP def2/J TightSCF
|  2> *xyz -1 1
|  3> C          0.13297        2.38587       -4.02462
|  4> C         -1.36646        2.47911       -4.31393
|  5> C         -2.35773        2.30686       -3.13675
|  6> H         -1.63680        1.72709       -5.06399
|  7> H         -1.58235        3.44561       -4.76869
|  8> O         -3.44376        2.84652       -3.25274
|  9> O         -1.97092        1.58304       -2.15123
| 10> H          0.68084        2.52514       -4.93310
| 11> H          0.35823        1.42282       -3.61633
| 12> H          0.40851        3.14443       -3.32208
| 13> *
| 14> %MaxCore 64000
| 15>
| 16> %pal nprocs 4
| 17> end
| 18>
| 19> %scf
| 20>   MaxIter 150
| 21> end
| 22>
| 23>
| 24>                          ****END OF INPUT****

CARTESIAN COORDINATES (ANGSTROEM)
---------------------------------
  C      0.132970    2.385870   -4.024620
  C     -1.366460    2.479110   -4.313930
  C     -2.357730    2.306860   -3.136750
  H     -1.636800    1.727090   -5.063990
  H     -1.582350    3.445610   -4.768690
  O     -3.443760    2.846520   -3.252740
  O     -1.970920    1.583040   -2.151230
  H      0.680840    2.525140   -4.933100
  H      0.358230    1.422820   -3.616330
  H      0.408510    3.144430   -3.322080

 Total Charge           Charge          ....   -1
 Multiplicity           Mult            ....    1
 Number of Electrons    NEL             ....   40
 Basis Dimension        Dim             ....  185

ORBITAL ENERGIES
----------------

  NO   OCC          E(Eh)            E(eV)
   0   2.0000     -18.705614      -509.0056
   1   2.0000     -18.693976      -508.6889
   2   2.0000      -9.996284      -272.0127
   3   2.0000      -9.945802      -270.6390
   4   2.0000      -9.938176      -270.4315
   5   2.0000      -0.987782       -26.8789
   6   2.0000      -0.878490       -23.9049
   7   2.0000      -0.778093       -21.1730
   8   2.0000      -0.635232       -17.2855
   9   2.0000      -0.461974       -12.5710
  10   2.0000      -0.437883       -11.9154
  11   2.0000      -0.400880       -10.9085
  12   2.0000      -0.368599       -10.0301
  13   2.0000      -0.352819        -9.6007
  14   2.0000      -0.343665        -9.3516
  15   2.0000      -0.310248        -8.4423
  16   2.0000      -0.292512        -7.9597
  17   2.0000      -0.170976        -4.6525
  18   2.0000      -0.165975        -4.5164
  19   2.0000      -0.156456        -4.2574
  20   0.0000       0.263854         7.1798
  21   0.0000       0.308975         8.4076
  22   0.0000       0.324268         8.8238
  23   0.0000       0.329938         8.9781
  24   0.0000       0.350165         9.5285

MULLIKEN ATOMIC CHARGES
-----------------------
   0 C :   -0.399601
   1 C :   -0.260162
   2 C :    0.146086
   3 H :    0.086054
   4 H :    0.093130
   5 O :   -0.453535
   6 O :   -0.550878
   7 H :    0.090205
   8 H :    0.132042
   9 H :    0.116658
Sum of atomic charges:   -1.0000000

LOEWDIN ATOMIC CHARGES
----------------------
   0 C :   -0.351727
   1 C :   -0.309802
   2 C :   -0.717434
   3 H :    0.133130
   4 H :    0.129935
   5 O :   -0.057540
   6 O :   -0.162597
   7 H :    0.101294
   8 H :    0.119149
   9 H :    0.115593

  Mayer bond orders larger than 0.100000
B(  0-C ,  1-C ) :   0.9295 B(  0-C ,  7-H ) :   0.9775 B(  0-C ,  8-H ) :   0.9745
B(  0-C ,  9-H ) :   0.9792 B(  1-C ,  2-C ) :   0.9411 B(  1-C ,  3-H ) :   0.9699
B(  1-C ,  4-H ) :   0.9740 B(  2-C ,  5-O ) :   1.9451 B(  2-C ,  6-O ) :   1.8386

FINAL SINGLE POINT ENERGY      -267.151148261461

DIPOLE MOMENT
-------------
                                X             Y             Z
Electronic contribution:     -5.24070      -0.36835       3.16550
Nuclear contribution   :      6.75610       0.63068      -4.53972
                        -----------------------------------------
Total Dipole Moment    :      1.51540       0.26233      -1.37422
                        -----------------------------------------
Magnitude (a.u.)       :      2.06246
Magnitude (Debye)      :      5.24235

Rotational constants in cm-1:     0.335096     0.130241     0.099025
Rotational constants in MHz : 10045.924902  3904.536250  2968.708333

                             ****ORCA TERMINATED NORMALLY****
TOTAL RUN TIME: 0 days 0 hours 0 minutes 24 seconds 354 msec
