                         Program Version 5.0.0 -  RELEASE  -
|  1> !LC-PBE RIJCOSX def2-TZVP def2/J TightSCF
|  2> *xyz 1 1
|  3> C          0.64866        1.00359       -3.64560
|  4> N          0.28128        0.67645       -2.24018
|  5> C          0.13297        2.38587       -4.02462
|  6> H          0.39079       -0.31925       -2.02649
|  7> H         -0.69269        0.99010       -2.13812
|  8> H          0.85421        1.21221       -1.57528
|  9> H          0.19099        0.23965       -4.27575
| 10> H          1.73157        0.93173       -3.75075
| 11> H          0.40589        2.60338       -5.03610
| 12> H          0.56342        3.11797       -3.37374
| 13> H         -0.93265        2.40724       -3.93025
| 14> *
| 15> %MaxCore 64000
| 16>
| 17> %pal nprocs 4
| 18> end
| 19>
| 20> %scf
| 21>   MaxIter 150
| 22> end
| 23>
| 24>
| 25>                          ****END OF INPUT****

CARTESIAN COORDINATES (ANGSTROEM)
---------------------------------
  C      0.648660    1.003590   -3.645600
  N      0.281280    0.676450   -2.240180
  C      0.132970    2.385870   -4.024620
  H      0.390790   -0.319250   -2.026490
  H     -0.692690    0.990100   -2.138120
  H      0.854210    1.212210   -1.575280
  H      0.190990    0.239650   -4.275750
  H      1.731570    0.931730   -3.750750
  H      0.405890    2.603380   -5.036100
  H      0.563420    3.117970   -3.373740
  H     -0.932650    2.407240   -3.930250

 Total Charge           Charge          ....    1
 Multiplicity           Mult            ....    1
 Number of Electrons    NEL             ....   26
 Basis Dimension        Dim             ....  141

ORBITAL ENERGIES
----------------

  NO   OCC          E(Eh)            E(eV)
   0   2.0000     -14.549792      -395.9200
   1   2.0000     -10.370166      -282.1866
   2   2.0000     -10.289500      -279.9915
   3   2.0000      -1.391890       -37.8752
   4   2.0000      -1.140528       -31.0353
   5   2.0000      -1.007846       -27.4249
   6   2.0000      -0.949486       -25.8368
   7   2.0000      -0.941557       -25.6211
   8   2.0000      -0.837296       -22.7840
   9   2.0000      -0.784155       -21.3379
  10   2.0000      -0.719456       -19.5774
  11   2.0000      -0.703939       -19.1552
  12   2.0000      -0.683108       -18.5883
  13   0.0000      -0.104206        -2.8356
  14   0.0000      -0.043312        -1.1786
  15   0.0000      -0.040127        -1.0919
  16   0.0000      -0.021491        -0.5848
  17   0.0000       0.016029         0.4362

MULLIKEN ATOMIC CHARGES
-----------------------
   0 C :   -0.284990
   1 N :   -0.304971
   2 C :   -0.465903
   3 H :    0.352377
   4 H :    0.342439
   5 H :    0.346860
   6 H :    0.218053
   7 H :    0.222154
   8 H :    0.211233
   9 H :    0.181828
  10 H :    0.180920
Sum of atomic charges:    1.0000000

LOEWDIN ATOMIC CHARGES
----------------------
   0 C :   -0.298592
   1 N :    0.162042
   2 C :   -0.300684
   3 H :    0.227072
   4 H :    0.232052
   5 H :    0.229178
   6 H :    0.160497
   7 H :    0.159394
   8 H :    0.154674
   9 H :    0.137830
  10 H :    0.136538

  Mayer bond orders larger than 0.100000
B(  0-C ,  1-N ) :   0.8722 B(  0-C ,  2-C ) :   0.9796 B(  0-C ,  6-H ) :   0.9472
B(  0-C ,  7-H ) :   0.9502 B(  1-N ,  3-H ) :   0.8672 B(  1-N ,  4-H ) :   0.8689
B(  1-N ,  5-H ) :   0.8693 B(  2-C ,  8-H ) :   0.9540 B(  2-C ,  9-H ) :   0.9531
B(  2-C , 10-H ) :   0.9523

FINAL SINGLE POINT ENERGY      -135.130051473802

DIPOLE MOMENT
-------------
                                X             Y             Z
Electronic contribution:      0.17041      -1.32178       1.34561
Nuclear contribution   :     -0.22655       0.48066      -0.09136
                        -----------------------------------------
Total Dipole Moment    :     -0.05614      -0.84112       1.25425
                        -----------------------------------------
Magnitude (a.u.)       :      1.51122
Magnitude (Debye)      :      3.84122

Rotational constants in cm-1:     0.998155     0.284845     0.251232
Rotational constants in MHz : 29923.943568  8539.431565  7531.732866

                             ****ORCA TERMINATED NORMALLY****
TOTAL RUN TIME: 0 days 0 hours 0 minutes 14 seconds 157 msec
