                         Program Version 5.0.0 -  RELEASE  -
|  1> !LC-PBE RIJCOSX def2-TZVP def2/J TightSCF xyzfile
|  2>
|  3> *xyzfile 0 1 B.xyz
|  4>
|  5> %MaxCore 64000
|  6>
|  7> %pal nprocs 18
|  8> end
|  9>
| 10> %scf
| 11>   MaxIter 150
| 12> end
| 13>
| 14>
| 15>                          ****END OF INPUT****

CARTESIAN COORDINATES (ANGSTROEM)
---------------------------------
  C      0.648656    1.003595   -3.645601
  N      0.281280    0.676454   -2.240179
  C      0.132968    2.385869   -4.024618
  C     -1.366462    2.479106   -4.313932
  C     -2.357732    2.306858   -3.136753
  H     -1.636802    1.727095   -5.063993
  H     -1.582347    3.445605   -4.768687
  H      0.390790   -0.319253   -2.026495
  H     -0.692686    0.990104   -2.138123
  H      0.854206    1.212214   -1.575279
  O     -3.443763    2.846518   -3.252744
  O     -1.970922    1.583042   -2.151229
  H      0.190993    0.239655   -4.275752
  H      1.731572    0.931729   -3.750751
  H      0.414839    3.102847   -3.245165
  H      0.683167    2.687560   -4.919721

 Total Charge           Charge          ....    0
 Multiplicity           Mult            ....    1
 Number of Electrons    NEL             ....   56
 Basis Dimension        Dim             ....  271

ORBITAL ENERGIES
----------------

  NO   OCC          E(Eh)            E(eV)
   0   2.0000     -18.898168      -514.2453
   1   2.0000     -18.877165      -513.6738
   2   2.0000     -14.325944      -389.8287
   3   2.0000     -10.205898      -277.7166
   4   2.0000     -10.178947      -276.9832
   5   2.0000     -10.145307      -276.0678
   6   2.0000     -10.106351      -275.0078
   7   2.0000      -1.197144       -32.5760
   8   2.0000      -1.167462       -31.7683
   9   2.0000      -1.075918       -29.2772
  10   2.0000      -0.990858       -26.9626
  11   2.0000      -0.887054       -24.1380
  12   2.0000      -0.800117       -21.7723
  13   2.0000      -0.758388       -20.6368
  14   2.0000      -0.744072       -20.2472
  15   2.0000      -0.670452       -18.2439
  16   2.0000      -0.629782       -17.1372
  17   2.0000      -0.625550       -17.0221
  18   2.0000      -0.578711       -15.7475
  19   2.0000      -0.563518       -15.3341
  20   2.0000      -0.527135       -14.3441
  21   2.0000      -0.525238       -14.2924
  22   2.0000      -0.514630       -14.0038
  23   2.0000      -0.492466       -13.4007
  24   2.0000      -0.469698       -12.7811
  25   2.0000      -0.363231        -9.8840
  26   2.0000      -0.361703        -9.8424
  27   2.0000      -0.333585        -9.0773
  28   0.0000       0.059453         1.6178
  29   0.0000       0.104603         2.8464
  30   0.0000       0.111573         3.0361
  31   0.0000       0.141596         3.8530
  32   0.0000       0.151278         4.1165

MULLIKEN ATOMIC CHARGES
-----------------------
   0 C :   -0.256541
   1 N :   -0.313284
   2 C :   -0.328504
   3 C :   -0.348560
   4 C :    0.223596
   5 H :    0.144957
   6 H :    0.166628
   7 H :    0.295888
   8 H :    0.310361
   9 H :    0.294984
  10 O :   -0.359780
  11 O :   -0.530036
  12 H :    0.189439
  13 H :    0.178966
  14 H :    0.166924
  15 H :    0.164963
Sum of atomic charges:   -0.0000000

LOEWDIN ATOMIC CHARGES
----------------------
   0 C :   -0.290745
   1 N :    0.133589
   2 C :   -0.291504
   3 C :   -0.266189
   4 C :   -0.654542
   5 H :    0.152817
   6 H :    0.157735
   7 H :    0.197733
   8 H :    0.112406
   9 H :    0.203508
  10 O :    0.024058
  11 O :   -0.078553
  12 H :    0.151991
  13 H :    0.140357
  14 H :    0.151906
  15 H :    0.155434

  Mayer bond orders larger than 0.100000
B(  0-C ,  1-N ) :   0.9012 B(  0-C ,  2-C ) :   0.9435 B(  0-C , 12-H ) :   0.9628
B(  0-C , 13-H ) :   0.9761 B(  1-N ,  7-H ) :   0.8974 B(  1-N ,  8-H ) :   0.6705
B(  1-N ,  9-H ) :   0.8956 B(  2-C ,  3-C ) :   0.9156 B(  2-C , 14-H ) :   0.9637
B(  2-C , 15-H ) :   0.9708 B(  3-C ,  4-C ) :   0.9555 B(  3-C ,  5-H ) :   0.9623
B(  3-C ,  6-H ) :   0.9641 B(  4-C , 10-O ) :   2.0480 B(  4-C , 11-O ) :   1.4848
B(  8-H , 11-O ) :   0.3386

FINAL SINGLE POINT ENERGY      -362.094963397169

DIPOLE MOMENT
-------------
                                X             Y             Z
Electronic contribution:     -5.71816       0.91351       2.50118
Nuclear contribution   :      9.92875      -2.62114      -2.63866
                        -----------------------------------------
Total Dipole Moment    :      4.21059      -1.70763      -0.13748
                        -----------------------------------------
Magnitude (a.u.)       :      4.54577
Magnitude (Debye)      :     11.55442

Rotational constants in cm-1:     0.159108     0.062474     0.047603
Rotational constants in MHz :  4769.938632  1872.932224  1427.103830

                             ****ORCA TERMINATED NORMALLY****
TOTAL RUN TIME: 0 days 0 hours 0 minutes 20 seconds 869 msec
