                         Program Version 5.0.0 -  RELEASE  -
|  1> !LC-PBE RIJCOSX def2-TZVP def2/J TightSCF
|  2> *xyz 0 1
|  3> C          0.13297        2.38587       -4.02462
|  4> C         -1.36646        2.47911       -4.31393
|  5> C         -2.35773        2.30686       -3.13675
|  6> H         -1.63680        1.72709       -5.06399
|  7> H         -1.58235        3.44561       -4.76869
|  8> F         -3.44376        2.84652       -3.25274
|  9> O         -1.97092        1.58304       -2.15123
| 10> H          0.68084        2.52514       -4.93310
| 11> H          0.35823        1.42282       -3.61633
| 12> H          0.40851        3.14443       -3.32208
| 13> *
| 14> %MaxCore 64000
| 15>
| 16> %pal nprocs 4
| 17> end
| 18>
| 19> %scf
| 20>   MaxIter 150
| 21> end
| 22>
| 23>
| 24>                          ****END OF INPUT****

CARTESIAN COORDINATES (ANGSTROEM)
---------------------------------
  C      0.132970    2.385870   -4.024620
  C     -1.366460    2.479110   -4.313930
  C     -2.357730    2.306860   -3.136750
  H     -1.636800    1.727090   -5.063990
  H     -1.582350    3.445610   -4.768690
  F     -3.443760    2.846520   -3.252740
  O     -1.970920    1.583040   -2.151230
  H      0.680840    2.525140   -4.933100
  H      0.358230    1.422820   -3.616330
  H      0.408510    3.144430   -3.322080

 Total Charge           Charge          ....    0
 Multiplicity           Mult            ....    1
 Number of Electrons    NEL             ....   40
 Basis Dimension        Dim             ....  185

ORBITAL ENERGIES
----------------

  NO   OCC          E(Eh)            E(eV)
   0   2.0000     -24.575979      -668.7464
   1   2.0000     -18.978396      -516.4284
   2   2.0000     -10.305698      -280.4323
   3   2.0000     -10.150928      -276.2208
   4   2.0000     -10.114355      -275.2256
   5   2.0000      -1.507132       -41.0111
   6   2.0000      -1.182160       -32.1682
   7   2.0000      -0.976412       -26.5695
   8   2.0000      -0.863655       -23.5013
   9   2.0000      -0.806350       -21.9419
  10   2.0000      -0.723512       -19.6878
  11   2.0000      -0.703085       -19.1319
  12   2.0000      -0.657503       -17.8916
  13   2.0000      -0.612834       -16.6761
  14   2.0000      -0.572665       -15.5830
  15   2.0000      -0.529206       -14.4004
  16   2.0000      -0.507816       -13.8184
  17   2.0000      -0.505786       -13.7631
  18   2.0000      -0.475963       -12.9516
  19   2.0000      -0.423615       -11.5272
  20   0.0000       0.071483         1.9452
  21   0.0000       0.115745         3.1496
  22   0.0000       0.157799         4.2939
  23   0.0000       0.175577         4.7777
  24   0.0000       0.185018         5.0346

MULLIKEN ATOMIC CHARGES
-----------------------
   0 C :   -0.427431
   1 C :   -0.310495
   2 C :    0.313563
   3 H :    0.164171
   4 H :    0.155296
   5 F :   -0.032483
   6 O :   -0.335250
   7 H :    0.153155
   8 H :    0.167477
   9 H :    0.151997
Sum of atomic charges:    0.0000000

LOEWDIN ATOMIC CHARGES
----------------------
   0 C :   -0.311872
   1 C :   -0.280883
   2 C :   -0.526255
   3 H :    0.162189
   4 H :    0.150197
   5 F :    0.395431
   6 O :    0.023206
   7 H :    0.126635
   8 H :    0.132488
   9 H :    0.128865

  Mayer bond orders larger than 0.100000
B(  0-C ,  1-C ) :   0.9675 B(  0-C ,  7-H ) :   0.9685 B(  0-C ,  8-H ) :   0.9634
B(  0-C ,  9-H ) :   0.9720 B(  1-C ,  2-C ) :   0.9877 B(  1-C ,  3-H ) :   0.9338
B(  1-C ,  4-H ) :   0.9617 B(  2-C ,  5-F ) :   1.2449 B(  2-C ,  6-O ) :   2.0442

FINAL SINGLE POINT ENERGY      -291.682518710696

DIPOLE MOMENT
-------------
                                X             Y             Z
Electronic contribution:     -8.37933       0.49394       3.53358
Nuclear contribution   :      8.54799       0.05434      -4.66633
                        -----------------------------------------
Total Dipole Moment    :      0.16865       0.54828      -1.13274
                        -----------------------------------------
Magnitude (a.u.)       :      1.26971
Magnitude (Debye)      :      3.22735

Rotational constants in cm-1:     0.325803     0.123345     0.094275
Rotational constants in MHz :  9767.324172  3697.779805  2826.305733

                             ****ORCA TERMINATED NORMALLY****
TOTAL RUN TIME: 0 days 0 hours 0 minutes 22 seconds 743 msec
