                         Program Version 5.0.0 -  RELEASE  -
|  1> !LC-PBE RIJCOSX def2-TZVP def2/J TightSCF
|  2> *xyz 0 1
|  3> C          0.64866        1.00359       -3.64560
|  4> C          0.28128        0.67645       -2.24018
|  5> C          0.13297        2.38587       -4.02462
|  6> H          0.39079       -0.31925       -2.02649
|  7> H         -0.69269        0.99010       -2.13812
|  8> H          0.85421        1.21221       -1.57528
|  9> H          0.19099        0.23965       -4.27575
| 10> H          1.73157        0.93173       -3.75075
| 11> H          0.40589        2.60338       -5.03610
| 12> H          0.56342        3.11797       -3.37374
| 13> H         -0.93265        2.40724       -3.93025
| 14> *
| 15> %MaxCore 64000
| 16>
| 17> %pal nprocs 4
| 18> end
| 19>
| 20> %scf
| 21>   MaxIter 150
| 22> end
| 23>
| 24>
| 25>                          ****END OF INPUT****

CARTESIAN COORDINATES (ANGSTROEM)
---------------------------------
  C      0.648660    1.003590   -3.645600
  C      0.281280    0.676450   -2.240180
  C      0.132970    2.385870   -4.024620
  H      0.390790   -0.319250   -2.026490
  H     -0.692690    0.990100   -2.138120
  H      0.854210    1.212210   -1.575280
  H      0.190990    0.239650   -4.275750
  H      1.731570    0.931730   -3.750750
  H      0.405890    2.603380   -5.036100
  H      0.563420    3.117970   -3.373740
  H     -0.932650    2.407240   -3.930250

 Total Charge           Charge          ....    0
 Multiplicity           Mult            ....    1
 Number of Electrons    NEL             ....   26
 Basis Dimension        Dim             ....  141

ORBITAL ENERGIES
----------------

  NO   OCC          E(Eh)            E(eV)
   0   2.0000     -10.100390      -274.8456
   1   2.0000     -10.090348      -274.5723
   2   2.0000     -10.070917      -274.0436
   3   2.0000      -0.973518       -26.4908
   4   2.0000      -0.858390       -23.3580
   5   2.0000      -0.745381       -20.2828
   6   2.0000      -0.616717       -16.7817
   7   2.0000      -0.595124       -16.1941
   8   2.0000      -0.540712       -14.7135
   9   2.0000      -0.521962       -14.2033
  10   2.0000      -0.467672       -12.7260
  11   2.0000      -0.463513       -12.6128
  12   2.0000      -0.453407       -12.3378
  13   0.0000       0.125035         3.4024
  14   0.0000       0.169077         4.6008
  15   0.0000       0.174124         4.7382
  16   0.0000       0.180231         4.9043
  17   0.0000       0.198812         5.4100

MULLIKEN ATOMIC CHARGES
-----------------------
   0 C :   -0.224129
   1 C :   -0.415489
   2 C :   -0.436156
   3 H :    0.141436
   4 H :    0.128232
   5 H :    0.141441
   6 H :    0.120930
   7 H :    0.120407
   8 H :    0.142848
   9 H :    0.139080
  10 H :    0.141400
Sum of atomic charges:    0.0000000

LOEWDIN ATOMIC CHARGES
----------------------
   0 C :   -0.340102
   1 C :   -0.323915
   2 C :   -0.327912
   3 H :    0.112561
   4 H :    0.120151
   5 H :    0.115514
   6 H :    0.139336
   7 H :    0.136660
   8 H :    0.121801
   9 H :    0.123421
  10 H :    0.122485

  Mayer bond orders larger than 0.100000
B(  0-C ,  1-C ) :   0.9459 B(  0-C ,  2-C ) :   0.9627 B(  0-C ,  6-H ) :   0.9774
B(  0-C ,  7-H ) :   0.9764 B(  1-C ,  3-H ) :   0.9827 B(  1-C ,  4-H ) :   0.9756
B(  1-C ,  5-H ) :   0.9795 B(  2-C ,  8-H ) :   0.9814 B(  2-C ,  9-H ) :   0.9726
B(  2-C , 10-H ) :   0.9745

FINAL SINGLE POINT ENERGY      -118.736255315666

DIPOLE MOMENT
-------------
                                X             Y             Z
Electronic contribution:      0.26213      -0.28174      -0.24799
Nuclear contribution   :     -0.24754       0.26111       0.24628
                        -----------------------------------------
Total Dipole Moment    :      0.01460      -0.02062      -0.00172
                        -----------------------------------------
Magnitude (a.u.)       :      0.02532
Magnitude (Debye)      :      0.06437

Rotational constants in cm-1:     1.006509     0.299509     0.263145
Rotational constants in MHz : 30174.379724  8979.049324  7888.875355

                             ****ORCA TERMINATED NORMALLY****
TOTAL RUN TIME: 0 days 0 hours 0 minutes 14 seconds 69 msec
