                         Program Version 5.0.0 -  RELEASE  -
|  1> !LC-PBE RIJCOSX def2-TZVP def2/J TightSCF
|  2> *xyz 0 1
|  3> C          0.13297        2.38587       -4.02462
|  4> C         -1.36646        2.47911       -4.31393
|  5> C         -2.35773        2.30686       -3.13675
|  6> H         -1.63680        1.72709       -5.06399
|  7> H         -1.58235        3.44561       -4.76869
|  8> O         -3.44376        2.84652       -3.25274
|  9> F         -1.97092        1.58304       -2.15123
| 10> H          0.68084        2.52514       -4.93310
| 11> H          0.35823        1.42282       -3.61633
| 12> H          0.40851        3.14443       -3.32208
| 13> *
| 14> %MaxCore 64000
| 15>
| 16> %pal nprocs 4
| 17> end
| 18>
| 19> %scf
| 20>   MaxIter 150
| 21> end
| 22>
| 23>
| 24>                          ****END OF INPUT****

CARTESIAN COORDINATES (ANGSTROEM)
---------------------------------
  C      0.132970    2.385870   -4.024620
  C     -1.366460    2.479110   -4.313930
  C     -2.357730    2.306860   -3.136750
  H     -1.636800    1.727090   -5.063990
  H     -1.582350    3.445610   -4.768690
  O     -3.443760    2.846520   -3.252740
  F     -1.970920    1.583040   -2.151230
  H      0.680840    2.525140   -4.933100
  H      0.358230    1.422820   -3.616330
  H      0.408510    3.144430   -3.322080

 Total Charge           Charge          ....    0
 Multiplicity           Mult            ....    1
 Number of Electrons    NEL             ....   40
 Basis Dimension        Dim             ....  185

ORBITAL ENERGIES
----------------

  NO   OCC          E(Eh)            E(eV)
   0   2.0000     -24.551425      -668.0783
   1   2.0000     -18.988369      -516.6998
   2   2.0000     -10.299458      -280.2625
   3   2.0000     -10.149176      -276.1731
   4   2.0000     -10.119634      -275.3692
   5   2.0000      -1.458907       -39.6989
   6   2.0000      -1.221718       -33.2446
   7   2.0000      -0.979291       -26.6479
   8   2.0000      -0.846539       -23.0355
   9   2.0000      -0.796191       -21.6655
  10   2.0000      -0.697423       -18.9778
  11   2.0000      -0.691248       -18.8098
  12   2.0000      -0.646056       -17.5801
  13   2.0000      -0.612448       -16.6656
  14   2.0000      -0.575466       -15.6592
  15   2.0000      -0.547045       -14.8859
  16   2.0000      -0.528883       -14.3916
  17   2.0000      -0.508642       -13.8409
  18   2.0000      -0.487135       -13.2556
  19   2.0000      -0.433015       -11.7829
  20   0.0000       0.076751         2.0885
  21   0.0000       0.111445         3.0326
  22   0.0000       0.159054         4.3281
  23   0.0000       0.178405         4.8546
  24   0.0000       0.183362         4.9895

MULLIKEN ATOMIC CHARGES
-----------------------
   0 C :   -0.432061
   1 C :   -0.314028
   2 C :    0.290073
   3 H :    0.164433
   4 H :    0.174808
   5 O :   -0.254199
   6 F :   -0.092982
   7 H :    0.157593
   8 H :    0.152656
   9 H :    0.153706
Sum of atomic charges:    0.0000000

LOEWDIN ATOMIC CHARGES
----------------------
   0 C :   -0.322816
   1 C :   -0.276447
   2 C :   -0.513005
   3 H :    0.162142
   4 H :    0.161420
   5 O :    0.113948
   6 F :    0.292312
   7 H :    0.128525
   8 H :    0.126671
   9 H :    0.127250

  Mayer bond orders larger than 0.100000
B(  0-C ,  1-C ) :   0.9505 B(  0-C ,  7-H ) :   0.9700 B(  0-C ,  8-H ) :   0.9658
B(  0-C ,  9-H ) :   0.9699 B(  1-C ,  2-C ) :   0.9908 B(  1-C ,  3-H ) :   0.9426
B(  1-C ,  4-H ) :   0.9615 B(  2-C ,  5-O ) :   2.1305 B(  2-C ,  6-F ) :   1.1710

FINAL SINGLE POINT ENERGY      -291.700963215459

DIPOLE MOMENT
-------------
                                X             Y             Z
Electronic contribution:     -5.87017      -1.63222       5.37278
Nuclear contribution   :      6.94213       1.43193      -5.86732
                        -----------------------------------------
Total Dipole Moment    :      1.07196      -0.20029      -0.49453
                        -----------------------------------------
Magnitude (a.u.)       :      1.19741
Magnitude (Debye)      :      3.04356

Rotational constants in cm-1:     0.306336     0.129048     0.095707
Rotational constants in MHz :  9183.725605  3868.769583  2869.236577

                             ****ORCA TERMINATED NORMALLY****
TOTAL RUN TIME: 0 days 0 hours 0 minutes 22 seconds 422 msec
