                         Program Version 5.0.0 -  RELEASE  -
|  1> !LC-PBE RIJCOSX def2-TZVP def2/J TightSCF xyzfile
|  2>
|  3> *xyzfile 0 1 D2.xyz
|  4>
|  5> %MaxCore 64000
|  6>
|  7> %pal nprocs 18
|  8> end
|  9>
| 10> %scf
| 11>   MaxIter 150
| 12> end
| 13>
| 14>
| 15>                          ****END OF INPUT****

CARTESIAN COORDINATES (ANGSTROEM)
---------------------------------
  C      0.648656    1.003595   -3.645601
  C      0.281280    0.676454   -2.240179
  C      0.132968    2.385869   -4.024618
  C     -1.366462    2.479106   -4.313932
  C     -2.357732    2.306858   -3.136753
  H     -1.636802    1.727095   -5.063993
  H     -1.582347    3.445605   -4.768687
  H      0.390790   -0.319253   -2.026495
  H     -0.692686    0.990104   -2.138123
  H      0.854206    1.212214   -1.575279
  O     -3.443763    2.846518   -3.252744
  F     -1.970922    1.583042   -2.151229
  H      0.190993    0.239655   -4.275752
  H      1.731572    0.931729   -3.750751
  H      0.414839    3.102847   -3.245165
  H      0.683167    2.687560   -4.919721

 Total Charge           Charge          ....    0
 Multiplicity           Mult            ....    1
 Number of Electrons    NEL             ....   56
 Basis Dimension        Dim             ....  271

ORBITAL ENERGIES
----------------

  NO   OCC          E(Eh)            E(eV)
   0   2.0000     -24.563663      -668.4112
   1   2.0000     -18.996148      -516.9115
   2   2.0000     -10.307418      -280.4791
   3   2.0000     -10.151671      -276.2410
   4   2.0000     -10.128054      -275.5984
   5   2.0000     -10.108618      -275.0695
   6   2.0000     -10.052982      -273.5555
   7   2.0000      -1.481321       -40.3088
   8   2.0000      -1.230058       -33.4716
   9   2.0000      -1.007684       -27.4205
  10   2.0000      -0.939405       -25.5625
  11   2.0000      -0.845929       -23.0189
  12   2.0000      -0.838788       -22.8246
  13   2.0000      -0.745197       -20.2779
  14   2.0000      -0.719476       -19.5779
  15   2.0000      -0.707801       -19.2602
  16   2.0000      -0.658450       -17.9173
  17   2.0000      -0.620461       -16.8836
  18   2.0000      -0.599157       -16.3039
  19   2.0000      -0.592205       -16.1147
  20   2.0000      -0.562500       -15.3064
  21   2.0000      -0.530053       -14.4235
  22   2.0000      -0.521684       -14.1957
  23   2.0000      -0.498964       -13.5775
  24   2.0000      -0.470001       -12.7894
  25   2.0000      -0.460973       -12.5437
  26   2.0000      -0.453762       -12.3475
  27   2.0000      -0.423233       -11.5168
  28   0.0000       0.069136         1.8813
  29   0.0000       0.111240         3.0270
  30   0.0000       0.143737         3.9113
  31   0.0000       0.150232         4.0880
  32   0.0000       0.161198         4.3864

MULLIKEN ATOMIC CHARGES
-----------------------
   0 C :   -0.248380
   1 C :   -0.478172
   2 C :   -0.311504
   3 C :   -0.349518
   4 C :    0.296597
   5 H :    0.179072
   6 H :    0.189975
   7 H :    0.141771
   8 H :    0.147026
   9 H :    0.145951
  10 O :   -0.241626
  11 F :   -0.055101
  12 H :    0.129578
  13 H :    0.135676
  14 H :    0.163615
  15 H :    0.155040
Sum of atomic charges:    0.0000000

LOEWDIN ATOMIC CHARGES
----------------------
   0 C :   -0.318007
   1 C :   -0.335338
   2 C :   -0.286036
   3 C :   -0.245658
   4 C :   -0.497053
   5 H :    0.166841
   6 H :    0.166530
   7 H :    0.110413
   8 H :    0.083428
   9 H :    0.113711
  10 O :    0.121882
  11 F :    0.333944
  12 H :    0.143279
  13 H :    0.141111
  14 H :    0.150638
  15 H :    0.150313

  Mayer bond orders larger than 0.100000
B(  0-C ,  1-C ) :   0.9192 B(  0-C ,  2-C ) :   0.9254 B(  0-C , 12-H ) :   0.9788
B(  0-C , 13-H ) :   0.9766 B(  1-C ,  7-H ) :   0.9878 B(  1-C ,  8-H ) :   0.9715
B(  1-C ,  9-H ) :   0.9848 B(  2-C ,  3-C ) :   0.9283 B(  2-C , 14-H ) :   0.9720
B(  2-C , 15-H ) :   0.9733 B(  3-C ,  4-C ) :   0.9916 B(  3-C ,  5-H ) :   0.9456
B(  3-C ,  6-H ) :   0.9623 B(  4-C , 10-O ) :   2.1539 B(  4-C , 11-F ) :   1.1251

FINAL SINGLE POINT ENERGY      -370.023570354644

DIPOLE MOMENT
-------------
                                X             Y             Z
Electronic contribution:    -10.23920       2.33938       3.27094
Nuclear contribution   :     11.08738      -2.45618      -3.73478
                        -----------------------------------------
Total Dipole Moment    :      0.84819      -0.11680      -0.46384
                        -----------------------------------------
Magnitude (a.u.)       :      0.97376
Magnitude (Debye)      :      2.47510

Rotational constants in cm-1:     0.156244     0.063730     0.048063
Rotational constants in MHz :  4684.071402  1910.571278  1440.877811

                             ****ORCA TERMINATED NORMALLY****
TOTAL RUN TIME: 0 days 0 hours 0 minutes 19 seconds 875 msec
