                         Program Version 5.0.0 -  RELEASE  -
|  1> !wB97X-D3 RIJCOSX def2-TZVP def2/J TightSCF
|  2> *xyz -1 1
|  3> C          4.93020       -7.37532       -2.64962
|  4> C          3.84189       -6.95161       -3.63283
|  5> H          3.45814       -5.95442       -3.40712
|  6> H          2.98848       -7.64361       -3.56708
|  7> S          4.31812       -6.91593       -5.36869
|  8> O          5.40615       -5.89948       -5.51297
|  9> O          3.11191       -6.44508       -6.04379
| 10> O          4.76340       -8.23942       -5.69863
| 11> H          5.27901       -8.35440       -2.90385
| 12> H          4.53000       -7.38577       -1.65734
| 13> H          5.74437       -6.68276       -2.69856
| 14> *
| 15>
| 16> %MaxCore 64000
| 17>
| 18> %pal nprocs 4
| 19> end
| 20>
| 21> %scf
| 22>   MaxIter 150
| 23> end
| 24>
| 25>
| 26>                          ****END OF INPUT****

CARTESIAN COORDINATES (ANGSTROEM)
---------------------------------
  C      4.930200   -7.375320   -2.649620
  C      3.841890   -6.951610   -3.632830
  H      3.458140   -5.954420   -3.407120
  H      2.988480   -7.643610   -3.567080
  S      4.318120   -6.915930   -5.368690
  O      5.406150   -5.899480   -5.512970
  O      3.111910   -6.445080   -6.043790
  O      4.763400   -8.239420   -5.698630
  H      5.279010   -8.354400   -2.903850
  H      4.530000   -7.385770   -1.657340
  H      5.744370   -6.682760   -2.698560

 Total Charge           Charge          ....   -1
 Multiplicity           Mult            ....    1
 Number of Electrons    NEL             ....   58
 Basis Dimension        Dim             ....  222

ORBITAL ENERGIES
----------------

  NO   OCC          E(Eh)            E(eV)
   0   2.0000     -88.929861     -2419.9045
   1   2.0000     -19.007241      -517.2133
   2   2.0000     -18.997476      -516.9476
   3   2.0000     -18.989410      -516.7281
   4   2.0000     -10.137493      -275.8552
   5   2.0000     -10.129691      -275.6429
   6   2.0000      -7.992266      -217.4806
   7   2.0000      -5.946562      -161.8142
   8   2.0000      -5.945324      -161.7805
   9   2.0000      -5.944940      -161.7700
  10   2.0000      -1.031543       -28.0697
  11   2.0000      -0.901704       -24.5366
  12   2.0000      -0.871964       -23.7273
  13   2.0000      -0.748614       -20.3708
  14   2.0000      -0.617599       -16.8057
  15   2.0000      -0.485749       -13.2179
  16   2.0000      -0.418573       -11.3900
  17   2.0000      -0.412832       -11.2337
  18   2.0000      -0.372119       -10.1259
  19   2.0000      -0.357277        -9.7220
  20   2.0000      -0.349469        -9.5095
  21   2.0000      -0.324184        -8.8215
  22   2.0000      -0.306319        -8.3354
  23   2.0000      -0.242288        -6.5930
  24   2.0000      -0.240787        -6.5522
  25   2.0000      -0.205978        -5.6049
  26   2.0000      -0.194942        -5.3046
  27   2.0000      -0.187636        -5.1058
  28   2.0000      -0.150213        -4.0875
  29   0.0000       0.250862         6.8263
  30   0.0000       0.295607         8.0439
  31   0.0000       0.312149         8.4940
  32   0.0000       0.315978         8.5982
  33   0.0000       0.342677         9.3247

MULLIKEN ATOMIC CHARGES
-----------------------
   0 C :   -0.326584
   1 C :   -0.239868
   2 H :    0.088830
   3 H :    0.078869
   4 S :    0.858215
   5 O :   -0.616830
   6 O :   -0.578305
   7 O :   -0.554970
   8 H :    0.111733
   9 H :    0.067150
  10 H :    0.111759
Sum of atomic charges:   -1.0000000

LOEWDIN ATOMIC CHARGES
----------------------
   0 C :   -0.340589
   1 C :   -0.429103
   2 H :    0.119404
   3 H :    0.119824
   4 S :    0.426951
   5 O :   -0.448902
   6 O :   -0.403798
   7 O :   -0.371156
   8 H :    0.113822
   9 H :    0.099492
  10 H :    0.114056

  Mayer bond orders larger than 0.100000
B(  0-C ,  1-C ) :   0.9632 B(  0-C ,  8-H ) :   0.9767 B(  0-C ,  9-H ) :   0.9726
B(  0-C , 10-H ) :   0.9759 B(  1-C ,  2-H ) :   0.9669 B(  1-C ,  3-H ) :   0.9634
B(  1-C ,  4-S ) :   0.8755 B(  4-S ,  5-O ) :   1.7191 B(  4-S ,  6-O ) :   1.7947
B(  4-S ,  7-O ) :   1.7878

Dispersion correction           -0.002914003
FINAL SINGLE POINT ENERGY      -703.217227360104

DIPOLE MOMENT
-------------
                                X             Y             Z
Electronic contribution:     -0.36696       0.80660      -7.81920
Nuclear contribution   :      0.07504      -1.14369       9.75001
                        -----------------------------------------
Total Dipole Moment    :     -0.29192      -0.33709       1.93080
                        -----------------------------------------
Magnitude (a.u.)       :      1.98163
Magnitude (Debye)      :      5.03690

Rotational constants in cm-1:     0.160553     0.082191     0.080550
Rotational constants in MHz :  4813.250478  2464.013016  2414.833054

                             ****ORCA TERMINATED NORMALLY****
TOTAL RUN TIME: 0 days 0 hours 0 minutes 36 seconds 243 msec
