                         Program Version 5.0.0 -  RELEASE  -
|  1> !wB97X-D3 RIJCOSX def2-TZVP def2/J TightSCF
|  2> *xyz 1 1
|  3> C          5.55821       -1.99291       -6.21505
|  4> C          4.18188       -2.58967       -6.29891
|  5> N          3.14587       -1.76843       -6.48675
|  6> N          4.01910       -3.86431       -6.22743
|  7> H          4.76849       -4.59115       -5.99077
|  8> H          3.12241       -4.33339       -6.31462
|  9> H          3.28164       -0.77779       -6.56655
| 10> H          2.21255       -2.13419       -6.56225
| 11> C          6.41926       -2.54294       -5.07763
| 12> H          6.03683       -2.19819       -7.17685
| 13> H          5.46761       -0.90737       -6.12797
| 14> H          6.50056       -3.60553       -5.17358
| 15> H          5.96544       -2.30329       -4.13874
| 16> H          7.39438       -2.10494       -5.12457
| 17> *
| 18>
| 19> %MaxCore 64000
| 20>
| 21> %pal nprocs 4
| 22> end
| 23>
| 24> %scf
| 25>   MaxIter 150
| 26> end
| 27>
| 28>
| 29>                          ****END OF INPUT****

CARTESIAN COORDINATES (ANGSTROEM)
---------------------------------
  C      5.558210   -1.992910   -6.215050
  C      4.181880   -2.589670   -6.298910
  N      3.145870   -1.768430   -6.486750
  N      4.019100   -3.864310   -6.227430
  H      4.768490   -4.591150   -5.990770
  H      3.122410   -4.333390   -6.314620
  H      3.281640   -0.777790   -6.566550
  H      2.212550   -2.134190   -6.562250
  C      6.419260   -2.542940   -5.077630
  H      6.036830   -2.198190   -7.176850
  H      5.467610   -0.907370   -6.127970
  H      6.500560   -3.605530   -5.173580
  H      5.965440   -2.303290   -4.138740
  H      7.394380   -2.104940   -5.124570

 Total Charge           Charge          ....    1
 Multiplicity           Mult            ....    1
 Number of Electrons    NEL             ....   40
 Basis Dimension        Dim             ....  209

ORBITAL ENERGIES
----------------

  NO   OCC          E(Eh)            E(eV)
   0   2.0000     -14.672889      -399.2696
   1   2.0000     -14.660958      -398.9449
   2   2.0000     -10.601831      -288.4905
   3   2.0000     -10.473361      -284.9947
   4   2.0000     -10.428083      -283.7626
   5   2.0000      -1.321581       -35.9620
   6   2.0000      -1.221315       -33.2337
   7   2.0000      -1.085138       -29.5281
   8   2.0000      -0.977269       -26.5928
   9   2.0000      -0.923514       -25.1301
  10   2.0000      -0.875987       -23.8368
  11   2.0000      -0.850519       -23.1438
  12   2.0000      -0.795923       -21.6582
  13   2.0000      -0.756586       -20.5878
  14   2.0000      -0.721325       -19.6283
  15   2.0000      -0.702192       -19.1076
  16   2.0000      -0.644047       -17.5254
  17   2.0000      -0.634911       -17.2768
  18   2.0000      -0.618614       -16.8333
  19   2.0000      -0.584705       -15.9106
  20   0.0000      -0.121497        -3.3061
  21   0.0000      -0.073993        -2.0135
  22   0.0000      -0.037199        -1.0122
  23   0.0000      -0.025941        -0.7059
  24   0.0000      -0.003323        -0.0904

MULLIKEN ATOMIC CHARGES
-----------------------
   0 C :   -0.212575
   1 C :    0.383492
   2 N :   -0.404589
   3 N :   -0.414557
   4 H :    0.333133
   5 H :    0.302543
   6 H :    0.311809
   7 H :    0.292183
   8 C :   -0.347473
   9 H :    0.183436
  10 H :    0.142051
  11 H :    0.099766
  12 H :    0.154580
  13 H :    0.176202
Sum of atomic charges:    1.0000000

LOEWDIN ATOMIC CHARGES
----------------------
   0 C :   -0.218044
   1 C :   -0.286738
   2 N :    0.099571
   3 N :    0.111288
   4 H :    0.237280
   5 H :    0.202828
   6 H :    0.201692
   7 H :    0.194157
   8 C :   -0.263461
   9 H :    0.174231
  10 H :    0.158949
  11 H :    0.117089
  12 H :    0.131603
  13 H :    0.139557

  Mayer bond orders larger than 0.100000
B(  0-C ,  1-C ) :   0.9661 B(  0-C ,  8-C ) :   0.9863 B(  0-C ,  9-H ) :   0.9221
B(  0-C , 10-H ) :   0.9708 B(  1-C ,  2-N ) :   1.4395 B(  1-C ,  3-N ) :   1.4700
B(  2-N ,  6-H ) :   0.8840 B(  2-N ,  7-H ) :   0.8906 B(  3-N ,  4-H ) :   0.8663
B(  3-N ,  5-H ) :   0.8835 B(  8-C , 11-H ) :   0.9712 B(  8-C , 12-H ) :   0.9648
B(  8-C , 13-H ) :   0.9648

Dispersion correction           -0.002912194
FINAL SINGLE POINT ENERGY      -229.052806332733

DIPOLE MOMENT
-------------
                                X             Y             Z
Electronic contribution:     -3.78734      -0.47717      -1.57131
Nuclear contribution   :      2.76041       0.12669       1.26265
                        -----------------------------------------
Total Dipole Moment    :     -1.02693      -0.35047      -0.30866
                        -----------------------------------------
Magnitude (a.u.)       :      1.12813
Magnitude (Debye)      :      2.86749

Rotational constants in cm-1:     0.280918     0.124524     0.094121
Rotational constants in MHz :  8421.697738  3733.133254  2821.684112

                             ****ORCA TERMINATED NORMALLY****
TOTAL RUN TIME: 0 days 0 hours 0 minutes 37 seconds 884 msec
