                         Program Version 5.0.0 -  RELEASE  -
|  1> !wB97X-D3 RIJCOSX def2-TZVP def2/J TightSCF
|  2> *xyz 0 1
|  3> C          4.93020       -7.37532       -2.64962
|  4> C          3.84189       -6.95161       -3.63283
|  5> H          3.45814       -5.95442       -3.40712
|  6> H          2.98848       -7.64361       -3.56708
|  7> S          4.31812       -6.91593       -5.36869
|  8> F          5.40615       -5.89948       -5.51297
|  9> O          3.11191       -6.44508       -6.04379
| 10> O          4.76340       -8.23942       -5.69863
| 11> H          5.27901       -8.35440       -2.90385
| 12> H          4.53000       -7.38577       -1.65734
| 13> H          5.74437       -6.68276       -2.69856
| 14> *
| 15>
| 16> %MaxCore 64000
| 17>
| 18> %pal nprocs 4
| 19> end
| 20>
| 21> %scf
| 22>   MaxIter 150
| 23> end
| 24>
| 25>
| 26>                          ****END OF INPUT****

CARTESIAN COORDINATES (ANGSTROEM)
---------------------------------
  C      4.930200   -7.375320   -2.649620
  C      3.841890   -6.951610   -3.632830
  H      3.458140   -5.954420   -3.407120
  H      2.988480   -7.643610   -3.567080
  S      4.318120   -6.915930   -5.368690
  F      5.406150   -5.899480   -5.512970
  O      3.111910   -6.445080   -6.043790
  O      4.763400   -8.239420   -5.698630
  H      5.279010   -8.354400   -2.903850
  H      4.530000   -7.385770   -1.657340
  H      5.744370   -6.682760   -2.698560

 Total Charge           Charge          ....    0
 Multiplicity           Mult            ....    1
 Number of Electrons    NEL             ....   58
 Basis Dimension        Dim             ....  222

ORBITAL ENERGIES
----------------

  NO   OCC          E(Eh)            E(eV)
   0   2.0000     -89.194040     -2427.0932
   1   2.0000     -24.883487      -677.1141
   2   2.0000     -19.247127      -523.7410
   3   2.0000     -19.237067      -523.4672
   4   2.0000     -10.340833      -281.3884
   5   2.0000     -10.296094      -280.1710
   6   2.0000      -8.257148      -224.6884
   7   2.0000      -6.214581      -169.1074
   8   2.0000      -6.208399      -168.9391
   9   2.0000      -6.207587      -168.9170
  10   2.0000      -1.459094       -39.7040
  11   2.0000      -1.228613       -33.4323
  12   2.0000      -1.134524       -30.8720
  13   2.0000      -0.941239       -25.6124
  14   2.0000      -0.831367       -22.6226
  15   2.0000      -0.781270       -21.2594
  16   2.0000      -0.681973       -18.5574
  17   2.0000      -0.662909       -18.0387
  18   2.0000      -0.650014       -17.6878
  19   2.0000      -0.596175       -16.2228
  20   2.0000      -0.579927       -15.7806
  21   2.0000      -0.555602       -15.1187
  22   2.0000      -0.533829       -14.5262
  23   2.0000      -0.506346       -13.7784
  24   2.0000      -0.501388       -13.6435
  25   2.0000      -0.476500       -12.9662
  26   2.0000      -0.436563       -11.8795
  27   2.0000      -0.423505       -11.5242
  28   2.0000      -0.413936       -11.2638
  29   0.0000       0.088683         2.4132
  30   0.0000       0.126240         3.4352
  31   0.0000       0.144583         3.9343
  32   0.0000       0.153823         4.1857
  33   0.0000       0.159453         4.3389

MULLIKEN ATOMIC CHARGES
-----------------------
   0 C :   -0.354510
   1 C :   -0.258413
   2 H :    0.150797
   3 H :    0.165920
   4 S :    0.881875
   5 F :   -0.135524
   6 O :   -0.440193
   7 O :   -0.417578
   8 H :    0.149264
   9 H :    0.132757
  10 H :    0.125604
Sum of atomic charges:   -0.0000000

LOEWDIN ATOMIC CHARGES
----------------------
   0 C :   -0.313942
   1 C :   -0.391208
   2 H :    0.139339
   3 H :    0.154060
   4 S :    0.556292
   5 F :    0.035006
   6 O :   -0.290787
   7 O :   -0.259128
   8 H :    0.125834
   9 H :    0.124807
  10 H :    0.119727

  Mayer bond orders larger than 0.100000
B(  0-C ,  1-C ) :   0.9725 B(  0-C ,  8-H ) :   0.9675 B(  0-C ,  9-H ) :   0.9657
B(  0-C , 10-H ) :   0.9721 B(  1-C ,  2-H ) :   0.9475 B(  1-C ,  3-H ) :   0.9417
B(  1-C ,  4-S ) :   0.9080 B(  4-S ,  5-F ) :   1.0928 B(  4-S ,  6-O ) :   1.9179
B(  4-S ,  7-O ) :   1.9275

Dispersion correction           -0.002870941
FINAL SINGLE POINT ENERGY      -727.755664917122

DIPOLE MOMENT
-------------
                                X             Y             Z
Electronic contribution:      1.31284       2.64395      -8.75769
Nuclear contribution   :     -0.98922      -2.24849      10.35711
                        -----------------------------------------
Total Dipole Moment    :      0.32362       0.39546       1.59942
                        -----------------------------------------
Magnitude (a.u.)       :      1.67906
Magnitude (Debye)      :      4.26784

Rotational constants in cm-1:     0.151436     0.080885     0.078670
Rotational constants in MHz :  4539.936009  2424.868817  2358.476812

                             ****ORCA TERMINATED NORMALLY****
TOTAL RUN TIME: 0 days 0 hours 0 minutes 39 seconds 168 msec
