                         Program Version 5.0.0 -  RELEASE  -
|  1> !wB97X-D3 RIJCOSX def2-TZVP def2/J TightSCF
|  2> *xyz 0 1
|  3> C          5.55821       -1.99291       -6.21505
|  4> C          4.18188       -2.58967       -6.29891
|  5> C          3.14587       -1.76843       -6.48675
|  6> N          4.01910       -3.86431       -6.22743
|  7> H          4.76849       -4.59115       -5.99077
|  8> H          3.12241       -4.33339       -6.31462
|  9> H          3.28164       -0.77779       -6.56655
| 10> H          2.21255       -2.13419       -6.56225
| 11> C          6.41926       -2.54294       -5.07763
| 12> H          6.03683       -2.19819       -7.17685
| 13> H          5.46761       -0.90737       -6.12797
| 14> H          6.50056       -3.60553       -5.17358
| 15> H          5.96544       -2.30329       -4.13874
| 16> H          7.39438       -2.10494       -5.12457
| 17> *
| 18>
| 19> %MaxCore 64000
| 20>
| 21> %pal nprocs 4
| 22> end
| 23>
| 24> %scf
| 25>   MaxIter 150
| 26> end
| 27>
| 28>
| 29>                          ****END OF INPUT****

CARTESIAN COORDINATES (ANGSTROEM)
---------------------------------
  C      5.558210   -1.992910   -6.215050
  C      4.181880   -2.589670   -6.298910
  C      3.145870   -1.768430   -6.486750
  N      4.019100   -3.864310   -6.227430
  H      4.768490   -4.591150   -5.990770
  H      3.122410   -4.333390   -6.314620
  H      3.281640   -0.777790   -6.566550
  H      2.212550   -2.134190   -6.562250
  C      6.419260   -2.542940   -5.077630
  H      6.036830   -2.198190   -7.176850
  H      5.467610   -0.907370   -6.127970
  H      6.500560   -3.605530   -5.173580
  H      5.965440   -2.303290   -4.138740
  H      7.394380   -2.104940   -5.124570

 Total Charge           Charge          ....    0
 Multiplicity           Mult            ....    1
 Number of Electrons    NEL             ....   40
 Basis Dimension        Dim             ....  209

ORBITAL ENERGIES
----------------

  NO   OCC          E(Eh)            E(eV)
   0   2.0000     -14.427578      -392.5943
   1   2.0000     -10.297457      -280.2081
   2   2.0000     -10.273391      -279.5532
   3   2.0000     -10.261576      -279.2317
   4   2.0000     -10.198119      -277.5049
   5   2.0000      -1.050537       -28.5866
   6   2.0000      -0.894007       -24.3272
   7   2.0000      -0.831367       -22.6226
   8   2.0000      -0.742008       -20.1911
   9   2.0000      -0.687546       -18.7091
  10   2.0000      -0.619004       -16.8440
  11   2.0000      -0.574262       -15.6265
  12   2.0000      -0.543184       -14.7808
  13   2.0000      -0.521135       -14.1808
  14   2.0000      -0.488676       -13.2975
  15   2.0000      -0.478996       -13.0341
  16   2.0000      -0.452716       -12.3190
  17   2.0000      -0.428167       -11.6510
  18   2.0000      -0.422097       -11.4858
  19   2.0000      -0.271026        -7.3750
  20   0.0000       0.102167         2.7801
  21   0.0000       0.127674         3.4742
  22   0.0000       0.148602         4.0437
  23   0.0000       0.152990         4.1631
  24   0.0000       0.174927         4.7600

MULLIKEN ATOMIC CHARGES
-----------------------
   0 C :   -0.182239
   1 C :    0.249099
   2 C :   -0.461590
   3 N :   -0.518435
   4 H :    0.249392
   5 H :    0.249576
   6 H :    0.105893
   7 H :    0.095311
   8 C :   -0.321492
   9 H :    0.107077
  10 H :    0.108602
  11 H :    0.075798
  12 H :    0.122248
  13 H :    0.120762
Sum of atomic charges:    0.0000000

LOEWDIN ATOMIC CHARGES
----------------------
   0 C :   -0.235106
   1 C :   -0.376496
   2 C :   -0.283018
   3 N :    0.001899
   4 H :    0.189281
   5 H :    0.175176
   6 H :    0.098501
   7 H :    0.092776
   8 C :   -0.296079
   9 H :    0.142844
  10 H :    0.146989
  11 H :    0.106641
  12 H :    0.119730
  13 H :    0.116862

  Mayer bond orders larger than 0.100000
B(  0-C ,  1-C ) :   0.9709 B(  0-C ,  8-C ) :   0.9757 B(  0-C ,  9-H ) :   0.9657
B(  0-C , 10-H ) :   0.9823 B(  1-C ,  2-C ) :   1.7218 B(  1-C ,  3-N ) :   1.1638
B(  2-C ,  6-H ) :   1.0001 B(  2-C ,  7-H ) :   1.0026 B(  3-N ,  4-H ) :   0.9141
B(  3-N ,  5-H ) :   0.9161 B(  8-C , 11-H ) :   0.9799 B(  8-C , 12-H ) :   0.9746
B(  8-C , 13-H ) :   0.9823

Dispersion correction           -0.002924704
FINAL SINGLE POINT ENERGY      -212.575404076684

DIPOLE MOMENT
-------------
                                X             Y             Z
Electronic contribution:     -2.01590      -1.09668      -1.02342
Nuclear contribution   :      2.41345       0.31141       1.16343
                        -----------------------------------------
Total Dipole Moment    :      0.39756      -0.78527       0.14001
                        -----------------------------------------
Magnitude (a.u.)       :      0.89123
Magnitude (Debye)      :      2.26534

Rotational constants in cm-1:     0.287957     0.129204     0.097498
Rotational constants in MHz :  8632.737925  3873.424745  2922.919500

                             ****ORCA TERMINATED NORMALLY****
TOTAL RUN TIME: 0 days 0 hours 0 minutes 39 seconds 806 msec
