                         Program Version 5.0.0 -  RELEASE  -
|  1> !wB97X-D3 RIJCOSX def2-TZVP def2/J TightSCF
|  2> *xyz 0 1
|  3> C          4.93020       -7.37532       -2.64962
|  4> C          3.84189       -6.95161       -3.63283
|  5> H          3.45814       -5.95442       -3.40712
|  6> H          2.98848       -7.64361       -3.56708
|  7> S          4.31812       -6.91593       -5.36869
|  8> O          5.40615       -5.89948       -5.51297
|  9> F          3.11191       -6.44508       -6.04379
| 10> O          4.76340       -8.23942       -5.69863
| 11> H          5.27901       -8.35440       -2.90385
| 12> H          4.53000       -7.38577       -1.65734
| 13> H          5.74437       -6.68276       -2.69856
| 14> *
| 15>
| 16> %MaxCore 64000
| 17>
| 18> %pal nprocs 4
| 19> end
| 20>
| 21> %scf
| 22>   MaxIter 150
| 23> end
| 24>
| 25>
| 26>                          ****END OF INPUT****

CARTESIAN COORDINATES (ANGSTROEM)
---------------------------------
  C      4.930200   -7.375320   -2.649620
  C      3.841890   -6.951610   -3.632830
  H      3.458140   -5.954420   -3.407120
  H      2.988480   -7.643610   -3.567080
  S      4.318120   -6.915930   -5.368690
  O      5.406150   -5.899480   -5.512970
  F      3.111910   -6.445080   -6.043790
  O      4.763400   -8.239420   -5.698630
  H      5.279010   -8.354400   -2.903850
  H      4.530000   -7.385770   -1.657340
  H      5.744370   -6.682760   -2.698560

 Total Charge           Charge          ....    0
 Multiplicity           Mult            ....    1
 Number of Electrons    NEL             ....   58
 Basis Dimension        Dim             ....  222

ORBITAL ENERGIES
----------------

  NO   OCC          E(Eh)            E(eV)
   0   2.0000     -89.195849     -2427.1424
   1   2.0000     -24.898756      -677.5296
   2   2.0000     -19.246408      -523.7214
   3   2.0000     -19.228960      -523.2466
   4   2.0000     -10.341797      -281.4146
   5   2.0000     -10.294425      -280.1255
   6   2.0000      -8.258926      -224.7368
   7   2.0000      -6.216287      -169.1538
   8   2.0000      -6.209985      -168.9823
   9   2.0000      -6.209548      -168.9704
  10   2.0000      -1.486204       -40.4417
  11   2.0000      -1.221886       -33.2492
  12   2.0000      -1.115917       -30.3657
  13   2.0000      -0.940848       -25.6018
  14   2.0000      -0.845202       -22.9991
  15   2.0000      -0.781508       -21.2659
  16   2.0000      -0.686097       -18.6696
  17   2.0000      -0.682602       -18.5745
  18   2.0000      -0.659747       -17.9526
  19   2.0000      -0.597666       -16.2633
  20   2.0000      -0.583558       -15.8794
  21   2.0000      -0.541709       -14.7407
  22   2.0000      -0.529108       -14.3978
  23   2.0000      -0.508778       -13.8445
  24   2.0000      -0.486047       -13.2260
  25   2.0000      -0.483358       -13.1528
  26   2.0000      -0.431846       -11.7511
  27   2.0000      -0.416696       -11.3389
  28   2.0000      -0.400461       -10.8971
  29   0.0000       0.104692         2.8488
  30   0.0000       0.113955         3.1009
  31   0.0000       0.146439         3.9848
  32   0.0000       0.149599         4.0708
  33   0.0000       0.159305         4.3349

MULLIKEN ATOMIC CHARGES
-----------------------
   0 C :   -0.357298
   1 C :   -0.246931
   2 H :    0.146784
   3 H :    0.142403
   4 S :    0.879825
   5 O :   -0.470439
   6 F :   -0.109323
   7 O :   -0.410933
   8 H :    0.145972
   9 H :    0.131960
  10 H :    0.147980
Sum of atomic charges:    0.0000000

LOEWDIN ATOMIC CHARGES
----------------------
   0 C :   -0.300458
   1 C :   -0.396819
   2 H :    0.137789
   3 H :    0.140162
   4 S :    0.550796
   5 O :   -0.331223
   6 F :    0.077354
   7 O :   -0.257500
   8 H :    0.126989
   9 H :    0.125288
  10 H :    0.127623

  Mayer bond orders larger than 0.100000
B(  0-C ,  1-C ) :   0.9856 B(  0-C ,  8-H ) :   0.9684 B(  0-C ,  9-H ) :   0.9633
B(  0-C , 10-H ) :   0.9683 B(  1-C ,  2-H ) :   0.9411 B(  1-C ,  3-H ) :   0.9391
B(  1-C ,  4-S ) :   0.9128 B(  4-S ,  5-O ) :   1.8603 B(  4-S ,  6-F ) :   1.1325
B(  4-S ,  7-O ) :   1.9311

Dispersion correction           -0.002914899
FINAL SINGLE POINT ENERGY      -727.744241144828

DIPOLE MOMENT
-------------
                                X             Y             Z
Electronic contribution:     -2.61407       1.70453      -9.67882
Nuclear contribution   :      1.40145      -1.67996      10.91024
                        -----------------------------------------
Total Dipole Moment    :     -1.21262       0.02457       1.23142
                        -----------------------------------------
Magnitude (a.u.)       :      1.72842
Magnitude (Debye)      :      4.39330

Rotational constants in cm-1:     0.155875     0.079864     0.077188
Rotational constants in MHz :  4673.017506  2394.277415  2314.027118

                             ****ORCA TERMINATED NORMALLY****
TOTAL RUN TIME: 0 days 0 hours 0 minutes 32 seconds 675 msec
