                         Program Version 5.0.0 -  RELEASE  -
|  1> !wB97X-D3 RIJCOSX def2-TZVP def2/J TightSCF
|  2> *xyz 0 1
|  3> C          5.55821       -1.99291       -6.21505
|  4> C          4.18188       -2.58967       -6.29891
|  5> N          3.14587       -1.76843       -6.48675
|  6> C          4.01910       -3.86431       -6.22743
|  7> H          4.76849       -4.59115       -5.99077
|  8> H          3.12241       -4.33339       -6.31462
|  9> H          3.28164       -0.77779       -6.56655
| 10> H          2.21255       -2.13419       -6.56225
| 11> C          6.41926       -2.54294       -5.07763
| 12> H          6.03683       -2.19819       -7.17685
| 13> H          5.46761       -0.90737       -6.12797
| 14> H          6.50056       -3.60553       -5.17358
| 15> H          5.96544       -2.30329       -4.13874
| 16> H          7.39438       -2.10494       -5.12457
| 17> *
| 18>
| 19> %MaxCore 64000
| 20>
| 21> %pal nprocs 4
| 22> end
| 23>
| 24> %scf
| 25>   MaxIter 150
| 26> end
| 27>
| 28>
| 29>                          ****END OF INPUT****

CARTESIAN COORDINATES (ANGSTROEM)
---------------------------------
  C      5.558210   -1.992910   -6.215050
  C      4.181880   -2.589670   -6.298910
  N      3.145870   -1.768430   -6.486750
  C      4.019100   -3.864310   -6.227430
  H      4.768490   -4.591150   -5.990770
  H      3.122410   -4.333390   -6.314620
  H      3.281640   -0.777790   -6.566550
  H      2.212550   -2.134190   -6.562250
  C      6.419260   -2.542940   -5.077630
  H      6.036830   -2.198190   -7.176850
  H      5.467610   -0.907370   -6.127970
  H      6.500560   -3.605530   -5.173580
  H      5.965440   -2.303290   -4.138740
  H      7.394380   -2.104940   -5.124570

 Total Charge           Charge          ....    0
 Multiplicity           Mult            ....    1
 Number of Electrons    NEL             ....   40
 Basis Dimension        Dim             ....  209

ORBITAL ENERGIES
----------------

  NO   OCC          E(Eh)            E(eV)
   0   2.0000     -14.415993      -392.2791
   1   2.0000     -10.294713      -280.1334
   2   2.0000     -10.274307      -279.5781
   3   2.0000     -10.255282      -279.0604
   4   2.0000     -10.205653      -277.7099
   5   2.0000      -1.039894       -28.2970
   6   2.0000      -0.897403       -24.4196
   7   2.0000      -0.827335       -22.5129
   8   2.0000      -0.752278       -20.4705
   9   2.0000      -0.662333       -18.0230
  10   2.0000      -0.623866       -16.9763
  11   2.0000      -0.587795       -15.9947
  12   2.0000      -0.548263       -14.9190
  13   2.0000      -0.516423       -14.0526
  14   2.0000      -0.481422       -13.1002
  15   2.0000      -0.467914       -12.7326
  16   2.0000      -0.444982       -12.1086
  17   2.0000      -0.428969       -11.6728
  18   2.0000      -0.420341       -11.4381
  19   2.0000      -0.279807        -7.6139
  20   0.0000       0.112743         3.0679
  21   0.0000       0.126627         3.4457
  22   0.0000       0.150284         4.0894
  23   0.0000       0.157825         4.2946
  24   0.0000       0.180885         4.9221

MULLIKEN ATOMIC CHARGES
-----------------------
   0 C :   -0.166586
   1 C :    0.237278
   2 N :   -0.506248
   3 C :   -0.444104
   4 H :    0.103112
   5 H :    0.096327
   6 H :    0.236036
   7 H :    0.240037
   8 C :   -0.329368
   9 H :    0.116604
  10 H :    0.078650
  11 H :    0.109297
  12 H :    0.115840
  13 H :    0.113125
Sum of atomic charges:   -0.0000000

LOEWDIN ATOMIC CHARGES
----------------------
   0 C :   -0.234965
   1 C :   -0.362264
   2 N :   -0.012621
   3 C :   -0.280135
   4 H :    0.118761
   5 H :    0.099214
   6 H :    0.161716
   7 H :    0.168850
   8 C :   -0.287772
   9 H :    0.148279
  10 H :    0.131525
  11 H :    0.116999
  12 H :    0.118656
  13 H :    0.113757

  Mayer bond orders larger than 0.100000
B(  0-C ,  1-C ) :   0.9313 B(  0-C ,  8-C ) :   0.9925 B(  0-C ,  9-H ) :   0.9641
B(  0-C , 10-H ) :   0.9864 B(  1-C ,  2-N ) :   1.1463 B(  1-C ,  3-C ) :   1.7658
B(  2-N ,  6-H ) :   0.9251 B(  2-N ,  7-H ) :   0.9208 B(  3-C ,  4-H ) :   1.0007
B(  3-C ,  5-H ) :   0.9966 B(  8-C , 11-H ) :   0.9789 B(  8-C , 12-H ) :   0.9784
B(  8-C , 13-H ) :   0.9796

Dispersion correction           -0.002898264
FINAL SINGLE POINT ENERGY      -212.585698037416

DIPOLE MOMENT
-------------
                                X             Y             Z
Electronic contribution:     -2.81309       0.83722      -1.28922
Nuclear contribution   :      2.61570      -0.17401       1.22349
                        -----------------------------------------
Total Dipole Moment    :     -0.19739       0.66320      -0.06573
                        -----------------------------------------
Magnitude (a.u.)       :      0.69507
Magnitude (Debye)      :      1.76673

Rotational constants in cm-1:     0.298189     0.125314     0.096441
Rotational constants in MHz :  8939.495008  3756.825352  2891.223400

                             ****ORCA TERMINATED NORMALLY****
TOTAL RUN TIME: 0 days 0 hours 0 minutes 34 seconds 195 msec
