                         Program Version 5.0.0 -  RELEASE  -
|  1> !wB97X-D3 RIJCOSX def2-TZVP def2/J TightSCF
|  2> *xyz 0 1
|  3> C          4.93020       -7.37532       -2.64962
|  4> C          3.84189       -6.95161       -3.63283
|  5> H          3.45814       -5.95442       -3.40712
|  6> H          2.98848       -7.64361       -3.56708
|  7> S          4.31812       -6.91593       -5.36869
|  8> O          5.40615       -5.89948       -5.51297
|  9> O          3.11191       -6.44508       -6.04379
| 10> F          4.76340       -8.23942       -5.69863
| 11> H          5.27901       -8.35440       -2.90385
| 12> H          4.53000       -7.38577       -1.65734
| 13> H          5.74437       -6.68276       -2.69856
| 14> *
| 15>
| 16> %MaxCore 64000
| 17>
| 18> %pal nprocs 4
| 19> end
| 20>
| 21> %scf
| 22>   MaxIter 150
| 23> end
| 24>
| 25>
| 26>                          ****END OF INPUT****

CARTESIAN COORDINATES (ANGSTROEM)
---------------------------------
  C      4.930200   -7.375320   -2.649620
  C      3.841890   -6.951610   -3.632830
  H      3.458140   -5.954420   -3.407120
  H      2.988480   -7.643610   -3.567080
  S      4.318120   -6.915930   -5.368690
  O      5.406150   -5.899480   -5.512970
  O      3.111910   -6.445080   -6.043790
  F      4.763400   -8.239420   -5.698630
  H      5.279010   -8.354400   -2.903850
  H      4.530000   -7.385770   -1.657340
  H      5.744370   -6.682760   -2.698560

 Total Charge           Charge          ....    0
 Multiplicity           Mult            ....    1
 Number of Electrons    NEL             ....   58
 Basis Dimension        Dim             ....  222

ORBITAL ENERGIES
----------------

  NO   OCC          E(Eh)            E(eV)
   0   2.0000     -89.197249     -2427.1805
   1   2.0000     -24.912591      -677.9061
   2   2.0000     -19.237347      -523.4748
   3   2.0000     -19.229926      -523.2729
   4   2.0000     -10.341966      -281.4192
   5   2.0000     -10.297148      -280.1996
   6   2.0000      -8.260300      -224.7742
   7   2.0000      -6.217767      -169.1940
   8   2.0000      -6.211194      -169.0152
   9   2.0000      -6.210913      -169.0075
  10   2.0000      -1.508389       -41.0453
  11   2.0000      -1.210310       -32.9342
  12   2.0000      -1.108521       -30.1644
  13   2.0000      -0.943583       -25.6762
  14   2.0000      -0.848623       -23.0922
  15   2.0000      -0.792563       -21.5667
  16   2.0000      -0.707302       -19.2467
  17   2.0000      -0.697179       -18.9712
  18   2.0000      -0.653786       -17.7904
  19   2.0000      -0.596313       -16.2265
  20   2.0000      -0.579155       -15.7596
  21   2.0000      -0.550362       -14.9761
  22   2.0000      -0.529182       -14.3998
  23   2.0000      -0.506466       -13.7816
  24   2.0000      -0.494937       -13.4679
  25   2.0000      -0.471440       -12.8285
  26   2.0000      -0.422501       -11.4968
  27   2.0000      -0.416212       -11.3257
  28   2.0000      -0.394597       -10.7375
  29   0.0000       0.091853         2.4994
  30   0.0000       0.124625         3.3912
  31   0.0000       0.141713         3.8562
  32   0.0000       0.151366         4.1189
  33   0.0000       0.155847         4.2408

MULLIKEN ATOMIC CHARGES
-----------------------
   0 C :   -0.353949
   1 C :   -0.257464
   2 H :    0.171285
   3 H :    0.146339
   4 S :    0.874869
   5 O :   -0.465626
   6 O :   -0.428837
   7 F :   -0.093314
   8 H :    0.121651
   9 H :    0.133263
  10 H :    0.151783
Sum of atomic charges:   -0.0000000

LOEWDIN ATOMIC CHARGES
----------------------
   0 C :   -0.314170
   1 C :   -0.391929
   2 H :    0.151807
   3 H :    0.141502
   4 S :    0.547489
   5 O :   -0.327838
   6 O :   -0.285724
   7 F :    0.108517
   8 H :    0.118649
   9 H :    0.125033
  10 H :    0.126664

  Mayer bond orders larger than 0.100000
B(  0-C ,  1-C ) :   0.9713 B(  0-C ,  8-H ) :   0.9722 B(  0-C ,  9-H ) :   0.9655
B(  0-C , 10-H ) :   0.9668 B(  1-C ,  2-H ) :   0.9430 B(  1-C ,  3-H ) :   0.9453
B(  1-C ,  4-S ) :   0.9068 B(  4-S ,  5-O ) :   1.8590 B(  4-S ,  6-O ) :   1.9213
B(  4-S ,  7-F ) :   1.1474

Dispersion correction           -0.002878280
FINAL SINGLE POINT ENERGY      -727.732665301828

DIPOLE MOMENT
-------------
                                X             Y             Z
Electronic contribution:      0.20364      -1.34304      -9.07963
Nuclear contribution   :     -0.31946       0.18980      10.55057
                        -----------------------------------------
Total Dipole Moment    :     -0.11581      -1.15325       1.47095
                        -----------------------------------------
Magnitude (a.u.)       :      1.87272
Magnitude (Debye)      :      4.76007

Rotational constants in cm-1:     0.151421     0.081183     0.078684
Rotational constants in MHz :  4539.489207  2433.790160  2358.892966

                             ****ORCA TERMINATED NORMALLY****
TOTAL RUN TIME: 0 days 0 hours 0 minutes 32 seconds 776 msec
