                         Program Version 5.0.0 -  RELEASE  -
|  1> !wB97X-D3 RIJCOSX def2-TZVP def2/J TightSCF xyzfile
|  2>
|  3> *xyzfile 0 1 D5.xyz
|  4>
|  5> %MaxCore 64000
|  6>
|  7> %pal nprocs 18
|  8> end
|  9>
| 10> %scf
| 11>   MaxIter 150
| 12> end
| 13>
| 14>
| 15>                          ****END OF INPUT****

CARTESIAN COORDINATES (ANGSTROEM)
---------------------------------
  C      5.558206   -1.992914   -6.215054
  C      4.930199   -7.375319   -2.649623
  C      3.841892   -6.951611   -3.632829
  H      3.458144   -5.954425   -3.407121
  H      2.988484   -7.643606   -3.567078
  S      4.318115   -6.915930   -5.368692
  C      4.181880   -2.589671   -6.298911
  C      3.145873   -1.768431   -6.486753
  N      4.019102   -3.864307   -6.227427
  H      4.768490   -4.591153   -5.990773
  H      3.122405   -4.333392   -6.314620
  H      3.281635   -0.777786   -6.566549
  H      2.212549   -2.134193   -6.562246
  O      5.406154   -5.899480   -5.512972
  O      3.111910   -6.445079   -6.043792
  C      6.419260   -2.542944   -5.077630
  C      5.872267   -5.002756   -2.427819
  C      6.173994   -6.485522   -2.606315
  H      6.734852   -6.613767   -3.534015
  H      6.821463   -6.831018   -1.793617
  H      4.469612   -7.406168   -1.655876
  H      5.230134   -8.398678   -2.885906
  C      5.896512   -2.169314   -3.694552
  H      7.428880   -2.143665   -5.208078
  H      6.505894   -3.627541   -5.175502
  C      6.807804   -2.623428   -2.551019
  H      4.894708   -2.589732   -3.557501
  H      5.778823   -1.081255   -3.635790
  C      7.111544   -4.122463   -2.520363
  H      7.751615   -2.071393   -2.614406
  H      6.345837   -2.326401   -1.604086
  H      5.362882   -4.828697   -1.471335
  H      5.174429   -4.702577   -3.211298
  H      7.778329   -4.329347   -1.677651
  H      7.673189   -4.402845   -3.417586
  F      4.763396   -8.239424   -5.698629
  H      6.036826   -2.198189   -7.176852
  H      5.467610   -0.907371   -6.127968

 Total Charge           Charge          ....    0
 Multiplicity           Mult            ....    1
 Number of Electrons    NEL             ....  136
 Basis Dimension        Dim             ....  634

ORBITAL ENERGIES
----------------

  NO   OCC          E(Eh)            E(eV)
   0   2.0000     -89.227322     -2427.9989
   1   2.0000     -24.937106      -678.5731
   2   2.0000     -19.265656      -524.2451
   3   2.0000     -19.265324      -524.2361
   4   2.0000     -14.373638      -391.1266
   5   2.0000     -10.355919      -281.7989
   6   2.0000     -10.316474      -280.7255
   7   2.0000     -10.287300      -279.9317
   8   2.0000     -10.274912      -279.5946
   9   2.0000     -10.267948      -279.4051
  10   2.0000     -10.267818      -279.4015
  11   2.0000     -10.262715      -279.2627
  12   2.0000     -10.254860      -279.0489
  13   2.0000     -10.254492      -279.0389
  14   2.0000     -10.250826      -278.9392
  15   2.0000     -10.170556      -276.7549
  16   2.0000      -8.290606      -225.5989
  17   2.0000      -6.247895      -170.0139
  18   2.0000      -6.241735      -169.8462
  19   2.0000      -6.241115      -169.8294
  20   2.0000      -1.532575       -41.7035
  21   2.0000      -1.245855       -33.9014
  22   2.0000      -1.147354       -31.2211
  23   2.0000      -1.012511       -27.5518
  24   2.0000      -0.973034       -26.4776
  25   2.0000      -0.929419       -25.2908
  26   2.0000      -0.902238       -24.5511
  27   2.0000      -0.872156       -23.7326
  28   2.0000      -0.852866       -23.2077
  29   2.0000      -0.821446       -22.3527
  30   2.0000      -0.799388       -21.7525
  31   2.0000      -0.764160       -20.7938
  32   2.0000      -0.736563       -20.0429
  33   2.0000      -0.725248       -19.7350
  34   2.0000      -0.715791       -19.4777
  35   2.0000      -0.702097       -19.1050
  36   2.0000      -0.678166       -18.4538
  37   2.0000      -0.662747       -18.0343
  38   2.0000      -0.652219       -17.7478
  39   2.0000      -0.615245       -16.7417
  40   2.0000      -0.611621       -16.6431
  41   2.0000      -0.604450       -16.4479
  42   2.0000      -0.582739       -15.8571
  43   2.0000      -0.565405       -15.3855
  44   2.0000      -0.561773       -15.2866
  45   2.0000      -0.552332       -15.0297
  46   2.0000      -0.540797       -14.7158
  47   2.0000      -0.529917       -14.4198
  48   2.0000      -0.520799       -14.1717
  49   2.0000      -0.517868       -14.0919
  50   2.0000      -0.502026       -13.6608
  51   2.0000      -0.495950       -13.4955
  52   2.0000      -0.487911       -13.2767
  53   2.0000      -0.473027       -12.8717
  54   2.0000      -0.464549       -12.6410
  55   2.0000      -0.454686       -12.3726
  56   2.0000      -0.451957       -12.2984
  57   2.0000      -0.443470       -12.0674
  58   2.0000      -0.442170       -12.0320
  59   2.0000      -0.432574       -11.7709
  60   2.0000      -0.422047       -11.4845
  61   2.0000      -0.419338       -11.4108
  62   2.0000      -0.416039       -11.3210
  63   2.0000      -0.405673       -11.0389
  64   2.0000      -0.398013       -10.8305
  65   2.0000      -0.387628       -10.5479
  66   2.0000      -0.384009       -10.4494
  67   2.0000      -0.240426        -6.5423
  68   0.0000       0.073689         2.0052
  69   0.0000       0.099053         2.6954
  70   0.0000       0.112899         3.0721
  71   0.0000       0.116774         3.1776
  72   0.0000       0.124795         3.3958

MULLIKEN ATOMIC CHARGES
-----------------------
   0 C :   -0.153679
   1 C :   -0.217756
   2 C :   -0.316423
   3 H :    0.200798
   4 H :    0.177762
   5 S :    0.923241
   6 C :    0.200045
   7 C :   -0.485251
   8 N :   -0.504643
   9 H :    0.277138
  10 H :    0.240675
  11 H :    0.093470
  12 H :    0.089054
  13 O :   -0.474604
  14 O :   -0.440502
  15 C :   -0.266641
  16 C :   -0.252260
  17 C :   -0.202550
  18 H :    0.131010
  19 H :    0.114564
  20 H :    0.130975
  21 H :    0.134257
  22 C :   -0.222615
  23 H :    0.098377
  24 H :    0.121411
  25 C :   -0.158529
  26 H :    0.128957
  27 H :    0.104149
  28 C :   -0.209063
  29 H :    0.104362
  30 H :    0.099149
  31 H :    0.104345
  32 H :    0.078962
  33 H :    0.103844
  34 H :    0.120577
  35 F :   -0.084223
  36 H :    0.108242
  37 H :    0.103375
Sum of atomic charges:   -0.0000000

LOEWDIN ATOMIC CHARGES
----------------------
   0 C :   -0.210367
   1 C :   -0.286615
   2 C :   -0.361455
   3 H :    0.156390
   4 H :    0.148604
   5 S :    0.585974
   6 C :   -0.381587
   7 C :   -0.308209
   8 N :   -0.011759
   9 H :    0.152587
  10 H :    0.166880
  11 H :    0.093693
  12 H :    0.089747
  13 O :   -0.288256
  14 O :   -0.269132
  15 C :   -0.266111
  16 C :   -0.269678
  17 C :   -0.273751
  18 H :    0.137846
  19 H :    0.139495
  20 H :    0.149469
  21 H :    0.139438
  22 C :   -0.265326
  23 H :    0.135245
  24 H :    0.133163
  25 C :   -0.267781
  26 H :    0.137864
  27 H :    0.138022
  28 C :   -0.267368
  29 H :    0.135855
  30 H :    0.134232
  31 H :    0.135339
  32 H :    0.132821
  33 H :    0.134230
  34 H :    0.138363
  35 F :    0.121030
  36 H :    0.144215
  37 H :    0.146896

  Mayer bond orders larger than 0.100000
B(  0-C ,  6-C ) :   0.9649 B(  0-C , 15-C ) :   0.9627 B(  0-C , 36-H ) :   0.9657
B(  0-C , 37-H ) :   0.9921 B(  1-C ,  2-C ) :   0.9538 B(  1-C , 17-C ) :   0.9661
B(  1-C , 20-H ) :   0.9596 B(  1-C , 21-H ) :   0.9816 B(  2-C ,  3-H ) :   0.9351
B(  2-C ,  4-H ) :   0.9471 B(  2-C ,  5-S ) :   0.9175 B(  5-S , 13-O ) :   1.7269
B(  5-S , 14-O ) :   1.8731 B(  5-S , 35-F ) :   1.1724 B(  6-C ,  7-C ) :   1.7002
B(  6-C ,  8-N ) :   1.2417 B(  7-C , 11-H ) :   1.0031 B(  7-C , 12-H ) :   1.0004
B(  8-N ,  9-H ) :   0.8354 B(  8-N , 10-H ) :   0.9078 B( 15-C , 22-C ) :   0.9362
B( 15-C , 23-H ) :   0.9696 B( 15-C , 24-H ) :   0.9889 B( 16-C , 17-C ) :   0.9321
B( 16-C , 28-C ) :   0.9783 B( 16-C , 31-H ) :   0.9619 B( 16-C , 32-H ) :   0.9781
B( 17-C , 18-H ) :   0.9839 B( 17-C , 19-H ) :   0.9739 B( 22-C , 25-C ) :   0.9667
B( 22-C , 26-H ) :   0.9871 B( 22-C , 27-H ) :   0.9725 B( 25-C , 28-C ) :   0.9648
B( 25-C , 29-H ) :   0.9814 B( 25-C , 30-H ) :   0.9847 B( 28-C , 33-H ) :   0.9747
B( 28-C , 34-H ) :   0.9860

Dispersion correction           -0.020833071
FINAL SINGLE POINT ENERGY     -1135.695307177829

DIPOLE MOMENT
-------------
                                X             Y             Z
Electronic contribution:     -8.08386     -23.42691     -13.61069
Nuclear contribution   :      8.54118      20.92489      15.31138
                        -----------------------------------------
Total Dipole Moment    :      0.45732      -2.50201       1.70069
                        -----------------------------------------
Magnitude (a.u.)       :      3.05966
Magnitude (Debye)      :      7.77705

Rotational constants in cm-1:     0.018156     0.012306     0.008278
Rotational constants in MHz :   544.309022   368.914527   248.178402

                             ****ORCA TERMINATED NORMALLY****
TOTAL RUN TIME: 0 days 0 hours 2 minutes 24 seconds 632 msec
