                         Program Version 5.0.0 -  RELEASE  -
|  1> !wB97X-D3 RIJCOSX def2-TZVPD def2/J TightSCF
|  2> *xyz -1 1
|  3> C         -0.50835        1.72268       -4.12430
|  4> S         -1.32861        0.14674       -4.43578
|  5> O         -2.57135        0.47573       -5.06834
|  6> O         -1.51496       -0.40051       -3.06342
|  7> O         -0.37793       -0.62756       -5.20114
|  8> H         -0.31967        2.21655       -5.05456
|  9> H          0.41835        1.54859       -3.61852
| 10> H         -1.13714        2.33776       -3.51504
| 11> *
| 12> %MaxCore 64000
| 13>
| 14> %pal nprocs 18
| 15> end
| 16>
| 17> %scf
| 18>   MaxIter 150
| 19> end
| 20>
| 21>
| 22>                          ****END OF INPUT****

CARTESIAN COORDINATES (ANGSTROEM)
---------------------------------
  C     -0.508350    1.722680   -4.124300
  S     -1.328610    0.146740   -4.435780
  O     -2.571350    0.475730   -5.068340
  O     -1.514960   -0.400510   -3.063420
  O     -0.377930   -0.627560   -5.201140
  H     -0.319670    2.216550   -5.054560
  H      0.418350    1.548590   -3.618520
  H     -1.137140    2.337760   -3.515040

 Total Charge           Charge          ....   -1
 Multiplicity           Mult            ....    1
 Number of Electrons    NEL             ....   50
 Basis Dimension        Dim             ....  230

ORBITAL ENERGIES
----------------

  NO   OCC          E(Eh)            E(eV)
   0   2.0000     -88.934932     -2420.0425
   1   2.0000     -19.012595      -517.3590
   2   2.0000     -19.009742      -517.2814
   3   2.0000     -18.994413      -516.8642
   4   2.0000     -10.119707      -275.3712
   5   2.0000      -7.997472      -217.6223
   6   2.0000      -5.952032      -161.9630
   7   2.0000      -5.950384      -161.9182
   8   2.0000      -5.950111      -161.9107
   9   2.0000      -1.040843       -28.3228
  10   2.0000      -0.912073       -24.8188
  11   2.0000      -0.881985       -24.0000
  12   2.0000      -0.691454       -18.8154
  13   2.0000      -0.490722       -13.3532
  14   2.0000      -0.400285       -10.8923
  15   2.0000      -0.386198       -10.5090
  16   2.0000      -0.385751       -10.4968
  17   2.0000      -0.344499        -9.3743
  18   2.0000      -0.341925        -9.3043
  19   2.0000      -0.250049        -6.8042
  20   2.0000      -0.249096        -6.7782
  21   2.0000      -0.213342        -5.8053
  22   2.0000      -0.203679        -5.5424
  23   2.0000      -0.191226        -5.2035
  24   2.0000      -0.157819        -4.2945
  25   0.0000       0.178169         4.8482
  26   0.0000       0.188766         5.1366
  27   0.0000       0.189458         5.1554
  28   0.0000       0.199598         5.4313
  29   0.0000       0.239817         6.5257

MULLIKEN ATOMIC CHARGES
-----------------------
   0 C :   -0.900226
   1 S :    1.187235
   2 O :   -0.676809
   3 O :   -0.724136
   4 O :   -0.686432
   5 H :    0.272583
   6 H :    0.262974
   7 H :    0.264810
Sum of atomic charges:   -1.0000000

LOEWDIN ATOMIC CHARGES
----------------------
   0 C :   -0.193334
   1 S :    0.316291
   2 O :   -0.391925
   3 O :   -0.439655
   4 O :   -0.401839
   5 H :    0.035459
   6 H :    0.037630
   7 H :    0.037373

  Mayer bond orders larger than 0.100000
B(  0-C ,  1-S ) :   0.8125 B(  0-C ,  2-O ) :   0.1178 B(  0-C ,  3-O ) :   0.1174
B(  0-C ,  4-O ) :   0.1178 B(  0-C ,  5-H ) :   0.9474 B(  0-C ,  6-H ) :   0.9577
B(  0-C ,  7-H ) :   0.9552 B(  1-S ,  2-O ) :   1.5644 B(  1-S ,  3-O ) :   1.5027
B(  1-S ,  4-O ) :   1.5491

Dispersion correction           -0.001526736
FINAL SINGLE POINT ENERGY      -663.905416713040

DIPOLE MOMENT
-------------
                                X             Y             Z
Electronic contribution:     -2.00737      -3.77466      -0.91129
Nuclear contribution   :      2.60425       5.03732       0.91691
                        -----------------------------------------
Total Dipole Moment    :      0.59688       1.26266       0.00562
                        -----------------------------------------
Magnitude (a.u.)       :      1.39664
Magnitude (Debye)      :      3.54997

Rotational constants in cm-1:     0.171343     0.157827     0.155747
Rotational constants in MHz :  5136.740483  4731.521814  4669.189064

                             ****ORCA TERMINATED NORMALLY****
TOTAL RUN TIME: 0 days 0 hours 0 minutes 16 seconds 896 msec
