                         Program Version 5.0.0 -  RELEASE  -
|  1> !wB97X-D3 RIJCOSX def2-TZVPD def2/J TightSCF xyzfile
|  2>
|  3> *xyzfile 0 1 B.xyz
|  4>
|  5> %MaxCore 64000
|  6>
|  7> %pal nprocs 18
|  8> end
|  9>
| 10> %scf
| 11>   MaxIter 150
| 12> end
| 13>
| 14>
| 15>                          ****END OF INPUT****

CARTESIAN COORDINATES (ANGSTROEM)
---------------------------------
  C      1.364014    0.468742   -2.813764
  N      0.428844    0.321402   -1.655312
  C      0.968045    1.630639   -3.715749
  C     -0.508347    1.722679   -4.124300
  S     -1.328608    0.146737   -4.435781
  H     -0.591511    2.294958   -5.047219
  H     -1.114114    2.235610   -3.374362
  H      0.748578   -0.400542   -1.001345
  H     -0.461053    0.023332   -2.077731
  H      0.310258    1.201375   -1.134948
  O     -2.571347    0.475733   -5.068341
  O     -1.514963   -0.400512   -3.063420
  H      1.294847   -0.468742   -3.364684
  H      2.376216    0.597400   -2.431495
  H      1.578688    1.520652   -4.612733
  H      1.266653    2.575988   -3.250448
  O     -0.377928   -0.627558   -5.201141

 Total Charge           Charge          ....    0
 Multiplicity           Mult            ....    1
 Number of Electrons    NEL             ....   74
 Basis Dimension        Dim             ....  395

ORBITAL ENERGIES
----------------

  NO   OCC          E(Eh)            E(eV)
   0   2.0000     -89.101386     -2424.5720
   1   2.0000     -19.185608      -522.0669
   2   2.0000     -19.170389      -521.6528
   3   2.0000     -19.168051      -521.5892
   4   2.0000     -14.558106      -396.1462
   5   2.0000     -10.368323      -282.1364
   6   2.0000     -10.318890      -280.7913
   7   2.0000     -10.297467      -280.2083
   8   2.0000      -8.164602      -222.1701
   9   2.0000      -6.119276      -166.5140
  10   2.0000      -6.117990      -166.4790
  11   2.0000      -6.116466      -166.4375
  12   2.0000      -1.211105       -32.9558
  13   2.0000      -1.149084       -31.2682
  14   2.0000      -1.071290       -29.1513
  15   2.0000      -1.069757       -29.1096
  16   2.0000      -0.943450       -25.6726
  17   2.0000      -0.853752       -23.2318
  18   2.0000      -0.764750       -20.8099
  19   2.0000      -0.730161       -19.8687
  20   2.0000      -0.716164       -19.4878
  21   2.0000      -0.651793       -17.7362
  22   2.0000      -0.626809       -17.0563
  23   2.0000      -0.590243       -16.0613
  24   2.0000      -0.572719       -15.5845
  25   2.0000      -0.561793       -15.2872
  26   2.0000      -0.530823       -14.4444
  27   2.0000      -0.521750       -14.1975
  28   2.0000      -0.498931       -13.5766
  29   2.0000      -0.488417       -13.2905
  30   2.0000      -0.471956       -12.8426
  31   2.0000      -0.421699       -11.4750
  32   2.0000      -0.413279       -11.2459
  33   2.0000      -0.381109       -10.3705
  34   2.0000      -0.371080       -10.0976
  35   2.0000      -0.360135        -9.7998
  36   2.0000      -0.330710        -8.9991
  37   0.0000       0.019382         0.5274
  38   0.0000       0.054985         1.4962
  39   0.0000       0.058235         1.5846
  40   0.0000       0.084447         2.2979
  41   0.0000       0.091515         2.4903

MULLIKEN ATOMIC CHARGES
-----------------------
   0 C :   -0.798367
   1 N :   -0.152565
   2 C :   -0.333732
   3 C :   -0.776952
   4 S :    1.291340
   5 H :    0.294699
   6 H :    0.348743
   7 H :    0.367348
   8 H :    0.244493
   9 H :    0.361290
  10 O :   -0.654572
  11 O :   -0.844245
  12 H :    0.414740
  13 H :    0.328335
  14 H :    0.295834
  15 H :    0.300681
  16 O :   -0.687071
Sum of atomic charges:   -0.0000000

LOEWDIN ATOMIC CHARGES
----------------------
   0 C :   -0.166817
   1 N :    0.156520
   2 C :   -0.206591
   3 C :   -0.243059
   4 S :    0.431206
   5 H :    0.103132
   6 H :    0.098386
   7 H :    0.169318
   8 H :    0.029565
   9 H :    0.172586
  10 O :   -0.317410
  11 O :   -0.375284
  12 H :    0.122790
  13 H :    0.124474
  14 H :    0.122455
  15 H :    0.113245
  16 O :   -0.334515

  Mayer bond orders larger than 0.100000
B(  0-C ,  1-N ) :   0.9739 B(  0-C ,  2-C ) :   0.8305 B(  0-C , 12-H ) :   0.8840
B(  0-C , 13-H ) :   0.8945 B(  1-N ,  7-H ) :   0.8363 B(  1-N ,  8-H ) :   0.8405
B(  1-N ,  9-H ) :   0.8225 B(  2-C ,  3-C ) :   0.9791 B(  2-C , 14-H ) :   0.9091
B(  2-C , 15-H ) :   0.9199 B(  3-C ,  4-S ) :   0.8416 B(  3-C ,  5-H ) :   0.9839
B(  3-C ,  6-H ) :   0.8922 B(  3-C , 10-O ) :   0.1667 B(  3-C , 11-O ) :   0.1321
B(  4-S , 10-O ) :   1.5250 B(  4-S , 11-O ) :   1.3061 B(  4-S , 16-O ) :   1.5195
B(  8-H , 11-O ) :   0.1601

Dispersion correction           -0.006686850
FINAL SINGLE POINT ENERGY      -798.419950500103

DIPOLE MOMENT
-------------
                                X             Y             Z
Electronic contribution:     -6.89213      -4.13440      -4.26598
Nuclear contribution   :      9.95459       5.57517       7.68169
                        -----------------------------------------
Total Dipole Moment    :      3.06246       1.44077       3.41571
                        -----------------------------------------
Magnitude (a.u.)       :      4.80848
Magnitude (Debye)      :     12.22220

Rotational constants in cm-1:     0.102119     0.045768     0.041299
Rotational constants in MHz :  3061.441288  1372.093000  1238.124534

                             ****ORCA TERMINATED NORMALLY****
TOTAL RUN TIME: 0 days 0 hours 0 minutes 41 seconds 80 msec
