                         Program Version 5.0.0 -  RELEASE  -
|  1> !wB97X-D3 RIJCOSX def2-TZVPD def2/J TightSCF
|  2> *xyz 0 1
|  3> C         -0.50835        1.72268       -4.12430
|  4> S         -1.32861        0.14674       -4.43578
|  5> F         -2.57135        0.47573       -5.06834
|  6> O         -1.51496       -0.40051       -3.06342
|  7> O         -0.37793       -0.62756       -5.20114
|  8> H         -0.31967        2.21655       -5.05456
|  9> H          0.41835        1.54859       -3.61852
| 10> H         -1.13714        2.33776       -3.51504
| 11> *
| 12> %MaxCore 64000
| 13>
| 14> %pal nprocs 18
| 15> end
| 16>
| 17> %scf
| 18>   MaxIter 150
| 19> end
| 20>
| 21>
| 22>                          ****END OF INPUT****

CARTESIAN COORDINATES (ANGSTROEM)
---------------------------------
  C     -0.508350    1.722680   -4.124300
  S     -1.328610    0.146740   -4.435780
  F     -2.571350    0.475730   -5.068340
  O     -1.514960   -0.400510   -3.063420
  O     -0.377930   -0.627560   -5.201140
  H     -0.319670    2.216550   -5.054560
  H      0.418350    1.548590   -3.618520
  H     -1.137140    2.337760   -3.515040

 Total Charge           Charge          ....    0
 Multiplicity           Mult            ....    1
 Number of Electrons    NEL             ....   50
 Basis Dimension        Dim             ....  230

ORBITAL ENERGIES
----------------

  NO   OCC          E(Eh)            E(eV)
   0   2.0000     -89.204334     -2427.3733
   1   2.0000     -24.917941      -678.0516
   2   2.0000     -19.249818      -523.8142
   3   2.0000     -19.234038      -523.3848
   4   2.0000     -10.329400      -281.0773
   5   2.0000      -8.267187      -224.9616
   6   2.0000      -6.224552      -169.3787
   7   2.0000      -6.218514      -169.2144
   8   2.0000      -6.217660      -169.1911
   9   2.0000      -1.514626       -41.2151
  10   2.0000      -1.223435       -33.2914
  11   2.0000      -1.121034       -30.5049
  12   2.0000      -0.914256       -24.8782
  13   2.0000      -0.834378       -22.7046
  14   2.0000      -0.715639       -19.4735
  15   2.0000      -0.703545       -19.1444
  16   2.0000      -0.663285       -18.0489
  17   2.0000      -0.577513       -15.7149
  18   2.0000      -0.576505       -15.6875
  19   2.0000      -0.564391       -15.3579
  20   2.0000      -0.536633       -14.6025
  21   2.0000      -0.487794       -13.2735
  22   2.0000      -0.436167       -11.8687
  23   2.0000      -0.420792       -11.4503
  24   2.0000      -0.404854       -11.0166
  25   0.0000       0.047713         1.2983
  26   0.0000       0.061977         1.6865
  27   0.0000       0.069779         1.8988
  28   0.0000       0.072807         1.9812
  29   0.0000       0.106839         2.9072

MULLIKEN ATOMIC CHARGES
-----------------------
   0 C :   -0.928123
   1 S :    1.210067
   2 F :   -0.116250
   3 O :   -0.589873
   4 O :   -0.557775
   5 H :    0.338922
   6 H :    0.310670
   7 H :    0.332362
Sum of atomic charges:   -0.0000000

LOEWDIN ATOMIC CHARGES
----------------------
   0 C :   -0.121974
   1 S :    0.573991
   2 F :   -0.045409
   3 O :   -0.317786
   4 O :   -0.281979
   5 H :    0.059778
   6 H :    0.072013
   7 H :    0.061366

  Mayer bond orders larger than 0.100000
B(  0-C ,  1-S ) :   0.8210 B(  0-C ,  4-O ) :   0.1035 B(  0-C ,  5-H ) :   0.8979
B(  0-C ,  6-H ) :   0.9271 B(  0-C ,  7-H ) :   0.9040 B(  1-S ,  2-F ) :   1.0219
B(  1-S ,  3-O ) :   1.6542 B(  1-S ,  4-O ) :   1.7059

Dispersion correction           -0.001536738
FINAL SINGLE POINT ENERGY      -688.417278632363

DIPOLE MOMENT
-------------
                                X             Y             Z
Electronic contribution:     -4.07632      -3.20013      -2.00307
Nuclear contribution   :      3.90013       4.80063       1.59574
                        -----------------------------------------
Total Dipole Moment    :     -0.17618       1.60051      -0.40734
                        -----------------------------------------
Magnitude (a.u.)       :      1.66090
Magnitude (Debye)      :      4.22167

Rotational constants in cm-1:     0.163395     0.155047     0.147447
Rotational constants in MHz :  4898.460101  4648.206837  4420.340547

                             ****ORCA TERMINATED NORMALLY****
TOTAL RUN TIME: 0 days 0 hours 0 minutes 17 seconds 6 msec
