                         Program Version 5.0.0 -  RELEASE  -
|  1> !wB97X-D3 RIJCOSX def2-TZVPD def2/J TightSCF
|  2> *xyz 0 1
|  3> C          1.36401        0.46874       -2.81376
|  4> C          0.42884        0.32140       -1.65531
|  5> H          0.74858       -0.40054       -1.00134
|  6> H         -0.46105        0.02333       -2.07773
|  7> H          0.31026        1.20137       -1.13495
|  8> H          0.99872        1.22859       -3.47261
|  9> H          1.42772       -0.46011       -3.34109
| 10> H          2.33442        0.74312       -2.45611
| 11> *
| 12> %MaxCore 64000
| 13>
| 14> %pal nprocs 18
| 15> end
| 16>
| 17> %scf
| 18>   MaxIter 150
| 19> end
| 20>
| 21>
| 22>                          ****END OF INPUT****

CARTESIAN COORDINATES (ANGSTROEM)
---------------------------------
  C      1.364010    0.468740   -2.813760
  C      0.428840    0.321400   -1.655310
  H      0.748580   -0.400540   -1.001340
  H     -0.461050    0.023330   -2.077730
  H      0.310260    1.201370   -1.134950
  H      0.998720    1.228590   -3.472610
  H      1.427720   -0.460110   -3.341090
  H      2.334420    0.743120   -2.456110

 Total Charge           Charge          ....    0
 Multiplicity           Mult            ....    1
 Number of Electrons    NEL             ....   18
 Basis Dimension        Dim             ....  128

ORBITAL ENERGIES
----------------

  NO   OCC          E(Eh)            E(eV)
   0   2.0000     -10.248449      -278.8745
   1   2.0000     -10.234287      -278.4891
   2   2.0000      -0.884461       -24.0674
   3   2.0000      -0.731410       -19.9027
   4   2.0000      -0.551863       -15.0170
   5   2.0000      -0.548060       -14.9135
   6   2.0000      -0.460871       -12.5409
   7   2.0000      -0.442104       -12.0303
   8   2.0000      -0.437828       -11.9139
   9   0.0000       0.078389         2.1331
  10   0.0000       0.099537         2.7085
  11   0.0000       0.143526         3.9055
  12   0.0000       0.144117         3.9216
  13   0.0000       0.169047         4.6000

MULLIKEN ATOMIC CHARGES
-----------------------
   0 C :   -0.825920
   1 C :   -0.956626
   2 H :    0.330043
   3 H :    0.289239
   4 H :    0.330530
   5 H :    0.278420
   6 H :    0.281114
   7 H :    0.273200
Sum of atomic charges:    0.0000000

LOEWDIN ATOMIC CHARGES
----------------------
   0 C :   -0.163741
   1 C :   -0.162760
   2 H :    0.045712
   3 H :    0.047633
   4 H :    0.048800
   5 H :    0.062090
   6 H :    0.062397
   7 H :    0.059870

  Mayer bond orders larger than 0.100000
B(  0-C ,  1-C ) :   0.5964 B(  0-C ,  5-H ) :   0.9704 B(  0-C ,  6-H ) :   0.9689
B(  0-C ,  7-H ) :   0.9631 B(  1-C ,  2-H ) :   0.9382 B(  1-C ,  3-H ) :   0.9705
B(  1-C ,  4-H ) :   0.9282

Dispersion correction           -0.000488400
FINAL SINGLE POINT ENERGY       -79.823027346639

DIPOLE MOMENT
-------------
                                X             Y             Z
Electronic contribution:     -0.00160       0.01879       0.07100
Nuclear contribution   :     -0.01491      -0.02598      -0.05743
                        -----------------------------------------
Total Dipole Moment    :     -0.01652      -0.00719       0.01357
                        -----------------------------------------
Magnitude (a.u.)       :      0.02256
Magnitude (Debye)      :      0.05734

Rotational constants in cm-1:     2.853707     0.712330     0.710805
Rotational constants in MHz : 85551.986377 21355.123158 21309.410122

                             ****ORCA TERMINATED NORMALLY****
TOTAL RUN TIME: 0 days 0 hours 0 minutes 5 seconds 977 msec
