                         Program Version 5.0.0 -  RELEASE  -
|  1> !wB97X-D3 RIJCOSX def2-TZVPD def2/J TightSCF
|  2> *xyz 0 1
|  3> C         -0.50835        1.72268       -4.12430
|  4> S         -1.32861        0.14674       -4.43578
|  5> O         -2.57135        0.47573       -5.06834
|  6> F         -1.51496       -0.40051       -3.06342
|  7> O         -0.37793       -0.62756       -5.20114
|  8> H         -0.31967        2.21655       -5.05456
|  9> H          0.41835        1.54859       -3.61852
| 10> H         -1.13714        2.33776       -3.51504
| 11> *
| 12> %MaxCore 64000
| 13>
| 14> %pal nprocs 18
| 15> end
| 16>
| 17> %scf
| 18>   MaxIter 150
| 19> end
| 20>
| 21>
| 22>                          ****END OF INPUT****

CARTESIAN COORDINATES (ANGSTROEM)
---------------------------------
  C     -0.508350    1.722680   -4.124300
  S     -1.328610    0.146740   -4.435780
  O     -2.571350    0.475730   -5.068340
  F     -1.514960   -0.400510   -3.063420
  O     -0.377930   -0.627560   -5.201140
  H     -0.319670    2.216550   -5.054560
  H      0.418350    1.548590   -3.618520
  H     -1.137140    2.337760   -3.515040

 Total Charge           Charge          ....    0
 Multiplicity           Mult            ....    1
 Number of Electrons    NEL             ....   50
 Basis Dimension        Dim             ....  230

ORBITAL ENERGIES
----------------

  NO   OCC          E(Eh)            E(eV)
   0   2.0000     -89.201031     -2427.2835
   1   2.0000     -24.889013      -677.2645
   2   2.0000     -19.251881      -523.8703
   3   2.0000     -19.248878      -523.7886
   4   2.0000     -10.328434      -281.0510
   5   2.0000      -8.263936      -224.8731
   6   2.0000      -6.221368      -169.2920
   7   2.0000      -6.215443      -169.1308
   8   2.0000      -6.214330      -169.1005
   9   2.0000      -1.467661       -39.9371
  10   2.0000      -1.238468       -33.7004
  11   2.0000      -1.146575       -31.1999
  12   2.0000      -0.912137       -24.8205
  13   2.0000      -0.810483       -22.0544
  14   2.0000      -0.691531       -18.8175
  15   2.0000      -0.670826       -18.2541
  16   2.0000      -0.658852       -17.9283
  17   2.0000      -0.581008       -15.8100
  18   2.0000      -0.577771       -15.7220
  19   2.0000      -0.561218       -15.2715
  20   2.0000      -0.545245       -14.8369
  21   2.0000      -0.496790       -13.5183
  22   2.0000      -0.444977       -12.1084
  23   2.0000      -0.436639       -11.8815
  24   2.0000      -0.423450       -11.5227
  25   0.0000       0.050980         1.3872
  26   0.0000       0.063751         1.7348
  27   0.0000       0.070822         1.9272
  28   0.0000       0.071694         1.9509
  29   0.0000       0.107664         2.9297

MULLIKEN ATOMIC CHARGES
-----------------------
   0 C :   -0.930480
   1 S :    1.232926
   2 O :   -0.558217
   3 F :   -0.162648
   4 O :   -0.566218
   5 H :    0.321143
   6 H :    0.330971
   7 H :    0.332523
Sum of atomic charges:   -0.0000000

LOEWDIN ATOMIC CHARGES
----------------------
   0 C :   -0.120088
   1 S :    0.574675
   2 O :   -0.273654
   3 F :   -0.091512
   4 O :   -0.282750
   5 H :    0.070591
   6 H :    0.061496
   7 H :    0.061242

  Mayer bond orders larger than 0.100000
B(  0-C ,  1-S ) :   0.8140 B(  0-C ,  2-O ) :   0.1024 B(  0-C ,  4-O ) :   0.1020
B(  0-C ,  5-H ) :   0.9185 B(  0-C ,  6-H ) :   0.9058 B(  0-C ,  7-H ) :   0.9034
B(  1-S ,  2-O ) :   1.7130 B(  1-S ,  3-F ) :   0.9570 B(  1-S ,  4-O ) :   1.6978

Dispersion correction           -0.001538143
FINAL SINGLE POINT ENERGY      -688.440759291815

DIPOLE MOMENT
-------------
                                X             Y             Z
Electronic contribution:     -2.31549      -4.67287       1.37473
Nuclear contribution   :      2.84473       5.67605      -0.40731
                        -----------------------------------------
Total Dipole Moment    :      0.52924       1.00319       0.96742
                        -----------------------------------------
Magnitude (a.u.)       :      1.49076
Magnitude (Debye)      :      3.78922

Rotational constants in cm-1:     0.162669     0.154016     0.148818
Rotational constants in MHz :  4876.699308  4617.284822  4461.441982

                             ****ORCA TERMINATED NORMALLY****
TOTAL RUN TIME: 0 days 0 hours 0 minutes 15 seconds 159 msec
