                         Program Version 5.0.0 -  RELEASE  -
|  1> !wB97X-D3 RIJCOSX def2-TZVPD def2/J TightSCF
|  2> *xyz 0 1
|  3> C         -0.50835        1.72268       -4.12430
|  4> S         -1.32861        0.14674       -4.43578
|  5> O         -2.57135        0.47573       -5.06834
|  6> O         -1.51496       -0.40051       -3.06342
|  7> F         -0.37793       -0.62756       -5.20114
|  8> H         -0.31967        2.21655       -5.05456
|  9> H          0.41835        1.54859       -3.61852
| 10> H         -1.13714        2.33776       -3.51504
| 11> *
| 12> %MaxCore 64000
| 13>
| 14> %pal nprocs 18
| 15> end
| 16>
| 17> %scf
| 18>   MaxIter 150
| 19> end
| 20>
| 21>
| 22>                          ****END OF INPUT****

CARTESIAN COORDINATES (ANGSTROEM)
---------------------------------
  C     -0.508350    1.722680   -4.124300
  S     -1.328610    0.146740   -4.435780
  O     -2.571350    0.475730   -5.068340
  O     -1.514960   -0.400510   -3.063420
  F     -0.377930   -0.627560   -5.201140
  H     -0.319670    2.216550   -5.054560
  H      0.418350    1.548590   -3.618520
  H     -1.137140    2.337760   -3.515040

 Total Charge           Charge          ....    0
 Multiplicity           Mult            ....    1
 Number of Electrons    NEL             ....   50
 Basis Dimension        Dim             ....  230

ORBITAL ENERGIES
----------------

  NO   OCC          E(Eh)            E(eV)
   0   2.0000     -89.203474     -2427.3499
   1   2.0000     -24.912406      -677.9010
   2   2.0000     -19.252605      -523.8900
   3   2.0000     -19.233822      -523.3789
   4   2.0000     -10.329307      -281.0747
   5   2.0000      -8.266381      -224.9397
   6   2.0000      -6.223729      -169.3563
   7   2.0000      -6.217732      -169.1931
   8   2.0000      -6.216859      -169.1693
   9   2.0000      -1.504421       -40.9374
  10   2.0000      -1.229247       -33.4495
  11   2.0000      -1.123655       -30.5762
  12   2.0000      -0.913766       -24.8648
  13   2.0000      -0.829612       -22.5749
  14   2.0000      -0.709942       -19.3185
  15   2.0000      -0.696502       -18.9528
  16   2.0000      -0.662515       -18.0279
  17   2.0000      -0.578601       -15.7445
  18   2.0000      -0.577467       -15.7137
  19   2.0000      -0.564066       -15.3490
  20   2.0000      -0.538492       -14.6531
  21   2.0000      -0.490879       -13.3575
  22   2.0000      -0.439893       -11.9701
  23   2.0000      -0.421059       -11.4576
  24   2.0000      -0.406811       -11.0699
  25   0.0000       0.048150         1.3102
  26   0.0000       0.062225         1.6932
  27   0.0000       0.069873         1.9013
  28   0.0000       0.072648         1.9769
  29   0.0000       0.107001         2.9116

MULLIKEN ATOMIC CHARGES
-----------------------
   0 C :   -0.928273
   1 S :    1.213214
   2 O :   -0.551148
   3 O :   -0.591213
   4 F :   -0.124788
   5 H :    0.338834
   6 H :    0.330801
   7 H :    0.312573
Sum of atomic charges:    0.0000000

LOEWDIN ATOMIC CHARGES
----------------------
   0 C :   -0.121525
   1 S :    0.574515
   2 O :   -0.272939
   3 O :   -0.317795
   4 F :   -0.055482
   5 H :    0.059818
   6 H :    0.061545
   7 H :    0.071862

  Mayer bond orders larger than 0.100000
B(  0-C ,  1-S ) :   0.8191 B(  0-C ,  2-O ) :   0.1038 B(  0-C ,  5-H ) :   0.8982
B(  0-C ,  6-H ) :   0.9060 B(  0-C ,  7-H ) :   0.9249 B(  1-S ,  2-O ) :   1.7201
B(  1-S ,  3-O ) :   1.6529 B(  1-S ,  4-F ) :   1.0063

Dispersion correction           -0.001537386
FINAL SINGLE POINT ENERGY      -688.421470380946

DIPOLE MOMENT
-------------
                                X             Y             Z
Electronic contribution:     -0.41216      -5.04300      -2.22619
Nuclear contribution   :      1.70876       5.90289       1.72841
                        -----------------------------------------
Total Dipole Moment    :      1.29660       0.85990      -0.49778
                        -----------------------------------------
Magnitude (a.u.)       :      1.63352
Magnitude (Debye)      :      4.15208

Rotational constants in cm-1:     0.163253     0.155214     0.147311
Rotational constants in MHz :  4894.200006  4653.189727  4416.272537

                             ****ORCA TERMINATED NORMALLY****
TOTAL RUN TIME: 0 days 0 hours 0 minutes 11 seconds 646 msec
