                         Program Version 5.0.0 -  RELEASE  -
|  1> !wB97X-D3 RIJCOSX def2-TZVPD def2/J TightSCF xyzfile
|  2>
|  3> *xyzfile 0 1 D1.xyz
|  4>
|  5> %MaxCore 64000
|  6>
|  7> %pal nprocs 18
|  8> end
|  9>
| 10> %scf
| 11>   MaxIter 150
| 12> end
| 13>
| 14>
| 15>                          ****END OF INPUT****

CARTESIAN COORDINATES (ANGSTROEM)
---------------------------------
  C      1.364014    0.468742   -2.813764
  C      0.428844    0.321402   -1.655312
  C      0.968045    1.630639   -3.715749
  C     -0.508347    1.722679   -4.124300
  S     -1.328608    0.146737   -4.435781
  H     -0.591511    2.294958   -5.047219
  H     -1.114114    2.235610   -3.374362
  H      0.748578   -0.400542   -1.001345
  H     -0.461053    0.023332   -2.077731
  H      0.310258    1.201375   -1.134948
  F     -2.571347    0.475733   -5.068341
  O     -1.514963   -0.400512   -3.063420
  H      1.294847   -0.468742   -3.364684
  H      2.376216    0.597400   -2.431495
  H      1.578688    1.520652   -4.612733
  H      1.266653    2.575988   -3.250448
  O     -0.377928   -0.627558   -5.201141

 Total Charge           Charge          ....    0
 Multiplicity           Mult            ....    1
 Number of Electrons    NEL             ....   74
 Basis Dimension        Dim             ....  395

ORBITAL ENERGIES
----------------

  NO   OCC          E(Eh)            E(eV)
   0   2.0000     -89.203650     -2427.3547
   1   2.0000     -24.918581      -678.0691
   2   2.0000     -19.251367      -523.8563
   3   2.0000     -19.237701      -523.4845
   4   2.0000     -10.336449      -281.2691
   5   2.0000     -10.296178      -280.1732
   6   2.0000     -10.259418      -279.1729
   7   2.0000     -10.199735      -277.5489
   8   2.0000      -8.267411      -224.9677
   9   2.0000      -6.224642      -169.3811
  10   2.0000      -6.218319      -169.2091
  11   2.0000      -6.218213      -169.2062
  12   2.0000      -1.515434       -41.2371
  13   2.0000      -1.229511       -33.4567
  14   2.0000      -1.131773       -30.7971
  15   2.0000      -0.948082       -25.7986
  16   2.0000      -0.890144       -24.2221
  17   2.0000      -0.835766       -22.7424
  18   2.0000      -0.789748       -21.4901
  19   2.0000      -0.718303       -19.5460
  20   2.0000      -0.706228       -19.2174
  21   2.0000      -0.685812       -18.6619
  22   2.0000      -0.654248       -17.8030
  23   2.0000      -0.610315       -16.6075
  24   2.0000      -0.597484       -16.2584
  25   2.0000      -0.562450       -15.3051
  26   2.0000      -0.557662       -15.1748
  27   2.0000      -0.521921       -14.2022
  28   2.0000      -0.502279       -13.6677
  29   2.0000      -0.498307       -13.5596
  30   2.0000      -0.483876       -13.1669
  31   2.0000      -0.452527       -12.3139
  32   2.0000      -0.442559       -12.0426
  33   2.0000      -0.415574       -11.3083
  34   2.0000      -0.415027       -11.2935
  35   2.0000      -0.409308       -11.1378
  36   2.0000      -0.370592       -10.0843
  37   0.0000       0.044424         1.2088
  38   0.0000       0.060633         1.6499
  39   0.0000       0.064574         1.7571
  40   0.0000       0.076805         2.0900
  41   0.0000       0.093472         2.5435

MULLIKEN ATOMIC CHARGES
-----------------------
   0 C :   -0.309471
   1 C :   -1.277933
   2 C :   -0.431550
   3 C :   -0.714040
   4 S :    1.187078
   5 H :    0.339394
   6 H :    0.392124
   7 H :    0.399740
   8 H :    0.258618
   9 H :    0.369724
  10 F :   -0.091585
  11 O :   -0.636909
  12 H :    0.281467
  13 H :    0.264885
  14 H :    0.256818
  15 H :    0.320828
  16 O :   -0.609190
Sum of atomic charges:    0.0000000

LOEWDIN ATOMIC CHARGES
----------------------
   0 C :   -0.251301
   1 C :   -0.116315
   2 C :   -0.214655
   3 C :   -0.215095
   4 S :    0.643660
   5 H :    0.100670
   6 H :    0.110328
   7 H :    0.062672
   8 H :   -0.033732
   9 H :    0.065667
  10 F :   -0.034938
  11 O :   -0.306100
  12 H :    0.103856
  13 H :    0.111038
  14 H :    0.111921
  15 H :    0.121992
  16 O :   -0.259670

  Mayer bond orders larger than 0.100000
B(  0-C ,  1-C ) :   0.5493 B(  0-C ,  2-C ) :   0.9111 B(  0-C , 12-H ) :   0.9495
B(  0-C , 13-H ) :   0.9411 B(  1-C ,  2-C ) :   0.1568 B(  1-C ,  3-C ) :   0.1229
B(  1-C ,  7-H ) :   0.9060 B(  1-C ,  8-H ) :   1.1247 B(  1-C ,  9-H ) :   0.9528
B(  2-C ,  3-C ) :   1.0764 B(  2-C , 14-H ) :   0.9046 B(  2-C , 15-H ) :   0.8972
B(  3-C ,  4-S ) :   0.8389 B(  3-C ,  5-H ) :   0.8792 B(  3-C ,  6-H ) :   0.8173
B(  3-C , 11-O ) :   0.1396 B(  3-C , 16-O ) :   0.1001 B(  4-S , 10-F ) :   0.9944
B(  4-S , 11-O ) :   1.6488 B(  4-S , 16-O ) :   1.6696 B(  8-H , 11-O ) :  -0.1844

Dispersion correction           -0.006515488
FINAL SINGLE POINT ENERGY      -806.325690137909

DIPOLE MOMENT
-------------
                                X             Y             Z
Electronic contribution:    -12.49348      -4.07441      -9.73966
Nuclear contribution   :     12.25227       5.48563       9.26621
                        -----------------------------------------
Total Dipole Moment    :     -0.24121       1.41122      -0.47345
                        -----------------------------------------
Magnitude (a.u.)       :      1.50794
Magnitude (Debye)      :      3.83288

Rotational constants in cm-1:     0.103176     0.044975     0.040960
Rotational constants in MHz :  3093.138469  1348.317425  1227.945122

                             ****ORCA TERMINATED NORMALLY****
TOTAL RUN TIME: 0 days 0 hours 0 minutes 40 seconds 126 msec
