                         Program Version 5.0.0 -  RELEASE  -
|  1> !wB97X-D3 RIJCOSX def2-TZVPD def2/J TightSCF xyzfile
|  2>
|  3> *xyzfile 0 1 D3.xyz
|  4>
|  5> %MaxCore 64000
|  6>
|  7> %pal nprocs 18
|  8> end
|  9>
| 10> %scf
| 11>   MaxIter 150
| 12> end
| 13>
| 14>
| 15>                          ****END OF INPUT****

CARTESIAN COORDINATES (ANGSTROEM)
---------------------------------
  C      1.364014    0.468742   -2.813764
  C      0.428844    0.321402   -1.655312
  C      0.968045    1.630639   -3.715749
  C     -0.508347    1.722679   -4.124300
  S     -1.328608    0.146737   -4.435781
  H     -0.591511    2.294958   -5.047219
  H     -1.114114    2.235610   -3.374362
  H      0.748578   -0.400542   -1.001345
  H     -0.461053    0.023332   -2.077731
  H      0.310258    1.201375   -1.134948
  O     -2.571347    0.475733   -5.068341
  O     -1.514963   -0.400512   -3.063420
  H      1.294847   -0.468742   -3.364684
  H      2.376216    0.597400   -2.431495
  H      1.578688    1.520652   -4.612733
  H      1.266653    2.575988   -3.250448
  F     -0.377928   -0.627558   -5.201141

 Total Charge           Charge          ....    0
 Multiplicity           Mult            ....    1
 Number of Electrons    NEL             ....   74
 Basis Dimension        Dim             ....  395

ORBITAL ENERGIES
----------------

  NO   OCC          E(Eh)            E(eV)
   0   2.0000     -89.203269     -2427.3444
   1   2.0000     -24.913375      -677.9274
   2   2.0000     -19.254335      -523.9371
   3   2.0000     -19.236449      -523.4504
   4   2.0000     -10.336054      -281.2583
   5   2.0000     -10.300300      -280.2854
   6   2.0000     -10.271676      -279.5065
   7   2.0000     -10.204241      -277.6715
   8   2.0000      -8.266994      -224.9563
   9   2.0000      -6.224428      -169.3753
  10   2.0000      -6.217981      -169.1999
  11   2.0000      -6.217551      -169.1882
  12   2.0000      -1.505996       -40.9802
  13   2.0000      -1.233901       -33.5762
  14   2.0000      -1.135116       -30.8881
  15   2.0000      -0.954373       -25.9698
  16   2.0000      -0.889487       -24.2042
  17   2.0000      -0.835190       -22.7267
  18   2.0000      -0.792361       -21.5612
  19   2.0000      -0.722742       -19.6668
  20   2.0000      -0.700141       -19.0518
  21   2.0000      -0.692561       -18.8455
  22   2.0000      -0.651099       -17.7173
  23   2.0000      -0.604649       -16.4533
  24   2.0000      -0.599029       -16.3004
  25   2.0000      -0.571540       -15.5524
  26   2.0000      -0.559209       -15.2168
  27   2.0000      -0.527860       -14.3638
  28   2.0000      -0.510592       -13.8939
  29   2.0000      -0.495177       -13.4744
  30   2.0000      -0.489641       -13.3238
  31   2.0000      -0.464598       -12.6424
  32   2.0000      -0.440976       -11.9996
  33   2.0000      -0.427914       -11.6441
  34   2.0000      -0.426003       -11.5921
  35   2.0000      -0.415286       -11.3005
  36   2.0000      -0.365943        -9.9578
  37   0.0000       0.049056         1.3349
  38   0.0000       0.059478         1.6185
  39   0.0000       0.068471         1.8632
  40   0.0000       0.074289         2.0215
  41   0.0000       0.093189         2.5358

MULLIKEN ATOMIC CHARGES
-----------------------
   0 C :   -0.220680
   1 C :   -1.291467
   2 C :   -0.461974
   3 C :   -0.635606
   4 S :    1.184728
   5 H :    0.306985
   6 H :    0.369378
   7 H :    0.401407
   8 H :    0.279258
   9 H :    0.377194
  10 O :   -0.584176
  11 O :   -0.628015
  12 H :    0.217899
  13 H :    0.256335
  14 H :    0.260300
  15 H :    0.320738
  16 F :   -0.152305
Sum of atomic charges:    0.0000000

LOEWDIN ATOMIC CHARGES
----------------------
   0 C :   -0.256156
   1 C :   -0.117931
   2 C :   -0.225200
   3 C :   -0.204491
   4 S :    0.640853
   5 H :    0.103399
   6 H :    0.120633
   7 H :    0.062709
   8 H :   -0.035494
   9 H :    0.067314
  10 O :   -0.257476
  11 O :   -0.300799
  12 H :    0.100735
  13 H :    0.111735
  14 H :    0.107905
  15 H :    0.121037
  16 F :   -0.038773

  Mayer bond orders larger than 0.100000
B(  0-C ,  1-C ) :   0.5429 B(  0-C ,  2-C ) :   0.8402 B(  0-C , 12-H ) :   0.9912
B(  0-C , 13-H ) :   0.9490 B(  1-C ,  2-C ) :   0.1496 B(  1-C ,  3-C ) :   0.1245
B(  1-C ,  7-H ) :   0.9127 B(  1-C ,  8-H ) :   1.1515 B(  1-C ,  9-H ) :   0.9469
B(  2-C ,  3-C ) :   1.0246 B(  2-C , 14-H ) :   0.9399 B(  2-C , 15-H ) :   0.8984
B(  3-C ,  4-S ) :   0.8152 B(  3-C ,  5-H ) :   0.9474 B(  3-C ,  6-H ) :   0.8434
B(  3-C , 10-O ) :   0.1146 B(  3-C , 11-O ) :   0.1307 B(  4-S , 10-O ) :   1.6439
B(  4-S , 11-O ) :   1.6607 B(  4-S , 16-F ) :   1.0074 B(  8-H , 11-O ) :  -0.2203

Dispersion correction           -0.006497316
FINAL SINGLE POINT ENERGY      -806.329588336260

DIPOLE MOMENT
-------------
                                X             Y             Z
Electronic contribution:     -8.65553      -5.96865      -9.91816
Nuclear contribution   :      9.83476       6.70164       9.41257
                        -----------------------------------------
Total Dipole Moment    :      1.17923       0.73299      -0.50559
                        -----------------------------------------
Magnitude (a.u.)       :      1.47766
Magnitude (Debye)      :      3.75591

Rotational constants in cm-1:     0.099832     0.045916     0.042219
Rotational constants in MHz :  2992.874960  1376.530174  1265.693813

                             ****ORCA TERMINATED NORMALLY****
TOTAL RUN TIME: 0 days 0 hours 0 minutes 43 seconds 192 msec
