                         Program Version 5.0.0 -  RELEASE  -
|  1> !wB97X-D3 RIJCOSX def2-TZVPD def2/J TightSCF
|  2> *xyz -1 1
|  3> C          1.44442        5.26658       -0.97546
|  4> O          1.56525        4.23349       -1.86489
|  5> C          0.14812        5.21087       -0.13809
|  6> H          1.47425        6.26464       -1.47692
|  7> H          2.28962        5.30327       -0.26445
|  8> H         -0.69779        5.17417       -0.79230
|  9> H          0.08430        6.08276        0.47887
| 10> H          0.15965        4.33708        0.47938
| 11> *
| 12> %MaxCore 64000
| 13>
| 14> %pal nprocs 4
| 15> end
| 16>
| 17> %scf
| 18>   MaxIter 150
| 19> end
| 20>
| 21>
| 22>                          ****END OF INPUT****

CARTESIAN COORDINATES (ANGSTROEM)
---------------------------------
  C      1.444420    5.266580   -0.975460
  O      1.565250    4.233490   -1.864890
  C      0.148120    5.210870   -0.138090
  H      1.474250    6.264640   -1.476920
  H      2.289620    5.303270   -0.264450
  H     -0.697790    5.174170   -0.792300
  H      0.084300    6.082760    0.478870
  H      0.159650    4.337080    0.479380

 Total Charge           Charge          ....   -1
 Multiplicity           Mult            ....    1
 Number of Electrons    NEL             ....   26
 Basis Dimension        Dim             ....  159

ORBITAL ENERGIES
----------------

  NO   OCC          E(Eh)            E(eV)
   0   2.0000     -18.894015      -514.1323
   1   2.0000     -10.088227      -274.5146
   2   2.0000     -10.064523      -273.8696
   3   2.0000      -0.792964       -21.5777
   4   2.0000      -0.640356       -17.4250
   5   2.0000      -0.481540       -13.1034
   6   2.0000      -0.350110        -9.5270
   7   2.0000      -0.327300        -8.9063
   8   2.0000      -0.268953        -7.3186
   9   2.0000      -0.251693        -6.8489
  10   2.0000      -0.206882        -5.6295
  11   2.0000      -0.060313        -1.6412
  12   2.0000      -0.057917        -1.5760
  13   0.0000       0.212661         5.7868
  14   0.0000       0.232779         6.3342
  15   0.0000       0.262361         7.1392
  16   0.0000       0.264086         7.1862
  17   0.0000       0.287435         7.8215

MULLIKEN ATOMIC CHARGES
-----------------------
   0 C :   -0.247214
   1 O :   -0.918910
   2 C :   -0.878909
   3 H :    0.130359
   4 H :    0.134794
   5 H :    0.234432
   6 H :    0.310655
   7 H :    0.234792
Sum of atomic charges:   -1.0000000

LOEWDIN ATOMIC CHARGES
----------------------
   0 C :   -0.620061
   1 O :   -0.430663
   2 C :   -0.167005
   3 H :    0.057729
   4 H :    0.053978
   5 H :    0.039338
   6 H :    0.028244
   7 H :    0.038441

  Mayer bond orders larger than 0.100000
B(  0-C ,  1-O ) :   1.0615 B(  0-C ,  2-C ) :   0.7715 B(  0-C ,  3-H ) :   1.0665
B(  0-C ,  4-H ) :   1.0732 B(  1-O ,  2-C ) :   0.2233 B(  2-C ,  5-H ) :   0.9953
B(  2-C ,  6-H ) :   0.9415 B(  2-C ,  7-H ) :   0.9911

Dispersion correction           -0.000864061
FINAL SINGLE POINT ENERGY      -154.440062297966

DIPOLE MOMENT
-------------
                                X             Y             Z
Electronic contribution:      1.16299      -1.57196      -2.00315
Nuclear contribution   :     -1.83256       2.47114       3.17273
                        -----------------------------------------
Total Dipole Moment    :     -0.66957       0.89919       1.16958
                        -----------------------------------------
Magnitude (a.u.)       :      1.62012
Magnitude (Debye)      :      4.11801

Rotational constants in cm-1:     1.286062     0.322579     0.284728
Rotational constants in MHz : 38555.180127  9670.683110  8535.939140

                             ****ORCA TERMINATED NORMALLY****
TOTAL RUN TIME: 0 days 0 hours 0 minutes 20 seconds 740 msec
