                         Program Version 5.0.0 -  RELEASE  -
|  1> !wB97X-D3 RIJCOSX def2-TZVPD def2/J TightSCF
|  2> *xyz 1 1
|  3> C         -0.70169        4.07250       -4.00392
|  4> N          0.68053        4.61482       -4.04800
|  5> H          0.69993        5.58489       -4.38827
|  6> H          1.27804        4.05598       -4.66824
|  7> H          1.08573        4.53358       -3.10652
|  8> C         -1.70347        5.09320       -3.47740
|  9> H         -0.99590        3.74039       -5.00065
| 10> H         -0.64358        3.20191       -3.35153
| 11> H         -1.73704        5.93384       -4.13853
| 12> H         -1.40338        5.41759       -2.50291
| 13> H         -2.67335        4.64479       -3.42108
| 14> *
| 15> %MaxCore 64000
| 16>
| 17> %pal nprocs 4
| 18> end
| 19>
| 20> %scf
| 21>   MaxIter 150
| 22> end
| 23>
| 24>
| 25>                          ****END OF INPUT****

CARTESIAN COORDINATES (ANGSTROEM)
---------------------------------
  C     -0.701690    4.072500   -4.003920
  N      0.680530    4.614820   -4.048000
  H      0.699930    5.584890   -4.388270
  H      1.278040    4.055980   -4.668240
  H      1.085730    4.533580   -3.106520
  C     -1.703470    5.093200   -3.477400
  H     -0.995900    3.740390   -5.000650
  H     -0.643580    3.201910   -3.351530
  H     -1.737040    5.933840   -4.138530
  H     -1.403380    5.417590   -2.502910
  H     -2.673350    4.644790   -3.421080

 Total Charge           Charge          ....    1
 Multiplicity           Mult            ....    1
 Number of Electrons    NEL             ....   26
 Basis Dimension        Dim             ....  183

ORBITAL ENERGIES
----------------

  NO   OCC          E(Eh)            E(eV)
   0   2.0000     -14.758240      -401.5921
   1   2.0000     -10.528628      -286.4985
   2   2.0000     -10.447804      -284.2992
   3   2.0000      -1.334369       -36.3100
   4   2.0000      -1.080893       -29.4126
   5   2.0000      -0.955251       -25.9937
   6   2.0000      -0.907241       -24.6873
   7   2.0000      -0.888915       -24.1886
   8   2.0000      -0.796072       -21.6622
   9   2.0000      -0.742563       -20.2062
  10   2.0000      -0.679489       -18.4898
  11   2.0000      -0.663047       -18.0424
  12   2.0000      -0.646127       -17.5820
  13   0.0000      -0.121993        -3.3196
  14   0.0000      -0.065729        -1.7886
  15   0.0000      -0.064862        -1.7650
  16   0.0000      -0.058275        -1.5857
  17   0.0000      -0.028090        -0.7644

MULLIKEN ATOMIC CHARGES
-----------------------
   0 C :   -0.370973
   1 N :   -0.315702
   2 H :    0.355728
   3 H :    0.366565
   4 H :    0.387450
   5 C :   -1.157330
   6 H :    0.326967
   7 H :    0.322098
   8 H :    0.380201
   9 H :    0.370378
  10 H :    0.334617
Sum of atomic charges:    1.0000000

LOEWDIN ATOMIC CHARGES
----------------------
   0 C :   -0.202126
   1 N :    0.181024
   2 H :    0.182443
   3 H :    0.181607
   4 H :    0.184226
   5 C :   -0.058009
   6 H :    0.136250
   7 H :    0.135088
   8 H :    0.083337
   9 H :    0.083098
  10 H :    0.093061

  Mayer bond orders larger than 0.100000
B(  0-C ,  1-N ) :   0.9751 B(  0-C ,  5-C ) :   0.7035 B(  0-C ,  6-H ) :   0.9037
B(  0-C ,  7-H ) :   0.9159 B(  1-N ,  2-H ) :   0.8544 B(  1-N ,  3-H ) :   0.8556
B(  1-N ,  4-H ) :   0.8315 B(  5-C ,  8-H ) :   0.8951 B(  5-C ,  9-H ) :   0.9241
B(  5-C , 10-H ) :   0.9633

Dispersion correction           -0.001512076
FINAL SINGLE POINT ENERGY      -135.550487389799

DIPOLE MOMENT
-------------
                                X             Y             Z
Electronic contribution:      1.76553      -0.32789      -0.45497
Nuclear contribution   :     -0.23930       0.27560       0.19485
                        -----------------------------------------
Total Dipole Moment    :      1.52623      -0.05229      -0.26011
                        -----------------------------------------
Magnitude (a.u.)       :      1.54912
Magnitude (Debye)      :      3.93756

Rotational constants in cm-1:     1.018556     0.279088     0.248454
Rotational constants in MHz : 30535.536069  8366.847891  7448.451392

                             ****ORCA TERMINATED NORMALLY****
TOTAL RUN TIME: 0 days 0 hours 0 minutes 23 seconds 784 msec
