                         Program Version 5.0.0 -  RELEASE  -
|  1> !wB97X-D3 RIJCOSX def2-TZVPD def2/J TightSCF xyzfile
|  2>
|  3> *xyzfile 0 1 B.xyz
|  4>
|  5> %MaxCore 64000
|  6>
|  7> %pal nprocs 18
|  8> end
|  9>
| 10> %scf
| 11>   MaxIter 150
| 12> end
| 13>
| 14>
| 15>                          ****END OF INPUT****

CARTESIAN COORDINATES (ANGSTROEM)
---------------------------------
  C     -0.701686    4.072499   -4.003920
  N      0.680528    4.614820   -4.048005
  C      1.444422    5.266576   -0.975463
  O      1.565248    4.233493   -1.864885
  H      0.699926    5.584890   -4.388272
  H      1.278044    4.055977   -4.668235
  H      1.085729    4.533581   -3.106524
  C     -1.703475    5.093197   -3.477396
  H     -0.995895    3.740394   -5.000654
  H     -0.643580    3.201910   -3.351533
  C     -1.313997    5.785995   -2.169271
  H     -1.877057    5.850103   -4.251154
  H     -2.653264    4.564475   -3.354796
  H     -2.097137    6.509395   -1.929558
  H     -0.416875    6.387594   -2.339097
  C     -1.073895    4.844728   -0.979904
  H     -1.968893    4.809608   -0.352568
  C      0.148120    5.210874   -0.138092
  H     -0.909754    3.827531   -1.338975
  H      1.474250    6.264638   -1.476917
  H      2.289622    5.303267   -0.264450
  H      0.261827    4.450942    0.640711
  H     -0.002516    6.171031    0.371483

 Total Charge           Charge          ....    0
 Multiplicity           Mult            ....    1
 Number of Electrons    NEL             ....   66
 Basis Dimension        Dim             ....  434

ORBITAL ENERGIES
----------------

  NO   OCC          E(Eh)            E(eV)
   0   2.0000     -19.096429      -519.6402
   1   2.0000     -14.502881      -394.6435
   2   2.0000     -10.341207      -281.3986
   3   2.0000     -10.296077      -280.1705
   4   2.0000     -10.271103      -279.4909
   5   2.0000     -10.258244      -279.1410
   6   2.0000     -10.249301      -278.8977
   7   2.0000     -10.230622      -278.3894
   8   2.0000      -1.106389       -30.1064
   9   2.0000      -1.005258       -27.3545
  10   2.0000      -0.927746       -25.2453
  11   2.0000      -0.862849       -23.4793
  12   2.0000      -0.808470       -21.9996
  13   2.0000      -0.747683       -20.3455
  14   2.0000      -0.698714       -19.0130
  15   2.0000      -0.673867       -18.3369
  16   2.0000      -0.672256       -18.2930
  17   2.0000      -0.627098       -17.0642
  18   2.0000      -0.590639       -16.0721
  19   2.0000      -0.565860       -15.3978
  20   2.0000      -0.557499       -15.1703
  21   2.0000      -0.518157       -14.0998
  22   2.0000      -0.505932       -13.7671
  23   2.0000      -0.491470       -13.3736
  24   2.0000      -0.471555       -12.8317
  25   2.0000      -0.450520       -12.2593
  26   2.0000      -0.444539       -12.0965
  27   2.0000      -0.424977       -11.5642
  28   2.0000      -0.401664       -10.9298
  29   2.0000      -0.393130       -10.6976
  30   2.0000      -0.385432       -10.4881
  31   2.0000      -0.271299        -7.3824
  32   2.0000      -0.266962        -7.2644
  33   0.0000       0.044098         1.2000
  34   0.0000       0.070405         1.9158
  35   0.0000       0.074975         2.0402
  36   0.0000       0.089780         2.4430
  37   0.0000       0.105005         2.8573

MULLIKEN ATOMIC CHARGES
-----------------------
   0 C :   -0.696782
   1 N :   -0.107808
   2 C :   -0.423986
   3 O :   -0.920018
   4 H :    0.369980
   5 H :    0.374354
   6 H :   -0.000461
   7 C :   -0.459135
   8 H :    0.315698
   9 H :    0.361144
  10 C :   -0.576486
  11 H :    0.289650
  12 H :    0.262786
  13 H :    0.316035
  14 H :    0.218702
  15 C :   -0.254873
  16 H :    0.320314
  17 C :   -0.591732
  18 H :    0.165817
  19 H :    0.212407
  20 H :    0.244430
  21 H :    0.331565
  22 H :    0.248401
Sum of atomic charges:    0.0000000

LOEWDIN ATOMIC CHARGES
----------------------
   0 C :   -0.174982
   1 N :    0.143831
   2 C :   -0.419511
   3 O :   -0.287134
   4 H :    0.163520
   5 H :    0.163078
   6 H :   -0.043191
   7 C :   -0.194919
   8 H :    0.117763
   9 H :    0.123128
  10 C :   -0.204625
  11 H :    0.110427
  12 H :    0.118950
  13 H :    0.111488
  14 H :    0.091014
  15 C :   -0.212780
  16 H :    0.106568
  17 C :   -0.202499
  18 H :    0.094233
  19 H :    0.089128
  20 H :    0.096723
  21 H :    0.104172
  22 H :    0.105618

  Mayer bond orders larger than 0.100000
B(  0-C ,  1-N ) :   1.0143 B(  0-C ,  6-H ) :   0.1131 B(  0-C ,  7-C ) :   0.8107
B(  0-C ,  8-H ) :   0.9244 B(  0-C ,  9-H ) :   0.9005 B(  0-C , 15-C ) :   0.1247
B(  1-N ,  4-H ) :   0.7954 B(  1-N ,  5-H ) :   0.8240 B(  1-N ,  6-H ) :   0.8869
B(  2-C ,  3-O ) :   0.9997 B(  2-C , 17-C ) :   0.8853 B(  2-C , 19-H ) :   1.0020
B(  2-C , 20-H ) :   0.9859 B(  3-O ,  6-H ) :   0.3532 B(  7-C , 10-C ) :   0.8783
B(  7-C , 11-H ) :   0.9211 B(  7-C , 12-H ) :   0.9692 B(  7-C , 15-C ) :   0.2370
B( 10-C , 13-H ) :   0.9350 B( 10-C , 14-H ) :   1.0032 B( 10-C , 15-C ) :   0.7852
B( 10-C , 17-C ) :   0.3456 B( 15-C , 16-H ) :   0.9310 B( 15-C , 17-C ) :   0.8801
B( 15-C , 18-H ) :   0.9591 B( 17-C , 18-H ) :   0.1063 B( 17-C , 21-H ) :   0.8879
B( 17-C , 22-H ) :   0.9940

Dispersion correction           -0.009075075
FINAL SINGLE POINT ENERGY      -367.641752853651

DIPOLE MOMENT
-------------
                                X             Y             Z
Electronic contribution:      1.98882      -1.53452      -1.31034
Nuclear contribution   :     -3.16446       1.92310      -1.11926
                        -----------------------------------------
Total Dipole Moment    :     -1.17564       0.38858      -2.42960
                        -----------------------------------------
Magnitude (a.u.)       :      2.72692
Magnitude (Debye)      :      6.93128

Rotational constants in cm-1:     0.085554     0.055600     0.038553
Rotational constants in MHz :  2564.854379  1666.836664  1155.798427

                             ****ORCA TERMINATED NORMALLY****
TOTAL RUN TIME: 0 days 0 hours 0 minutes 55 seconds 694 msec
