                         Program Version 5.0.0 -  RELEASE  -
|  1> !wB97X-D3 RIJCOSX def2-TZVPD def2/J TightSCF
|  2> *xyz 0 1
|  3> C          1.44442        5.26658       -0.97546
|  4> F          1.56525        4.23349       -1.86489
|  5> C          0.14812        5.21087       -0.13809
|  6> H          1.47425        6.26464       -1.47692
|  7> H          2.28962        5.30327       -0.26445
|  8> H         -0.69779        5.17417       -0.79230
|  9> H          0.08430        6.08276        0.47887
| 10> H          0.15965        4.33708        0.47938
| 11> *
| 12> %MaxCore 64000
| 13>
| 14> %pal nprocs 4
| 15> end
| 16>
| 17> %scf
| 18>   MaxIter 150
| 19> end
| 20>
| 21>
| 22>                          ****END OF INPUT****

CARTESIAN COORDINATES (ANGSTROEM)
---------------------------------
  C      1.444420    5.266580   -0.975460
  F      1.565250    4.233490   -1.864890
  C      0.148120    5.210870   -0.138090
  H      1.474250    6.264640   -1.476920
  H      2.289620    5.303270   -0.264450
  H     -0.697790    5.174170   -0.792300
  H      0.084300    6.082760    0.478870
  H      0.159650    4.337080    0.479380

 Total Charge           Charge          ....    0
 Multiplicity           Mult            ....    1
 Number of Electrons    NEL             ....   26
 Basis Dimension        Dim             ....  159

ORBITAL ENERGIES
----------------

  NO   OCC          E(Eh)            E(eV)
   0   2.0000     -24.772317      -674.0890
   1   2.0000     -10.354707      -281.7659
   2   2.0000     -10.269211      -279.4395
   3   2.0000      -1.314841       -35.7786
   4   2.0000      -0.879826       -23.9413
   5   2.0000      -0.743629       -20.2352
   6   2.0000      -0.610578       -16.6147
   7   2.0000      -0.598137       -16.2761
   8   2.0000      -0.559948       -15.2370
   9   2.0000      -0.505230       -13.7480
  10   2.0000      -0.498937       -13.5768
  11   2.0000      -0.431743       -11.7483
  12   2.0000      -0.425407       -11.5759
  13   0.0000       0.072962         1.9854
  14   0.0000       0.095614         2.6018
  15   0.0000       0.118133         3.2146
  16   0.0000       0.121595         3.3088
  17   0.0000       0.149386         4.0650

MULLIKEN ATOMIC CHARGES
-----------------------
   0 C :   -0.076246
   1 F :   -0.300292
   2 C :   -0.960884
   3 H :    0.217357
   4 H :    0.217916
   5 H :    0.288138
   6 H :    0.331348
   7 H :    0.282664
Sum of atomic charges:    0.0000000

LOEWDIN ATOMIC CHARGES
----------------------
   0 C :   -0.284642
   1 F :   -0.048770
   2 C :   -0.084912
   3 H :    0.114188
   4 H :    0.108794
   5 H :    0.064785
   6 H :    0.066637
   7 H :    0.063919

  Mayer bond orders larger than 0.100000
B(  0-C ,  1-F ) :   0.7745 B(  0-C ,  2-C ) :   0.8053 B(  0-C ,  3-H ) :   0.9797
B(  0-C ,  4-H ) :   0.9848 B(  2-C ,  5-H ) :   0.9534 B(  2-C ,  6-H ) :   0.9220
B(  2-C ,  7-H ) :   0.9566

Dispersion correction           -0.000873893
FINAL SINGLE POINT ENERGY      -179.086717915230

DIPOLE MOMENT
-------------
                                X             Y             Z
Electronic contribution:      2.30177      -2.74476      -3.70232
Nuclear contribution   :     -2.43357       3.25919       4.19687
                        -----------------------------------------
Total Dipole Moment    :     -0.13180       0.51443       0.49455
                        -----------------------------------------
Magnitude (a.u.)       :      0.72567
Magnitude (Debye)      :      1.84450

Rotational constants in cm-1:     1.264662     0.300144     0.266170
Rotational constants in MHz : 37913.611527  8998.095216  7979.576054

                             ****ORCA TERMINATED NORMALLY****
TOTAL RUN TIME: 0 days 0 hours 0 minutes 16 seconds 918 msec
