                         Program Version 5.0.0 -  RELEASE  -
|  1> !wB97X-D3 RIJCOSX def2-TZVPD def2/J TightSCF
|  2> *xyz 0 1
|  3> C         -0.70169        4.07250       -4.00392
|  4> C          0.68053        4.61482       -4.04800
|  5> H          0.69993        5.58489       -4.38827
|  6> H          1.27804        4.05598       -4.66824
|  7> H          1.08573        4.53358       -3.10652
|  8> C         -1.70347        5.09320       -3.47740
|  9> H         -0.99590        3.74039       -5.00065
| 10> H         -0.64358        3.20191       -3.35153
| 11> H         -1.73704        5.93384       -4.13853
| 12> H         -1.40338        5.41759       -2.50291
| 13> H         -2.67335        4.64479       -3.42108
| 14> *
| 15> %MaxCore 64000
| 16>
| 17> %pal nprocs 4
| 18> end
| 19>
| 20> %scf
| 21>   MaxIter 150
| 22> end
| 23>
| 24>
| 25>                          ****END OF INPUT****

CARTESIAN COORDINATES (ANGSTROEM)
---------------------------------
  C     -0.701690    4.072500   -4.003920
  C      0.680530    4.614820   -4.048000
  H      0.699930    5.584890   -4.388270
  H      1.278040    4.055980   -4.668240
  H      1.085730    4.533580   -3.106520
  C     -1.703470    5.093200   -3.477400
  H     -0.995900    3.740390   -5.000650
  H     -0.643580    3.201910   -3.351530
  H     -1.737040    5.933840   -4.138530
  H     -1.403380    5.417590   -2.502910
  H     -2.673350    4.644790   -3.421080

 Total Charge           Charge          ....    0
 Multiplicity           Mult            ....    1
 Number of Electrons    NEL             ....   26
 Basis Dimension        Dim             ....  183

ORBITAL ENERGIES
----------------

  NO   OCC          E(Eh)            E(eV)
   0   2.0000     -10.259438      -279.1735
   1   2.0000     -10.250243      -278.9233
   2   2.0000     -10.231021      -278.4002
   3   2.0000      -0.908635       -24.7252
   4   2.0000      -0.804223       -21.8840
   5   2.0000      -0.694199       -18.8901
   6   2.0000      -0.571806       -15.5596
   7   2.0000      -0.545617       -14.8470
   8   2.0000      -0.499744       -13.5987
   9   2.0000      -0.488580       -13.2949
  10   2.0000      -0.429925       -11.6989
  11   2.0000      -0.427016       -11.6197
  12   2.0000      -0.418917       -11.3993
  13   0.0000       0.077669         2.1135
  14   0.0000       0.096647         2.6299
  15   0.0000       0.099083         2.6962
  16   0.0000       0.127957         3.4819
  17   0.0000       0.149948         4.0803

MULLIKEN ATOMIC CHARGES
-----------------------
   0 C :    0.017719
   1 C :   -1.340042
   2 H :    0.353906
   3 H :    0.355257
   4 H :    0.352744
   5 C :   -1.168551
   6 H :    0.262809
   7 H :    0.226939
   8 H :    0.316609
   9 H :    0.317059
  10 H :    0.305552
Sum of atomic charges:   -0.0000000

LOEWDIN ATOMIC CHARGES
----------------------
   0 C :   -0.319771
   1 C :   -0.129899
   2 H :    0.056163
   3 H :    0.052189
   4 H :    0.057454
   5 C :   -0.117903
   6 H :    0.102952
   7 H :    0.102982
   8 H :    0.066659
   9 H :    0.067838
  10 H :    0.061335

  Mayer bond orders larger than 0.100000
B(  0-C ,  1-C ) :   0.6095 B(  0-C ,  5-C ) :   0.6107 B(  0-C ,  6-H ) :   0.9592
B(  0-C ,  7-H ) :   0.9788 B(  1-C ,  2-H ) :   0.9085 B(  1-C ,  3-H ) :   0.9430
B(  1-C ,  4-H ) :   0.9544 B(  1-C ,  5-C ) :   0.2122 B(  5-C ,  8-H ) :   0.9712
B(  5-C ,  9-H ) :   0.9616 B(  5-C , 10-H ) :   0.9707

Dispersion correction           -0.001459471
FINAL SINGLE POINT ENERGY      -119.138891152178

DIPOLE MOMENT
-------------
                                X             Y             Z
Electronic contribution:     -0.13529      -0.30880      -0.13695
Nuclear contribution   :      0.16058       0.27975       0.12812
                        -----------------------------------------
Total Dipole Moment    :      0.02528      -0.02905      -0.00883
                        -----------------------------------------
Magnitude (a.u.)       :      0.03952
Magnitude (Debye)      :      0.10044

Rotational constants in cm-1:     1.027122     0.293327     0.260229
Rotational constants in MHz : 30792.337141  8793.723318  7801.458329

                             ****ORCA TERMINATED NORMALLY****
TOTAL RUN TIME: 0 days 0 hours 0 minutes 22 seconds 463 msec
