                         Program Version 5.0.0 -  RELEASE  -
|  1> !LC-PBE RIJCOSX def2-SVP def2/J TightSCF
|  2> *xyz -1 1
|  3> C         -1.10433        0.25137       -2.86006
|  4> C         -0.71189        0.84252       -4.21834
|  5> H          0.15463        1.49980       -4.13091
|  6> H         -1.53813        1.45922       -4.58267
|  7> C         -0.39762       -0.20587       -5.28802
|  8> O          0.61717       -0.00535       -5.99827
|  9> O         -1.13317       -1.22138       -5.34147
| 10> H         -1.95489       -0.38644       -2.98099
| 11> H         -1.34603        1.04362       -2.18269
| 12> H         -0.28606       -0.31581       -2.46809
| 13> *
| 14>
| 15> %MaxCore 64000
| 16>
| 17> %pal nprocs 4
| 18> end
| 19>
| 20> %scf
| 21>   MaxIter 150
| 22> end
| 23>
| 24>
| 25>                          ****END OF INPUT****

CARTESIAN COORDINATES (ANGSTROEM)
---------------------------------
  C     -1.104330    0.251370   -2.860060
  C     -0.711890    0.842520   -4.218340
  H      0.154630    1.499800   -4.130910
  H     -1.538130    1.459220   -4.582670
  C     -0.397620   -0.205870   -5.288020
  O      0.617170   -0.005350   -5.998270
  O     -1.133170   -1.221380   -5.341470
  H     -1.954890   -0.386440   -2.980990
  H     -1.346030    1.043620   -2.182690
  H     -0.286060   -0.315810   -2.468090

 Total Charge           Charge          ....   -1
 Multiplicity           Mult            ....    1
 Number of Electrons    NEL             ....   40
 Basis Dimension        Dim             ....   95

ORBITAL ENERGIES
----------------

  NO   OCC          E(Eh)            E(eV)
   0   2.0000     -18.686019      -508.4724
   1   2.0000     -18.684009      -508.4177
   2   2.0000      -9.985322      -271.7144
   3   2.0000      -9.955173      -270.8940
   4   2.0000      -9.937777      -270.4206
   5   2.0000      -0.946890       -25.7662
   6   2.0000      -0.842221       -22.9180
   7   2.0000      -0.764333       -20.7986
   8   2.0000      -0.621214       -16.9041
   9   2.0000      -0.451282       -12.2800
  10   2.0000      -0.428276       -11.6540
  11   2.0000      -0.381199       -10.3730
  12   2.0000      -0.353754        -9.6261
  13   2.0000      -0.337826        -9.1927
  14   2.0000      -0.324766        -8.8373
  15   2.0000      -0.291569        -7.9340
  16   2.0000      -0.277626        -7.5546
  17   2.0000      -0.143662        -3.9092
  18   2.0000      -0.142275        -3.8715
  19   2.0000      -0.129865        -3.5338
  20   0.0000       0.306041         8.3278
  21   0.0000       0.357986         9.7413
  22   0.0000       0.369220        10.0470
  23   0.0000       0.375626        10.2213
  24   0.0000       0.384132        10.4528

MULLIKEN ATOMIC CHARGES
-----------------------
   0 C :   -0.113856
   1 C :   -0.144814
   2 H :    0.009943
   3 H :    0.017413
   4 C :    0.013416
   5 O :   -0.427586
   6 O :   -0.430473
   7 H :    0.046654
   8 H :   -0.003775
   9 H :    0.033078
Sum of atomic charges:   -1.0000000

LOEWDIN ATOMIC CHARGES
----------------------
   0 C :   -0.098702
   1 C :   -0.122319
   2 H :    0.013453
   3 H :    0.020207
   4 C :   -0.061740
   5 O :   -0.400554
   6 O :   -0.403865
   7 H :    0.025764
   8 H :    0.005068
   9 H :    0.022689

  Mayer bond orders larger than 0.100000
B(  0-C ,  1-C ) :   1.0616 B(  0-C ,  7-H ) :   0.9661 B(  0-C ,  8-H ) :   0.9749
B(  0-C ,  9-H ) :   0.9805 B(  1-C ,  2-H ) :   0.9598 B(  1-C ,  3-H ) :   0.9539
B(  1-C ,  4-C ) :   0.9098 B(  4-C ,  5-O ) :   1.8986 B(  4-C ,  6-O ) :   1.8685
B(  5-O ,  6-O ) :   0.1062

FINAL SINGLE POINT ENERGY      -266.833865971377

DIPOLE MOMENT
-------------
                                X             Y             Z
Electronic contribution:      1.56500      -2.41180      -5.30350
Nuclear contribution   :     -2.09607       3.44215       6.87744
                        -----------------------------------------
Total Dipole Moment    :     -0.53107       1.03034       1.57394
                        -----------------------------------------
Magnitude (a.u.)       :      1.95471
Magnitude (Debye)      :      4.96849

Rotational constants in cm-1:     0.324698     0.133739     0.103466
Rotational constants in MHz :  9734.203431  4009.406827  3101.846422

                             ****ORCA TERMINATED NORMALLY****
TOTAL RUN TIME: 0 days 0 hours 0 minutes 11 seconds 246 msec
