                         Program Version 5.0.0 -  RELEASE  -
|  1> !LC-PBE RIJCOSX def2-SVP def2/J TightSCF
|  2> *xyz 1 1
|  3> C          2.23447       -2.98975       -2.39762
|  4> N          2.75680       -2.94555       -3.76503
|  5> C          1.98721       -2.59045       -4.81898
|  6> N          0.74322       -3.01749       -4.91352
|  7> N          2.49964       -1.84860       -5.80324
|  8> H          3.30978       -1.29282       -5.55895
|  9> H          1.80103       -1.30430       -6.28913
| 10> H          3.71612       -2.62880       -3.82953
| 11> H          0.39583       -3.62775       -4.18502
| 12> H          0.03920       -2.45438       -5.37137
| 13> C          2.19120       -1.61950       -1.71549
| 14> H          2.87278       -3.66637       -1.82801
| 15> H          1.24619       -3.44744       -2.40784
| 16> H          1.56387       -0.96046       -2.27853
| 17> H          3.18033       -1.21449       -1.66568
| 18> H          1.79916       -1.72608       -0.72562
| 19> *
| 20>
| 21> %MaxCore 64000
| 22>
| 23> %pal nprocs 4
| 24> end
| 25>
| 26> %scf
| 27>   MaxIter 150
| 28> end
| 29>
| 30>
| 31>                          ****END OF INPUT****

CARTESIAN COORDINATES (ANGSTROEM)
---------------------------------
  C      2.234470   -2.989750   -2.397620
  N      2.756800   -2.945550   -3.765030
  C      1.987210   -2.590450   -4.818980
  N      0.743220   -3.017490   -4.913520
  N      2.499640   -1.848600   -5.803240
  H      3.309780   -1.292820   -5.558950
  H      1.801030   -1.304300   -6.289130
  H      3.716120   -2.628800   -3.829530
  H      0.395830   -3.627750   -4.185020
  H      0.039200   -2.454380   -5.371370
  C      2.191200   -1.619500   -1.715490
  H      2.872780   -3.666370   -1.828010
  H      1.246190   -3.447440   -2.407840
  H      1.563870   -0.960460   -2.278530
  H      3.180330   -1.214490   -1.665680
  H      1.799160   -1.726080   -0.725620

 Total Charge           Charge          ....    1
 Multiplicity           Mult            ....    1
 Number of Electrons    NEL             ....   48
 Basis Dimension        Dim             ....  134

ORBITAL ENERGIES
----------------

  NO   OCC          E(Eh)            E(eV)
   0   2.0000     -14.459601      -393.4658
   1   2.0000     -14.454968      -393.3397
   2   2.0000     -14.452593      -393.2751
   3   2.0000     -10.476205      -285.0720
   4   2.0000     -10.336110      -281.2599
   5   2.0000     -10.266861      -279.3755
   6   2.0000      -1.395918       -37.9849
   7   2.0000      -1.273034       -34.6410
   8   2.0000      -1.265412       -34.4336
   9   2.0000      -1.097868       -29.8745
  10   2.0000      -0.999327       -27.1931
  11   2.0000      -0.962468       -26.1901
  12   2.0000      -0.940015       -25.5791
  13   2.0000      -0.891042       -24.2465
  14   2.0000      -0.849894       -23.1268
  15   2.0000      -0.827503       -22.5175
  16   2.0000      -0.797228       -21.6937
  17   2.0000      -0.768393       -20.9090
  18   2.0000      -0.745096       -20.2751
  19   2.0000      -0.710070       -19.3220
  20   2.0000      -0.668905       -18.2018
  21   2.0000      -0.646714       -17.5980
  22   2.0000      -0.621932       -16.9236
  23   2.0000      -0.579155       -15.7596
  24   0.0000      -0.094729        -2.5777
  25   0.0000      -0.044372        -1.2074
  26   0.0000      -0.011741        -0.3195
  27   0.0000       0.002521         0.0686
  28   0.0000       0.022556         0.6138

MULLIKEN ATOMIC CHARGES
-----------------------
   0 C :   -0.095685
   1 N :   -0.181392
   2 C :    0.085602
   3 N :   -0.093031
   4 N :   -0.076353
   5 H :    0.193577
   6 H :    0.194733
   7 H :    0.191352
   8 H :    0.202303
   9 H :    0.206367
  10 C :   -0.134449
  11 H :    0.131052
  12 H :    0.094327
  13 H :    0.071330
  14 H :    0.091415
  15 H :    0.118853
Sum of atomic charges:    1.0000000

LOEWDIN ATOMIC CHARGES
----------------------
   0 C :    0.013934
   1 N :    0.002215
   2 C :    0.157011
   3 N :    0.047100
   4 N :    0.031692
   5 H :    0.115591
   6 H :    0.117673
   7 H :    0.110270
   8 H :    0.117739
   9 H :    0.122363
  10 C :   -0.085209
  11 H :    0.061923
  12 H :    0.041664
  13 H :    0.036809
  14 H :    0.046002
  15 H :    0.063222

  Mayer bond orders larger than 0.100000
B(  0-C ,  1-N ) :   0.9300 B(  0-C , 10-C ) :   1.0619 B(  0-C , 11-H ) :   0.9517
B(  0-C , 12-H ) :   0.9628 B(  1-N ,  2-C ) :   1.3551 B(  1-N ,  7-H ) :   0.9105
B(  2-C ,  3-N ) :   1.4169 B(  2-C ,  4-N ) :   1.3846 B(  3-N ,  8-H ) :   0.9206
B(  3-N ,  9-H ) :   0.9212 B(  4-N ,  5-H ) :   0.9245 B(  4-N ,  6-H ) :   0.9252
B( 10-C , 13-H ) :   0.9716 B( 10-C , 14-H ) :   0.9709 B( 10-C , 15-H ) :   0.9631

FINAL SINGLE POINT ENERGY      -283.281064614351

DIPOLE MOMENT
-------------
                                X             Y             Z
Electronic contribution:      0.14819      -1.60392      -5.23705
Nuclear contribution   :     -0.59121       2.30298       4.63196
                        -----------------------------------------
Total Dipole Moment    :     -0.44301       0.69906      -0.60509
                        -----------------------------------------
Magnitude (a.u.)       :      1.02522
Magnitude (Debye)      :      2.60591

Rotational constants in cm-1:     0.205874     0.074757     0.066901
Rotational constants in MHz :  6171.937773  2241.151057  2005.629823

                             ****ORCA TERMINATED NORMALLY****
TOTAL RUN TIME: 0 days 0 hours 0 minutes 20 seconds 578 msec
