                         Program Version 5.0.0 -  RELEASE  -
|  1> !LC-PBE RIJCOSX def2-TZVP def2/J TightSCF xyzfile
|  2>
|  3> *xyzfile 0 1 B.xyz
|  4>
|  5> %MaxCore 64000
|  6>
|  7> %pal nprocs 18
|  8> end
|  9>
| 10> %scf
| 11>   MaxIter 150
| 12> end
| 13>
| 14>
| 15>                          ****END OF INPUT****

CARTESIAN COORDINATES (ANGSTROEM)
---------------------------------
  C      2.234473   -2.989754   -2.397622
  N      2.756799   -2.945553   -3.765029
  C     -1.104325    0.251374   -2.860056
  C     -0.711893    0.842517   -4.218344
  H      0.154626    1.499800   -4.130909
  H     -1.538134    1.459222   -4.582671
  C     -0.397624   -0.205875   -5.288018
  C      1.987208   -2.590451   -4.818975
  N      0.743221   -3.017493   -4.913524
  N      2.499636   -1.848598   -5.803241
  H      3.309780   -1.292818   -5.558947
  H      1.801025   -1.304298   -6.289129
  H      3.716116   -2.628797   -3.829533
  H      0.395828   -3.627747   -4.185024
  H      0.039201   -2.454383   -5.371367
  O      0.617165   -0.005348   -5.998273
  O     -1.133173   -1.221380   -5.341465
  C      2.191199   -1.619503   -1.715492
  H      2.872783   -3.666368   -1.828014
  H      1.246188   -3.447444   -2.407842
  C      1.298729   -0.554314   -2.359773
  H      1.872917   -1.787955   -0.681310
  H      3.216809   -1.238432   -1.654428
  C     -0.196255   -0.863365   -2.325763
  H      1.612531   -0.371346   -3.393065
  H      1.480944    0.388638   -1.834444
  H     -0.404105   -1.761825   -2.909448
  H     -0.490439   -1.087880   -1.294131
  H     -1.143842    1.066711   -2.129680
  H     -2.114401   -0.156834   -2.930323

 Total Charge           Charge          ....    0
 Multiplicity           Mult            ....    1
 Number of Electrons    NEL             ....  102
 Basis Dimension        Dim             ....  505

ORBITAL ENERGIES
----------------

  NO   OCC          E(Eh)            E(eV)
   0   2.0000     -18.890949      -514.0488
   1   2.0000     -18.889205      -514.0014
   2   2.0000     -14.286097      -388.7445
   3   2.0000     -14.253145      -387.8478
   4   2.0000     -14.252143      -387.8205
   5   2.0000     -10.291470      -280.0451
   6   2.0000     -10.192095      -277.3410
   7   2.0000     -10.178117      -276.9606
   8   2.0000     -10.140923      -275.9486
   9   2.0000     -10.120495      -275.3927
  10   2.0000     -10.106575      -275.0139
  11   2.0000     -10.097272      -274.7607
  12   2.0000     -10.083774      -274.3934
  13   2.0000      -1.231480       -33.5103
  14   2.0000      -1.175267       -31.9806
  15   2.0000      -1.118348       -30.4318
  16   2.0000      -1.094164       -29.7737
  17   2.0000      -1.068950       -29.0876
  18   2.0000      -1.001008       -27.2388
  19   2.0000      -0.955046       -25.9881
  20   2.0000      -0.897882       -24.4326
  21   2.0000      -0.849449       -23.1147
  22   2.0000      -0.813888       -22.1470
  23   2.0000      -0.783399       -21.3174
  24   2.0000      -0.767853       -20.8943
  25   2.0000      -0.736632       -20.0448
  26   2.0000      -0.709893       -19.3172
  27   2.0000      -0.686571       -18.6826
  28   2.0000      -0.658176       -17.9099
  29   2.0000      -0.644904       -17.5487
  30   2.0000      -0.627931       -17.0869
  31   2.0000      -0.618190       -16.8218
  32   2.0000      -0.610305       -16.6072
  33   2.0000      -0.596057       -16.2195
  34   2.0000      -0.582967       -15.8633
  35   2.0000      -0.569216       -15.4891
  36   2.0000      -0.553286       -15.0557
  37   2.0000      -0.550642       -14.9837
  38   2.0000      -0.529041       -14.3959
  39   2.0000      -0.520178       -14.1548
  40   2.0000      -0.503677       -13.7057
  41   2.0000      -0.490555       -13.3487
  42   2.0000      -0.477928       -13.0051
  43   2.0000      -0.458145       -12.4668
  44   2.0000      -0.444522       -12.0961
  45   2.0000      -0.437421       -11.9028
  46   2.0000      -0.431709       -11.7474
  47   2.0000      -0.423109       -11.5134
  48   2.0000      -0.359158        -9.7732
  49   2.0000      -0.349562        -9.5121
  50   2.0000      -0.347468        -9.4551
  51   0.0000       0.070467         1.9175
  52   0.0000       0.077584         2.1112
  53   0.0000       0.102845         2.7986
  54   0.0000       0.117082         3.1860
  55   0.0000       0.131515         3.5787

MULLIKEN ATOMIC CHARGES
-----------------------
   0 C :   -0.310489
   1 N :   -0.239370
   2 C :   -0.253293
   3 C :   -0.306728
   4 H :    0.154716
   5 H :    0.154051
   6 C :    0.204031
   7 C :    0.208249
   8 N :   -0.345940
   9 N :   -0.344074
  10 H :    0.253093
  11 H :    0.308649
  12 H :    0.246430
  13 H :    0.261409
  14 H :    0.310480
  15 O :   -0.516288
  16 O :   -0.483426
  17 C :   -0.279940
  18 H :    0.191453
  19 H :    0.179343
  20 C :   -0.321912
  21 H :    0.161947
  22 H :    0.162176
  23 C :   -0.312658
  24 H :    0.177849
  25 H :    0.166015
  26 H :    0.131467
  27 H :    0.146782
  28 H :    0.140025
  29 H :    0.155954
Sum of atomic charges:    0.0000000

LOEWDIN ATOMIC CHARGES
----------------------
   0 C :   -0.294581
   1 N :    0.124867
   2 C :   -0.282098
   3 C :   -0.261633
   4 H :    0.145392
   5 H :    0.154555
   6 C :   -0.666453
   7 C :   -0.434029
   8 N :    0.085272
   9 N :    0.040014
  10 H :    0.182853
  11 H :    0.179349
  12 H :    0.199340
  13 H :    0.184167
  14 H :    0.171938
  15 O :   -0.073398
  16 O :   -0.061717
  17 C :   -0.287709
  18 H :    0.147659
  19 H :    0.142715
  20 C :   -0.283748
  21 H :    0.154069
  22 H :    0.145566
  23 C :   -0.289789
  24 H :    0.151845
  25 H :    0.151726
  26 H :    0.139279
  27 H :    0.142382
  28 H :    0.141025
  29 H :    0.151142

  Mayer bond orders larger than 0.100000
B(  0-C ,  1-N ) :   0.8724 B(  0-C , 17-C ) :   0.9300 B(  0-C , 18-H ) :   0.9804
B(  0-C , 19-H ) :   0.9895 B(  1-N ,  7-C ) :   1.2884 B(  1-N , 12-H ) :   0.9143
B(  2-C ,  3-C ) :   0.9204 B(  2-C , 23-C ) :   0.9706 B(  2-C , 28-H ) :   0.9808
B(  2-C , 29-H ) :   0.9740 B(  3-C ,  4-H ) :   0.9777 B(  3-C ,  5-H ) :   0.9604
B(  3-C ,  6-C ) :   0.9416 B(  6-C , 15-O ) :   1.7441 B(  6-C , 16-O ) :   1.7524
B(  7-C ,  8-N ) :   1.4159 B(  7-C ,  9-N ) :   1.3738 B(  8-N , 13-H ) :   0.9119
B(  8-N , 14-H ) :   0.7717 B(  9-N , 10-H ) :   0.9127 B(  9-N , 11-H ) :   0.8087
B( 11-H , 15-O ) :   0.1261 B( 14-H , 16-O ) :   0.1696 B( 17-C , 20-C ) :   0.9388
B( 17-C , 21-H ) :   0.9791 B( 17-C , 22-H ) :   0.9854 B( 20-C , 23-C ) :   0.8854
B( 20-C , 24-H ) :   0.9505 B( 20-C , 25-H ) :   0.9723 B( 23-C , 26-H ) :   0.9785
B( 23-C , 27-H ) :   0.9751

FINAL SINGLE POINT ENERGY      -628.115899246603

DIPOLE MOMENT
-------------
                                X             Y             Z
Electronic contribution:      0.63596      -2.83088     -10.16183
Nuclear contribution   :      1.76912       1.50070      12.36652
                        -----------------------------------------
Total Dipole Moment    :      2.40508      -1.33018       2.20470
                        -----------------------------------------
Magnitude (a.u.)       :      3.52342
Magnitude (Debye)      :      8.95581

Rotational constants in cm-1:     0.033272     0.023886     0.017112
Rotational constants in MHz :   997.469575   716.074432   513.001395

                             ****ORCA TERMINATED NORMALLY****
TOTAL RUN TIME: 0 days 0 hours 1 minutes 4 seconds 199 msec
