                         Program Version 5.0.0 -  RELEASE  -
|  1> !LC-PBE RIJCOSX def2-SVP def2/J TightSCF
|  2> *xyz 0 1
|  3> C         -1.10433        0.25137       -2.86006
|  4> C         -0.71189        0.84252       -4.21834
|  5> H          0.15463        1.49980       -4.13091
|  6> H         -1.53813        1.45922       -4.58267
|  7> C         -0.39762       -0.20587       -5.28802
|  8> F          0.61717       -0.00535       -5.99827
|  9> O         -1.13317       -1.22138       -5.34147
| 10> H         -1.95489       -0.38644       -2.98099
| 11> H         -1.34603        1.04362       -2.18269
| 12> H         -0.28606       -0.31581       -2.46809
| 13> *
| 14>
| 15> %MaxCore 64000
| 16>
| 17> %pal nprocs 4
| 18> end
| 19>
| 20> %scf
| 21>   MaxIter 150
| 22> end
| 23>
| 24>
| 25>                          ****END OF INPUT****

CARTESIAN COORDINATES (ANGSTROEM)
---------------------------------
  C     -1.104330    0.251370   -2.860060
  C     -0.711890    0.842520   -4.218340
  H      0.154630    1.499800   -4.130910
  H     -1.538130    1.459220   -4.582670
  C     -0.397620   -0.205870   -5.288020
  F      0.617170   -0.005350   -5.998270
  O     -1.133170   -1.221380   -5.341470
  H     -1.954890   -0.386440   -2.980990
  H     -1.346030    1.043620   -2.182690
  H     -0.286060   -0.315810   -2.468090

 Total Charge           Charge          ....    0
 Multiplicity           Mult            ....    1
 Number of Electrons    NEL             ....   40
 Basis Dimension        Dim             ....   95

ORBITAL ENERGIES
----------------

  NO   OCC          E(Eh)            E(eV)
   0   2.0000     -24.564606      -668.4369
   1   2.0000     -18.988882      -516.7137
   2   2.0000     -10.306181      -280.4455
   3   2.0000     -10.157063      -276.3877
   4   2.0000     -10.128201      -275.6024
   5   2.0000      -1.456636       -39.6371
   6   2.0000      -1.183409       -32.2022
   7   2.0000      -0.969947       -26.3936
   8   2.0000      -0.846585       -23.0367
   9   2.0000      -0.787331       -21.4244
  10   2.0000      -0.701502       -19.0888
  11   2.0000      -0.684953       -18.6385
  12   2.0000      -0.650087       -17.6898
  13   2.0000      -0.608326       -16.5534
  14   2.0000      -0.571784       -15.5590
  15   2.0000      -0.531369       -14.4593
  16   2.0000      -0.508760       -13.8441
  17   2.0000      -0.505808       -13.7637
  18   2.0000      -0.477053       -12.9813
  19   2.0000      -0.424463       -11.5502
  20   0.0000       0.079317         2.1583
  21   0.0000       0.152425         4.1477
  22   0.0000       0.198406         5.3989
  23   0.0000       0.206009         5.6058
  24   0.0000       0.223254         6.0751

MULLIKEN ATOMIC CHARGES
-----------------------
   0 C :   -0.126857
   1 C :   -0.223472
   2 H :    0.082265
   3 H :    0.111667
   4 C :    0.225911
   5 F :   -0.055501
   6 O :   -0.247782
   7 H :    0.091681
   8 H :    0.069887
   9 H :    0.072201
Sum of atomic charges:   -0.0000000

LOEWDIN ATOMIC CHARGES
----------------------
   0 C :   -0.074390
   1 C :   -0.105013
   2 H :    0.042753
   3 H :    0.063905
   4 C :    0.092987
   5 F :    0.053923
   6 O :   -0.197234
   7 H :    0.044727
   8 H :    0.039471
   9 H :    0.038871

  Mayer bond orders larger than 0.100000
B(  0-C ,  1-C ) :   1.0686 B(  0-C ,  7-H ) :   0.9683 B(  0-C ,  8-H ) :   0.9731
B(  0-C ,  9-H ) :   0.9809 B(  1-C ,  2-H ) :   0.9513 B(  1-C ,  3-H ) :   0.9355
B(  1-C ,  4-C ) :   0.9802 B(  4-C ,  5-F ) :   1.2333 B(  4-C ,  6-O ) :   2.1016

FINAL SINGLE POINT ENERGY      -291.359738933064

DIPOLE MOMENT
-------------
                                X             Y             Z
Electronic contribution:      3.60385      -2.36892      -7.75002
Nuclear contribution   :     -3.36368       3.36392       8.24820
                        -----------------------------------------
Total Dipole Moment    :      0.24017       0.99500       0.49817
                        -----------------------------------------
Magnitude (a.u.)       :      1.13837
Magnitude (Debye)      :      2.89350

Rotational constants in cm-1:     0.315013     0.126712     0.098430
Rotational constants in MHz :  9443.861322  3798.734540  2950.846388

                             ****ORCA TERMINATED NORMALLY****
TOTAL RUN TIME: 0 days 0 hours 0 minutes 11 seconds 434 msec
