                         Program Version 5.0.0 -  RELEASE  -
|  1> !LC-PBE RIJCOSX def2-SVP def2/J TightSCF
|  2> *xyz 0 1
|  3> C          2.23447       -2.98975       -2.39762
|  4> C          2.75680       -2.94555       -3.76503
|  5> C          1.98721       -2.59045       -4.81898
|  6> N          0.74322       -3.01749       -4.91352
|  7> N          2.49964       -1.84860       -5.80324
|  8> H          3.30978       -1.29282       -5.55895
|  9> H          1.80103       -1.30430       -6.28913
| 10> H          3.71612       -2.62880       -3.82953
| 11> H          0.39583       -3.62775       -4.18502
| 12> H          0.03920       -2.45438       -5.37137
| 13> C          2.19120       -1.61950       -1.71549
| 14> H          2.87278       -3.66637       -1.82801
| 15> H          1.24619       -3.44744       -2.40784
| 16> H          1.56387       -0.96046       -2.27853
| 17> H          3.18033       -1.21449       -1.66568
| 18> H          1.79916       -1.72608       -0.72562
| 19> *
| 20>
| 21> %MaxCore 64000
| 22>
| 23> %pal nprocs 4
| 24> end
| 25>
| 26> %scf
| 27>   MaxIter 150
| 28> end
| 29>
| 30>
| 31>                          ****END OF INPUT****

CARTESIAN COORDINATES (ANGSTROEM)
---------------------------------
  C      2.234470   -2.989750   -2.397620
  C      2.756800   -2.945550   -3.765030
  C      1.987210   -2.590450   -4.818980
  N      0.743220   -3.017490   -4.913520
  N      2.499640   -1.848600   -5.803240
  H      3.309780   -1.292820   -5.558950
  H      1.801030   -1.304300   -6.289130
  H      3.716120   -2.628800   -3.829530
  H      0.395830   -3.627750   -4.185020
  H      0.039200   -2.454380   -5.371370
  C      2.191200   -1.619500   -1.715490
  H      2.872780   -3.666370   -1.828010
  H      1.246190   -3.447440   -2.407840
  H      1.563870   -0.960460   -2.278530
  H      3.180330   -1.214490   -1.665680
  H      1.799160   -1.726080   -0.725620

 Total Charge           Charge          ....    0
 Multiplicity           Mult            ....    1
 Number of Electrons    NEL             ....   48
 Basis Dimension        Dim             ....  134

ORBITAL ENERGIES
----------------

  NO   OCC          E(Eh)            E(eV)
   0   2.0000     -14.228495      -387.1770
   1   2.0000     -14.222369      -387.0103
   2   2.0000     -10.175242      -276.8824
   3   2.0000     -10.099918      -274.8327
   4   2.0000     -10.091936      -274.6155
   5   2.0000     -10.043053      -273.2854
   6   2.0000      -1.135484       -30.8981
   7   2.0000      -1.034035       -28.1375
   8   2.0000      -0.941686       -25.6246
   9   2.0000      -0.850353       -23.1393
  10   2.0000      -0.770225       -20.9589
  11   2.0000      -0.728124       -19.8132
  12   2.0000      -0.687847       -18.7173
  13   2.0000      -0.649273       -17.6676
  14   2.0000      -0.604437       -16.4476
  15   2.0000      -0.593385       -16.1468
  16   2.0000      -0.550929       -14.9915
  17   2.0000      -0.533180       -14.5086
  18   2.0000      -0.505742       -13.7619
  19   2.0000      -0.492599       -13.4043
  20   2.0000      -0.453402       -12.3377
  21   2.0000      -0.443546       -12.0695
  22   2.0000      -0.403920       -10.9912
  23   2.0000      -0.268436        -7.3045
  24   0.0000       0.130110         3.5405
  25   0.0000       0.161547         4.3959
  26   0.0000       0.179269         4.8782
  27   0.0000       0.181663         4.9433
  28   0.0000       0.200803         5.4641

MULLIKEN ATOMIC CHARGES
-----------------------
   0 C :   -0.118540
   1 C :   -0.188262
   2 C :   -0.061008
   3 N :   -0.133778
   4 N :   -0.125256
   5 H :    0.147476
   6 H :    0.125208
   7 H :   -0.042730
   8 H :    0.151146
   9 H :    0.133648
  10 C :   -0.080811
  11 H :    0.049484
  12 H :    0.015906
  13 H :    0.035520
  14 H :    0.044692
  15 H :    0.047305
Sum of atomic charges:    0.0000000

LOEWDIN ATOMIC CHARGES
----------------------
   0 C :   -0.066442
   1 C :   -0.250720
   2 C :    0.024823
   3 N :   -0.026403
   4 N :   -0.038704
   5 H :    0.087130
   6 H :    0.072158
   7 H :   -0.003990
   8 H :    0.088907
   9 H :    0.073995
  10 C :   -0.090069
  11 H :    0.031534
  12 H :    0.017153
  13 H :    0.024184
  14 H :    0.029470
  15 H :    0.026973

  Mayer bond orders larger than 0.100000
B(  0-C ,  1-C ) :   1.0741 B(  0-C , 10-C ) :   1.0583 B(  0-C , 11-H ) :   0.9501
B(  0-C , 12-H ) :   0.9624 B(  1-C ,  2-C ) :   1.6885 B(  1-C ,  7-H ) :   0.9493
B(  2-C ,  3-N ) :   1.2573 B(  2-C ,  4-N ) :   1.2079 B(  3-N ,  8-H ) :   0.9464
B(  3-N ,  9-H ) :   0.9464 B(  4-N ,  5-H ) :   0.9459 B(  4-N ,  6-H ) :   0.9565
B( 10-C , 13-H ) :   0.9776 B( 10-C , 14-H ) :   0.9750 B( 10-C , 15-H ) :   0.9730

FINAL SINGLE POINT ENERGY      -266.830172171751

DIPOLE MOMENT
-------------
                                X             Y             Z
Electronic contribution:     -0.43523      -1.29564      -5.08022
Nuclear contribution   :     -0.44240       2.20379       4.66256
                        -----------------------------------------
Total Dipole Moment    :     -0.87763       0.90815      -0.41765
                        -----------------------------------------
Magnitude (a.u.)       :      1.33019
Magnitude (Debye)      :      3.38107

Rotational constants in cm-1:     0.209447     0.075194     0.066975
Rotational constants in MHz :  6279.068019  2254.272519  2007.845458

                             ****ORCA TERMINATED NORMALLY****
TOTAL RUN TIME: 0 days 0 hours 0 minutes 22 seconds 195 msec
