                         Program Version 5.0.0 -  RELEASE  -
|  1> !LC-PBE RIJCOSX def2-SVP def2/J TightSCF
|  2> *xyz 0 1
|  3> C         -1.10433        0.25137       -2.86006
|  4> C         -0.71189        0.84252       -4.21834
|  5> H          0.15463        1.49980       -4.13091
|  6> H         -1.53813        1.45922       -4.58267
|  7> C         -0.39762       -0.20587       -5.28802
|  8> O          0.61717       -0.00535       -5.99827
|  9> F         -1.13317       -1.22138       -5.34147
| 10> H         -1.95489       -0.38644       -2.98099
| 11> H         -1.34603        1.04362       -2.18269
| 12> H         -0.28606       -0.31581       -2.46809
| 13> *
| 14>
| 15> %MaxCore 64000
| 16>
| 17> %pal nprocs 4
| 18> end
| 19>
| 20> %scf
| 21>   MaxIter 150
| 22> end
| 23>
| 24>
| 25>                          ****END OF INPUT****

CARTESIAN COORDINATES (ANGSTROEM)
---------------------------------
  C     -1.104330    0.251370   -2.860060
  C     -0.711890    0.842520   -4.218340
  H      0.154630    1.499800   -4.130910
  H     -1.538130    1.459220   -4.582670
  C     -0.397620   -0.205870   -5.288020
  O      0.617170   -0.005350   -5.998270
  F     -1.133170   -1.221380   -5.341470
  H     -1.954890   -0.386440   -2.980990
  H     -1.346030    1.043620   -2.182690
  H     -0.286060   -0.315810   -2.468090

 Total Charge           Charge          ....    0
 Multiplicity           Mult            ....    1
 Number of Electrons    NEL             ....   40
 Basis Dimension        Dim             ....   95

ORBITAL ENERGIES
----------------

  NO   OCC          E(Eh)            E(eV)
   0   2.0000     -24.565878      -668.4715
   1   2.0000     -18.987132      -516.6661
   2   2.0000     -10.305113      -280.4164
   3   2.0000     -10.155971      -276.3580
   4   2.0000     -10.134232      -275.7665
   5   2.0000      -1.457239       -39.6535
   6   2.0000      -1.181931       -32.1620
   7   2.0000      -0.974590       -26.5199
   8   2.0000      -0.840929       -22.8828
   9   2.0000      -0.795106       -21.6359
  10   2.0000      -0.703692       -19.1484
  11   2.0000      -0.692683       -18.8489
  12   2.0000      -0.638927       -17.3861
  13   2.0000      -0.609076       -16.5738
  14   2.0000      -0.572466       -15.5776
  15   2.0000      -0.537895       -14.6369
  16   2.0000      -0.518332       -14.1045
  17   2.0000      -0.509037       -13.8516
  18   2.0000      -0.477104       -12.9827
  19   2.0000      -0.419133       -11.4052
  20   0.0000       0.082114         2.2344
  21   0.0000       0.147249         4.0068
  22   0.0000       0.196231         5.3397
  23   0.0000       0.206986         5.6324
  24   0.0000       0.223008         6.0683

MULLIKEN ATOMIC CHARGES
-----------------------
   0 C :   -0.151461
   1 C :   -0.217861
   2 H :    0.108756
   3 H :    0.104305
   4 C :    0.226151
   5 O :   -0.244212
   6 F :   -0.057641
   7 H :    0.076096
   8 H :    0.077167
   9 H :    0.078700
Sum of atomic charges:   -0.0000000

LOEWDIN ATOMIC CHARGES
----------------------
   0 C :   -0.086095
   1 C :   -0.100523
   2 H :    0.059015
   3 H :    0.058289
   4 C :    0.091676
   5 O :   -0.194633
   6 F :    0.053195
   7 H :    0.037049
   8 H :    0.042578
   9 H :    0.039449

  Mayer bond orders larger than 0.100000
B(  0-C ,  1-C ) :   1.0464 B(  0-C ,  7-H ) :   0.9737 B(  0-C ,  8-H ) :   0.9723
B(  0-C ,  9-H ) :   0.9795 B(  1-C ,  2-H ) :   0.9566 B(  1-C ,  3-H ) :   0.9400
B(  1-C ,  4-C ) :   0.9876 B(  4-C ,  5-O ) :   2.1176 B(  4-C ,  6-F ) :   1.2221

FINAL SINGLE POINT ENERGY      -291.358665379512

DIPOLE MOMENT
-------------
                                X             Y             Z
Electronic contribution:      0.68731      -4.38649      -6.63305
Nuclear contribution   :     -1.45527       4.68977       7.53208
                        -----------------------------------------
Total Dipole Moment    :     -0.76796       0.30328       0.89902
                        -----------------------------------------
Magnitude (a.u.)       :      1.22065
Magnitude (Debye)      :      3.10264

Rotational constants in cm-1:     0.298240     0.132464     0.099915
Rotational constants in MHz :  8940.998095  3971.171647  2995.369122

                             ****ORCA TERMINATED NORMALLY****
TOTAL RUN TIME: 0 days 0 hours 0 minutes 11 seconds 527 msec
