                         Program Version 5.0.0 -  RELEASE  -
|  1> !LC-PBE RIJCOSX def2-SVP def2/J TightSCF
|  2> *xyz 0 1
|  3> C          2.23447       -2.98975       -2.39762
|  4> N          2.75680       -2.94555       -3.76503
|  5> C          1.98721       -2.59045       -4.81898
|  6> C          0.74322       -3.01749       -4.91352
|  7> N          2.49964       -1.84860       -5.80324
|  8> H          3.30978       -1.29282       -5.55895
|  9> H          1.80103       -1.30430       -6.28913
| 10> H          3.71612       -2.62880       -3.82953
| 11> H          0.39583       -3.62775       -4.18502
| 12> H          0.03920       -2.45438       -5.37137
| 13> C          2.19120       -1.61950       -1.71549
| 14> H          2.87278       -3.66637       -1.82801
| 15> H          1.24619       -3.44744       -2.40784
| 16> H          1.56387       -0.96046       -2.27853
| 17> H          3.18033       -1.21449       -1.66568
| 18> H          1.79916       -1.72608       -0.72562
| 19> *
| 20>
| 21> %MaxCore 64000
| 22>
| 23> %pal nprocs 4
| 24> end
| 25>
| 26> %scf
| 27>   MaxIter 150
| 28> end
| 29>
| 30>
| 31>                          ****END OF INPUT****

CARTESIAN COORDINATES (ANGSTROEM)
---------------------------------
  C      2.234470   -2.989750   -2.397620
  N      2.756800   -2.945550   -3.765030
  C      1.987210   -2.590450   -4.818980
  C      0.743220   -3.017490   -4.913520
  N      2.499640   -1.848600   -5.803240
  H      3.309780   -1.292820   -5.558950
  H      1.801030   -1.304300   -6.289130
  H      3.716120   -2.628800   -3.829530
  H      0.395830   -3.627750   -4.185020
  H      0.039200   -2.454380   -5.371370
  C      2.191200   -1.619500   -1.715490
  H      2.872780   -3.666370   -1.828010
  H      1.246190   -3.447440   -2.407840
  H      1.563870   -0.960460   -2.278530
  H      3.180330   -1.214490   -1.665680
  H      1.799160   -1.726080   -0.725620

 Total Charge           Charge          ....    0
 Multiplicity           Mult            ....    1
 Number of Electrons    NEL             ....   48
 Basis Dimension        Dim             ....  134

ORBITAL ENERGIES
----------------

  NO   OCC          E(Eh)            E(eV)
   0   2.0000     -14.224855      -387.0780
   1   2.0000     -14.221445      -386.9852
   2   2.0000     -10.172313      -276.8027
   3   2.0000     -10.156691      -276.3776
   4   2.0000     -10.114260      -275.2230
   5   2.0000     -10.037681      -273.1392
   6   2.0000      -1.134092       -30.8602
   7   2.0000      -1.047981       -28.5170
   8   2.0000      -0.920822       -25.0568
   9   2.0000      -0.873605       -23.7720
  10   2.0000      -0.796301       -21.6684
  11   2.0000      -0.708042       -19.2668
  12   2.0000      -0.689978       -18.7752
  13   2.0000      -0.653951       -17.7949
  14   2.0000      -0.604372       -16.4458
  15   2.0000      -0.587128       -15.9766
  16   2.0000      -0.556962       -15.1557
  17   2.0000      -0.530515       -14.4360
  18   2.0000      -0.528036       -14.3686
  19   2.0000      -0.500963       -13.6319
  20   2.0000      -0.491521       -13.3750
  21   2.0000      -0.475097       -12.9280
  22   2.0000      -0.378213       -10.2917
  23   2.0000      -0.288378        -7.8472
  24   0.0000       0.135618         3.6903
  25   0.0000       0.160878         4.3777
  26   0.0000       0.174573         4.7504
  27   0.0000       0.187995         5.1156
  28   0.0000       0.205339         5.5876

MULLIKEN ATOMIC CHARGES
-----------------------
   0 C :   -0.034093
   1 N :   -0.226139
   2 C :    0.006999
   3 C :   -0.202043
   4 N :   -0.135011
   5 H :    0.118444
   6 H :    0.147776
   7 H :    0.126182
   8 H :   -0.000007
   9 H :   -0.000424
  10 C :   -0.130303
  11 H :    0.064896
  12 H :    0.083317
  13 H :    0.067666
  14 H :    0.049230
  15 H :    0.063510
Sum of atomic charges:   -0.0000000

LOEWDIN ATOMIC CHARGES
----------------------
   0 C :    0.013163
   1 N :   -0.053291
   2 C :    0.033993
   3 C :   -0.259014
   4 N :   -0.043100
   5 H :    0.066638
   6 H :    0.089960
   7 H :    0.068898
   8 H :    0.003833
   9 H :    0.003947
  10 C :   -0.100426
  11 H :    0.032008
  12 H :    0.041164
  13 H :    0.036279
  14 H :    0.028030
  15 H :    0.037920

  Mayer bond orders larger than 0.100000
B(  0-C ,  1-N ) :   0.9954 B(  0-C , 10-C ) :   1.0702 B(  0-C , 11-H ) :   0.9670
B(  0-C , 12-H ) :   0.9607 B(  1-N ,  2-C ) :   1.1534 B(  1-N ,  7-H ) :   0.9423
B(  2-C ,  3-C ) :   1.7795 B(  2-C ,  4-N ) :   1.2026 B(  3-C ,  8-H ) :   0.9585
B(  3-C ,  9-H ) :   0.9604 B(  4-N ,  5-H ) :   0.9515 B(  4-N ,  6-H ) :   0.9474
B( 10-C , 13-H ) :   0.9717 B( 10-C , 14-H ) :   0.9750 B( 10-C , 15-H ) :   0.9707

FINAL SINGLE POINT ENERGY      -266.824130586261

DIPOLE MOMENT
-------------
                                X             Y             Z
Electronic contribution:      1.56548      -1.14643      -3.85084
Nuclear contribution   :     -0.86957       2.18853       4.41892
                        -----------------------------------------
Total Dipole Moment    :      0.69591       1.04210       0.56808
                        -----------------------------------------
Magnitude (a.u.)       :      1.37586
Magnitude (Debye)      :      3.49715

Rotational constants in cm-1:     0.214718     0.075736     0.068547
Rotational constants in MHz :  6437.075121  2270.519635  2054.974198

                             ****ORCA TERMINATED NORMALLY****
TOTAL RUN TIME: 0 days 0 hours 0 minutes 23 seconds 216 msec
