                         Program Version 5.0.0 -  RELEASE  -
|  1> !LC-PBE RIJCOSX def2-SVP def2/J TightSCF
|  2> *xyz 0 1
|  3> C          2.23447       -2.98975       -2.39762
|  4> N          2.75680       -2.94555       -3.76503
|  5> C          1.98721       -2.59045       -4.81898
|  6> N          0.74322       -3.01749       -4.91352
|  7> C          2.49964       -1.84860       -5.80324
|  8> H          3.30978       -1.29282       -5.55895
|  9> H          1.80103       -1.30430       -6.28913
| 10> H          3.71612       -2.62880       -3.82953
| 11> H          0.39583       -3.62775       -4.18502
| 12> H          0.03920       -2.45438       -5.37137
| 13> C          2.19120       -1.61950       -1.71549
| 14> H          2.87278       -3.66637       -1.82801
| 15> H          1.24619       -3.44744       -2.40784
| 16> H          1.56387       -0.96046       -2.27853
| 17> H          3.18033       -1.21449       -1.66568
| 18> H          1.79916       -1.72608       -0.72562
| 19> *
| 20>
| 21> %MaxCore 64000
| 22>
| 23> %pal nprocs 4
| 24> end
| 25>
| 26> %scf
| 27>   MaxIter 150
| 28> end
| 29>
| 30>
| 31>                          ****END OF INPUT****

CARTESIAN COORDINATES (ANGSTROEM)
---------------------------------
  C      2.234470   -2.989750   -2.397620
  N      2.756800   -2.945550   -3.765030
  C      1.987210   -2.590450   -4.818980
  N      0.743220   -3.017490   -4.913520
  C      2.499640   -1.848600   -5.803240
  H      3.309780   -1.292820   -5.558950
  H      1.801030   -1.304300   -6.289130
  H      3.716120   -2.628800   -3.829530
  H      0.395830   -3.627750   -4.185020
  H      0.039200   -2.454380   -5.371370
  C      2.191200   -1.619500   -1.715490
  H      2.872780   -3.666370   -1.828010
  H      1.246190   -3.447440   -2.407840
  H      1.563870   -0.960460   -2.278530
  H      3.180330   -1.214490   -1.665680
  H      1.799160   -1.726080   -0.725620

 Total Charge           Charge          ....    0
 Multiplicity           Mult            ....    1
 Number of Electrons    NEL             ....   48
 Basis Dimension        Dim             ....  134

ORBITAL ENERGIES
----------------

  NO   OCC          E(Eh)            E(eV)
   0   2.0000     -14.225325      -387.0908
   1   2.0000     -14.223745      -387.0478
   2   2.0000     -10.176180      -276.9079
   3   2.0000     -10.166635      -276.6482
   4   2.0000     -10.118567      -275.3402
   5   2.0000     -10.032105      -272.9874
   6   2.0000      -1.136280       -30.9197
   7   2.0000      -1.047156       -28.4946
   8   2.0000      -0.934583       -25.4313
   9   2.0000      -0.867429       -23.6039
  10   2.0000      -0.784880       -21.3577
  11   2.0000      -0.749547       -20.3962
  12   2.0000      -0.684847       -18.6356
  13   2.0000      -0.635541       -17.2940
  14   2.0000      -0.630431       -17.1549
  15   2.0000      -0.577310       -15.7094
  16   2.0000      -0.568527       -15.4704
  17   2.0000      -0.539473       -14.6798
  18   2.0000      -0.507869       -13.8198
  19   2.0000      -0.501389       -13.6435
  20   2.0000      -0.495159       -13.4740
  21   2.0000      -0.483796       -13.1648
  22   2.0000      -0.380972       -10.3668
  23   2.0000      -0.283036        -7.7018
  24   0.0000       0.134534         3.6608
  25   0.0000       0.156622         4.2619
  26   0.0000       0.166262         4.5242
  27   0.0000       0.184818         5.0292
  28   0.0000       0.197596         5.3769

MULLIKEN ATOMIC CHARGES
-----------------------
   0 C :   -0.061064
   1 N :   -0.212048
   2 C :   -0.023327
   3 N :   -0.153117
   4 C :   -0.152484
   5 H :   -0.019028
   6 H :   -0.015232
   7 H :    0.149959
   8 H :    0.132554
   9 H :    0.158434
  10 C :   -0.120342
  11 H :    0.071017
  12 H :    0.052745
  13 H :    0.068531
  14 H :    0.061240
  15 H :    0.062159
Sum of atomic charges:   -0.0000000

LOEWDIN ATOMIC CHARGES
----------------------
   0 C :    0.002194
   1 N :   -0.054378
   2 C :    0.041023
   3 N :   -0.026004
   4 C :   -0.284197
   5 H :   -0.002604
   6 H :    0.001706
   7 H :    0.088101
   8 H :    0.072507
   9 H :    0.091970
  10 C :   -0.099098
  11 H :    0.034492
  12 H :    0.026405
  13 H :    0.037061
  14 H :    0.034102
  15 H :    0.036722

  Mayer bond orders larger than 0.100000
B(  0-C ,  1-N ) :   1.0142 B(  0-C , 10-C ) :   1.0544 B(  0-C , 11-H ) :   0.9653
B(  0-C , 12-H ) :   0.9660 B(  1-N ,  2-C ) :   1.1708 B(  1-N ,  7-H ) :   0.9341
B(  2-C ,  3-N ) :   1.2108 B(  2-C ,  4-C ) :   1.7698 B(  3-N ,  8-H ) :   0.9569
B(  3-N ,  9-H ) :   0.9469 B(  4-C ,  5-H ) :   0.9584 B(  4-C ,  6-H ) :   0.9609
B( 10-C , 13-H ) :   0.9727 B( 10-C , 14-H ) :   0.9742 B( 10-C , 15-H ) :   0.9703

FINAL SINGLE POINT ENERGY      -266.819487412438

DIPOLE MOMENT
-------------
                                X             Y             Z
Electronic contribution:     -0.18381      -2.39724      -2.91349
Nuclear contribution   :     -0.49695       2.43650       4.23017
                        -----------------------------------------
Total Dipole Moment    :     -0.68076       0.03926       1.31668
                        -----------------------------------------
Magnitude (a.u.)       :      1.48278
Magnitude (Debye)      :      3.76892

Rotational constants in cm-1:     0.211102     0.077011     0.069221
Rotational constants in MHz :  6328.667765  2308.731604  2075.192956

                             ****ORCA TERMINATED NORMALLY****
TOTAL RUN TIME: 0 days 0 hours 0 minutes 21 seconds 845 msec
