                         Program Version 5.0.0 -  RELEASE  -
|  1> !LC-PBE RIJCOSX def2-TZVP def2/J TightSCF xyzfile
|  2>
|  3> *xyzfile 0 1 D2.xyz
|  4>
|  5> %MaxCore 64000
|  6>
|  7> %pal nprocs 18
|  8> end
|  9>
| 10> %scf
| 11>   MaxIter 150
| 12> end
| 13>
| 14>
| 15>                          ****END OF INPUT****

CARTESIAN COORDINATES (ANGSTROEM)
---------------------------------
  C      2.234473   -2.989754   -2.397622
  N      2.756799   -2.945553   -3.765029
  C     -1.104325    0.251374   -2.860056
  C     -0.711893    0.842517   -4.218344
  H      0.154626    1.499800   -4.130909
  H     -1.538134    1.459222   -4.582671
  C     -0.397624   -0.205875   -5.288018
  C      1.987208   -2.590451   -4.818975
  C      0.743221   -3.017493   -4.913524
  N      2.499636   -1.848598   -5.803241
  H      3.309780   -1.292818   -5.558947
  H      1.801025   -1.304298   -6.289129
  H      3.716116   -2.628797   -3.829533
  H      0.395828   -3.627747   -4.185024
  H      0.039201   -2.454383   -5.371367
  F      0.617165   -0.005348   -5.998273
  O     -1.133173   -1.221380   -5.341465
  C      2.191199   -1.619503   -1.715492
  H      2.872783   -3.666368   -1.828014
  H      1.246188   -3.447444   -2.407842
  C      1.298729   -0.554314   -2.359773
  H      1.872917   -1.787955   -0.681310
  H      3.216809   -1.238432   -1.654428
  C     -0.196255   -0.863365   -2.325763
  H      1.612531   -0.371346   -3.393065
  H      1.480944    0.388638   -1.834444
  H     -0.404105   -1.761825   -2.909448
  H     -0.490439   -1.087880   -1.294131
  H     -1.143842    1.066711   -2.129680
  H     -2.114401   -0.156834   -2.930323

 Total Charge           Charge          ....    0
 Multiplicity           Mult            ....    1
 Number of Electrons    NEL             ....  102
 Basis Dimension        Dim             ....  505

ORBITAL ENERGIES
----------------

  NO   OCC          E(Eh)            E(eV)
   0   2.0000     -24.580835      -668.8785
   1   2.0000     -18.991940      -516.7970
   2   2.0000     -14.207153      -386.5963
   3   2.0000     -14.197920      -386.3450
   4   2.0000     -10.311184      -280.5816
   5   2.0000     -10.152398      -276.2608
   6   2.0000     -10.150956      -276.2215
   7   2.0000     -10.142555      -275.9930
   8   2.0000     -10.129602      -275.6405
   9   2.0000     -10.117415      -275.3089
  10   2.0000     -10.116680      -275.2888
  11   2.0000     -10.110561      -275.1223
  12   2.0000     -10.006315      -272.2857
  13   2.0000      -1.499735       -40.8099
  14   2.0000      -1.213717       -33.0269
  15   2.0000      -1.136707       -30.9314
  16   2.0000      -1.053128       -28.6571
  17   2.0000      -1.006508       -27.3885
  18   2.0000      -0.963345       -26.2139
  19   2.0000      -0.907439       -24.6927
  20   2.0000      -0.877068       -23.8662
  21   2.0000      -0.858399       -23.3582
  22   2.0000      -0.825358       -22.4591
  23   2.0000      -0.781487       -21.2654
  24   2.0000      -0.747951       -20.3528
  25   2.0000      -0.726851       -19.7786
  26   2.0000      -0.701848       -19.0983
  27   2.0000      -0.699313       -19.0293
  28   2.0000      -0.681924       -18.5561
  29   2.0000      -0.675432       -18.3794
  30   2.0000      -0.642527       -17.4841
  31   2.0000      -0.632013       -17.1980
  32   2.0000      -0.616714       -16.7816
  33   2.0000      -0.593292       -16.1443
  34   2.0000      -0.587161       -15.9775
  35   2.0000      -0.565200       -15.3799
  36   2.0000      -0.556185       -15.1346
  37   2.0000      -0.548225       -14.9180
  38   2.0000      -0.537204       -14.6181
  39   2.0000      -0.519697       -14.1417
  40   2.0000      -0.511406       -13.9161
  41   2.0000      -0.498566       -13.5667
  42   2.0000      -0.497882       -13.5480
  43   2.0000      -0.485663       -13.2156
  44   2.0000      -0.478614       -13.0238
  45   2.0000      -0.457424       -12.4471
  46   2.0000      -0.449267       -12.2252
  47   2.0000      -0.444706       -12.1011
  48   2.0000      -0.417778       -11.3683
  49   2.0000      -0.373282       -10.1575
  50   2.0000      -0.280196        -7.6245
  51   0.0000       0.057382         1.5614
  52   0.0000       0.101915         2.7732
  53   0.0000       0.119217         3.2441
  54   0.0000       0.129048         3.5116
  55   0.0000       0.141132         3.8404

MULLIKEN ATOMIC CHARGES
-----------------------
   0 C :   -0.279505
   1 N :   -0.268851
   2 C :   -0.263937
   3 C :   -0.351904
   4 H :    0.182817
   5 H :    0.188878
   6 C :    0.316895
   7 C :    0.164224
   8 C :   -0.580893
   9 N :   -0.412361
  10 H :    0.220817
  11 H :    0.248826
  12 H :    0.209190
  13 H :    0.116613
  14 H :    0.177360
  15 F :   -0.098745
  16 O :   -0.279419
  17 C :   -0.288315
  18 H :    0.167686
  19 H :    0.181194
  20 C :   -0.276801
  21 H :    0.145902
  22 H :    0.149518
  23 C :   -0.348686
  24 H :    0.142366
  25 H :    0.156498
  26 H :    0.197044
  27 H :    0.153933
  28 H :    0.158210
  29 H :    0.171446
Sum of atomic charges:   -0.0000000

LOEWDIN ATOMIC CHARGES
----------------------
   0 C :   -0.298171
   1 N :    0.098347
   2 C :   -0.273235
   3 C :   -0.252100
   4 H :    0.152804
   5 H :    0.167108
   6 C :   -0.506732
   7 C :   -0.498984
   8 C :   -0.317990
   9 N :   -0.033082
  10 H :    0.158561
  11 H :    0.168541
  12 H :    0.178675
  13 H :    0.102877
  14 H :    0.100823
  15 F :    0.340726
  16 O :    0.099301
  17 C :   -0.289011
  18 H :    0.140162
  19 H :    0.146608
  20 C :   -0.284770
  21 H :    0.148120
  22 H :    0.142271
  23 C :   -0.284387
  24 H :    0.143513
  25 H :    0.145583
  26 H :    0.154603
  27 H :    0.146561
  28 H :    0.148443
  29 H :    0.154835

  Mayer bond orders larger than 0.100000
B(  0-C ,  1-N ) :   0.9029 B(  0-C , 17-C ) :   0.9445 B(  0-C , 18-H ) :   0.9875
B(  0-C , 19-H ) :   0.9842 B(  1-N ,  7-C ) :   1.1044 B(  1-N , 12-H ) :   0.9318
B(  2-C ,  3-C ) :   0.9276 B(  2-C , 23-C ) :   0.9525 B(  2-C , 28-H ) :   0.9774
B(  2-C , 29-H ) :   0.9743 B(  3-C ,  4-H ) :   0.9628 B(  3-C ,  5-H ) :   0.9481
B(  3-C ,  6-C ) :   0.9729 B(  6-C , 15-F ) :   1.1299 B(  6-C , 16-O ) :   2.0455
B(  7-C ,  8-C ) :   1.5919 B(  7-C ,  9-N ) :   1.1357 B(  8-C , 13-H ) :   1.0402
B(  8-C , 14-H ) :   0.9887 B(  9-N , 10-H ) :   0.9299 B(  9-N , 11-H ) :   0.9135
B( 17-C , 20-C ) :   0.9540 B( 17-C , 21-H ) :   0.9810 B( 17-C , 22-H ) :   0.9878
B( 20-C , 23-C ) :   0.8750 B( 20-C , 24-H ) :   0.9631 B( 20-C , 25-H ) :   0.9781
B( 23-C , 26-H ) :   0.9720 B( 23-C , 27-H ) :   0.9757

FINAL SINGLE POINT ENERGY      -635.976387556798

DIPOLE MOMENT
-------------
                                X             Y             Z
Electronic contribution:     -1.45934       2.26072     -13.49762
Nuclear contribution   :      2.00823      -0.28769      14.57028
                        -----------------------------------------
Total Dipole Moment    :      0.54889       1.97303       1.07266
                        -----------------------------------------
Magnitude (a.u.)       :      2.31187
Magnitude (Debye)      :      5.87631

Rotational constants in cm-1:     0.033070     0.023715     0.016943
Rotational constants in MHz :   991.423248   710.957140   507.940500

                             ****ORCA TERMINATED NORMALLY****
TOTAL RUN TIME: 0 days 0 hours 0 minutes 56 seconds 726 msec
