                         Program Version 5.0.0 -  RELEASE  -
|  1> !LC-PBE RIJCOSX def2-TZVP def2/J TightSCF xyzfile
|  2>
|  3> *xyzfile 0 1 D5.xyz
|  4>
|  5> %MaxCore 64000
|  6>
|  7> %pal nprocs 18
|  8> end
|  9>
| 10> %scf
| 11>   MaxIter 150
| 12> end
| 13>
| 14>
| 15>                          ****END OF INPUT****

CARTESIAN COORDINATES (ANGSTROEM)
---------------------------------
  C      2.234473   -2.989754   -2.397622
  N      2.756799   -2.945553   -3.765029
  C     -1.104325    0.251374   -2.860056
  C     -0.711893    0.842517   -4.218344
  H      0.154626    1.499800   -4.130909
  H     -1.538134    1.459222   -4.582671
  C     -0.397624   -0.205875   -5.288018
  C      1.987208   -2.590451   -4.818975
  C      0.743221   -3.017493   -4.913524
  N      2.499636   -1.848598   -5.803241
  H      3.309780   -1.292818   -5.558947
  H      1.801025   -1.304298   -6.289129
  H      3.716116   -2.628797   -3.829533
  H      0.395828   -3.627747   -4.185024
  H      0.039201   -2.454383   -5.371367
  O      0.617165   -0.005348   -5.998273
  F     -1.133173   -1.221380   -5.341465
  C      2.191199   -1.619503   -1.715492
  H      2.872783   -3.666368   -1.828014
  H      1.246188   -3.447444   -2.407842
  C      1.298729   -0.554314   -2.359773
  H      1.872917   -1.787955   -0.681310
  H      3.216809   -1.238432   -1.654428
  C     -0.196255   -0.863365   -2.325763
  H      1.612531   -0.371346   -3.393065
  H      1.480944    0.388638   -1.834444
  H     -0.404105   -1.761825   -2.909448
  H     -0.490439   -1.087880   -1.294131
  H     -1.143842    1.066711   -2.129680
  H     -2.114401   -0.156834   -2.930323

 Total Charge           Charge          ....    0
 Multiplicity           Mult            ....    1
 Number of Electrons    NEL             ....  102
 Basis Dimension        Dim             ....  505

ORBITAL ENERGIES
----------------

  NO   OCC          E(Eh)            E(eV)
   0   2.0000     -24.570107      -668.5866
   1   2.0000     -18.999670      -517.0073
   2   2.0000     -14.207602      -386.6085
   3   2.0000     -14.184531      -385.9807
   4   2.0000     -10.315849      -280.7085
   5   2.0000     -10.153164      -276.2816
   6   2.0000     -10.152548      -276.2649
   7   2.0000     -10.143507      -276.0189
   8   2.0000     -10.134356      -275.7699
   9   2.0000     -10.116796      -275.2920
  10   2.0000     -10.116224      -275.2764
  11   2.0000     -10.115985      -275.2700
  12   2.0000     -10.013041      -272.4687
  13   2.0000      -1.491257       -40.5792
  14   2.0000      -1.219287       -33.1785
  15   2.0000      -1.133023       -30.8311
  16   2.0000      -1.046872       -28.4868
  17   2.0000      -1.011030       -27.5115
  18   2.0000      -0.963829       -26.2271
  19   2.0000      -0.907637       -24.6981
  20   2.0000      -0.875257       -23.8169
  21   2.0000      -0.854593       -23.2547
  22   2.0000      -0.823913       -22.4198
  23   2.0000      -0.781971       -21.2785
  24   2.0000      -0.746677       -20.3181
  25   2.0000      -0.730291       -19.8722
  26   2.0000      -0.710753       -19.3406
  27   2.0000      -0.695108       -18.9149
  28   2.0000      -0.677938       -18.4476
  29   2.0000      -0.667620       -18.1669
  30   2.0000      -0.636253       -17.3133
  31   2.0000      -0.629619       -17.1328
  32   2.0000      -0.621138       -16.9020
  33   2.0000      -0.595176       -16.1956
  34   2.0000      -0.586850       -15.9690
  35   2.0000      -0.563807       -15.3420
  36   2.0000      -0.553128       -15.0514
  37   2.0000      -0.550301       -14.9745
  38   2.0000      -0.531137       -14.4530
  39   2.0000      -0.529199       -14.4002
  40   2.0000      -0.512550       -13.9472
  41   2.0000      -0.504819       -13.7368
  42   2.0000      -0.490978       -13.3602
  43   2.0000      -0.488567       -13.2946
  44   2.0000      -0.477229       -12.9861
  45   2.0000      -0.459280       -12.4976
  46   2.0000      -0.456796       -12.4301
  47   2.0000      -0.446088       -12.1387
  48   2.0000      -0.434567       -11.8252
  49   2.0000      -0.367571       -10.0021
  50   2.0000      -0.283086        -7.7032
  51   0.0000       0.057572         1.5666
  52   0.0000       0.103549         2.8177
  53   0.0000       0.117327         3.1926
  54   0.0000       0.132234         3.5983
  55   0.0000       0.139959         3.8085

MULLIKEN ATOMIC CHARGES
-----------------------
   0 C :   -0.277322
   1 N :   -0.268785
   2 C :   -0.286603
   3 C :   -0.341956
   4 H :    0.199139
   5 H :    0.186876
   6 C :    0.331237
   7 C :    0.174553
   8 C :   -0.586824
   9 N :   -0.400176
  10 H :    0.216688
  11 H :    0.271845
  12 H :    0.212617
  13 H :    0.122780
  14 H :    0.131606
  15 O :   -0.349118
  16 F :   -0.055673
  17 C :   -0.288986
  18 H :    0.168437
  19 H :    0.177085
  20 C :   -0.292052
  21 H :    0.144645
  22 H :    0.151323
  23 C :   -0.341102
  24 H :    0.174831
  25 H :    0.156526
  26 H :    0.181172
  27 H :    0.156138
  28 H :    0.161133
  29 H :    0.169966
Sum of atomic charges:    0.0000000

LOEWDIN ATOMIC CHARGES
----------------------
   0 C :   -0.298732
   1 N :    0.101462
   2 C :   -0.282182
   3 C :   -0.245770
   4 H :    0.164921
   5 H :    0.164291
   6 C :   -0.498411
   7 C :   -0.488490
   8 C :   -0.338675
   9 N :   -0.021668
  10 H :    0.159071
  11 H :    0.168888
  12 H :    0.180515
  13 H :    0.101700
  14 H :    0.096809
  15 O :    0.067550
  16 F :    0.359683
  17 C :   -0.289119
  18 H :    0.140254
  19 H :    0.145417
  20 C :   -0.284261
  21 H :    0.147422
  22 H :    0.143215
  23 C :   -0.287303
  24 H :    0.150691
  25 H :    0.146051
  26 H :    0.149455
  27 H :    0.147062
  28 H :    0.150034
  29 H :    0.150124

  Mayer bond orders larger than 0.100000
B(  0-C ,  1-N ) :   0.9048 B(  0-C , 17-C ) :   0.9432 B(  0-C , 18-H ) :   0.9876
B(  0-C , 19-H ) :   0.9864 B(  1-N ,  7-C ) :   1.1177 B(  1-N , 12-H ) :   0.9305
B(  2-C ,  3-C ) :   0.9080 B(  2-C , 23-C ) :   0.9350 B(  2-C , 28-H ) :   0.9740
B(  2-C , 29-H ) :   0.9853 B(  3-C ,  4-H ) :   0.9645 B(  3-C ,  5-H ) :   0.9518
B(  3-C ,  6-C ) :   0.9745 B(  6-C , 15-O ) :   1.9661 B(  6-C , 16-F ) :   1.1951
B(  7-C ,  8-C ) :   1.5625 B(  7-C ,  9-N ) :   1.1768 B(  8-C , 13-H ) :   1.0378
B(  8-C , 14-H ) :   1.0106 B(  9-N , 10-H ) :   0.9301 B(  9-N , 11-H ) :   0.8850
B( 17-C , 20-C ) :   0.9517 B( 17-C , 21-H ) :   0.9819 B( 17-C , 22-H ) :   0.9868
B( 20-C , 23-C ) :   0.8676 B( 20-C , 24-H ) :   0.9559 B( 20-C , 25-H ) :   0.9775
B( 23-C , 26-H ) :   0.9824 B( 23-C , 27-H ) :   0.9751

FINAL SINGLE POINT ENERGY      -635.987018030288

DIPOLE MOMENT
-------------
                                X             Y             Z
Electronic contribution:     -4.36677       0.27211     -12.34576
Nuclear contribution   :      4.07548       1.14852      13.79455
                        -----------------------------------------
Total Dipole Moment    :     -0.29128       1.42063       1.44879
                        -----------------------------------------
Magnitude (a.u.)       :      2.04989
Magnitude (Debye)      :      5.21040

Rotational constants in cm-1:     0.033274     0.023559     0.016968
Rotational constants in MHz :   997.539108   706.293545   508.690532

                             ****ORCA TERMINATED NORMALLY****
TOTAL RUN TIME: 0 days 0 hours 0 minutes 58 seconds 101 msec
