                         Program Version 5.0.0 -  RELEASE  -
|  1> !LC-PBE RIJCOSX def2-TZVP def2/J TightSCF xyzfile
|  2>
|  3> *xyzfile 0 1 D6.xyz
|  4>
|  5> %MaxCore 64000
|  6>
|  7> %pal nprocs 18
|  8> end
|  9>
| 10> %scf
| 11>   MaxIter 150
| 12> end
| 13>
| 14>
| 15>                          ****END OF INPUT****

CARTESIAN COORDINATES (ANGSTROEM)
---------------------------------
  C      2.234473   -2.989754   -2.397622
  N      2.756799   -2.945553   -3.765029
  C     -1.104325    0.251374   -2.860056
  C     -0.711893    0.842517   -4.218344
  H      0.154626    1.499800   -4.130909
  H     -1.538134    1.459222   -4.582671
  C     -0.397624   -0.205875   -5.288018
  C      1.987208   -2.590451   -4.818975
  N      0.743221   -3.017493   -4.913524
  C      2.499636   -1.848598   -5.803241
  H      3.309780   -1.292818   -5.558947
  H      1.801025   -1.304298   -6.289129
  H      3.716116   -2.628797   -3.829533
  H      0.395828   -3.627747   -4.185024
  H      0.039201   -2.454383   -5.371367
  O      0.617165   -0.005348   -5.998273
  F     -1.133173   -1.221380   -5.341465
  C      2.191199   -1.619503   -1.715492
  H      2.872783   -3.666368   -1.828014
  H      1.246188   -3.447444   -2.407842
  C      1.298729   -0.554314   -2.359773
  H      1.872917   -1.787955   -0.681310
  H      3.216809   -1.238432   -1.654428
  C     -0.196255   -0.863365   -2.325763
  H      1.612531   -0.371346   -3.393065
  H      1.480944    0.388638   -1.834444
  H     -0.404105   -1.761825   -2.909448
  H     -0.490439   -1.087880   -1.294131
  H     -1.143842    1.066711   -2.129680
  H     -2.114401   -0.156834   -2.930323

 Total Charge           Charge          ....    0
 Multiplicity           Mult            ....    1
 Number of Electrons    NEL             ....  102
 Basis Dimension        Dim             ....  505

ORBITAL ENERGIES
----------------

  NO   OCC          E(Eh)            E(eV)
   0   2.0000     -24.584742      -668.9848
   1   2.0000     -18.996421      -516.9189
   2   2.0000     -14.205088      -386.5401
   3   2.0000     -14.200009      -386.4019
   4   2.0000     -10.312851      -280.6270
   5   2.0000     -10.154123      -276.3077
   6   2.0000     -10.152492      -276.2634
   7   2.0000     -10.150264      -276.2027
   8   2.0000     -10.138791      -275.8905
   9   2.0000     -10.125252      -275.5221
  10   2.0000     -10.119301      -275.3602
  11   2.0000     -10.117759      -275.3182
  12   2.0000      -9.999809      -272.1086
  13   2.0000      -1.504962       -40.9521
  14   2.0000      -1.215406       -33.0729
  15   2.0000      -1.137872       -30.9631
  16   2.0000      -1.051609       -28.6157
  17   2.0000      -1.016097       -27.6494
  18   2.0000      -0.968975       -26.3672
  19   2.0000      -0.916111       -24.9286
  20   2.0000      -0.879567       -23.9342
  21   2.0000      -0.847436       -23.0599
  22   2.0000      -0.827546       -22.5187
  23   2.0000      -0.780362       -21.2347
  24   2.0000      -0.763605       -20.7787
  25   2.0000      -0.741093       -20.1662
  26   2.0000      -0.722491       -19.6600
  27   2.0000      -0.714843       -19.4519
  28   2.0000      -0.679033       -18.4774
  29   2.0000      -0.660393       -17.9702
  30   2.0000      -0.643584       -17.5128
  31   2.0000      -0.629241       -17.1225
  32   2.0000      -0.615442       -16.7470
  33   2.0000      -0.604840       -16.4585
  34   2.0000      -0.589340       -16.0368
  35   2.0000      -0.579857       -15.7787
  36   2.0000      -0.555671       -15.1206
  37   2.0000      -0.549138       -14.9428
  38   2.0000      -0.529187       -14.3999
  39   2.0000      -0.520220       -14.1559
  40   2.0000      -0.517064       -14.0700
  41   2.0000      -0.505949       -13.7676
  42   2.0000      -0.501432       -13.6447
  43   2.0000      -0.494293       -13.4504
  44   2.0000      -0.471582       -12.8324
  45   2.0000      -0.461839       -12.5673
  46   2.0000      -0.459409       -12.5012
  47   2.0000      -0.451440       -12.2843
  48   2.0000      -0.419221       -11.4076
  49   2.0000      -0.374456       -10.1895
  50   2.0000      -0.271881        -7.3983
  51   0.0000       0.057118         1.5543
  52   0.0000       0.100790         2.7426
  53   0.0000       0.119794         3.2598
  54   0.0000       0.120545         3.2802
  55   0.0000       0.138569         3.7707

MULLIKEN ATOMIC CHARGES
-----------------------
   0 C :   -0.309524
   1 N :   -0.254018
   2 C :   -0.287002
   3 C :   -0.347732
   4 H :    0.205271
   5 H :    0.186403
   6 C :    0.311034
   7 C :    0.096183
   8 N :   -0.433720
   9 C :   -0.435762
  10 H :    0.092323
  11 H :    0.120043
  12 H :    0.240402
  13 H :    0.236609
  14 H :    0.254132
  15 O :   -0.283138
  16 F :   -0.089773
  17 C :   -0.266652
  18 H :    0.174504
  19 H :    0.153279
  20 C :   -0.313726
  21 H :    0.141806
  22 H :    0.156429
  23 C :   -0.336036
  24 H :    0.206796
  25 H :    0.159317
  26 H :    0.130147
  27 H :    0.159536
  28 H :    0.163568
  29 H :    0.169301
Sum of atomic charges:    0.0000000

LOEWDIN ATOMIC CHARGES
----------------------
   0 C :   -0.313116
   1 N :    0.100003
   2 C :   -0.283114
   3 C :   -0.246829
   4 H :    0.167309
   5 H :    0.163957
   6 C :   -0.514386
   7 C :   -0.495358
   8 N :    0.003338
   9 C :   -0.351976
  10 H :    0.099287
  11 H :    0.104572
  12 H :    0.195875
  13 H :    0.163702
  14 H :    0.162569
  15 O :    0.105489
  16 F :    0.342648
  17 C :   -0.288539
  18 H :    0.141491
  19 H :    0.133482
  20 C :   -0.283105
  21 H :    0.146423
  22 H :    0.146611
  23 C :   -0.290484
  24 H :    0.157824
  25 H :    0.147704
  26 H :    0.136686
  27 H :    0.147821
  28 H :    0.151114
  29 H :    0.149002

  Mayer bond orders larger than 0.100000
B(  0-C ,  1-N ) :   0.9353 B(  0-C , 17-C ) :   0.9254 B(  0-C , 18-H ) :   0.9891
B(  0-C , 19-H ) :   1.0001 B(  1-N ,  7-C ) :   1.1569 B(  1-N , 12-H ) :   0.9239
B(  2-C ,  3-C ) :   0.9041 B(  2-C , 23-C ) :   0.9353 B(  2-C , 28-H ) :   0.9723
B(  2-C , 29-H ) :   0.9873 B(  3-C ,  4-H ) :   0.9629 B(  3-C ,  5-H ) :   0.9523
B(  3-C ,  6-C ) :   0.9784 B(  6-C , 15-O ) :   2.0455 B(  6-C , 16-F ) :   1.1364
B(  7-C ,  8-N ) :   1.1130 B(  7-C ,  9-C ) :   1.7151 B(  8-N , 13-H ) :   0.9311
B(  8-N , 14-H ) :   0.8991 B(  9-C , 10-H ) :   1.0082 B(  9-C , 11-H ) :   1.0016
B( 17-C , 20-C ) :   0.9450 B( 17-C , 21-H ) :   0.9800 B( 17-C , 22-H ) :   0.9819
B( 20-C , 23-C ) :   0.8649 B( 20-C , 24-H ) :   0.9502 B( 20-C , 25-H ) :   0.9743
B( 23-C , 26-H ) :   0.9907 B( 23-C , 27-H ) :   0.9727

FINAL SINGLE POINT ENERGY      -635.971137946523

DIPOLE MOMENT
-------------
                                X             Y             Z
Electronic contribution:     -5.74840      -0.65226     -11.62668
Nuclear contribution   :      4.34606       1.32859      13.65749
                        -----------------------------------------
Total Dipole Moment    :     -1.40234       0.67633       2.03081
                        -----------------------------------------
Magnitude (a.u.)       :      2.55894
Magnitude (Debye)      :      6.50430

Rotational constants in cm-1:     0.033551     0.023540     0.017085
Rotational constants in MHz :  1005.818710   705.725032   512.192443

                             ****ORCA TERMINATED NORMALLY****
TOTAL RUN TIME: 0 days 0 hours 1 minutes 4 seconds 637 msec
