                         Program Version 5.0.0 -  RELEASE  -
|  1> !PBE0 D3BJ RIJCOSX def2-SVPD def2/J TightSCF
|  2> *xyz -1 1
|  3> C         -0.91495        0.61511        2.50554
|  4> C         -0.05915        1.50352        3.41058
|  5> H          0.36536        2.34431        2.86116
|  6> H         -0.69226        1.92021        4.19898
|  7> C          1.08303        0.74964        4.08571
|  8> O          2.22817        1.26348        4.01983
|  9> O          0.81003       -0.34541        4.63627
| 10> H         -0.30401        0.20228        1.73015
| 11> H         -1.69811        1.19946        2.06954
| 12> H         -1.34124       -0.17772        3.08397
| 13> *
| 14>
| 15> %MaxCore 64000
| 16>
| 17> %pal nprocs 4
| 18> end
| 19>
| 20> %scf
| 21>   MaxIter 150
| 22> end
| 23>
| 24>
| 25>                          ****END OF INPUT****

CARTESIAN COORDINATES (ANGSTROEM)
---------------------------------
  C     -0.914950    0.615110    2.505540
  C     -0.059150    1.503520    3.410580
  H      0.365360    2.344310    2.861160
  H     -0.692260    1.920210    4.198980
  C      1.083030    0.749640    4.085710
  O      2.228170    1.263480    4.019830
  O      0.810030   -0.345410    4.636270
  H     -0.304010    0.202280    1.730150
  H     -1.698110    1.199460    2.069540
  H     -1.341240   -0.177720    3.083970

 Total Charge           Charge          ....   -1
 Multiplicity           Mult            ....    1
 Number of Electrons    NEL             ....   40
 Basis Dimension        Dim             ....  146

ORBITAL ENERGIES
----------------

  NO   OCC          E(Eh)            E(eV)
   0   2.0000     -18.953890      -515.7616
   1   2.0000     -18.953167      -515.7419
   2   2.0000     -10.115287      -275.2510
   3   2.0000     -10.069596      -274.0076
   4   2.0000     -10.058671      -273.7104
   5   2.0000      -0.839535       -22.8449
   6   2.0000      -0.744725       -20.2650
   7   2.0000      -0.622016       -16.9259
   8   2.0000      -0.488592       -13.2953
   9   2.0000      -0.333892        -9.0857
  10   2.0000      -0.306859        -8.3501
  11   2.0000      -0.273200        -7.4341
  12   2.0000      -0.245602        -6.6832
  13   2.0000      -0.228331        -6.2132
  14   2.0000      -0.221957        -6.0398
  15   2.0000      -0.192638        -5.2420
  16   2.0000      -0.175181        -4.7669
  17   2.0000      -0.062670        -1.7053
  18   2.0000      -0.055296        -1.5047
  19   2.0000      -0.041952        -1.1416
  20   0.0000       0.161857         4.4044
  21   0.0000       0.196041         5.3345
  22   0.0000       0.210387         5.7249
  23   0.0000       0.223786         6.0895
  24   0.0000       0.249595         6.7918

MULLIKEN ATOMIC CHARGES
-----------------------
   0 C :    0.421230
   1 C :   -0.455014
   2 H :   -0.002702
   3 H :    0.048718
   4 C :    0.604595
   5 O :   -0.766947
   6 O :   -0.795317
   7 H :   -0.028646
   8 H :   -0.036880
   9 H :    0.010962
Sum of atomic charges:   -1.0000000

LOEWDIN ATOMIC CHARGES
----------------------
   0 C :    0.092790
   1 C :   -0.046056
   2 H :    0.000704
   3 H :    0.012397
   4 C :   -0.298826
   5 O :   -0.339426
   6 O :   -0.329646
   7 H :   -0.021485
   8 H :   -0.042926
   9 H :   -0.027526

  Mayer bond orders larger than 0.100000
B(  0-C ,  1-C ) :   1.2825 B(  0-C ,  7-H ) :   0.8813 B(  0-C ,  8-H ) :   0.8621
B(  0-C ,  9-H ) :   0.8514 B(  1-C ,  2-H ) :   0.9882 B(  1-C ,  3-H ) :   0.9053
B(  1-C ,  4-C ) :   1.0337 B(  1-C ,  7-H ) :   0.1489 B(  1-C ,  8-H ) :   0.1515
B(  1-C ,  9-H ) :   0.1820 B(  2-H ,  4-C ) :   0.1742 B(  4-C ,  5-O ) :   1.3627
B(  4-C ,  6-O ) :   1.3822

Dispersion correction           -0.005454149
FINAL SINGLE POINT ENERGY      -267.362941751039

DIPOLE MOMENT
-------------
                                X             Y             Z
Electronic contribution:      4.71640      -1.00090       3.35388
Nuclear contribution   :     -6.38408       1.63097      -4.40540
                        -----------------------------------------
Total Dipole Moment    :     -1.66767       0.63006      -1.05152
                        -----------------------------------------
Magnitude (a.u.)       :      2.06974
Magnitude (Debye)      :      5.26085

Rotational constants in cm-1:     0.319732     0.134414     0.104753
Rotational constants in MHz :  9585.336550  4029.633034  3140.404334

                             ****ORCA TERMINATED NORMALLY****
TOTAL RUN TIME: 0 days 0 hours 0 minutes 17 seconds 311 msec
