                         Program Version 5.0.0 -  RELEASE  -
|  1> !PBE0 D3BJ RIJCOSX def2-SVPD def2/J TightSCF
|  2> *xyz 1 1
|  3> C          4.60295       -2.44010        2.63478
|  4> C          3.86085       -1.59157        3.62289
|  5> N          2.75650       -2.04616        4.16633
|  6> N          4.25433       -0.36291        3.86046
|  7> H          3.56526        0.31099        4.16898
|  8> H          5.05429       -0.01606        3.33784
|  9> H          2.43970       -2.97389        3.89740
| 10> H          2.06687       -1.41253        4.54981
| 11> C          3.74469       -2.58056        1.36188
| 12> H          5.56156       -1.97135        2.40708
| 13> H          4.81050       -3.42255        3.06310
| 14> H          4.26314       -3.18477        0.64702
| 15> H          3.56325       -1.61180        0.94535
| 16> H          2.81197       -3.04259        1.60980
| 17> *
| 18>
| 19> %MaxCore 64000
| 20>
| 21> %pal nprocs 4
| 22> end
| 23>
| 24> %scf
| 25>   MaxIter 150
| 26> end
| 27>
| 28>
| 29>                          ****END OF INPUT****

CARTESIAN COORDINATES (ANGSTROEM)
---------------------------------
  C      4.602950   -2.440100    2.634780
  C      3.860850   -1.591570    3.622890
  N      2.756500   -2.046160    4.166330
  N      4.254330   -0.362910    3.860460
  H      3.565260    0.310990    4.168980
  H      5.054290   -0.016060    3.337840
  H      2.439700   -2.973890    3.897400
  H      2.066870   -1.412530    4.549810
  C      3.744690   -2.580560    1.361880
  H      5.561560   -1.971350    2.407080
  H      4.810500   -3.422550    3.063100
  H      4.263140   -3.184770    0.647020
  H      3.563250   -1.611800    0.945350
  H      2.811970   -3.042590    1.609800

 Total Charge           Charge          ....    1
 Multiplicity           Mult            ....    1
 Number of Electrons    NEL             ....   40
 Basis Dimension        Dim             ....  172

ORBITAL ENERGIES
----------------

  NO   OCC          E(Eh)            E(eV)
   0   2.0000     -14.643700      -398.4753
   1   2.0000     -14.642778      -398.4502
   2   2.0000     -10.557207      -287.2762
   3   2.0000     -10.436960      -284.0041
   4   2.0000     -10.395815      -282.8845
   5   2.0000      -1.229786       -33.4642
   6   2.0000      -1.129736       -30.7417
   7   2.0000      -0.990700       -26.9583
   8   2.0000      -0.878474       -23.9045
   9   2.0000      -0.834780       -22.7155
  10   2.0000      -0.792364       -21.5613
  11   2.0000      -0.769666       -20.9437
  12   2.0000      -0.715246       -19.4628
  13   2.0000      -0.680819       -18.5260
  14   2.0000      -0.641406       -17.4535
  15   2.0000      -0.617871       -16.8131
  16   2.0000      -0.565351       -15.3840
  17   2.0000      -0.557507       -15.1705
  18   2.0000      -0.544542       -14.8177
  19   2.0000      -0.510570       -13.8933
  20   0.0000      -0.214189        -5.8284
  21   0.0000      -0.152505        -4.1499
  22   0.0000      -0.109245        -2.9727
  23   0.0000      -0.107339        -2.9208
  24   0.0000      -0.079148        -2.1537

MULLIKEN ATOMIC CHARGES
-----------------------
   0 C :   -0.336141
   1 C :    0.703744
   2 N :   -0.009228
   3 N :   -0.104474
   4 H :   -0.049130
   5 H :    0.089156
   6 H :    0.085148
   7 H :   -0.108580
   8 C :    0.503375
   9 H :    0.059468
  10 H :    0.104536
  11 H :    0.051897
  12 H :    0.013816
  13 H :   -0.003589
Sum of atomic charges:    1.0000000

LOEWDIN ATOMIC CHARGES
----------------------
   0 C :    0.016425
   1 C :   -0.051484
   2 N :    0.280777
   3 N :    0.279442
   4 H :    0.050897
   5 H :    0.054559
   6 H :    0.053591
   7 H :    0.052731
   8 C :    0.169803
   9 H :    0.039711
  10 H :    0.052125
  11 H :    0.010990
  12 H :    0.002623
  13 H :   -0.012189

  Mayer bond orders larger than 0.100000
B(  0-C ,  1-C ) :   1.2272 B(  0-C ,  8-C ) :   1.2589 B(  0-C ,  9-H ) :   0.9146
B(  0-C , 10-H ) :   0.8610 B(  0-C , 11-H ) :   0.1211 B(  0-C , 12-H ) :   0.1294
B(  0-C , 13-H ) :   0.1557 B(  1-C ,  2-N ) :   1.0613 B(  1-C ,  3-N ) :   1.0175
B(  1-C ,  4-H ) :  -0.1297 B(  1-C ,  7-H ) :  -0.1328 B(  1-C ,  9-H ) :   0.1293
B(  1-C , 10-H ) :   0.1327 B(  2-N ,  3-N ) :   0.1745 B(  2-N ,  6-H ) :   1.0108
B(  2-N ,  7-H ) :   1.2684 B(  3-N ,  4-H ) :   1.2247 B(  3-N ,  5-H ) :   1.0060
B(  4-H ,  5-H ) :  -0.1326 B(  6-H ,  7-H ) :  -0.1496 B(  8-C , 11-H ) :   0.8814
B(  8-C , 12-H ) :   0.8664 B(  8-C , 13-H ) :   0.8382

Dispersion correction           -0.008630278
FINAL SINGLE POINT ENERGY      -228.614780446021

DIPOLE MOMENT
-------------
                                X             Y             Z
Electronic contribution:     -0.24033       1.79206       3.73470
Nuclear contribution   :     -0.22400      -1.16268      -3.30447
                        -----------------------------------------
Total Dipole Moment    :     -0.46433       0.62938       0.43022
                        -----------------------------------------
Magnitude (a.u.)       :      0.89264
Magnitude (Debye)      :      2.26892

Rotational constants in cm-1:     0.258103     0.130571     0.102508
Rotational constants in MHz :  7737.732062  3914.431392  3073.119154

                             ****ORCA TERMINATED NORMALLY****
TOTAL RUN TIME: 0 days 0 hours 0 minutes 19 seconds 114 msec
