                         Program Version 5.0.0 -  RELEASE  -
|  1> !PBE0 D3BJ RIJCOSX def2-SVPD def2/J TightSCF xyzfile
|  2>
|  3> *xyzfile 0 1 B.xyz
|  4>
|  5> %MaxCore 64000
|  6>
|  7> %pal nprocs 4
|  8> end
|  9>
| 10> %scf
| 11>   MaxIter 150
| 12> end
| 13>
| 14>
| 15>                          ****END OF INPUT****

CARTESIAN COORDINATES (ANGSTROEM)
---------------------------------
  C      4.602954   -2.440100    2.634780
  C     -0.914947    0.615112    2.505538
  C     -0.059146    1.503524    3.410578
  H      0.365364    2.344315    2.861161
  H     -0.692261    1.920207    4.198985
  C      1.083027    0.749640    4.085705
  C      3.860851   -1.591565    3.622893
  N      2.756502   -2.046159    4.166333
  N      4.254325   -0.362905    3.860455
  H      3.565256    0.310994    4.168983
  H      5.054292   -0.016059    3.337838
  H      2.439696   -2.973894    3.897395
  H      2.066869   -1.412532    4.549813
  O      2.228167    1.263475    4.019826
  O      0.810034   -0.345411    4.636269
  C      3.744685   -2.580557    1.361882
  C      0.772139    0.636882    0.562129
  C     -0.130740   -0.193985    1.470763
  H     -0.840563   -0.760165    0.856377
  H      0.466691   -0.938942    2.006959
  H     -1.647961    1.245963    1.991076
  H     -1.478180   -0.081046    3.130424
  C      3.203721   -1.256004    0.826211
  H      2.898939   -3.239289    1.583074
  H      4.334962   -3.095523    0.600188
  C      2.107815   -1.442385   -0.216865
  H      2.786775   -0.672760    1.650711
  H      4.021008   -0.652993    0.414046
  C      1.390662   -0.145912   -0.602422
  H      1.372179   -2.152184    0.176151
  H      2.523302   -1.906787   -1.117115
  H      1.561361    1.100094    1.161831
  H      0.195516    1.468325    0.142758
  H      0.602893   -0.398214   -1.319716
  H      2.087247    0.508272   -1.137335
  H      5.561557   -1.971347    2.407084
  H      4.810498   -3.422552    3.063099

 Total Charge           Charge          ....    0
 Multiplicity           Mult            ....    1
 Number of Electrons    NEL             ....  118
 Basis Dimension        Dim             ....  482

ORBITAL ENERGIES
----------------

  NO   OCC          E(Eh)            E(eV)
   0   2.0000     -19.143611      -520.9241
   1   2.0000     -19.141769      -520.8740
   2   2.0000     -14.439133      -392.9088
   3   2.0000     -14.438989      -392.9049
   4   2.0000     -10.371424      -282.2208
   5   2.0000     -10.297837      -280.2184
   6   2.0000     -10.285395      -279.8798
   7   2.0000     -10.267396      -279.3900
   8   2.0000     -10.243190      -278.7314
   9   2.0000     -10.234230      -278.4876
  10   2.0000     -10.226131      -278.2672
  11   2.0000     -10.215663      -277.9823
  12   2.0000     -10.212475      -277.8956
  13   2.0000     -10.208486      -277.7870
  14   2.0000     -10.198941      -277.5273
  15   2.0000      -1.042235       -28.3607
  16   2.0000      -1.027696       -27.9650
  17   2.0000      -0.944860       -25.7109
  18   2.0000      -0.928574       -25.2678
  19   2.0000      -0.856583       -23.3088
  20   2.0000      -0.821890       -22.3648
  21   2.0000      -0.791528       -21.5386
  22   2.0000      -0.750844       -20.4315
  23   2.0000      -0.712289       -19.3824
  24   2.0000      -0.675153       -18.3719
  25   2.0000      -0.658437       -17.9170
  26   2.0000      -0.635363       -17.2891
  27   2.0000      -0.601567       -16.3695
  28   2.0000      -0.596215       -16.2238
  29   2.0000      -0.586914       -15.9708
  30   2.0000      -0.559820       -15.2335
  31   2.0000      -0.528948       -14.3934
  32   2.0000      -0.524274       -14.2662
  33   2.0000      -0.500075       -13.6077
  34   2.0000      -0.488553       -13.2942
  35   2.0000      -0.477716       -12.9993
  36   2.0000      -0.471086       -12.8189
  37   2.0000      -0.458750       -12.4832
  38   2.0000      -0.446424       -12.1478
  39   2.0000      -0.434095       -11.8123
  40   2.0000      -0.429119       -11.6769
  41   2.0000      -0.420658       -11.4467
  42   2.0000      -0.416869       -11.3436
  43   2.0000      -0.411275       -11.1913
  44   2.0000      -0.390397       -10.6232
  45   2.0000      -0.386594       -10.5198
  46   2.0000      -0.380414       -10.3516
  47   2.0000      -0.375433       -10.2160
  48   2.0000      -0.363869        -9.9014
  49   2.0000      -0.347752        -9.4628
  50   2.0000      -0.343646        -9.3511
  51   2.0000      -0.336300        -9.1512
  52   2.0000      -0.321343        -8.7442
  53   2.0000      -0.316649        -8.6165
  54   2.0000      -0.314768        -8.5653
  55   2.0000      -0.307163        -8.3583
  56   2.0000      -0.252233        -6.8636
  57   2.0000      -0.240791        -6.5522
  58   2.0000      -0.235696        -6.4136
  59   0.0000      -0.032890        -0.8950
  60   0.0000       0.001223         0.0333
  61   0.0000       0.020284         0.5519
  62   0.0000       0.032040         0.8718
  63   0.0000       0.040324         1.0973

MULLIKEN ATOMIC CHARGES
-----------------------
   0 C :    0.428396
   1 C :    0.378005
   2 C :    0.033639
   3 H :    0.216061
   4 H :   -0.109294
   5 C :    0.642196
   6 C :    0.495918
   7 N :    0.210788
   8 N :    0.175711
   9 H :   -0.332355
  10 H :    0.101094
  11 H :    0.091625
  12 H :   -0.416856
  13 O :   -0.762486
  14 O :   -0.827588
  15 C :    0.065245
  16 C :   -0.340514
  17 C :   -0.311891
  18 H :   -0.119478
  19 H :    0.047323
  20 H :   -0.034928
  21 H :    0.112355
  22 C :   -0.025119
  23 H :    0.086181
  24 H :   -0.196000
  25 C :   -0.170522
  26 H :   -0.179768
  27 H :    0.037772
  28 C :    0.674588
  29 H :    0.231661
  30 H :   -0.285182
  31 H :    0.266758
  32 H :   -0.432320
  33 H :    0.135133
  34 H :    0.037923
  35 H :    0.062400
  36 H :    0.013531
Sum of atomic charges:   -0.0000000

LOEWDIN ATOMIC CHARGES
----------------------
   0 C :    0.037441
   1 C :   -0.028780
   2 C :    0.030326
   3 H :    0.017641
   4 H :    0.033255
   5 C :   -0.184142
   6 C :   -0.069434
   7 N :    0.304948
   8 N :    0.293950
   9 H :   -0.090248
  10 H :    0.037983
  11 H :    0.039456
  12 H :   -0.091575
  13 O :   -0.251540
  14 O :   -0.247311
  15 C :   -0.016852
  16 C :   -0.035728
  17 C :   -0.037938
  18 H :    0.026700
  19 H :    0.007947
  20 H :    0.020889
  21 H :    0.024168
  22 C :   -0.031287
  23 H :    0.020946
  24 H :    0.031809
  25 C :   -0.040328
  26 H :   -0.004384
  27 H :    0.039396
  28 C :   -0.032982
  29 H :    0.018953
  30 H :    0.025360
  31 H :    0.014134
  32 H :    0.026727
  33 H :    0.023548
  34 H :    0.023273
  35 H :    0.028229
  36 H :    0.035450

  Mayer bond orders larger than 0.100000
B(  0-C ,  6-C ) :   1.1575 B(  0-C , 15-C ) :   1.1520 B(  0-C , 35-H ) :   0.7569
B(  0-C , 36-H ) :   0.6987 B(  1-C ,  2-C ) :   1.2315 B(  1-C ,  4-H ) :   0.1438
B(  1-C , 17-C ) :   1.2653 B(  1-C , 20-H ) :   0.7990 B(  1-C , 21-H ) :   0.6614
B(  2-C ,  3-H ) :   0.8259 B(  2-C ,  4-H ) :   0.7599 B(  2-C ,  5-C ) :   1.1263
B(  2-C , 20-H ) :   0.1378 B(  2-C , 21-H ) :   0.1196 B(  3-H ,  5-C ) :   0.1682
B(  4-H ,  5-C ) :   0.2056 B(  5-C , 13-O ) :   1.2088 B(  5-C , 14-O ) :   1.1125
B(  6-C ,  7-N ) :   0.9780 B(  6-C ,  8-N ) :   1.0191 B(  6-C , 12-H ) :  -0.1056
B(  6-C , 35-H ) :   0.1853 B(  6-C , 36-H ) :   0.1940 B(  7-N ,  8-N ) :   0.1645
B(  7-N , 11-H ) :   1.0033 B(  7-N , 12-H ) :   1.1699 B(  8-N ,  9-H ) :   1.1247
B(  8-N , 10-H ) :   1.0042 B(  9-H , 10-H ) :  -0.2216 B(  9-H , 13-O ) :   0.1713
B( 11-H , 12-H ) :  -0.2375 B( 12-H , 14-O ) :   0.2209 B( 13-O , 14-O ) :   0.1307
B( 15-C , 22-C ) :   1.1757 B( 15-C , 23-H ) :   0.8813 B( 15-C , 24-H ) :   0.9463
B( 15-C , 27-H ) :   0.1074 B( 15-C , 35-H ) :   0.1309 B( 15-C , 36-H ) :   0.1465
B( 16-C , 17-C ) :   1.2830 B( 16-C , 18-H ) :   0.1747 B( 16-C , 19-H ) :   0.1010
B( 16-C , 25-C ) :   0.1232 B( 16-C , 28-C ) :   1.0961 B( 16-C , 31-H ) :   0.7972
B( 16-C , 32-H ) :   1.1964 B( 16-C , 33-H ) :   0.1408 B( 16-C , 34-H ) :   0.2431
B( 17-C , 18-H ) :   0.9044 B( 17-C , 19-H ) :   0.9288 B( 17-C , 20-H ) :   0.1886
B( 17-C , 21-H ) :   0.2169 B( 17-C , 32-H ) :   0.1234 B( 22-C , 23-H ) :   0.1255
B( 22-C , 24-H ) :   0.2183 B( 22-C , 25-C ) :   1.2301 B( 22-C , 26-H ) :   0.9752
B( 22-C , 27-H ) :   0.7612 B( 22-C , 29-H ) :   0.1105 B( 22-C , 30-H ) :   0.2130
B( 25-C , 27-H ) :   0.1059 B( 25-C , 28-C ) :   1.1807 B( 25-C , 29-H ) :   0.8099
B( 25-C , 30-H ) :   1.0187 B( 25-C , 33-H ) :   0.1892 B( 25-C , 34-H ) :   0.1558
B( 26-H , 27-H ) :   0.1923 B( 26-H , 31-H ) :   0.1770 B( 26-H , 32-H ) :  -0.1061
B( 28-C , 29-H ) :   0.1016 B( 28-C , 33-H ) :   0.6702 B( 28-C , 34-H ) :   0.6636

Dispersion correction           -0.037733839
FINAL SINGLE POINT ENERGY      -691.205211899452

DIPOLE MOMENT
-------------
                                X             Y             Z
Electronic contribution:      3.43136       1.61152      12.98763
Nuclear contribution   :     -1.50655      -3.48027     -14.35034
                        -----------------------------------------
Total Dipole Moment    :      1.92480      -1.86876      -1.36271
                        -----------------------------------------
Magnitude (a.u.)       :      3.00900
Magnitude (Debye)      :      7.64828

Rotational constants in cm-1:     0.021781     0.017296     0.011403
Rotational constants in MHz :   652.971749   518.510612   341.853154

                             ****ORCA TERMINATED NORMALLY****
TOTAL RUN TIME: 0 days 0 hours 3 minutes 30 seconds 435 msec
