                         Program Version 5.0.0 -  RELEASE  -
|  1> !PBE0 D3BJ RIJCOSX def2-SVPD def2/J TightSCF
|  2> *xyz 0 1
|  3> C         -0.91495        0.61511        2.50554
|  4> C         -0.05915        1.50352        3.41058
|  5> H          0.36536        2.34431        2.86116
|  6> H         -0.69226        1.92021        4.19898
|  7> C          1.08303        0.74964        4.08571
|  8> F          2.22817        1.26348        4.01983
|  9> O          0.81003       -0.34541        4.63627
| 10> H         -0.30401        0.20228        1.73015
| 11> H         -1.69811        1.19946        2.06954
| 12> H         -1.34124       -0.17772        3.08397
| 13> *
| 14>
| 15> %MaxCore 64000
| 16>
| 17> %pal nprocs 4
| 18> end
| 19>
| 20> %scf
| 21>   MaxIter 150
| 22> end
| 23>
| 24>
| 25>                          ****END OF INPUT****

CARTESIAN COORDINATES (ANGSTROEM)
---------------------------------
  C     -0.914950    0.615110    2.505540
  C     -0.059150    1.503520    3.410580
  H      0.365360    2.344310    2.861160
  H     -0.692260    1.920210    4.198980
  C      1.083030    0.749640    4.085710
  F      2.228170    1.263480    4.019830
  O      0.810030   -0.345410    4.636270
  H     -0.304010    0.202280    1.730150
  H     -1.698110    1.199460    2.069540
  H     -1.341240   -0.177720    3.083970

 Total Charge           Charge          ....    0
 Multiplicity           Mult            ....    1
 Number of Electrons    NEL             ....   40
 Basis Dimension        Dim             ....  146

ORBITAL ENERGIES
----------------

  NO   OCC          E(Eh)            E(eV)
   0   2.0000     -24.856664      -676.3842
   1   2.0000     -19.227455      -523.2056
   2   2.0000     -10.415939      -283.4321
   3   2.0000     -10.267744      -279.3995
   4   2.0000     -10.238231      -278.5964
   5   2.0000      -1.339895       -36.4604
   6   2.0000      -1.055513       -28.7220
   7   2.0000      -0.819906       -22.3108
   8   2.0000      -0.709886       -19.3170
   9   2.0000      -0.658042       -17.9062
  10   2.0000      -0.570573       -15.5261
  11   2.0000      -0.555798       -15.1240
  12   2.0000      -0.526787       -14.3346
  13   2.0000      -0.482310       -13.1243
  14   2.0000      -0.451612       -12.2890
  15   2.0000      -0.415350       -11.3022
  16   2.0000      -0.393858       -10.7174
  17   2.0000      -0.389635       -10.6025
  18   2.0000      -0.364549        -9.9199
  19   2.0000      -0.311498        -8.4763
  20   0.0000      -0.029892        -0.8134
  21   0.0000       0.021722         0.5911
  22   0.0000       0.051803         1.4096
  23   0.0000       0.064234         1.7479
  24   0.0000       0.080849         2.2000

MULLIKEN ATOMIC CHARGES
-----------------------
   0 C :    0.437404
   1 C :   -0.519031
   2 H :    0.038443
   3 H :    0.120909
   4 C :    0.874015
   5 F :   -0.402429
   6 O :   -0.573165
   7 H :   -0.003873
   8 H :    0.000442
   9 H :    0.027286
Sum of atomic charges:    0.0000000

LOEWDIN ATOMIC CHARGES
----------------------
   0 C :    0.136591
   1 C :   -0.002424
   2 H :    0.024286
   3 H :    0.044179
   4 C :    0.001524
   5 F :   -0.040578
   6 O :   -0.138790
   7 H :   -0.006207
   8 H :   -0.010975
   9 H :   -0.007606

  Mayer bond orders larger than 0.100000
B(  0-C ,  1-C ) :   1.3304 B(  0-C ,  7-H ) :   0.8763 B(  0-C ,  8-H ) :   0.8600
B(  0-C ,  9-H ) :   0.8504 B(  1-C ,  2-H ) :   0.9699 B(  1-C ,  3-H ) :   0.8803
B(  1-C ,  4-C ) :   1.0917 B(  1-C ,  7-H ) :   0.1409 B(  1-C ,  8-H ) :   0.1410
B(  1-C ,  9-H ) :   0.1639 B(  4-C ,  5-F ) :   0.6895 B(  4-C ,  6-O ) :   1.7258

Dispersion correction           -0.005171926
FINAL SINGLE POINT ENERGY      -291.883806021090

DIPOLE MOMENT
-------------
                                X             Y             Z
Electronic contribution:      7.71845      -0.15850       4.08423
Nuclear contribution   :     -8.12386       1.06915      -4.71960
                        -----------------------------------------
Total Dipole Moment    :     -0.40541       0.91065      -0.63536
                        -----------------------------------------
Magnitude (a.u.)       :      1.18208
Magnitude (Debye)      :      3.00462

Rotational constants in cm-1:     0.309513     0.127560     0.099675
Rotational constants in MHz :  9278.979128  3824.146597  2988.174827

                             ****ORCA TERMINATED NORMALLY****
TOTAL RUN TIME: 0 days 0 hours 0 minutes 14 seconds 353 msec
