                         Program Version 5.0.0 -  RELEASE  -
|  1> !PBE0 D3BJ RIJCOSX def2-SVPD def2/J TightSCF
|  2> *xyz 0 1
|  3> C          4.60295       -2.44010        2.63478
|  4> C          3.86085       -1.59157        3.62289
|  5> C          2.75650       -2.04616        4.16633
|  6> N          4.25433       -0.36291        3.86046
|  7> H          3.56526        0.31099        4.16898
|  8> H          5.05429       -0.01606        3.33784
|  9> H          2.43970       -2.97389        3.89740
| 10> H          2.06687       -1.41253        4.54981
| 11> C          3.74469       -2.58056        1.36188
| 12> H          5.56156       -1.97135        2.40708
| 13> H          4.81050       -3.42255        3.06310
| 14> H          4.26314       -3.18477        0.64702
| 15> H          3.56325       -1.61180        0.94535
| 16> H          2.81197       -3.04259        1.60980
| 17> *
| 18>
| 19> %MaxCore 64000
| 20>
| 21> %pal nprocs 4
| 22> end
| 23>
| 24> %scf
| 25>   MaxIter 150
| 26> end
| 27>
| 28>
| 29>                          ****END OF INPUT****

CARTESIAN COORDINATES (ANGSTROEM)
---------------------------------
  C      4.602950   -2.440100    2.634780
  C      3.860850   -1.591570    3.622890
  C      2.756500   -2.046160    4.166330
  N      4.254330   -0.362910    3.860460
  H      3.565260    0.310990    4.168980
  H      5.054290   -0.016060    3.337840
  H      2.439700   -2.973890    3.897400
  H      2.066870   -1.412530    4.549810
  C      3.744690   -2.580560    1.361880
  H      5.561560   -1.971350    2.407080
  H      4.810500   -3.422550    3.063100
  H      4.263140   -3.184770    0.647020
  H      3.563250   -1.611800    0.945350
  H      2.811970   -3.042590    1.609800

 Total Charge           Charge          ....    0
 Multiplicity           Mult            ....    1
 Number of Electrons    NEL             ....   40
 Basis Dimension        Dim             ....  172

ORBITAL ENERGIES
----------------

  NO   OCC          E(Eh)            E(eV)
   0   2.0000     -14.398255      -391.7964
   1   2.0000     -10.251495      -278.9574
   2   2.0000     -10.236193      -278.5410
   3   2.0000     -10.219084      -278.0754
   4   2.0000     -10.162361      -276.5319
   5   2.0000      -0.952905       -25.9299
   6   2.0000      -0.799515       -21.7559
   7   2.0000      -0.728618       -19.8267
   8   2.0000      -0.654954       -17.8222
   9   2.0000      -0.578714       -15.7476
  10   2.0000      -0.540453       -14.7065
  11   2.0000      -0.497557       -13.5392
  12   2.0000      -0.462378       -12.5819
  13   2.0000      -0.426954       -11.6180
  14   2.0000      -0.402919       -10.9640
  15   2.0000      -0.391303       -10.6479
  16   2.0000      -0.365966        -9.9584
  17   2.0000      -0.355579        -9.6758
  18   2.0000      -0.341946        -9.3048
  19   2.0000      -0.201260        -5.4766
  20   0.0000       0.024485         0.6663
  21   0.0000       0.039451         1.0735
  22   0.0000       0.058152         1.5824
  23   0.0000       0.066832         1.8186
  24   0.0000       0.074998         2.0408

MULLIKEN ATOMIC CHARGES
-----------------------
   0 C :   -0.176611
   1 C :   -0.063897
   2 C :    0.281752
   3 N :   -0.011133
   4 H :   -0.084865
   5 H :   -0.040327
   6 H :   -0.046680
   7 H :   -0.365266
   8 C :    0.488117
   9 H :   -0.020740
  10 H :    0.079333
  11 H :    0.031328
  12 H :   -0.032304
  13 H :   -0.038707
Sum of atomic charges:    0.0000000

LOEWDIN ATOMIC CHARGES
----------------------
   0 C :   -0.026417
   1 C :   -0.269681
   2 C :    0.163500
   3 N :    0.162297
   4 H :    0.010477
   5 H :    0.000375
   6 H :   -0.076942
   7 H :   -0.080998
   8 C :    0.131704
   9 H :    0.011930
  10 H :    0.029044
  11 H :   -0.020153
  12 H :   -0.012323
  13 H :   -0.022814

  Mayer bond orders larger than 0.100000
B(  0-C ,  1-C ) :   1.2082 B(  0-C ,  8-C ) :   1.2877 B(  0-C ,  9-H ) :   0.8465
B(  0-C , 10-H ) :   0.8531 B(  0-C , 11-H ) :   0.1375 B(  0-C , 12-H ) :   0.1592
B(  0-C , 13-H ) :   0.1638 B(  1-C ,  2-C ) :   1.8573 B(  1-C ,  3-N ) :   0.9850
B(  1-C ,  6-H ) :   0.1282 B(  1-C ,  7-H ) :   0.1288 B(  1-C ,  9-H ) :   0.1558
B(  1-C , 10-H ) :   0.1698 B(  2-C ,  3-N ) :   0.2751 B(  2-C ,  6-H ) :   0.7499
B(  2-C ,  7-H ) :   0.9279 B(  3-N ,  4-H ) :   1.1454 B(  3-N ,  5-H ) :   1.0268
B(  4-H ,  5-H ) :  -0.1192 B(  8-C , 11-H ) :   0.8363 B(  8-C , 12-H ) :   0.8683
B(  8-C , 13-H ) :   0.8882

Dispersion correction           -0.008988350
FINAL SINGLE POINT ENERGY      -212.164790339569

DIPOLE MOMENT
-------------
                                X             Y             Z
Electronic contribution:      0.80318       1.78073       2.55402
Nuclear contribution   :     -0.47010      -1.22282      -3.06417
                        -----------------------------------------
Total Dipole Moment    :      0.33307       0.55791      -0.51014
                        -----------------------------------------
Magnitude (a.u.)       :      0.82611
Magnitude (Debye)      :      2.09979

Rotational constants in cm-1:     0.271862     0.131962     0.105499
Rotational constants in MHz :  8150.219120  3956.123671  3162.785522

                             ****ORCA TERMINATED NORMALLY****
TOTAL RUN TIME: 0 days 0 hours 0 minutes 21 seconds 660 msec
