                         Program Version 5.0.0 -  RELEASE  -
|  1> !PBE0 D3BJ RIJCOSX def2-SVPD def2/J TightSCF
|  2> *xyz 0 1
|  3> C         -0.91495        0.61511        2.50554
|  4> C         -0.05915        1.50352        3.41058
|  5> H          0.36536        2.34431        2.86116
|  6> H         -0.69226        1.92021        4.19898
|  7> C          1.08303        0.74964        4.08571
|  8> O          2.22817        1.26348        4.01983
|  9> F          0.81003       -0.34541        4.63627
| 10> H         -0.30401        0.20228        1.73015
| 11> H         -1.69811        1.19946        2.06954
| 12> H         -1.34124       -0.17772        3.08397
| 13> *
| 14>
| 15> %MaxCore 64000
| 16>
| 17> %pal nprocs 4
| 18> end
| 19>
| 20> %scf
| 21>   MaxIter 150
| 22> end
| 23>
| 24>
| 25>                          ****END OF INPUT****

CARTESIAN COORDINATES (ANGSTROEM)
---------------------------------
  C     -0.914950    0.615110    2.505540
  C     -0.059150    1.503520    3.410580
  H      0.365360    2.344310    2.861160
  H     -0.692260    1.920210    4.198980
  C      1.083030    0.749640    4.085710
  O      2.228170    1.263480    4.019830
  F      0.810030   -0.345410    4.636270
  H     -0.304010    0.202280    1.730150
  H     -1.698110    1.199460    2.069540
  H     -1.341240   -0.177720    3.083970

 Total Charge           Charge          ....    0
 Multiplicity           Mult            ....    1
 Number of Electrons    NEL             ....   40
 Basis Dimension        Dim             ....  146

ORBITAL ENERGIES
----------------

  NO   OCC          E(Eh)            E(eV)
   0   2.0000     -24.857904      -676.4179
   1   2.0000     -19.226343      -523.1754
   2   2.0000     -10.415329      -283.4155
   3   2.0000     -10.267225      -279.3854
   4   2.0000     -10.243775      -278.7473
   5   2.0000      -1.341409       -36.5016
   6   2.0000      -1.053649       -28.6712
   7   2.0000      -0.824218       -22.4281
   8   2.0000      -0.705635       -19.2013
   9   2.0000      -0.664867       -18.0920
  10   2.0000      -0.573011       -15.5924
  11   2.0000      -0.562983       -15.3195
  12   2.0000      -0.517816       -14.0905
  13   2.0000      -0.483433       -13.1549
  14   2.0000      -0.452216       -12.3054
  15   2.0000      -0.420324       -11.4376
  16   2.0000      -0.400862       -10.9080
  17   2.0000      -0.392921       -10.6919
  18   2.0000      -0.366812        -9.9815
  19   2.0000      -0.306271        -8.3341
  20   0.0000      -0.027315        -0.7433
  21   0.0000       0.018855         0.5131
  22   0.0000       0.053637         1.4595
  23   0.0000       0.062332         1.6961
  24   0.0000       0.081231         2.2104

MULLIKEN ATOMIC CHARGES
-----------------------
   0 C :    0.437243
   1 C :   -0.497897
   2 H :    0.018843
   3 H :    0.111585
   4 C :    0.894216
   5 O :   -0.551777
   6 F :   -0.426382
   7 H :   -0.002925
   8 H :    0.000752
   9 H :    0.016342
Sum of atomic charges:   -0.0000000

LOEWDIN ATOMIC CHARGES
----------------------
   0 C :    0.129307
   1 C :    0.003572
   2 H :    0.036196
   3 H :    0.041227
   4 C :   -0.002172
   5 O :   -0.142959
   6 F :   -0.035834
   7 H :   -0.006199
   8 H :   -0.010632
   9 H :   -0.012506

  Mayer bond orders larger than 0.100000
B(  0-C ,  1-C ) :   1.2949 B(  0-C ,  7-H ) :   0.8858 B(  0-C ,  8-H ) :   0.8666
B(  0-C ,  9-H ) :   0.8459 B(  1-C ,  2-H ) :   1.0072 B(  1-C ,  3-H ) :   0.8788
B(  1-C ,  4-C ) :   1.0558 B(  1-C ,  7-H ) :   0.1330 B(  1-C ,  8-H ) :   0.1435
B(  1-C ,  9-H ) :   0.1540 B(  2-H ,  4-C ) :   0.1205 B(  4-C ,  5-O ) :   1.7219
B(  4-C ,  6-F ) :   0.6700

Dispersion correction           -0.005136500
FINAL SINGLE POINT ENERGY      -291.882855312840

DIPOLE MOMENT
-------------
                                X             Y             Z
Electronic contribution:      5.32870      -2.83350       5.09659
Nuclear contribution   :     -6.57765       2.82334      -5.39171
                        -----------------------------------------
Total Dipole Moment    :     -1.24895      -0.01016      -0.29512
                        -----------------------------------------
Magnitude (a.u.)       :      1.28338
Magnitude (Debye)      :      3.26210

Rotational constants in cm-1:     0.294245     0.132994     0.101060
Rotational constants in MHz :  8821.228602  3987.049251  3029.696815

                             ****ORCA TERMINATED NORMALLY****
TOTAL RUN TIME: 0 days 0 hours 0 minutes 15 seconds 607 msec
