                         Program Version 5.0.0 -  RELEASE  -
|  1> !PBE0 D3BJ RIJCOSX def2-SVPD def2/J TightSCF
|  2> *xyz 0 1
|  3> C          4.60295       -2.44010        2.63478
|  4> C          3.86085       -1.59157        3.62289
|  5> N          2.75650       -2.04616        4.16633
|  6> C          4.25433       -0.36291        3.86046
|  7> H          3.56526        0.31099        4.16898
|  8> H          5.05429       -0.01606        3.33784
|  9> H          2.43970       -2.97389        3.89740
| 10> H          2.06687       -1.41253        4.54981
| 11> C          3.74469       -2.58056        1.36188
| 12> H          5.56156       -1.97135        2.40708
| 13> H          4.81050       -3.42255        3.06310
| 14> H          4.26314       -3.18477        0.64702
| 15> H          3.56325       -1.61180        0.94535
| 16> H          2.81197       -3.04259        1.60980
| 17> *
| 18>
| 19> %MaxCore 64000
| 20>
| 21> %pal nprocs 4
| 22> end
| 23>
| 24> %scf
| 25>   MaxIter 150
| 26> end
| 27>
| 28>
| 29>                          ****END OF INPUT****

CARTESIAN COORDINATES (ANGSTROEM)
---------------------------------
  C      4.602950   -2.440100    2.634780
  C      3.860850   -1.591570    3.622890
  N      2.756500   -2.046160    4.166330
  C      4.254330   -0.362910    3.860460
  H      3.565260    0.310990    4.168980
  H      5.054290   -0.016060    3.337840
  H      2.439700   -2.973890    3.897400
  H      2.066870   -1.412530    4.549810
  C      3.744690   -2.580560    1.361880
  H      5.561560   -1.971350    2.407080
  H      4.810500   -3.422550    3.063100
  H      4.263140   -3.184770    0.647020
  H      3.563250   -1.611800    0.945350
  H      2.811970   -3.042590    1.609800

 Total Charge           Charge          ....    0
 Multiplicity           Mult            ....    1
 Number of Electrons    NEL             ....   40
 Basis Dimension        Dim             ....  172

ORBITAL ENERGIES
----------------

  NO   OCC          E(Eh)            E(eV)
   0   2.0000     -14.398138      -391.7933
   1   2.0000     -10.252375      -278.9813
   2   2.0000     -10.235671      -278.5268
   3   2.0000     -10.222949      -278.1806
   4   2.0000     -10.163521      -276.5635
   5   2.0000      -0.952534       -25.9198
   6   2.0000      -0.797551       -21.7025
   7   2.0000      -0.736784       -20.0489
   8   2.0000      -0.650244       -17.6940
   9   2.0000      -0.585752       -15.9391
  10   2.0000      -0.541771       -14.7423
  11   2.0000      -0.492486       -13.4012
  12   2.0000      -0.453437       -12.3387
  13   2.0000      -0.443876       -12.0785
  14   2.0000      -0.402586       -10.9549
  15   2.0000      -0.393758       -10.7147
  16   2.0000      -0.369107       -10.0439
  17   2.0000      -0.353902        -9.6302
  18   2.0000      -0.337885        -9.1943
  19   2.0000      -0.203872        -5.5477
  20   0.0000       0.022324         0.6075
  21   0.0000       0.041649         1.1333
  22   0.0000       0.062818         1.7094
  23   0.0000       0.064512         1.7555
  24   0.0000       0.072643         1.9767

MULLIKEN ATOMIC CHARGES
-----------------------
   0 C :   -0.304868
   1 C :   -0.146975
   2 N :    0.111704
   3 C :    0.287180
   4 H :   -0.300942
   5 H :   -0.019561
   6 H :   -0.058837
   7 H :   -0.170655
   8 C :    0.532365
   9 H :    0.106845
  10 H :    0.013015
  11 H :   -0.027702
  12 H :   -0.003918
  13 H :   -0.017652
Sum of atomic charges:    0.0000000

LOEWDIN ATOMIC CHARGES
----------------------
   0 C :   -0.027473
   1 C :   -0.275038
   2 N :    0.166052
   3 C :    0.165051
   4 H :   -0.081755
   5 H :   -0.080447
   6 H :    0.002288
   7 H :    0.012202
   8 C :    0.131068
   9 H :    0.024075
  10 H :    0.021001
  11 H :   -0.018547
  12 H :   -0.009477
  13 H :   -0.029000

  Mayer bond orders larger than 0.100000
B(  0-C ,  1-C ) :   1.2906 B(  0-C ,  8-C ) :   1.2690 B(  0-C ,  9-H ) :   0.9011
B(  0-C , 10-H ) :   0.8635 B(  0-C , 11-H ) :   0.1687 B(  0-C , 12-H ) :   0.1387
B(  0-C , 13-H ) :   0.1882 B(  1-C ,  2-N ) :   1.0271 B(  1-C ,  3-C ) :   1.9835
B(  1-C ,  4-H ) :   0.2301 B(  1-C ,  5-H ) :   0.1374 B(  1-C ,  9-H ) :   0.1532
B(  1-C , 10-H ) :   0.1778 B(  2-N ,  3-C ) :   0.2505 B(  2-N ,  6-H ) :   1.0544
B(  2-N ,  7-H ) :   1.1892 B(  3-C ,  4-H ) :   0.8187 B(  3-C ,  5-H ) :   0.8810
B(  4-H ,  5-H ) :   0.1011 B(  6-H ,  7-H ) :  -0.1233 B(  8-C , 11-H ) :   0.8722
B(  8-C , 12-H ) :   0.8721 B(  8-C , 13-H ) :   0.8262

Dispersion correction           -0.008975199
FINAL SINGLE POINT ENERGY      -212.165438152005

DIPOLE MOMENT
-------------
                                X             Y             Z
Electronic contribution:     -0.49380       0.31544       2.82877
Nuclear contribution   :     -0.12319      -0.83296      -3.13501
                        -----------------------------------------
Total Dipole Moment    :     -0.61699      -0.51752      -0.30624
                        -----------------------------------------
Magnitude (a.u.)       :      0.86157
Magnitude (Debye)      :      2.18993

Rotational constants in cm-1:     0.266453     0.134423     0.106086
Rotational constants in MHz :  7988.053142  4029.892766  3180.375228

                             ****ORCA TERMINATED NORMALLY****
TOTAL RUN TIME: 0 days 0 hours 0 minutes 19 seconds 38 msec
