                         Program Version 5.0.0 -  RELEASE  -
|  1> !PBE0 D3BJ RIJCOSX def2-SVPD def2/J TightSCF xyzfile
|  2>
|  3> *xyzfile 0 1 D1.xyz
|  4>
|  5> %MaxCore 64000
|  6>
|  7> %pal nprocs 4
|  8> end
|  9>
| 10> %scf
| 11>   MaxIter 150
| 12> end
| 13>
| 14>
| 15>                          ****END OF INPUT****

CARTESIAN COORDINATES (ANGSTROEM)
---------------------------------
  C      4.602954   -2.440100    2.634780
  C     -0.914947    0.615112    2.505538
  C     -0.059146    1.503524    3.410578
  H      0.365364    2.344315    2.861161
  H     -0.692261    1.920207    4.198985
  C      1.083027    0.749640    4.085705
  C      3.860851   -1.591565    3.622893
  C      2.756502   -2.046159    4.166333
  N      4.254325   -0.362905    3.860455
  H      3.565256    0.310994    4.168983
  H      5.054292   -0.016059    3.337838
  H      2.439696   -2.973894    3.897395
  H      2.066869   -1.412532    4.549813
  F      2.228167    1.263475    4.019826
  O      0.810034   -0.345411    4.636269
  C      3.744685   -2.580557    1.361882
  C      0.772139    0.636882    0.562129
  C     -0.130740   -0.193985    1.470763
  H     -0.840563   -0.760165    0.856377
  H      0.466691   -0.938942    2.006959
  H     -1.647961    1.245963    1.991076
  H     -1.478180   -0.081046    3.130424
  C      3.203721   -1.256004    0.826211
  H      2.898939   -3.239289    1.583074
  H      4.334962   -3.095523    0.600188
  C      2.107815   -1.442385   -0.216865
  H      2.786775   -0.672760    1.650711
  H      4.021008   -0.652993    0.414046
  C      1.390662   -0.145912   -0.602422
  H      1.372179   -2.152184    0.176151
  H      2.523302   -1.906787   -1.117115
  H      1.561361    1.100094    1.161831
  H      0.195516    1.468325    0.142758
  H      0.602893   -0.398214   -1.319716
  H      2.087247    0.508272   -1.137335
  H      5.561557   -1.971347    2.407084
  H      4.810498   -3.422552    3.063099

 Total Charge           Charge          ....    0
 Multiplicity           Mult            ....    1
 Number of Electrons    NEL             ....  118
 Basis Dimension        Dim             ....  482

ORBITAL ENERGIES
----------------

  NO   OCC          E(Eh)            E(eV)
   0   2.0000     -24.882739      -677.0938
   1   2.0000     -19.240333      -523.5561
   2   2.0000     -14.374904      -391.1610
   3   2.0000     -10.430467      -283.8274
   4   2.0000     -10.271986      -279.5149
   5   2.0000     -10.250556      -278.9318
   6   2.0000     -10.234966      -278.5076
   7   2.0000     -10.234731      -278.5012
   8   2.0000     -10.231347      -278.4091
   9   2.0000     -10.229619      -278.3621
  10   2.0000     -10.223305      -278.1903
  11   2.0000     -10.221722      -278.1472
  12   2.0000     -10.220938      -278.1259
  13   2.0000     -10.219393      -278.0838
  14   2.0000     -10.131076      -275.6806
  15   2.0000      -1.367881       -37.2219
  16   2.0000      -1.074147       -29.2290
  17   2.0000      -0.935414       -25.4539
  18   2.0000      -0.850060       -23.1313
  19   2.0000      -0.824396       -22.4330
  20   2.0000      -0.799337       -21.7511
  21   2.0000      -0.761925       -20.7330
  22   2.0000      -0.738828       -20.1045
  23   2.0000      -0.709008       -19.2931
  24   2.0000      -0.695555       -18.9270
  25   2.0000      -0.663506       -18.0549
  26   2.0000      -0.630111       -17.1462
  27   2.0000      -0.605679       -16.4814
  28   2.0000      -0.595937       -16.2163
  29   2.0000      -0.585947       -15.9444
  30   2.0000      -0.568742       -15.4763
  31   2.0000      -0.555415       -15.1136
  32   2.0000      -0.542296       -14.7566
  33   2.0000      -0.514871       -14.0103
  34   2.0000      -0.497927       -13.5493
  35   2.0000      -0.495496       -13.4831
  36   2.0000      -0.485261       -13.2046
  37   2.0000      -0.466469       -12.6933
  38   2.0000      -0.460769       -12.5382
  39   2.0000      -0.443150       -12.0587
  40   2.0000      -0.439498       -11.9593
  41   2.0000      -0.425517       -11.5789
  42   2.0000      -0.418591       -11.3904
  43   2.0000      -0.405871       -11.0443
  44   2.0000      -0.401511       -10.9257
  45   2.0000      -0.386943       -10.5292
  46   2.0000      -0.383947       -10.4477
  47   2.0000      -0.374592       -10.1932
  48   2.0000      -0.367778       -10.0078
  49   2.0000      -0.357639        -9.7318
  50   2.0000      -0.354846        -9.6558
  51   2.0000      -0.347234        -9.4487
  52   2.0000      -0.336424        -9.1546
  53   2.0000      -0.333095        -9.0640
  54   2.0000      -0.324149        -8.8205
  55   2.0000      -0.321493        -8.7483
  56   2.0000      -0.316382        -8.6092
  57   2.0000      -0.290695        -7.9102
  58   2.0000      -0.181208        -4.9309
  59   0.0000      -0.045726        -1.2443
  60   0.0000       0.015851         0.4313
  61   0.0000       0.033521         0.9122
  62   0.0000       0.035287         0.9602
  63   0.0000       0.039543         1.0760

MULLIKEN ATOMIC CHARGES
-----------------------
   0 C :    0.691223
   1 C :    0.388900
   2 C :    0.001657
   3 H :    0.268893
   4 H :   -0.095562
   5 C :    0.752212
   6 C :   -0.383025
   7 C :    0.765478
   8 N :    0.214865
   9 H :   -0.306907
  10 H :    0.059753
  11 H :   -0.137465
  12 H :   -0.696394
  13 F :   -0.507665
  14 O :   -0.621309
  15 C :   -0.067882
  16 C :   -0.336850
  17 C :   -0.309862
  18 H :   -0.110342
  19 H :    0.062942
  20 H :   -0.013928
  21 H :    0.131691
  22 C :   -0.074272
  23 H :    0.134054
  24 H :   -0.192715
  25 C :   -0.151458
  26 H :   -0.154739
  27 H :    0.049543
  28 C :    0.665744
  29 H :    0.235064
  30 H :   -0.276273
  31 H :    0.245895
  32 H :   -0.446206
  33 H :    0.131605
  34 H :    0.038762
  35 H :   -0.007274
  36 H :    0.051849
Sum of atomic charges:    0.0000000

LOEWDIN ATOMIC CHARGES
----------------------
   0 C :    0.015133
   1 C :   -0.016327
   2 C :    0.052185
   3 H :    0.024924
   4 H :    0.046020
   5 C :    0.059481
   6 C :   -0.258854
   7 C :    0.198175
   8 N :    0.189005
   9 H :   -0.066205
  10 H :    0.004374
  11 H :   -0.067543
  12 H :   -0.166400
  13 F :   -0.035965
  14 O :   -0.116175
  15 C :   -0.023099
  16 C :   -0.041873
  17 C :   -0.030575
  18 H :    0.034478
  19 H :    0.016453
  20 H :    0.030573
  21 H :    0.032208
  22 C :   -0.036902
  23 H :    0.020440
  24 H :    0.021575
  25 C :   -0.041303
  26 H :   -0.012912
  27 H :    0.033909
  28 C :   -0.032723
  29 H :    0.019377
  30 H :    0.026003
  31 H :    0.008329
  32 H :    0.024808
  33 H :    0.023459
  34 H :    0.024095
  35 H :    0.013381
  36 H :    0.028473

  Mayer bond orders larger than 0.100000
B(  0-C ,  6-C ) :   1.1825 B(  0-C ,  8-N ) :   0.1106 B(  0-C , 15-C ) :   1.1204
B(  0-C , 35-H ) :   0.5699 B(  0-C , 36-H ) :   0.6877 B(  1-C ,  2-C ) :   1.2332
B(  1-C ,  4-H ) :   0.1648 B(  1-C , 17-C ) :   1.2755 B(  1-C , 20-H ) :   0.7949
B(  1-C , 21-H ) :   0.6618 B(  2-C ,  3-H ) :   0.8043 B(  2-C ,  4-H ) :   0.7388
B(  2-C ,  5-C ) :   1.2075 B(  2-C , 20-H ) :   0.1294 B(  2-C , 21-H ) :   0.1085
B(  3-H ,  5-C ) :   0.1139 B(  4-H ,  5-C ) :   0.2346 B(  5-C , 13-F ) :   0.5237
B(  5-C , 14-O ) :   1.6379 B(  6-C ,  7-C ) :   1.9882 B(  6-C ,  8-N ) :   0.7929
B(  6-C , 10-H ) :   0.1120 B(  6-C , 12-H ) :   0.3082 B(  6-C , 15-C ) :   0.1118
B(  6-C , 35-H ) :   0.2968 B(  6-C , 36-H ) :   0.2189 B(  7-C ,  8-N ) :   0.4035
B(  7-C , 11-H ) :   0.7111 B(  7-C , 12-H ) :   0.2214 B(  8-N ,  9-H ) :   1.0479
B(  8-N , 10-H ) :   0.9494 B(  8-N , 11-H ) :   0.2095 B(  8-N , 12-H ) :  -0.1762
B(  9-H , 10-H ) :  -0.2070 B(  9-H , 13-F ) :   0.1010 B( 12-H , 14-O ) :   0.1977
B( 15-C , 22-C ) :   1.1624 B( 15-C , 23-H ) :   0.8691 B( 15-C , 24-H ) :   0.9775
B( 15-C , 26-H ) :   0.1269 B( 15-C , 27-H ) :   0.1052 B( 15-C , 35-H ) :   0.2000
B( 15-C , 36-H ) :   0.1397 B( 16-C , 17-C ) :   1.2739 B( 16-C , 18-H ) :   0.1796
B( 16-C , 25-C ) :   0.1153 B( 16-C , 28-C ) :   1.1005 B( 16-C , 31-H ) :   0.7930
B( 16-C , 32-H ) :   1.2055 B( 16-C , 33-H ) :   0.1396 B( 16-C , 34-H ) :   0.2398
B( 17-C , 18-H ) :   0.8933 B( 17-C , 19-H ) :   0.9338 B( 17-C , 20-H ) :   0.1928
B( 17-C , 21-H ) :   0.2150 B( 17-C , 32-H ) :   0.1258 B( 22-C , 23-H ) :   0.1283
B( 22-C , 24-H ) :   0.2272 B( 22-C , 25-C ) :   1.2220 B( 22-C , 26-H ) :   1.0520
B( 22-C , 27-H ) :   0.7627 B( 22-C , 29-H ) :   0.1023 B( 22-C , 30-H ) :   0.2319
B( 25-C , 27-H ) :   0.1006 B( 25-C , 28-C ) :   1.1736 B( 25-C , 29-H ) :   0.8132
B( 25-C , 30-H ) :   1.0116 B( 25-C , 33-H ) :   0.1896 B( 25-C , 34-H ) :   0.1610
B( 26-H , 27-H ) :   0.1732 B( 26-H , 31-H ) :   0.1597 B( 26-H , 32-H ) :  -0.1012
B( 28-C , 33-H ) :   0.6768 B( 28-C , 34-H ) :   0.6651

Dispersion correction           -0.037672616
FINAL SINGLE POINT ENERGY      -699.049560437094

DIPOLE MOMENT
-------------
                                X             Y             Z
Electronic contribution:      1.18171       7.38542      14.95457
Nuclear contribution   :     -1.66567      -5.90236     -15.95042
                        -----------------------------------------
Total Dipole Moment    :     -0.48396       1.48306      -0.99586
                        -----------------------------------------
Magnitude (a.u.)       :      1.85078
Magnitude (Debye)      :      4.70432

Rotational constants in cm-1:     0.021600     0.017292     0.011381
Rotational constants in MHz :   647.565282   518.410024   341.193038

                             ****ORCA TERMINATED NORMALLY****
TOTAL RUN TIME: 0 days 0 hours 3 minutes 47 seconds 342 msec
