                         Program Version 5.0.0 -  RELEASE  -
|  1> !M062X D3Zero RIJCOSX def2-SVPD def2/J TightSCF
|  2> *xyz -1 1
|  3> C          0.70466        1.44313       -4.50363
|  4> C          1.72854        1.42432       -5.63944
|  5> H          2.64672        1.95379       -5.38105
|  6> H          1.29992        1.93061       -6.50361
|  7> S          2.25263       -0.18811       -6.27184
|  8> O          3.56261       -0.44446       -5.63155
|  9> O          2.34494       -0.03374       -7.69650
| 10> C          1.05255        0.69566       -3.21491
| 11> H         -0.23248        1.03293       -4.88445
| 12> H          0.51170        2.49579       -4.26797
| 13> O          1.26606       -1.15918       -5.80536
| 14> H          1.24200       -0.33323       -3.43942
| 15> H          0.23391        0.76629       -2.52954
| 16> H          1.92506        1.13113       -2.77446
| 17> *
| 18>
| 19> %MaxCore 64000
| 20>
| 21> %pal nprocs 8
| 22> end
| 23>
| 24> %scf
| 25>   MaxIter 150
| 26> end
| 27>
| 28>
| 29>                          ****END OF INPUT****

CARTESIAN COORDINATES (ANGSTROEM)
---------------------------------
  C      0.704660    1.443130   -4.503630
  C      1.728540    1.424320   -5.639440
  H      2.646720    1.953790   -5.381050
  H      1.299920    1.930610   -6.503610
  S      2.252630   -0.188110   -6.271840
  O      3.562610   -0.444460   -5.631550
  O      2.344940   -0.033740   -7.696500
  C      1.052550    0.695660   -3.214910
  H     -0.232480    1.032930   -4.884450
  H      0.511700    2.495790   -4.267970
  O      1.266060   -1.159180   -5.805360
  H      1.242000   -0.333230   -3.439420
  H      0.233910    0.766290   -2.529540
  H      1.925060    1.131130   -2.774460

 Total Charge           Charge          ....   -1
 Multiplicity           Mult            ....    1
 Number of Electrons    NEL             ....   66
 Basis Dimension        Dim             ....  212

ORBITAL ENERGIES
----------------

  NO   OCC          E(Eh)            E(eV)
   0   2.0000     -89.938817     -2447.3596
   1   2.0000     -19.421825      -528.4947
   2   2.0000     -19.415881      -528.3330
   3   2.0000     -19.406465      -528.0768
   4   2.0000     -10.424648      -283.6691
   5   2.0000     -10.414521      -283.3935
   6   2.0000     -10.405322      -283.1432
   7   2.0000      -8.262022      -224.8210
   8   2.0000      -6.187322      -168.3656
   9   2.0000      -6.187196      -168.3622
  10   2.0000      -6.186877      -168.3535
  11   2.0000      -1.050514       -28.5859
  12   2.0000      -0.906506       -24.6673
  13   2.0000      -0.881980       -23.9999
  14   2.0000      -0.748717       -20.3736
  15   2.0000      -0.655077       -17.8256
  16   2.0000      -0.553247       -15.0546
  17   2.0000      -0.462678       -12.5901
  18   2.0000      -0.409370       -11.1395
  19   2.0000      -0.390541       -10.6272
  20   2.0000      -0.369907       -10.0657
  21   2.0000      -0.357230        -9.7207
  22   2.0000      -0.344254        -9.3676
  23   2.0000      -0.328032        -8.9262
  24   2.0000      -0.288413        -7.8481
  25   2.0000      -0.281611        -7.6630
  26   2.0000      -0.267235        -7.2718
  27   2.0000      -0.226973        -6.1763
  28   2.0000      -0.224625        -6.1124
  29   2.0000      -0.188562        -5.1310
  30   2.0000      -0.176465        -4.8019
  31   2.0000      -0.167571        -4.5598
  32   2.0000      -0.137841        -3.7508
  33   0.0000       0.151546         4.1238
  34   0.0000       0.171560         4.6684
  35   0.0000       0.175982         4.7887
  36   0.0000       0.183991         5.0066
  37   0.0000       0.202451         5.5090

MULLIKEN ATOMIC CHARGES
-----------------------
   0 C :   -0.294304
   1 C :    0.070325
   2 H :   -0.032830
   3 H :   -0.013506
   4 S :    1.415327
   5 O :   -0.842478
   6 O :   -0.847175
   7 C :    0.782729
   8 H :   -0.024737
   9 H :   -0.164387
  10 O :   -0.852234
  11 H :   -0.141315
  12 H :   -0.031485
  13 H :   -0.023931
Sum of atomic charges:   -1.0000000

LOEWDIN ATOMIC CHARGES
----------------------
   0 C :   -0.099185
   1 C :   -0.080235
   2 H :    0.004001
   3 H :   -0.004601
   4 S :    0.904324
   5 O :   -0.614150
   6 O :   -0.586370
   7 C :    0.124549
   8 H :    0.016752
   9 H :    0.006412
  10 O :   -0.591118
  11 H :   -0.029161
  12 H :   -0.030693
  13 H :   -0.020526

  Mayer bond orders larger than 0.100000
B(  0-C ,  1-C ) :   1.2772 B(  0-C ,  2-H ) :   0.1237 B(  0-C ,  3-H ) :   0.1365
B(  0-C ,  7-C ) :   1.2710 B(  0-C ,  8-H ) :   0.9055 B(  0-C ,  9-H ) :   0.8963
B(  0-C , 11-H ) :   0.2276 B(  0-C , 12-H ) :   0.2178 B(  0-C , 13-H ) :   0.2252
B(  1-C ,  2-H ) :   0.9333 B(  1-C ,  3-H ) :   0.8957 B(  1-C ,  4-S ) :   0.8648
B(  1-C ,  8-H ) :   0.1426 B(  1-C ,  9-H ) :   0.1410 B(  4-S ,  5-O ) :   1.2335
B(  4-S ,  6-O ) :   1.3085 B(  4-S , 10-O ) :   1.2390 B(  7-C , 11-H ) :   0.8298
B(  7-C , 12-H ) :   0.7357 B(  7-C , 13-H ) :   0.7612

Dispersion correction           -0.000294787
FINAL SINGLE POINT ENERGY      -741.888999877758

DIPOLE MOMENT
-------------
                                X             Y             Z
Electronic contribution:      4.38001      -5.61518      -8.01556
Nuclear contribution   :     -5.44810       7.35485       9.25157
                        -----------------------------------------
Total Dipole Moment    :     -1.06809       1.73967       1.23600
                        -----------------------------------------
Magnitude (a.u.)       :      2.38641
Magnitude (Debye)      :      6.06578

Rotational constants in cm-1:     0.135801     0.054229     0.051056
Rotational constants in MHz :  4071.225075  1625.746654  1530.611411

                             ****ORCA TERMINATED NORMALLY****
TOTAL RUN TIME: 0 days 0 hours 0 minutes 15 seconds 909 msec
