                         Program Version 5.0.0 -  RELEASE  -
|  1> !M062X D3Zero RIJCOSX def2-SVPD def2/J TightSCF
|  2> *xyz 1 1
|  3> C          2.91632       -1.24259       -1.54313
|  4> C          3.46659       -1.59097       -2.88908
|  5> N          4.65227       -1.14316       -3.25969
|  6> N          2.75226       -2.29204       -3.72803
|  7> H          1.77836       -2.48960       -3.51274
|  8> H          2.94861       -2.20854       -4.71681
|  9> H          5.14672       -0.51251       -2.63385
| 10> H          4.78303       -1.00720       -4.25350
| 11> C          2.80408        0.29070       -1.35924
| 12> C          2.38838        1.09367       -2.59711
| 13> H          3.76342        0.67472       -0.99989
| 14> H          2.09479        0.46122       -0.54576
| 15> H          1.94047       -1.71653       -1.44116
| 16> H          3.55857       -1.66343       -0.76637
| 17> H          3.08894        0.91965       -3.38694
| 18> H          2.37301        2.13633       -2.35728
| 19> H          1.41303        0.78551       -2.91115
| 20> *
| 21>
| 22> %MaxCore 64000
| 23>
| 24> %pal nprocs 8
| 25> end
| 26>
| 27> %scf
| 28>   MaxIter 150
| 29> end
| 30>
| 31>
| 32>                          ****END OF INPUT****

CARTESIAN COORDINATES (ANGSTROEM)
---------------------------------
  C      2.916320   -1.242590   -1.543130
  C      3.466590   -1.590970   -2.889080
  N      4.652270   -1.143160   -3.259690
  N      2.752260   -2.292040   -3.728030
  H      1.778360   -2.489600   -3.512740
  H      2.948610   -2.208540   -4.716810
  H      5.146720   -0.512510   -2.633850
  H      4.783030   -1.007200   -4.253500
  C      2.804080    0.290700   -1.359240
  C      2.388380    1.093670   -2.597110
  H      3.763420    0.674720   -0.999890
  H      2.094790    0.461220   -0.545760
  H      1.940470   -1.716530   -1.441160
  H      3.558570   -1.663430   -0.766370
  H      3.088940    0.919650   -3.386940
  H      2.373010    2.136330   -2.357280
  H      1.413030    0.785510   -2.911150

 Total Charge           Charge          ....    1
 Multiplicity           Mult            ....    1
 Number of Electrons    NEL             ....   48
 Basis Dimension        Dim             ....  208

ORBITAL ENERGIES
----------------

  NO   OCC          E(Eh)            E(eV)
   0   2.0000     -15.010509      -408.4567
   1   2.0000     -15.003909      -408.2771
   2   2.0000     -10.877311      -295.9867
   3   2.0000     -10.748172      -292.4726
   4   2.0000     -10.718708      -291.6709
   5   2.0000     -10.687187      -290.8131
   6   2.0000      -1.310387       -35.6574
   7   2.0000      -1.202865       -32.7316
   8   2.0000      -1.066406       -29.0184
   9   2.0000      -0.978304       -26.6210
  10   2.0000      -0.916450       -24.9379
  11   2.0000      -0.864341       -23.5199
  12   2.0000      -0.843111       -22.9422
  13   2.0000      -0.809063       -22.0157
  14   2.0000      -0.766884       -20.8680
  15   2.0000      -0.738243       -20.0886
  16   2.0000      -0.700958       -19.0740
  17   2.0000      -0.659869       -17.9560
  18   2.0000      -0.644732       -17.5440
  19   2.0000      -0.632033       -17.1985
  20   2.0000      -0.573291       -15.6000
  21   2.0000      -0.569644       -15.5008
  22   2.0000      -0.561495       -15.2791
  23   2.0000      -0.553049       -15.0492
  24   0.0000      -0.180900        -4.9225
  25   0.0000      -0.133955        -3.6451
  26   0.0000      -0.096713        -2.6317
  27   0.0000      -0.094566        -2.5733
  28   0.0000      -0.068305        -1.8587

MULLIKEN ATOMIC CHARGES
-----------------------
   0 C :    0.305614
   1 C :    0.376178
   2 N :    0.053508
   3 N :    0.027608
   4 H :    0.070693
   5 H :   -0.080163
   6 H :    0.066280
   7 H :   -0.020101
   8 C :   -0.407371
   9 C :    0.770220
  10 H :    0.012699
  11 H :   -0.162202
  12 H :    0.101083
  13 H :    0.019089
  14 H :   -0.069711
  15 H :   -0.064870
  16 H :    0.001446
Sum of atomic charges:    1.0000000

LOEWDIN ATOMIC CHARGES
----------------------
   0 C :    0.057213
   1 C :   -0.062436
   2 N :    0.282257
   3 N :    0.285734
   4 H :    0.057375
   5 H :    0.051131
   6 H :    0.054737
   7 H :    0.048611
   8 C :   -0.035516
   9 C :    0.145592
  10 H :    0.026124
  11 H :    0.038663
  12 H :    0.036309
  13 H :    0.053978
  14 H :   -0.037246
  15 H :    0.003135
  16 H :   -0.005661

  Mayer bond orders larger than 0.100000
B(  0-C ,  1-C ) :   1.2268 B(  0-C ,  8-C ) :   1.1834 B(  0-C , 11-H ) :   0.1108
B(  0-C , 12-H ) :   0.7629 B(  0-C , 13-H ) :   0.7698 B(  1-C ,  2-N ) :   1.1398
B(  1-C ,  3-N ) :   1.0625 B(  1-C ,  5-H ) :  -0.1027 B(  1-C , 12-H ) :   0.1578
B(  1-C , 13-H ) :   0.2090 B(  2-N ,  3-N ) :   0.1631 B(  2-N ,  6-H ) :   0.9771
B(  2-N ,  7-H ) :   1.1227 B(  3-N ,  4-H ) :   1.0305 B(  3-N ,  5-H ) :   1.1795
B(  4-H ,  5-H ) :  -0.1459 B(  6-H ,  7-H ) :  -0.1294 B(  8-C ,  9-C ) :   1.3224
B(  8-C , 10-H ) :   0.9092 B(  8-C , 11-H ) :   1.0143 B(  8-C , 12-H ) :   0.1473
B(  8-C , 14-H ) :   0.2320 B(  8-C , 15-H ) :   0.2171 B(  8-C , 16-H ) :   0.1962
B(  9-C , 14-H ) :   0.8177 B(  9-C , 15-H ) :   0.7705 B(  9-C , 16-H ) :   0.7696
B( 14-H , 16-H ) :   0.1005

Dispersion correction           -0.000334314
FINAL SINGLE POINT ENERGY      -268.015880069683

DIPOLE MOMENT
-------------
                                X             Y             Z
Electronic contribution:      2.02232      -4.54453      -1.87594
Nuclear contribution   :     -1.81078       3.96608       0.97433
                        -----------------------------------------
Total Dipole Moment    :      0.21154      -0.57846      -0.90161
                        -----------------------------------------
Magnitude (a.u.)       :      1.09190
Magnitude (Debye)      :      2.77540

Rotational constants in cm-1:     0.170042     0.080945     0.078209
Rotational constants in MHz :  5097.737821  2426.678005  2344.636232

                             ****ORCA TERMINATED NORMALLY****
TOTAL RUN TIME: 0 days 0 hours 0 minutes 14 seconds 499 msec
