                         Program Version 5.0.0 -  RELEASE  -
|  1> !M062X D3Zero RIJCOSX def2-SVPD def2/J TightSCF xyzfile
|  2>
|  3> *xyzfile 0 1 B.xyz
|  4>
|  5> %MaxCore 64000
|  6>
|  7> %pal nprocs 4
|  8> end
|  9>
| 10> %scf
| 11>   MaxIter 150
| 12> end
| 13>
| 14>
| 15>                          ****END OF INPUT****

CARTESIAN COORDINATES (ANGSTROEM)
---------------------------------
  C      2.916324   -1.242589   -1.543125
  C      0.704661    1.443129   -4.503630
  C      1.728539    1.424320   -5.639443
  H      2.646718    1.953794   -5.381054
  H      1.299916    1.930613   -6.503614
  S      2.252625   -0.188115   -6.271840
  C      3.466585   -1.590971   -2.889082
  N      4.652275   -1.143164   -3.259692
  N      2.752264   -2.292043   -3.728029
  H      1.778364   -2.489604   -3.512738
  H      2.948612   -2.208544   -4.716813
  H      5.146723   -0.512508   -2.633852
  H      4.783030   -1.007203   -4.253498
  O      3.562607   -0.444464   -5.631552
  O      2.344944   -0.033742   -7.696501
  C      2.804084    0.290698   -1.359243
  C      1.052550    0.695659   -3.214915
  H     -0.232483    1.032925   -4.884449
  H      0.511700    2.495794   -4.267966
  C      2.388380    1.093669   -2.597108
  H      3.763425    0.674718   -0.999889
  H      2.094788    0.461222   -0.545756
  O      1.266058   -1.159177   -5.805365
  H      3.167316    1.013242   -3.359430
  H      2.357690    2.149375   -2.310997
  H      1.039284   -0.368429   -3.449329
  H      0.250787    0.865605   -2.488283
  H      1.940472   -1.716529   -1.441161
  H      3.558569   -1.663433   -0.766371

 Total Charge           Charge          ....    0
 Multiplicity           Mult            ....    1
 Number of Electrons    NEL             ....  112
 Basis Dimension        Dim             ....  404

ORBITAL ENERGIES
----------------

  NO   OCC          E(Eh)            E(eV)
   0   2.0000     -90.093255     -2451.5621
   1   2.0000     -19.578758      -532.7651
   2   2.0000     -19.571533      -532.5685
   3   2.0000     -19.561891      -532.3061
   4   2.0000     -14.837682      -403.7539
   5   2.0000     -14.836967      -403.7344
   6   2.0000     -10.716918      -291.6222
   7   2.0000     -10.617216      -288.9091
   8   2.0000     -10.596491      -288.3452
   9   2.0000     -10.567866      -287.5663
  10   2.0000     -10.555331      -287.2252
  11   2.0000     -10.551781      -287.1285
  12   2.0000     -10.549040      -287.0540
  13   2.0000      -8.415494      -228.9972
  14   2.0000      -6.341431      -172.5591
  15   2.0000      -6.340693      -172.5390
  16   2.0000      -6.339901      -172.5175
  17   2.0000      -1.205985       -32.8165
  18   2.0000      -1.144397       -31.1406
  19   2.0000      -1.055161       -28.7124
  20   2.0000      -1.050549       -28.5869
  21   2.0000      -1.035729       -28.1836
  22   2.0000      -0.940705       -25.5979
  23   2.0000      -0.893374       -24.3099
  24   2.0000      -0.843248       -22.9460
  25   2.0000      -0.786995       -21.4152
  26   2.0000      -0.754753       -20.5379
  27   2.0000      -0.720091       -19.5947
  28   2.0000      -0.681508       -18.5448
  29   2.0000      -0.671725       -18.2786
  30   2.0000      -0.659669       -17.9505
  31   2.0000      -0.614329       -16.7167
  32   2.0000      -0.599364       -16.3095
  33   2.0000      -0.593446       -16.1485
  34   2.0000      -0.570199       -15.5159
  35   2.0000      -0.545673       -14.8485
  36   2.0000      -0.541560       -14.7366
  37   2.0000      -0.522474       -14.2172
  38   2.0000      -0.512760       -13.9529
  39   2.0000      -0.505973       -13.7682
  40   2.0000      -0.499013       -13.5788
  41   2.0000      -0.488951       -13.3050
  42   2.0000      -0.480349       -13.0709
  43   2.0000      -0.451606       -12.2888
  44   2.0000      -0.444326       -12.0907
  45   2.0000      -0.438944       -11.9443
  46   2.0000      -0.411347       -11.1933
  47   2.0000      -0.402683       -10.9576
  48   2.0000      -0.389973       -10.6117
  49   2.0000      -0.389613       -10.6019
  50   2.0000      -0.379340       -10.3224
  51   2.0000      -0.375832       -10.2269
  52   2.0000      -0.340315        -9.2604
  53   2.0000      -0.333496        -9.0749
  54   2.0000      -0.317247        -8.6327
  55   2.0000      -0.298486        -8.1222
  56   0.0000      -0.023305        -0.6342
  57   0.0000       0.002157         0.0587
  58   0.0000       0.024607         0.6696
  59   0.0000       0.039570         1.0768
  60   0.0000       0.042930         1.1682

MULLIKEN ATOMIC CHARGES
-----------------------
   0 C :    0.433398
   1 C :    0.511054
   2 C :    0.195634
   3 H :    0.098406
   4 H :   -0.230951
   5 S :    1.426003
   6 C :    0.345236
   7 N :    0.180336
   8 N :    0.220993
   9 H :    0.065104
  10 H :   -0.176888
  11 H :    0.049784
  12 H :   -0.247744
  13 O :   -0.835110
  14 O :   -0.814283
  15 C :    0.423848
  16 C :    0.292360
  17 H :    0.005172
  18 H :   -0.078716
  19 C :   -0.025668
  20 H :   -0.023228
  21 H :   -0.119085
  22 O :   -0.894336
  23 H :   -0.020616
  24 H :   -0.209758
  25 H :   -0.409252
  26 H :   -0.097954
  27 H :    0.148430
  28 H :   -0.212167
Sum of atomic charges:    0.0000000

LOEWDIN ATOMIC CHARGES
----------------------
   0 C :    0.053426
   1 C :   -0.030331
   2 C :   -0.051450
   3 H :    0.006905
   4 H :    0.011335
   5 S :    0.968516
   6 C :   -0.061918
   7 N :    0.284168
   8 N :    0.299853
   9 H :    0.042383
  10 H :   -0.020557
  11 H :    0.040201
  12 H :   -0.031759
  13 O :   -0.584659
  14 O :   -0.527843
  15 C :   -0.004224
  16 C :   -0.020021
  17 H :    0.030740
  18 H :    0.026775
  19 C :   -0.020641
  20 H :    0.018847
  21 H :    0.028215
  22 O :   -0.562949
  23 H :   -0.003668
  24 H :    0.033283
  25 H :   -0.020500
  26 H :    0.030246
  27 H :    0.028315
  28 H :    0.037315

  Mayer bond orders larger than 0.100000
B(  0-C ,  6-C ) :   1.1618 B(  0-C , 15-C ) :   1.1355 B(  0-C , 21-H ) :   0.1072
B(  0-C , 27-H ) :   0.7200 B(  0-C , 28-H ) :   0.7290 B(  1-C ,  2-C ) :   1.2141
B(  1-C ,  4-H ) :   0.1991 B(  1-C , 16-C ) :   1.2567 B(  1-C , 17-H ) :   0.6623
B(  1-C , 18-H ) :   0.7523 B(  2-C ,  3-H ) :   0.8705 B(  2-C ,  4-H ) :   0.8995
B(  2-C ,  5-S ) :   0.8888 B(  2-C , 17-H ) :   0.1140 B(  2-C , 18-H ) :   0.1528
B(  5-S , 13-O ) :   1.1134 B(  5-S , 14-O ) :   1.3777 B(  5-S , 22-O ) :   1.1909
B(  6-C ,  7-N ) :   1.0387 B(  6-C ,  8-N ) :   1.1520 B(  6-C , 10-H ) :  -0.1088
B(  6-C , 27-H ) :   0.1973 B(  6-C , 28-H ) :   0.2835 B(  7-N ,  8-N ) :   0.1706
B(  7-N , 11-H ) :   0.9993 B(  7-N , 12-H ) :   1.1403 B(  8-N ,  9-H ) :   0.9743
B(  8-N , 10-H ) :   1.1193 B(  9-H , 10-H ) :  -0.1536 B( 10-H , 13-O ) :   0.1158
B( 11-H , 12-H ) :  -0.1766 B( 12-H , 13-O ) :   0.1348 B( 15-C , 19-C ) :   1.2377
B( 15-C , 20-H ) :   0.6970 B( 15-C , 21-H ) :   0.8503 B( 15-C , 23-H ) :   0.1191
B( 15-C , 27-H ) :   0.1225 B( 16-C , 17-H ) :   0.2832 B( 16-C , 19-C ) :   1.2468
B( 16-C , 23-H ) :   0.1435 B( 16-C , 24-H ) :   0.1664 B( 16-C , 25-H ) :   0.8793
B( 16-C , 26-H ) :   0.7197 B( 17-H , 18-H ) :  -0.1449 B( 19-C , 20-H ) :   0.2498
B( 19-C , 21-H ) :   0.1585 B( 19-C , 23-H ) :   0.8834 B( 19-C , 24-H ) :   0.8545
B( 19-C , 25-H ) :   0.1343 B( 19-C , 26-H ) :   0.2251 B( 20-H , 21-H ) :  -0.1725

Dispersion correction           -0.001680590
FINAL SINGLE POINT ENERGY     -1008.894562036593

DIPOLE MOMENT
-------------
                                X             Y             Z
Electronic contribution:      2.74286      -6.24493     -13.24629
Nuclear contribution   :     -1.90023       6.18953      17.82209
                        -----------------------------------------
Total Dipole Moment    :      0.84263      -0.05540       4.57580
                        -----------------------------------------
Magnitude (a.u.)       :      4.65307
Magnitude (Debye)      :     11.82717

Rotational constants in cm-1:     0.036337     0.018755     0.015005
Rotational constants in MHz :  1089.341704   562.266628   449.834770

                             ****ORCA TERMINATED NORMALLY****
TOTAL RUN TIME: 0 days 0 hours 2 minutes 37 seconds 239 msec
