                         Program Version 5.0.0 -  RELEASE  -
|  1> !M062X D3Zero RIJCOSX def2-SVPD def2/J TightSCF
|  2> *xyz 0 1
|  3> C          0.70466        1.44313       -4.50363
|  4> C          1.72854        1.42432       -5.63944
|  5> H          2.64672        1.95379       -5.38105
|  6> H          1.29992        1.93061       -6.50361
|  7> S          2.25263       -0.18811       -6.27184
|  8> F          3.56261       -0.44446       -5.63155
|  9> O          2.34494       -0.03374       -7.69650
| 10> C          1.05255        0.69566       -3.21491
| 11> H         -0.23248        1.03293       -4.88445
| 12> H          0.51170        2.49579       -4.26797
| 13> O          1.26606       -1.15918       -5.80536
| 14> H          1.24200       -0.33323       -3.43942
| 15> H          0.23391        0.76629       -2.52954
| 16> H          1.92506        1.13113       -2.77446
| 17> *
| 18>
| 19> %MaxCore 64000
| 20>
| 21> %pal nprocs 8
| 22> end
| 23>
| 24> %scf
| 25>   MaxIter 150
| 26> end
| 27>
| 28>
| 29>                          ****END OF INPUT****

CARTESIAN COORDINATES (ANGSTROEM)
---------------------------------
  C      0.704660    1.443130   -4.503630
  C      1.728540    1.424320   -5.639440
  H      2.646720    1.953790   -5.381050
  H      1.299920    1.930610   -6.503610
  S      2.252630   -0.188110   -6.271840
  F      3.562610   -0.444460   -5.631550
  O      2.344940   -0.033740   -7.696500
  C      1.052550    0.695660   -3.214910
  H     -0.232480    1.032930   -4.884450
  H      0.511700    2.495790   -4.267970
  O      1.266060   -1.159180   -5.805360
  H      1.242000   -0.333230   -3.439420
  H      0.233910    0.766290   -2.529540
  H      1.925060    1.131130   -2.774460

 Total Charge           Charge          ....    0
 Multiplicity           Mult            ....    1
 Number of Electrons    NEL             ....   66
 Basis Dimension        Dim             ....  212

ORBITAL ENERGIES
----------------

  NO   OCC          E(Eh)            E(eV)
   0   2.0000     -90.196716     -2454.3774
   1   2.0000     -25.359769      -690.0744
   2   2.0000     -19.655769      -534.8607
   3   2.0000     -19.648450      -534.6615
   4   2.0000     -10.614876      -288.8455
   5   2.0000     -10.581688      -287.9424
   6   2.0000     -10.550554      -287.0952
   7   2.0000      -8.520793      -231.8626
   8   2.0000      -6.449060      -175.4878
   9   2.0000      -6.444011      -175.3505
  10   2.0000      -6.443066      -175.3247
  11   2.0000      -1.484742       -40.4019
  12   2.0000      -1.235208       -33.6117
  13   2.0000      -1.133927       -30.8557
  14   2.0000      -0.924747       -25.1637
  15   2.0000      -0.844651       -22.9841
  16   2.0000      -0.794915       -21.6307
  17   2.0000      -0.720241       -19.5988
  18   2.0000      -0.667137       -18.1537
  19   2.0000      -0.660010       -17.9598
  20   2.0000      -0.638360       -17.3707
  21   2.0000      -0.577000       -15.7010
  22   2.0000      -0.555994       -15.1294
  23   2.0000      -0.534009       -14.5311
  24   2.0000      -0.525033       -14.2869
  25   2.0000      -0.507320       -13.8049
  26   2.0000      -0.470785       -12.8107
  27   2.0000      -0.448612       -12.2074
  28   2.0000      -0.439916       -11.9707
  29   2.0000      -0.424112       -11.5407
  30   2.0000      -0.409670       -11.1477
  31   2.0000      -0.395307       -10.7569
  32   2.0000      -0.389869       -10.6089
  33   0.0000       0.014093         0.3835
  34   0.0000       0.034745         0.9455
  35   0.0000       0.042661         1.1609
  36   0.0000       0.043682         1.1887
  37   0.0000       0.068550         1.8653

MULLIKEN ATOMIC CHARGES
-----------------------
   0 C :   -0.281136
   1 C :   -0.000831
   2 H :    0.039591
   3 H :    0.044895
   4 S :    1.555918
   5 F :   -0.424118
   6 O :   -0.710489
   7 C :    0.771192
   8 H :    0.009892
   9 H :   -0.116020
  10 O :   -0.730565
  11 H :   -0.156789
  12 H :    0.003190
  13 H :   -0.004730
Sum of atomic charges:    0.0000000

LOEWDIN ATOMIC CHARGES
----------------------
   0 C :   -0.075106
   1 C :   -0.038567
   2 H :    0.021029
   3 H :    0.024428
   4 S :    1.161175
   5 F :   -0.287433
   6 O :   -0.474140
   7 C :    0.141006
   8 H :    0.031081
   9 H :    0.031340
  10 O :   -0.483518
  11 H :   -0.029617
  12 H :   -0.009274
  13 H :   -0.012402

  Mayer bond orders larger than 0.100000
B(  0-C ,  1-C ) :   1.3211 B(  0-C ,  2-H ) :   0.1207 B(  0-C ,  3-H ) :   0.1231
B(  0-C ,  7-C ) :   1.2904 B(  0-C ,  8-H ) :   0.9069 B(  0-C ,  9-H ) :   0.8940
B(  0-C , 11-H ) :   0.2099 B(  0-C , 12-H ) :   0.2081 B(  0-C , 13-H ) :   0.2146
B(  1-C ,  2-H ) :   0.9217 B(  1-C ,  3-H ) :   0.9052 B(  1-C ,  4-S ) :   0.9338
B(  1-C ,  8-H ) :   0.1425 B(  1-C ,  9-H ) :   0.1408 B(  4-S ,  5-F ) :   0.5814
B(  4-S ,  6-O ) :   1.5384 B(  4-S , 10-O ) :   1.4748 B(  7-C , 11-H ) :   0.8345
B(  7-C , 12-H ) :   0.7501 B(  7-C , 13-H ) :   0.7691

Dispersion correction           -0.000296426
FINAL SINGLE POINT ENERGY      -766.387213529477

DIPOLE MOMENT
-------------
                                X             Y             Z
Electronic contribution:      7.35298      -6.65831      -8.18192
Nuclear contribution   :     -7.21372       8.00417       9.21533
                        -----------------------------------------
Total Dipole Moment    :      0.13926       1.34586       1.03341
                        -----------------------------------------
Magnitude (a.u.)       :      1.70255
Magnitude (Debye)      :      4.32753

Rotational constants in cm-1:     0.129205     0.053290     0.050128
Rotational constants in MHz :  3873.458819  1597.595736  1502.810344

                             ****ORCA TERMINATED NORMALLY****
TOTAL RUN TIME: 0 days 0 hours 0 minutes 16 seconds 665 msec
