                         Program Version 5.0.0 -  RELEASE  -
|  1> !M062X D3Zero RIJCOSX def2-SVPD def2/J TightSCF
|  2> *xyz 0 1
|  3> C          2.91632       -1.24259       -1.54313
|  4> C          3.46659       -1.59097       -2.88908
|  5> C          4.65227       -1.14316       -3.25969
|  6> N          2.75226       -2.29204       -3.72803
|  7> H          1.77836       -2.48960       -3.51274
|  8> H          2.94861       -2.20854       -4.71681
|  9> H          5.14672       -0.51251       -2.63385
| 10> H          4.78303       -1.00720       -4.25350
| 11> C          2.80408        0.29070       -1.35924
| 12> C          2.38838        1.09367       -2.59711
| 13> H          3.76342        0.67472       -0.99989
| 14> H          2.09479        0.46122       -0.54576
| 15> H          1.94047       -1.71653       -1.44116
| 16> H          3.55857       -1.66343       -0.76637
| 17> H          3.08894        0.91965       -3.38694
| 18> H          2.37301        2.13633       -2.35728
| 19> H          1.41303        0.78551       -2.91115
| 20> *
| 21>
| 22> %MaxCore 64000
| 23>
| 24> %pal nprocs 8
| 25> end
| 26>
| 27> %scf
| 28>   MaxIter 150
| 29> end
| 30>
| 31>
| 32>                          ****END OF INPUT****

CARTESIAN COORDINATES (ANGSTROEM)
---------------------------------
  C      2.916320   -1.242590   -1.543130
  C      3.466590   -1.590970   -2.889080
  C      4.652270   -1.143160   -3.259690
  N      2.752260   -2.292040   -3.728030
  H      1.778360   -2.489600   -3.512740
  H      2.948610   -2.208540   -4.716810
  H      5.146720   -0.512510   -2.633850
  H      4.783030   -1.007200   -4.253500
  C      2.804080    0.290700   -1.359240
  C      2.388380    1.093670   -2.597110
  H      3.763420    0.674720   -0.999890
  H      2.094790    0.461220   -0.545760
  H      1.940470   -1.716530   -1.441160
  H      3.558570   -1.663430   -0.766370
  H      3.088940    0.919650   -3.386940
  H      2.373010    2.136330   -2.357280
  H      1.413030    0.785510   -2.911150

 Total Charge           Charge          ....    0
 Multiplicity           Mult            ....    1
 Number of Electrons    NEL             ....   48
 Basis Dimension        Dim             ....  208

ORBITAL ENERGIES
----------------

  NO   OCC          E(Eh)            E(eV)
   0   2.0000     -14.766582      -401.8191
   1   2.0000     -10.572558      -287.6939
   2   2.0000     -10.552061      -287.1362
   3   2.0000     -10.549004      -287.0530
   4   2.0000     -10.529110      -286.5117
   5   2.0000     -10.480675      -285.1937
   6   2.0000      -1.036507       -28.2048
   7   2.0000      -0.885601       -24.0984
   8   2.0000      -0.815657       -22.1952
   9   2.0000      -0.772982       -21.0339
  10   2.0000      -0.686578       -18.6827
  11   2.0000      -0.635649       -17.2969
  12   2.0000      -0.592990       -16.1361
  13   2.0000      -0.554940       -15.1007
  14   2.0000      -0.525459       -14.2985
  15   2.0000      -0.504304       -13.7228
  16   2.0000      -0.467375       -12.7179
  17   2.0000      -0.455030       -12.3820
  18   2.0000      -0.432461       -11.7679
  19   2.0000      -0.427659       -11.6372
  20   2.0000      -0.397727       -10.8227
  21   2.0000      -0.387277       -10.5383
  22   2.0000      -0.384975       -10.4757
  23   2.0000      -0.243536        -6.6269
  24   0.0000       0.035913         0.9772
  25   0.0000       0.052258         1.4220
  26   0.0000       0.063470         1.7271
  27   0.0000       0.073382         1.9968
  28   0.0000       0.083371         2.2686

MULLIKEN ATOMIC CHARGES
-----------------------
   0 C :    0.537989
   1 C :   -0.453268
   2 C :    0.494897
   3 N :    0.067613
   4 H :   -0.039482
   5 H :   -0.086238
   6 H :   -0.082310
   7 H :   -0.351363
   8 C :   -0.423276
   9 C :    0.793004
  10 H :   -0.003694
  11 H :   -0.208222
  12 H :   -0.007844
  13 H :   -0.045899
  14 H :   -0.055529
  15 H :   -0.127303
  16 H :   -0.009074
Sum of atomic charges:   -0.0000000

LOEWDIN ATOMIC CHARGES
----------------------
   0 C :    0.017524
   1 C :   -0.276118
   2 C :    0.166439
   3 N :    0.168262
   4 H :    0.003604
   5 H :    0.011195
   6 H :   -0.076181
   7 H :   -0.082541
   8 C :   -0.058476
   9 C :    0.129164
  10 H :    0.016227
  11 H :    0.013404
  12 H :    0.010166
  13 H :    0.029050
  14 H :   -0.034651
  15 H :   -0.019179
  16 H :   -0.017889

  Mayer bond orders larger than 0.100000
B(  0-C ,  1-C ) :   1.1805 B(  0-C ,  8-C ) :   1.1744 B(  0-C , 11-H ) :   0.1796
B(  0-C , 12-H ) :   0.6240 B(  0-C , 13-H ) :   0.7808 B(  1-C ,  2-C ) :   2.2016
B(  1-C ,  3-N ) :   0.9769 B(  1-C ,  6-H ) :   0.2059 B(  1-C ,  7-H ) :   0.2764
B(  1-C , 12-H ) :   0.2635 B(  1-C , 13-H ) :   0.1834 B(  2-C ,  3-N ) :   0.2196
B(  2-C ,  6-H ) :   0.6470 B(  2-C ,  7-H ) :   0.7329 B(  3-N ,  4-H ) :   1.0349
B(  3-N ,  5-H ) :   1.0617 B(  4-H ,  5-H ) :  -0.1342 B(  8-C ,  9-C ) :   1.2976
B(  8-C , 10-H ) :   0.8995 B(  8-C , 11-H ) :   0.9735 B(  8-C , 12-H ) :   0.1589
B(  8-C , 13-H ) :   0.1033 B(  8-C , 14-H ) :   0.2569 B(  8-C , 15-H ) :   0.2360
B(  8-C , 16-H ) :   0.2114 B(  9-C , 14-H ) :   0.8272 B(  9-C , 15-H ) :   0.7514
B(  9-C , 16-H ) :   0.7551

Dispersion correction           -0.000329243
FINAL SINGLE POINT ENERGY      -251.557689611393

DIPOLE MOMENT
-------------
                                X             Y             Z
Electronic contribution:      0.59485      -3.81011      -0.94046
Nuclear contribution   :     -1.45921       3.88617       0.81775
                        -----------------------------------------
Total Dipole Moment    :     -0.86436       0.07605      -0.12271
                        -----------------------------------------
Magnitude (a.u.)       :      0.87633
Magnitude (Debye)      :      2.22746

Rotational constants in cm-1:     0.176264     0.082132     0.079980
Rotational constants in MHz :  5284.261828  2462.256672  2397.741351

                             ****ORCA TERMINATED NORMALLY****
TOTAL RUN TIME: 0 days 0 hours 0 minutes 16 seconds 139 msec
