                         Program Version 5.0.0 -  RELEASE  -
|  1> !M062X D3Zero RIJCOSX def2-SVPD def2/J TightSCF
|  2> *xyz 0 1
|  3> C          0.70466        1.44313       -4.50363
|  4> C          1.72854        1.42432       -5.63944
|  5> H          2.64672        1.95379       -5.38105
|  6> H          1.29992        1.93061       -6.50361
|  7> S          2.25263       -0.18811       -6.27184
|  8> O          3.56261       -0.44446       -5.63155
|  9> F          2.34494       -0.03374       -7.69650
| 10> C          1.05255        0.69566       -3.21491
| 11> H         -0.23248        1.03293       -4.88445
| 12> H          0.51170        2.49579       -4.26797
| 13> O          1.26606       -1.15918       -5.80536
| 14> H          1.24200       -0.33323       -3.43942
| 15> H          0.23391        0.76629       -2.52954
| 16> H          1.92506        1.13113       -2.77446
| 17> *
| 18>
| 19> %MaxCore 64000
| 20>
| 21> %pal nprocs 8
| 22> end
| 23>
| 24> %scf
| 25>   MaxIter 150
| 26> end
| 27>
| 28>
| 29>                          ****END OF INPUT****

CARTESIAN COORDINATES (ANGSTROEM)
---------------------------------
  C      0.704660    1.443130   -4.503630
  C      1.728540    1.424320   -5.639440
  H      2.646720    1.953790   -5.381050
  H      1.299920    1.930610   -6.503610
  S      2.252630   -0.188110   -6.271840
  O      3.562610   -0.444460   -5.631550
  F      2.344940   -0.033740   -7.696500
  C      1.052550    0.695660   -3.214910
  H     -0.232480    1.032930   -4.884450
  H      0.511700    2.495790   -4.267970
  O      1.266060   -1.159180   -5.805360
  H      1.242000   -0.333230   -3.439420
  H      0.233910    0.766290   -2.529540
  H      1.925060    1.131130   -2.774460

 Total Charge           Charge          ....    0
 Multiplicity           Mult            ....    1
 Number of Electrons    NEL             ....   66
 Basis Dimension        Dim             ....  212

ORBITAL ENERGIES
----------------

  NO   OCC          E(Eh)            E(eV)
   0   2.0000     -90.198311     -2454.4208
   1   2.0000     -25.383435      -690.7184
   2   2.0000     -19.649175      -534.6812
   3   2.0000     -19.640513      -534.4455
   4   2.0000     -10.615837      -288.8716
   5   2.0000     -10.582044      -287.9521
   6   2.0000     -10.543842      -286.9125
   7   2.0000      -8.522672      -231.9137
   8   2.0000      -6.451026      -175.5413
   9   2.0000      -6.445698      -175.3964
  10   2.0000      -6.444735      -175.3702
  11   2.0000      -1.524297       -41.4782
  12   2.0000      -1.220677       -33.2163
  13   2.0000      -1.112960       -30.2852
  14   2.0000      -0.924354       -25.1529
  15   2.0000      -0.854340       -23.2478
  16   2.0000      -0.804759       -21.8986
  17   2.0000      -0.726359       -19.7652
  18   2.0000      -0.694707       -18.9039
  19   2.0000      -0.676517       -18.4090
  20   2.0000      -0.636758       -17.3271
  21   2.0000      -0.570230       -15.5168
  22   2.0000      -0.558499       -15.1975
  23   2.0000      -0.532597       -14.4927
  24   2.0000      -0.522102       -14.2071
  25   2.0000      -0.493894       -13.4395
  26   2.0000      -0.462919       -12.5967
  27   2.0000      -0.441079       -12.0024
  28   2.0000      -0.436714       -11.8836
  29   2.0000      -0.420464       -11.4414
  30   2.0000      -0.400854       -10.9078
  31   2.0000      -0.386683       -10.5222
  32   2.0000      -0.377259       -10.2657
  33   0.0000       0.009682         0.2635
  34   0.0000       0.033382         0.9084
  35   0.0000       0.040565         1.1038
  36   0.0000       0.046586         1.2677
  37   0.0000       0.066368         1.8060

MULLIKEN ATOMIC CHARGES
-----------------------
   0 C :   -0.313498
   1 C :    0.006435
   2 H :    0.029890
   3 H :    0.053850
   4 S :    1.588370
   5 O :   -0.707621
   6 F :   -0.448716
   7 C :    0.773996
   8 H :    0.007225
   9 H :   -0.116304
  10 O :   -0.726161
  11 H :   -0.149674
  12 H :    0.002291
  13 H :   -0.000085
Sum of atomic charges:   -0.0000000

LOEWDIN ATOMIC CHARGES
----------------------
   0 C :   -0.070670
   1 C :   -0.044466
   2 H :    0.025800
   3 H :    0.012166
   4 S :    1.166130
   5 O :   -0.500046
   6 F :   -0.267658
   7 C :    0.146493
   8 H :    0.028852
   9 H :    0.032242
  10 O :   -0.485740
  11 H :   -0.024372
  12 H :   -0.010167
  13 H :   -0.008564

  Mayer bond orders larger than 0.100000
B(  0-C ,  1-C ) :   1.3263 B(  0-C ,  2-H ) :   0.1160 B(  0-C ,  3-H ) :   0.1427
B(  0-C ,  7-C ) :   1.2934 B(  0-C ,  8-H ) :   0.9048 B(  0-C ,  9-H ) :   0.8990
B(  0-C , 11-H ) :   0.2119 B(  0-C , 12-H ) :   0.2099 B(  0-C , 13-H ) :   0.2182
B(  1-C ,  2-H ) :   0.9517 B(  1-C ,  3-H ) :   0.8566 B(  1-C ,  4-S ) :   0.9162
B(  1-C ,  8-H ) :   0.1379 B(  1-C ,  9-H ) :   0.1375 B(  4-S ,  5-O ) :   1.4559
B(  4-S ,  6-F ) :   0.6316 B(  4-S , 10-O ) :   1.4475 B(  7-C , 11-H ) :   0.8387
B(  7-C , 12-H ) :   0.7424 B(  7-C , 13-H ) :   0.7665

Dispersion correction           -0.000287170
FINAL SINGLE POINT ENERGY      -766.367023956655

DIPOLE MOMENT
-------------
                                X             Y             Z
Electronic contribution:      5.23640      -5.95559     -11.77589
Nuclear contribution   :     -5.90419       7.56246      11.43606
                        -----------------------------------------
Total Dipole Moment    :     -0.66778       1.60688      -0.33983
                        -----------------------------------------
Magnitude (a.u.)       :      1.77298
Magnitude (Debye)      :      4.50656

Rotational constants in cm-1:     0.133686     0.052402     0.049175
Rotational constants in MHz :  4007.807944  1570.986792  1474.216272

                             ****ORCA TERMINATED NORMALLY****
TOTAL RUN TIME: 0 days 0 hours 0 minutes 16 seconds 637 msec
