                         Program Version 5.0.0 -  RELEASE  -
|  1> !M062X D3Zero RIJCOSX def2-SVPD def2/J TightSCF
|  2> *xyz 0 1
|  3> C          2.91632       -1.24259       -1.54313
|  4> C          3.46659       -1.59097       -2.88908
|  5> N          4.65227       -1.14316       -3.25969
|  6> C          2.75226       -2.29204       -3.72803
|  7> H          1.77836       -2.48960       -3.51274
|  8> H          2.94861       -2.20854       -4.71681
|  9> H          5.14672       -0.51251       -2.63385
| 10> H          4.78303       -1.00720       -4.25350
| 11> C          2.80408        0.29070       -1.35924
| 12> C          2.38838        1.09367       -2.59711
| 13> H          3.76342        0.67472       -0.99989
| 14> H          2.09479        0.46122       -0.54576
| 15> H          1.94047       -1.71653       -1.44116
| 16> H          3.55857       -1.66343       -0.76637
| 17> H          3.08894        0.91965       -3.38694
| 18> H          2.37301        2.13633       -2.35728
| 19> H          1.41303        0.78551       -2.91115
| 20> *
| 21>
| 22> %MaxCore 64000
| 23>
| 24> %pal nprocs 8
| 25> end
| 26>
| 27> %scf
| 28>   MaxIter 150
| 29> end
| 30>
| 31>
| 32>                          ****END OF INPUT****

CARTESIAN COORDINATES (ANGSTROEM)
---------------------------------
  C      2.916320   -1.242590   -1.543130
  C      3.466590   -1.590970   -2.889080
  N      4.652270   -1.143160   -3.259690
  C      2.752260   -2.292040   -3.728030
  H      1.778360   -2.489600   -3.512740
  H      2.948610   -2.208540   -4.716810
  H      5.146720   -0.512510   -2.633850
  H      4.783030   -1.007200   -4.253500
  C      2.804080    0.290700   -1.359240
  C      2.388380    1.093670   -2.597110
  H      3.763420    0.674720   -0.999890
  H      2.094790    0.461220   -0.545760
  H      1.940470   -1.716530   -1.441160
  H      3.558570   -1.663430   -0.766370
  H      3.088940    0.919650   -3.386940
  H      2.373010    2.136330   -2.357280
  H      1.413030    0.785510   -2.911150

 Total Charge           Charge          ....    0
 Multiplicity           Mult            ....    1
 Number of Electrons    NEL             ....   48
 Basis Dimension        Dim             ....  208

ORBITAL ENERGIES
----------------

  NO   OCC          E(Eh)            E(eV)
   0   2.0000     -14.762303      -401.7027
   1   2.0000     -10.571065      -287.6533
   2   2.0000     -10.553003      -287.1618
   3   2.0000     -10.550051      -287.0815
   4   2.0000     -10.533726      -286.6373
   5   2.0000     -10.485142      -285.3152
   6   2.0000      -1.031453       -28.0673
   7   2.0000      -0.883241       -24.0342
   8   2.0000      -0.826297       -22.4847
   9   2.0000      -0.771243       -20.9866
  10   2.0000      -0.680523       -18.5180
  11   2.0000      -0.637882       -17.3577
  12   2.0000      -0.599579       -16.3154
  13   2.0000      -0.539522       -14.6811
  14   2.0000      -0.528816       -14.3898
  15   2.0000      -0.521169       -14.1817
  16   2.0000      -0.460932       -12.5426
  17   2.0000      -0.456676       -12.4268
  18   2.0000      -0.440982       -11.9997
  19   2.0000      -0.428368       -11.6565
  20   2.0000      -0.395866       -10.7721
  21   2.0000      -0.392123       -10.6702
  22   2.0000      -0.379007       -10.3133
  23   2.0000      -0.252110        -6.8603
  24   0.0000       0.032216         0.8766
  25   0.0000       0.052830         1.4376
  26   0.0000       0.069500         1.8912
  27   0.0000       0.070571         1.9203
  28   0.0000       0.083936         2.2840

MULLIKEN ATOMIC CHARGES
-----------------------
   0 C :    0.360089
   1 C :   -0.452721
   2 N :    0.146168
   3 C :    0.321987
   4 H :   -0.016935
   5 H :   -0.397595
   6 H :   -0.020720
   7 H :   -0.035367
   8 C :   -0.404693
   9 C :    0.820682
  10 H :   -0.011508
  11 H :   -0.196172
  12 H :    0.173872
  13 H :   -0.062571
  14 H :   -0.112443
  15 H :   -0.048741
  16 H :   -0.063331
Sum of atomic charges:   -0.0000000

LOEWDIN ATOMIC CHARGES
----------------------
   0 C :    0.014672
   1 C :   -0.284527
   2 N :    0.168320
   3 C :    0.178860
   4 H :   -0.078038
   5 H :   -0.081013
   6 H :    0.005318
   7 H :    0.010422
   8 C :   -0.062305
   9 C :    0.128189
  10 H :    0.009268
  11 H :    0.015132
  12 H :    0.021541
  13 H :    0.023440
  14 H :   -0.036868
  15 H :   -0.018968
  16 H :   -0.013444

  Mayer bond orders larger than 0.100000
B(  0-C ,  1-C ) :   1.3361 B(  0-C ,  8-C ) :   1.1738 B(  0-C , 10-H ) :   0.1223
B(  0-C , 11-H ) :   0.1606 B(  0-C , 12-H ) :   0.7707 B(  0-C , 13-H ) :   0.7293
B(  1-C ,  2-N ) :   1.0013 B(  1-C ,  3-C ) :   2.1343 B(  1-C ,  4-H ) :   0.1032
B(  1-C ,  5-H ) :   0.3630 B(  1-C , 12-H ) :   0.1012 B(  1-C , 13-H ) :   0.2685
B(  2-N ,  3-C ) :   0.3144 B(  2-N ,  6-H ) :   0.9587 B(  2-N ,  7-H ) :   0.9652
B(  3-C ,  4-H ) :   0.8378 B(  3-C ,  5-H ) :   0.6774 B(  6-H ,  7-H ) :  -0.1220
B(  8-C ,  9-C ) :   1.2973 B(  8-C , 10-H ) :   0.8852 B(  8-C , 11-H ) :   0.9882
B(  8-C , 12-H ) :   0.1534 B(  8-C , 14-H ) :   0.2488 B(  8-C , 15-H ) :   0.2209
B(  8-C , 16-H ) :   0.2056 B(  9-C , 14-H ) :   0.8187 B(  9-C , 15-H ) :   0.7229
B(  9-C , 16-H ) :   0.7734 B( 14-H , 16-H ) :   0.1229

Dispersion correction           -0.000330358
FINAL SINGLE POINT ENERGY      -251.562425628116

DIPOLE MOMENT
-------------
                                X             Y             Z
Electronic contribution:      2.18241      -2.83705      -0.54863
Nuclear contribution   :     -1.90863       3.61442       0.70697
                        -----------------------------------------
Total Dipole Moment    :      0.27379       0.77737       0.15834
                        -----------------------------------------
Magnitude (a.u.)       :      0.83925
Magnitude (Debye)      :      2.13320

Rotational constants in cm-1:     0.173428     0.083686     0.080523
Rotational constants in MHz :  5199.232598  2508.829970  2414.016775

                             ****ORCA TERMINATED NORMALLY****
TOTAL RUN TIME: 0 days 0 hours 0 minutes 15 seconds 573 msec
