                         Program Version 5.0.0 -  RELEASE  -
|  1> !M062X D3Zero RIJCOSX def2-SVPD def2/J TightSCF
|  2> *xyz 0 1
|  3> C          0.70466        1.44313       -4.50363
|  4> C          1.72854        1.42432       -5.63944
|  5> H          2.64672        1.95379       -5.38105
|  6> H          1.29992        1.93061       -6.50361
|  7> S          2.25263       -0.18811       -6.27184
|  8> O          3.56261       -0.44446       -5.63155
|  9> O          2.34494       -0.03374       -7.69650
| 10> C          1.05255        0.69566       -3.21491
| 11> H         -0.23248        1.03293       -4.88445
| 12> H          0.51170        2.49579       -4.26797
| 13> F          1.26606       -1.15918       -5.80536
| 14> H          1.24200       -0.33323       -3.43942
| 15> H          0.23391        0.76629       -2.52954
| 16> H          1.92506        1.13113       -2.77446
| 17> *
| 18>
| 19> %MaxCore 64000
| 20>
| 21> %pal nprocs 8
| 22> end
| 23>
| 24> %scf
| 25>   MaxIter 150
| 26> end
| 27>
| 28>
| 29>                          ****END OF INPUT****

CARTESIAN COORDINATES (ANGSTROEM)
---------------------------------
  C      0.704660    1.443130   -4.503630
  C      1.728540    1.424320   -5.639440
  H      2.646720    1.953790   -5.381050
  H      1.299920    1.930610   -6.503610
  S      2.252630   -0.188110   -6.271840
  O      3.562610   -0.444460   -5.631550
  O      2.344940   -0.033740   -7.696500
  C      1.052550    0.695660   -3.214910
  H     -0.232480    1.032930   -4.884450
  H      0.511700    2.495790   -4.267970
  F      1.266060   -1.159180   -5.805360
  H      1.242000   -0.333230   -3.439420
  H      0.233910    0.766290   -2.529540
  H      1.925060    1.131130   -2.774460

 Total Charge           Charge          ....    0
 Multiplicity           Mult            ....    1
 Number of Electrons    NEL             ....   66
 Basis Dimension        Dim             ....  212

ORBITAL ENERGIES
----------------

  NO   OCC          E(Eh)            E(eV)
   0   2.0000     -90.196511     -2454.3718
   1   2.0000     -25.370728      -690.3726
   2   2.0000     -19.655408      -534.8508
   3   2.0000     -19.639066      -534.4062
   4   2.0000     -10.614537      -288.8362
   5   2.0000     -10.588938      -288.1397
   6   2.0000     -10.558766      -287.3186
   7   2.0000      -8.520740      -231.8611
   8   2.0000      -6.449147      -175.4902
   9   2.0000      -6.443846      -175.3460
  10   2.0000      -6.442828      -175.3183
  11   2.0000      -1.501987       -40.8711
  12   2.0000      -1.230269       -33.4773
  13   2.0000      -1.120620       -30.4936
  14   2.0000      -0.929870       -25.3030
  15   2.0000      -0.848098       -23.0779
  16   2.0000      -0.803776       -21.8719
  17   2.0000      -0.727100       -19.7854
  18   2.0000      -0.681343       -18.5403
  19   2.0000      -0.679194       -18.4818
  20   2.0000      -0.627876       -17.0854
  21   2.0000      -0.571026       -15.5384
  22   2.0000      -0.555725       -15.1221
  23   2.0000      -0.544282       -14.8107
  24   2.0000      -0.526318       -14.3218
  25   2.0000      -0.506148       -13.7730
  26   2.0000      -0.469459       -12.7746
  27   2.0000      -0.454981       -12.3807
  28   2.0000      -0.445426       -12.1207
  29   2.0000      -0.430946       -11.7266
  30   2.0000      -0.403565       -10.9816
  31   2.0000      -0.388882       -10.5820
  32   2.0000      -0.381903       -10.3921
  33   0.0000       0.009646         0.2625
  34   0.0000       0.036385         0.9901
  35   0.0000       0.042334         1.1520
  36   0.0000       0.043015         1.1705
  37   0.0000       0.064985         1.7683

MULLIKEN ATOMIC CHARGES
-----------------------
   0 C :   -0.298073
   1 C :    0.031332
   2 H :    0.029778
   3 H :    0.051145
   4 S :    1.527781
   5 O :   -0.708949
   6 O :   -0.705172
   7 C :    0.783284
   8 H :   -0.015095
   9 H :   -0.105380
  10 F :   -0.435240
  11 H :   -0.165480
  12 H :    0.007985
  13 H :    0.002086
Sum of atomic charges:   -0.0000000

LOEWDIN ATOMIC CHARGES
----------------------
   0 C :   -0.083164
   1 C :   -0.032864
   2 H :    0.033780
   3 H :    0.019331
   4 S :    1.157183
   5 O :   -0.501408
   6 O :   -0.473973
   7 C :    0.142405
   8 H :    0.025392
   9 H :    0.031937
  10 F :   -0.277532
  11 H :   -0.026757
  12 H :   -0.009236
  13 H :   -0.005094

  Mayer bond orders larger than 0.100000
B(  0-C ,  1-C ) :   1.2799 B(  0-C ,  2-H ) :   0.1203 B(  0-C ,  3-H ) :   0.1302
B(  0-C ,  7-C ) :   1.2901 B(  0-C ,  8-H ) :   0.9175 B(  0-C ,  9-H ) :   0.8970
B(  0-C , 11-H ) :   0.2089 B(  0-C , 12-H ) :   0.2094 B(  0-C , 13-H ) :   0.2212
B(  1-C ,  2-H ) :   0.9336 B(  1-C ,  3-H ) :   0.9059 B(  1-C ,  4-S ) :   0.9414
B(  1-C ,  8-H ) :   0.1293 B(  1-C ,  9-H ) :   0.1370 B(  4-S ,  5-O ) :   1.4685
B(  4-S ,  6-O ) :   1.5308 B(  4-S , 10-F ) :   0.6019 B(  7-C , 11-H ) :   0.8265
B(  7-C , 12-H ) :   0.7444 B(  7-C , 13-H ) :   0.7704

Dispersion correction           -0.000301424
FINAL SINGLE POINT ENERGY      -766.376663630994

DIPOLE MOMENT
-------------
                                X             Y             Z
Electronic contribution:      3.36081      -7.83337      -8.44917
Nuclear contribution   :     -4.74391       8.77281       9.40225
                        -----------------------------------------
Total Dipole Moment    :     -1.38310       0.93944       0.95308
                        -----------------------------------------
Magnitude (a.u.)       :      1.92455
Magnitude (Debye)      :      4.89182

Rotational constants in cm-1:     0.129476     0.053470     0.050698
Rotational constants in MHz :  3881.594668  1602.990831  1519.898630

                             ****ORCA TERMINATED NORMALLY****
TOTAL RUN TIME: 0 days 0 hours 0 minutes 15 seconds 575 msec
