                         Program Version 5.0.0 -  RELEASE  -
|  1> !M062X D3Zero RIJCOSX def2-SVPD def2/J TightSCF xyzfile
|  2>
|  3> *xyzfile 0 1 D2.xyz
|  4>
|  5> %MaxCore 64000
|  6>
|  7> %pal nprocs 4
|  8> end
|  9>
| 10> %scf
| 11>   MaxIter 150
| 12> end
| 13>
| 14>
| 15>                          ****END OF INPUT****

CARTESIAN COORDINATES (ANGSTROEM)
---------------------------------
  C      2.916324   -1.242589   -1.543125
  C      0.704661    1.443129   -4.503630
  C      1.728539    1.424320   -5.639443
  H      2.646718    1.953794   -5.381054
  H      1.299916    1.930613   -6.503614
  S      2.252625   -0.188115   -6.271840
  C      3.466585   -1.590971   -2.889082
  N      4.652275   -1.143164   -3.259692
  C      2.752264   -2.292043   -3.728029
  H      1.778364   -2.489604   -3.512738
  H      2.948612   -2.208544   -4.716813
  H      5.146723   -0.512508   -2.633852
  H      4.783030   -1.007203   -4.253498
  F      3.562607   -0.444464   -5.631552
  O      2.344944   -0.033742   -7.696501
  C      2.804084    0.290698   -1.359243
  C      1.052550    0.695659   -3.214915
  H     -0.232483    1.032925   -4.884449
  H      0.511700    2.495794   -4.267966
  C      2.388380    1.093669   -2.597108
  H      3.763425    0.674718   -0.999889
  H      2.094788    0.461222   -0.545756
  O      1.266058   -1.159177   -5.805365
  H      3.167316    1.013242   -3.359430
  H      2.357690    2.149375   -2.310997
  H      1.039284   -0.368429   -3.449329
  H      0.250787    0.865605   -2.488283
  H      1.940472   -1.716529   -1.441161
  H      3.558569   -1.663433   -0.766371

 Total Charge           Charge          ....    0
 Multiplicity           Mult            ....    1
 Number of Electrons    NEL             ....  112
 Basis Dimension        Dim             ....  404

ORBITAL ENERGIES
----------------

  NO   OCC          E(Eh)            E(eV)
   0   2.0000     -90.200578     -2454.4825
   1   2.0000     -25.367798      -690.2929
   2   2.0000     -19.658572      -534.9369
   3   2.0000     -19.648491      -534.6626
   4   2.0000     -14.760307      -401.6484
   5   2.0000     -10.615323      -288.8576
   6   2.0000     -10.579282      -287.8769
   7   2.0000     -10.567939      -287.5682
   8   2.0000     -10.560395      -287.3629
   9   2.0000     -10.558843      -287.3207
  10   2.0000     -10.553973      -287.1882
  11   2.0000     -10.552837      -287.1573
  12   2.0000     -10.481601      -285.2189
  13   2.0000      -8.523496      -231.9361
  14   2.0000      -6.452045      -175.5691
  15   2.0000      -6.446704      -175.4237
  16   2.0000      -6.445723      -175.3970
  17   2.0000      -1.494238       -40.6603
  18   2.0000      -1.237687       -33.6792
  19   2.0000      -1.135497       -30.8985
  20   2.0000      -1.031795       -28.0766
  21   2.0000      -0.933425       -25.3998
  22   2.0000      -0.895248       -24.3609
  23   2.0000      -0.855083       -23.2680
  24   2.0000      -0.826418       -22.4880
  25   2.0000      -0.803512       -21.8647
  26   2.0000      -0.767928       -20.8964
  27   2.0000      -0.716000       -19.4834
  28   2.0000      -0.684111       -18.6156
  29   2.0000      -0.672321       -18.2948
  30   2.0000      -0.661887       -18.0109
  31   2.0000      -0.642146       -17.4737
  32   2.0000      -0.629085       -17.1183
  33   2.0000      -0.599252       -16.3065
  34   2.0000      -0.573577       -15.6078
  35   2.0000      -0.566487       -15.4149
  36   2.0000      -0.555895       -15.1267
  37   2.0000      -0.545084       -14.8325
  38   2.0000      -0.527254       -14.3473
  39   2.0000      -0.517853       -14.0915
  40   2.0000      -0.509900       -13.8751
  41   2.0000      -0.488424       -13.2907
  42   2.0000      -0.474338       -12.9074
  43   2.0000      -0.463779       -12.6201
  44   2.0000      -0.453779       -12.3479
  45   2.0000      -0.450234       -12.2515
  46   2.0000      -0.433292       -11.7905
  47   2.0000      -0.425966       -11.5911
  48   2.0000      -0.415104       -11.2956
  49   2.0000      -0.404446       -11.0055
  50   2.0000      -0.399547       -10.8722
  51   2.0000      -0.393135       -10.6977
  52   2.0000      -0.389084       -10.5875
  53   2.0000      -0.379975       -10.3396
  54   2.0000      -0.377518       -10.2728
  55   2.0000      -0.248885        -6.7725
  56   0.0000       0.012324         0.3354
  57   0.0000       0.029886         0.8132
  58   0.0000       0.033599         0.9143
  59   0.0000       0.038996         1.0611
  60   0.0000       0.058331         1.5873

MULLIKEN ATOMIC CHARGES
-----------------------
   0 C :    0.475488
   1 C :    0.490621
   2 C :    0.133698
   3 H :    0.182897
   4 H :   -0.235444
   5 S :    1.559064
   6 C :   -0.648188
   7 N :    0.336004
   8 C :    0.807025
   9 H :   -0.079456
  10 H :   -0.537940
  11 H :   -0.015966
  12 H :   -0.244902
  13 F :   -0.532658
  14 O :   -0.708336
  15 C :    0.508323
  16 C :    0.362673
  17 H :    0.011150
  18 H :   -0.054269
  19 C :   -0.064835
  20 H :   -0.020697
  21 H :   -0.135787
  22 O :   -0.781275
  23 H :   -0.012148
  24 H :   -0.266899
  25 H :   -0.483436
  26 H :   -0.068035
  27 H :    0.306066
  28 H :   -0.282738
Sum of atomic charges:   -0.0000000

LOEWDIN ATOMIC CHARGES
----------------------
   0 C :    0.028528
   1 C :   -0.023381
   2 C :   -0.027046
   3 H :    0.015328
   4 H :    0.023735
   5 S :    1.175768
   6 C :   -0.261752
   7 N :    0.181077
   8 C :    0.179532
   9 H :   -0.061790
  10 H :   -0.114656
  11 H :    0.007961
  12 H :   -0.034110
  13 F :   -0.302189
  14 O :   -0.462438
  15 C :   -0.011661
  16 C :   -0.012659
  17 H :    0.034004
  18 H :    0.034863
  19 C :   -0.026627
  20 H :    0.013881
  21 H :    0.020537
  22 O :   -0.462987
  23 H :   -0.009970
  24 H :    0.026887
  25 H :   -0.013148
  26 H :    0.034830
  27 H :    0.024016
  28 H :    0.023467

  Mayer bond orders larger than 0.100000
B(  0-C ,  6-C ) :   1.3098 B(  0-C , 15-C ) :   1.1202 B(  0-C , 20-H ) :   0.1207
B(  0-C , 21-H ) :   0.1979 B(  0-C , 27-H ) :   0.7582 B(  0-C , 28-H ) :   0.5989
B(  1-C ,  2-C ) :   1.2313 B(  1-C ,  4-H ) :   0.2002 B(  1-C , 16-C ) :   1.2645
B(  1-C , 17-H ) :   0.6738 B(  1-C , 18-H ) :   0.7584 B(  2-C ,  3-H ) :   0.8447
B(  2-C ,  4-H ) :   0.9182 B(  2-C ,  5-S ) :   0.9227 B(  2-C , 17-H ) :   0.1121
B(  2-C , 18-H ) :   0.1462 B(  5-S , 13-F ) :   0.5691 B(  5-S , 14-O ) :   1.5120
B(  5-S , 22-O ) :   1.4888 B(  6-C ,  7-N ) :   0.9080 B(  6-C ,  8-C ) :   2.0567
B(  6-C ,  9-H ) :   0.1071 B(  6-C , 10-H ) :   0.5543 B(  6-C , 15-C ) :   0.1843
B(  6-C , 21-H ) :  -0.1075 B(  6-C , 28-H ) :   0.4277 B(  7-N ,  8-C ) :   0.4419
B(  7-N ,  9-H ) :   0.1737 B(  7-N , 10-H ) :  -0.1527 B(  7-N , 11-H ) :   0.9875
B(  7-N , 12-H ) :   0.9098 B(  8-C ,  9-H ) :   0.6377 B(  8-C , 27-H ) :  -0.1089
B(  9-H , 25-H ) :   0.1049 B( 10-H , 12-H ) :   0.1773 B( 11-H , 12-H ) :  -0.1707
B( 12-H , 13-F ) :   0.1569 B( 15-C , 19-C ) :   1.2086 B( 15-C , 20-H ) :   0.6614
B( 15-C , 21-H ) :   0.8046 B( 15-C , 27-H ) :   0.1146 B( 16-C , 17-H ) :   0.2726
B( 16-C , 19-C ) :   1.2272 B( 16-C , 23-H ) :   0.1255 B( 16-C , 24-H ) :   0.1473
B( 16-C , 25-H ) :   0.9153 B( 16-C , 26-H ) :   0.6881 B( 17-H , 18-H ) :  -0.1437
B( 19-C , 20-H ) :   0.2828 B( 19-C , 21-H ) :   0.1698 B( 19-C , 23-H ) :   0.8625
B( 19-C , 24-H ) :   0.9133 B( 19-C , 25-H ) :   0.1787 B( 19-C , 26-H ) :   0.2122
B( 20-H , 21-H ) :  -0.1803

Dispersion correction           -0.001668263
FINAL SINGLE POINT ENERGY     -1016.761825880848

DIPOLE MOMENT
-------------
                                X             Y             Z
Electronic contribution:      3.43343      -4.19616     -18.18760
Nuclear contribution   :     -3.13969       6.14743      19.30799
                        -----------------------------------------
Total Dipole Moment    :      0.29374       1.95127       1.12039
                        -----------------------------------------
Magnitude (a.u.)       :      2.26914
Magnitude (Debye)      :      5.76771

Rotational constants in cm-1:     0.036460     0.018762     0.015014
Rotational constants in MHz :  1093.039020   562.475626   450.105862

                             ****ORCA TERMINATED NORMALLY****
TOTAL RUN TIME: 0 days 0 hours 2 minutes 45 seconds 882 msec
