                         Program Version 5.0.0 -  RELEASE  -
|  1> !M062X D3Zero RIJCOSX def2-SVPD def2/J TightSCF xyzfile
|  2>
|  3> *xyzfile 0 1 D4.xyz
|  4>
|  5> %MaxCore 64000
|  6>
|  7> %pal nprocs 4
|  8> end
|  9>
| 10> %scf
| 11>   MaxIter 150
| 12> end
| 13>
| 14>
| 15>                          ****END OF INPUT****

CARTESIAN COORDINATES (ANGSTROEM)
---------------------------------
  C      2.916324   -1.242589   -1.543125
  C      0.704661    1.443129   -4.503630
  C      1.728539    1.424320   -5.639443
  H      2.646718    1.953794   -5.381054
  H      1.299916    1.930613   -6.503614
  S      2.252625   -0.188115   -6.271840
  C      3.466585   -1.590971   -2.889082
  N      4.652275   -1.143164   -3.259692
  C      2.752264   -2.292043   -3.728029
  H      1.778364   -2.489604   -3.512738
  H      2.948612   -2.208544   -4.716813
  H      5.146723   -0.512508   -2.633852
  H      4.783030   -1.007203   -4.253498
  O      3.562607   -0.444464   -5.631552
  F      2.344944   -0.033742   -7.696501
  C      2.804084    0.290698   -1.359243
  C      1.052550    0.695659   -3.214915
  H     -0.232483    1.032925   -4.884449
  H      0.511700    2.495794   -4.267966
  C      2.388380    1.093669   -2.597108
  H      3.763425    0.674718   -0.999889
  H      2.094788    0.461222   -0.545756
  O      1.266058   -1.159177   -5.805365
  H      3.167316    1.013242   -3.359430
  H      2.357690    2.149375   -2.310997
  H      1.039284   -0.368429   -3.449329
  H      0.250787    0.865605   -2.488283
  H      1.940472   -1.716529   -1.441161
  H      3.558569   -1.663433   -0.766371

 Total Charge           Charge          ....    0
 Multiplicity           Mult            ....    1
 Number of Electrons    NEL             ....  112
 Basis Dimension        Dim             ....  404

ORBITAL ENERGIES
----------------

  NO   OCC          E(Eh)            E(eV)
   0   2.0000     -90.208333     -2454.6935
   1   2.0000     -25.390127      -690.9005
   2   2.0000     -19.654880      -534.8365
   3   2.0000     -19.651387      -534.7414
   4   2.0000     -14.732440      -400.8901
   5   2.0000     -10.619481      -288.9708
   6   2.0000     -10.580992      -287.9234
   7   2.0000     -10.547794      -287.0201
   8   2.0000     -10.547699      -287.0175
   9   2.0000     -10.546283      -286.9789
  10   2.0000     -10.545892      -286.9683
  11   2.0000     -10.537367      -286.7363
  12   2.0000     -10.457425      -284.5610
  13   2.0000      -8.531337      -232.1495
  14   2.0000      -6.459792      -175.7799
  15   2.0000      -6.454601      -175.6386
  16   2.0000      -6.453442      -175.6071
  17   2.0000      -1.530271       -41.6408
  18   2.0000      -1.230063       -33.4717
  19   2.0000      -1.123833       -30.5811
  20   2.0000      -1.005424       -27.3590
  21   2.0000      -0.932702       -25.3801
  22   2.0000      -0.888095       -24.1663
  23   2.0000      -0.854479       -23.2515
  24   2.0000      -0.821232       -22.3469
  25   2.0000      -0.795599       -21.6493
  26   2.0000      -0.758338       -20.6354
  27   2.0000      -0.715569       -19.4716
  28   2.0000      -0.702071       -19.1043
  29   2.0000      -0.685390       -18.6504
  30   2.0000      -0.653923       -17.7942
  31   2.0000      -0.643474       -17.5098
  32   2.0000      -0.610673       -16.6172
  33   2.0000      -0.584334       -15.9005
  34   2.0000      -0.574758       -15.6400
  35   2.0000      -0.568062       -15.4577
  36   2.0000      -0.548467       -14.9245
  37   2.0000      -0.529309       -14.4032
  38   2.0000      -0.525746       -14.3063
  39   2.0000      -0.510472       -13.8907
  40   2.0000      -0.497705       -13.5432
  41   2.0000      -0.478357       -13.0168
  42   2.0000      -0.470517       -12.8034
  43   2.0000      -0.451101       -12.2751
  44   2.0000      -0.445990       -12.1360
  45   2.0000      -0.435337       -11.8461
  46   2.0000      -0.422598       -11.4995
  47   2.0000      -0.416041       -11.3211
  48   2.0000      -0.409925       -11.1546
  49   2.0000      -0.393368       -10.7041
  50   2.0000      -0.388954       -10.5840
  51   2.0000      -0.387335       -10.5399
  52   2.0000      -0.377014       -10.2591
  53   2.0000      -0.368327       -10.0227
  54   2.0000      -0.358133        -9.7453
  55   2.0000      -0.225399        -6.1334
  56   0.0000       0.005164         0.1405
  57   0.0000       0.028439         0.7739
  58   0.0000       0.032753         0.8912
  59   0.0000       0.042321         1.1516
  60   0.0000       0.055527         1.5110

MULLIKEN ATOMIC CHARGES
-----------------------
   0 C :    0.480328
   1 C :    0.456657
   2 C :    0.115826
   3 H :    0.162986
   4 H :   -0.187269
   5 S :    1.661101
   6 C :   -0.649205
   7 N :    0.325531
   8 C :    0.776903
   9 H :   -0.063085
  10 H :   -0.532039
  11 H :   -0.016000
  12 H :   -0.266483
  13 O :   -0.749378
  14 F :   -0.516687
  15 C :    0.518876
  16 C :    0.339165
  17 H :    0.016430
  18 H :   -0.055374
  19 C :   -0.051961
  20 H :   -0.018221
  21 H :   -0.143216
  22 O :   -0.766697
  23 H :   -0.005215
  24 H :   -0.271209
  25 H :   -0.485274
  26 H :   -0.085809
  27 H :    0.298588
  28 H :   -0.289268
Sum of atomic charges:   -0.0000000

LOEWDIN ATOMIC CHARGES
----------------------
   0 C :    0.025099
   1 C :   -0.019102
   2 C :   -0.031463
   3 H :    0.020465
   4 H :    0.012275
   5 S :    1.211065
   6 C :   -0.260892
   7 N :    0.185674
   8 C :    0.175722
   9 H :   -0.068226
  10 H :   -0.120868
  11 H :    0.003594
  12 H :   -0.052615
  13 O :   -0.495483
  14 F :   -0.259059
  15 C :   -0.013333
  16 C :   -0.009414
  17 H :    0.031887
  18 H :    0.036330
  19 C :   -0.023395
  20 H :    0.013190
  21 H :    0.017582
  22 O :   -0.462729
  23 H :   -0.005903
  24 H :    0.024370
  25 H :   -0.010940
  26 H :    0.033965
  27 H :    0.021199
  28 H :    0.021004

  Mayer bond orders larger than 0.100000
B(  0-C ,  6-C ) :   1.3069 B(  0-C , 15-C ) :   1.1140 B(  0-C , 20-H ) :   0.1186
B(  0-C , 21-H ) :   0.2082 B(  0-C , 27-H ) :   0.7605 B(  0-C , 28-H ) :   0.5905
B(  1-C ,  2-C ) :   1.2644 B(  1-C ,  4-H ) :   0.2251 B(  1-C , 16-C ) :   1.2585
B(  1-C , 17-H ) :   0.6788 B(  1-C , 18-H ) :   0.7522 B(  2-C ,  3-H ) :   0.8717
B(  2-C ,  4-H ) :   0.8497 B(  2-C ,  5-S ) :   0.9461 B(  2-C , 17-H ) :   0.1010
B(  2-C , 18-H ) :   0.1530 B(  5-S , 13-O ) :   1.3375 B(  5-S , 14-F ) :   0.5109
B(  5-S , 22-O ) :   1.4445 B(  6-C ,  7-N ) :   0.9183 B(  6-C ,  8-C ) :   2.0735
B(  6-C ,  9-H ) :   0.1162 B(  6-C , 10-H ) :   0.5799 B(  6-C , 15-C ) :   0.1816
B(  6-C , 21-H ) :  -0.1109 B(  6-C , 28-H ) :   0.4300 B(  7-N ,  8-C ) :   0.4455
B(  7-N ,  9-H ) :   0.1826 B(  7-N , 10-H ) :  -0.1524 B(  7-N , 11-H ) :   0.9726
B(  7-N , 12-H ) :   0.9230 B(  8-C ,  9-H ) :   0.6090 B(  8-C , 27-H ) :  -0.1078
B(  9-H , 25-H ) :   0.1204 B( 10-H , 12-H ) :   0.1810 B( 11-H , 12-H ) :  -0.1707
B( 13-O , 22-O ) :   0.1182 B( 15-C , 19-C ) :   1.2087 B( 15-C , 20-H ) :   0.6583
B( 15-C , 21-H ) :   0.7996 B( 15-C , 27-H ) :   0.1137 B( 16-C , 17-H ) :   0.2765
B( 16-C , 19-C ) :   1.2395 B( 16-C , 23-H ) :   0.1258 B( 16-C , 24-H ) :   0.1562
B( 16-C , 25-H ) :   0.9183 B( 16-C , 26-H ) :   0.6930 B( 17-H , 18-H ) :  -0.1387
B( 19-C , 20-H ) :   0.2827 B( 19-C , 21-H ) :   0.1662 B( 19-C , 23-H ) :   0.8746
B( 19-C , 24-H ) :   0.8883 B( 19-C , 25-H ) :   0.1760 B( 19-C , 26-H ) :   0.2039
B( 20-H , 21-H ) :  -0.1826

Dispersion correction           -0.001643803
FINAL SINGLE POINT ENERGY     -1016.746614502165

DIPOLE MOMENT
-------------
                                X             Y             Z
Electronic contribution:      1.29365      -3.39304     -22.17530
Nuclear contribution   :     -1.74760       5.67788      21.66873
                        -----------------------------------------
Total Dipole Moment    :     -0.45395       2.28484      -0.50657
                        -----------------------------------------
Magnitude (a.u.)       :      2.38394
Magnitude (Debye)      :      6.05949

Rotational constants in cm-1:     0.036818     0.018222     0.014682
Rotational constants in MHz :  1103.783048   546.296792   440.157914

                             ****ORCA TERMINATED NORMALLY****
TOTAL RUN TIME: 0 days 0 hours 2 minutes 37 seconds 69 msec
