                         Program Version 5.0.0 -  RELEASE  -
|  1> !M062X D3Zero RIJCOSX def2-SVPD def2/J TightSCF xyzfile
|  2>
|  3> *xyzfile 0 1 D6.xyz
|  4>
|  5> %MaxCore 64000
|  6>
|  7> %pal nprocs 4
|  8> end
|  9>
| 10> %scf
| 11>   MaxIter 150
| 12> end
| 13>
| 14>
| 15>                          ****END OF INPUT****

CARTESIAN COORDINATES (ANGSTROEM)
---------------------------------
  C      2.916324   -1.242589   -1.543125
  C      0.704661    1.443129   -4.503630
  C      1.728539    1.424320   -5.639443
  H      2.646718    1.953794   -5.381054
  H      1.299916    1.930613   -6.503614
  S      2.252625   -0.188115   -6.271840
  C      3.466585   -1.590971   -2.889082
  N      4.652275   -1.143164   -3.259692
  C      2.752264   -2.292043   -3.728029
  H      1.778364   -2.489604   -3.512738
  H      2.948612   -2.208544   -4.716813
  H      5.146723   -0.512508   -2.633852
  H      4.783030   -1.007203   -4.253498
  O      3.562607   -0.444464   -5.631552
  O      2.344944   -0.033742   -7.696501
  C      2.804084    0.290698   -1.359243
  C      1.052550    0.695659   -3.214915
  H     -0.232483    1.032925   -4.884449
  H      0.511700    2.495794   -4.267966
  C      2.388380    1.093669   -2.597108
  H      3.763425    0.674718   -0.999889
  H      2.094788    0.461222   -0.545756
  F      1.266058   -1.159177   -5.805365
  H      3.167316    1.013242   -3.359430
  H      2.357690    2.149375   -2.310997
  H      1.039284   -0.368429   -3.449329
  H      0.250787    0.865605   -2.488283
  H      1.940472   -1.716529   -1.441161
  H      3.558569   -1.663433   -0.766371

 Total Charge           Charge          ....    0
 Multiplicity           Mult            ....    1
 Number of Electrons    NEL             ....  112
 Basis Dimension        Dim             ....  404

ORBITAL ENERGIES
----------------

  NO   OCC          E(Eh)            E(eV)
   0   2.0000     -90.205380     -2454.6132
   1   2.0000     -25.373013      -690.4348
   2   2.0000     -19.661216      -535.0089
   3   2.0000     -19.646997      -534.6220
   4   2.0000     -14.742273      -401.1576
   5   2.0000     -10.617067      -288.9051
   6   2.0000     -10.586157      -288.0640
   7   2.0000     -10.561262      -287.3866
   8   2.0000     -10.560350      -287.3617
   9   2.0000     -10.556754      -287.2639
  10   2.0000     -10.554916      -287.2139
  11   2.0000     -10.548118      -287.0289
  12   2.0000     -10.473673      -285.0031
  13   2.0000      -8.528183      -232.0637
  14   2.0000      -6.456636      -175.6940
  15   2.0000      -6.451600      -175.5570
  16   2.0000      -6.450285      -175.5212
  17   2.0000      -1.504320       -40.9346
  18   2.0000      -1.237045       -33.6617
  19   2.0000      -1.131086       -30.7784
  20   2.0000      -1.016123       -27.6501
  21   2.0000      -0.937921       -25.5221
  22   2.0000      -0.893097       -24.3024
  23   2.0000      -0.850882       -23.1537
  24   2.0000      -0.823521       -22.4091
  25   2.0000      -0.801651       -21.8140
  26   2.0000      -0.764708       -20.8088
  27   2.0000      -0.718682       -19.5563
  28   2.0000      -0.688512       -18.7354
  29   2.0000      -0.684185       -18.6176
  30   2.0000      -0.659850       -17.9554
  31   2.0000      -0.643185       -17.5020
  32   2.0000      -0.619044       -16.8450
  33   2.0000      -0.584831       -15.9141
  34   2.0000      -0.572121       -15.5682
  35   2.0000      -0.568882       -15.4801
  36   2.0000      -0.554868       -15.0987
  37   2.0000      -0.542943       -14.7742
  38   2.0000      -0.531733       -14.4692
  39   2.0000      -0.514555       -14.0018
  40   2.0000      -0.511273       -13.9124
  41   2.0000      -0.485040       -13.1986
  42   2.0000      -0.477133       -12.9834
  43   2.0000      -0.464680       -12.6446
  44   2.0000      -0.453028       -12.3275
  45   2.0000      -0.448883       -12.2147
  46   2.0000      -0.432262       -11.7624
  47   2.0000      -0.426509       -11.6059
  48   2.0000      -0.416822       -11.3423
  49   2.0000      -0.402779       -10.9602
  50   2.0000      -0.397993       -10.8299
  51   2.0000      -0.388693       -10.5769
  52   2.0000      -0.385651       -10.4941
  53   2.0000      -0.374931       -10.2024
  54   2.0000      -0.370066       -10.0700
  55   2.0000      -0.239695        -6.5224
  56   0.0000       0.010345         0.2815
  57   0.0000       0.030094         0.8189
  58   0.0000       0.036162         0.9840
  59   0.0000       0.038833         1.0567
  60   0.0000       0.053613         1.4589

MULLIKEN ATOMIC CHARGES
-----------------------
   0 C :    0.479849
   1 C :    0.477980
   2 C :    0.147889
   3 H :    0.160377
   4 H :   -0.205223
   5 S :    1.474870
   6 C :   -0.617031
   7 N :    0.329939
   8 C :    0.767085
   9 H :   -0.052409
  10 H :   -0.580598
  11 H :   -0.009513
  12 H :   -0.273192
  13 O :   -0.693111
  14 O :   -0.699512
  15 C :    0.511250
  16 C :    0.367518
  17 H :   -0.006781
  18 H :   -0.046403
  19 C :   -0.057689
  20 H :   -0.013313
  21 H :   -0.142614
  22 F :   -0.484103
  23 H :   -0.002798
  24 H :   -0.264588
  25 H :   -0.502099
  26 H :   -0.077944
  27 H :    0.296404
  28 H :   -0.284241
Sum of atomic charges:    0.0000000

LOEWDIN ATOMIC CHARGES
----------------------
   0 C :    0.026742
   1 C :   -0.032277
   2 C :   -0.019634
   3 H :    0.027972
   4 H :    0.019166
   5 S :    1.192275
   6 C :   -0.257274
   7 N :    0.192290
   8 C :    0.166169
   9 H :   -0.072875
  10 H :   -0.121273
  11 H :    0.006890
  12 H :   -0.049347
  13 O :   -0.491778
  14 O :   -0.459029
  15 C :   -0.011523
  16 C :   -0.015749
  17 H :    0.028596
  18 H :    0.035427
  19 C :   -0.021077
  20 H :    0.014886
  21 H :    0.018722
  22 F :   -0.264538
  23 H :   -0.004649
  24 H :    0.026981
  25 H :   -0.013899
  26 H :    0.034459
  27 H :    0.021059
  28 H :    0.023287

  Mayer bond orders larger than 0.100000
B(  0-C ,  6-C ) :   1.3092 B(  0-C , 15-C ) :   1.1169 B(  0-C , 20-H ) :   0.1195
B(  0-C , 21-H ) :   0.2067 B(  0-C , 27-H ) :   0.7582 B(  0-C , 28-H ) :   0.5941
B(  1-C ,  2-C ) :   1.2239 B(  1-C ,  4-H ) :   0.2057 B(  1-C , 16-C ) :   1.2575
B(  1-C , 17-H ) :   0.6791 B(  1-C , 18-H ) :   0.7503 B(  2-C ,  3-H ) :   0.8659
B(  2-C ,  4-H ) :   0.9222 B(  2-C ,  5-S ) :   0.9527 B(  2-C , 18-H ) :   0.1476
B(  5-S , 10-H ) :   0.1049 B(  5-S , 13-O ) :   1.3960 B(  5-S , 14-O ) :   1.5236
B(  5-S , 22-F ) :   0.6021 B(  6-C ,  7-N ) :   0.9398 B(  6-C ,  8-C ) :   2.0748
B(  6-C ,  9-H ) :   0.1164 B(  6-C , 10-H ) :   0.5587 B(  6-C , 15-C ) :   0.1865
B(  6-C , 21-H ) :  -0.1082 B(  6-C , 28-H ) :   0.4213 B(  7-N ,  8-C ) :   0.4354
B(  7-N ,  9-H ) :   0.1770 B(  7-N , 10-H ) :  -0.1307 B(  7-N , 11-H ) :   0.9674
B(  7-N , 12-H ) :   0.9233 B(  8-C ,  9-H ) :   0.5971 B(  8-C , 27-H ) :  -0.1047
B(  9-H , 25-H ) :   0.1166 B( 10-H , 12-H ) :   0.1750 B( 11-H , 12-H ) :  -0.1729
B( 12-H , 13-O ) :   0.1233 B( 15-C , 19-C ) :   1.2137 B( 15-C , 20-H ) :   0.6594
B( 15-C , 21-H ) :   0.8033 B( 15-C , 27-H ) :   0.1167 B( 16-C , 17-H ) :   0.2614
B( 16-C , 19-C ) :   1.2349 B( 16-C , 23-H ) :   0.1285 B( 16-C , 24-H ) :   0.1524
B( 16-C , 25-H ) :   0.8796 B( 16-C , 26-H ) :   0.6978 B( 17-H , 18-H ) :  -0.1512
B( 19-C , 20-H ) :   0.2797 B( 19-C , 21-H ) :   0.1672 B( 19-C , 23-H ) :   0.8777
B( 19-C , 24-H ) :   0.8893 B( 19-C , 25-H ) :   0.1926 B( 19-C , 26-H ) :   0.2035
B( 20-H , 21-H ) :  -0.1811

Dispersion correction           -0.001669187
FINAL SINGLE POINT ENERGY     -1016.758607340884

DIPOLE MOMENT
-------------
                                X             Y             Z
Electronic contribution:     -0.48761      -5.29349     -18.60890
Nuclear contribution   :     -0.51418       6.96452      19.50670
                        -----------------------------------------
Total Dipole Moment    :     -1.00179       1.67103       0.89780
                        -----------------------------------------
Magnitude (a.u.)       :      2.14522
Magnitude (Debye)      :      5.45272

Rotational constants in cm-1:     0.036455     0.018603     0.015008
Rotational constants in MHz :  1092.895336   557.693628   449.926016

                             ****ORCA TERMINATED NORMALLY****
TOTAL RUN TIME: 0 days 0 hours 2 minutes 35 seconds 994 msec
