                         Program Version 5.0.0 -  RELEASE  -
|  1> !M062X D3Zero RIJCOSX def2-SVPD def2/J TightSCF
|  2> *xyz -1 1
|  3> C          1.44442        5.26658       -0.97546
|  4> O          1.56525        4.23349       -1.86489
|  5> C         -1.07389        4.84473       -0.97990
|  6> C          0.14812        5.21087       -0.13809
|  7> H          1.47425        6.26464       -1.47692
|  8> H          2.28962        5.30327       -0.26445
|  9> H          0.26183        4.45094        0.64071
| 10> H         -0.00252        6.17103        0.37148
| 11> H         -1.20745        5.57445       -1.75098
| 12> H         -1.94291        4.82190       -0.35605
| 13> H         -0.92683        3.88150       -1.42201
| 14> *
| 15> %MaxCore 64000
| 16>
| 17> %pal nprocs 4
| 18> end
| 19>
| 20> %scf
| 21>   MaxIter 150
| 22> end
| 23>
| 24>
| 25>                          ****END OF INPUT****

CARTESIAN COORDINATES (ANGSTROEM)
---------------------------------
  C      1.444420    5.266580   -0.975460
  O      1.565250    4.233490   -1.864890
  C     -1.073890    4.844730   -0.979900
  C      0.148120    5.210870   -0.138090
  H      1.474250    6.264640   -1.476920
  H      2.289620    5.303270   -0.264450
  H      0.261830    4.450940    0.640710
  H     -0.002520    6.171030    0.371480
  H     -1.207450    5.574450   -1.750980
  H     -1.942910    4.821900   -0.356050
  H     -0.926830    3.881500   -1.422010

 Total Charge           Charge          ....   -1
 Multiplicity           Mult            ....    1
 Number of Electrons    NEL             ....   34
 Basis Dimension        Dim             ....  139

ORBITAL ENERGIES
----------------

  NO   OCC          E(Eh)            E(eV)
   0   2.0000     -19.303072      -525.2633
   1   2.0000     -10.365852      -282.0692
   2   2.0000     -10.363032      -281.9924
   3   2.0000     -10.357812      -281.8504
   4   2.0000      -0.783772       -21.3275
   5   2.0000      -0.668294       -18.1852
   6   2.0000      -0.547663       -14.9027
   7   2.0000      -0.436887       -11.8883
   8   2.0000      -0.344083        -9.3630
   9   2.0000      -0.331534        -9.0215
  10   2.0000      -0.277708        -7.5568
  11   2.0000      -0.251860        -6.8535
  12   2.0000      -0.221956        -6.0397
  13   2.0000      -0.210261        -5.7215
  14   2.0000      -0.177208        -4.8221
  15   2.0000      -0.037792        -1.0284
  16   2.0000      -0.033720        -0.9176
  17   0.0000       0.185813         5.0562
  18   0.0000       0.211091         5.7441
  19   0.0000       0.229558         6.2466
  20   0.0000       0.259197         7.0531
  21   0.0000       0.278084         7.5671

MULLIKEN ATOMIC CHARGES
-----------------------
   0 C :    0.476485
   1 O :   -0.894137
   2 C :    0.634462
   3 C :   -0.479996
   4 H :   -0.108553
   5 H :   -0.190767
   6 H :   -0.091972
   7 H :   -0.125174
   8 H :   -0.077701
   9 H :   -0.116615
  10 H :   -0.026032
Sum of atomic charges:   -1.0000000

LOEWDIN ATOMIC CHARGES
----------------------
   0 C :   -0.210065
   1 O :   -0.570712
   2 C :    0.084587
   3 C :   -0.115054
   4 H :   -0.026067
   5 H :   -0.033400
   6 H :   -0.003191
   7 H :   -0.011175
   8 H :   -0.029633
   9 H :   -0.050582
  10 H :   -0.034708

  Mayer bond orders larger than 0.100000
B(  0-C ,  1-O ) :   1.1523 B(  0-C ,  3-C ) :   1.0510 B(  0-C ,  4-H ) :   0.9341
B(  0-C ,  5-H ) :   0.9609 B(  0-C ,  6-H ) :   0.1013 B(  2-C ,  3-C ) :   1.2784
B(  2-C ,  8-H ) :   0.8184 B(  2-C ,  9-H ) :   0.8005 B(  2-C , 10-H ) :   0.8220
B(  3-C ,  4-H ) :   0.1417 B(  3-C ,  5-H ) :   0.1383 B(  3-C ,  6-H ) :   0.9485
B(  3-C ,  7-H ) :   1.0030 B(  3-C ,  8-H ) :   0.2027 B(  3-C ,  9-H ) :   0.2005
B(  3-C , 10-H ) :   0.2088

Dispersion correction           -0.000078014
FINAL SINGLE POINT ENERGY      -193.501436577256

DIPOLE MOMENT
-------------
                                X             Y             Z
Electronic contribution:      2.05714      -1.33316      -1.44716
Nuclear contribution   :     -3.50495       2.13585       2.58010
                        -----------------------------------------
Total Dipole Moment    :     -1.44781       0.80269       1.13294
                        -----------------------------------------
Magnitude (a.u.)       :      2.00600
Magnitude (Debye)      :      5.09884

Rotational constants in cm-1:     0.478988     0.188199     0.150738
Rotational constants in MHz : 14359.706344  5642.078771  4519.011003

                             ****ORCA TERMINATED NORMALLY****
TOTAL RUN TIME: 0 days 0 hours 0 minutes 11 seconds 389 msec
