                         Program Version 5.0.0 -  RELEASE  -
|  1> !M062X D3Zero RIJCOSX def2-SVPD def2/J TightSCF
|  2> *xyz 1 1
|  3> C         -0.70169        4.07250       -4.00392
|  4> N          0.68053        4.61482       -4.04800
|  5> H          0.69993        5.58489       -4.38827
|  6> H          1.27804        4.05598       -4.66824
|  7> H          1.08573        4.53358       -3.10652
|  8> C         -1.70347        5.09320       -3.47740
|  9> H         -0.99590        3.74039       -5.00065
| 10> H         -0.64358        3.20191       -3.35153
| 11> C         -1.31400        5.78600       -2.16927
| 12> H         -1.87706        5.85010       -4.25115
| 13> H         -2.65326        4.56448       -3.35480
| 14> H         -0.38448        6.29945       -2.30062
| 15> H         -1.21111        5.05451       -1.39516
| 16> H         -2.07413        6.48833       -1.89758
| 17> *
| 18> %MaxCore 64000
| 19>
| 20> %pal nprocs 4
| 21> end
| 22>
| 23> %scf
| 24>   MaxIter 150
| 25> end
| 26>
| 27>
| 28>                          ****END OF INPUT****

CARTESIAN COORDINATES (ANGSTROEM)
---------------------------------
  C     -0.701690    4.072500   -4.003920
  N      0.680530    4.614820   -4.048000
  H      0.699930    5.584890   -4.388270
  H      1.278040    4.055980   -4.668240
  H      1.085730    4.533580   -3.106520
  C     -1.703470    5.093200   -3.477400
  H     -0.995900    3.740390   -5.000650
  H     -0.643580    3.201910   -3.351530
  C     -1.314000    5.786000   -2.169270
  H     -1.877060    5.850100   -4.251150
  H     -2.653260    4.564480   -3.354800
  H     -0.384480    6.299450   -2.300620
  H     -1.211110    5.054510   -1.395160
  H     -2.074130    6.488330   -1.897580

 Total Charge           Charge          ....    1
 Multiplicity           Mult            ....    1
 Number of Electrons    NEL             ....   34
 Basis Dimension        Dim             ....  160

ORBITAL ENERGIES
----------------

  NO   OCC          E(Eh)            E(eV)
   0   2.0000     -15.091694      -410.6659
   1   2.0000     -10.798914      -293.8534
   2   2.0000     -10.729049      -291.9523
   3   2.0000     -10.699544      -291.1494
   4   2.0000      -1.309487       -35.6329
   5   2.0000      -1.062364       -28.9084
   6   2.0000      -0.969385       -26.3783
   7   2.0000      -0.883429       -24.0393
   8   2.0000      -0.864443       -23.5227
   9   2.0000      -0.848675       -23.0936
  10   2.0000      -0.755530       -20.5590
  11   2.0000      -0.704450       -19.1690
  12   2.0000      -0.675066       -18.3695
  13   2.0000      -0.651565       -17.7300
  14   2.0000      -0.589378       -16.0378
  15   2.0000      -0.586021       -15.9465
  16   2.0000      -0.572150       -15.5690
  17   0.0000      -0.164331        -4.4717
  18   0.0000      -0.106880        -2.9084
  19   0.0000      -0.106598        -2.9007
  20   0.0000      -0.095989        -2.6120
  21   0.0000      -0.066979        -1.8226

MULLIKEN ATOMIC CHARGES
-----------------------
   0 C :    0.530515
   1 N :   -0.767195
   2 H :    0.400705
   3 H :    0.306216
   4 H :    0.441279
   5 C :   -0.411141
   6 H :   -0.055711
   7 H :   -0.024759
   8 C :    0.700758
   9 H :   -0.022570
  10 H :   -0.010296
  11 H :   -0.056469
  12 H :    0.016967
  13 H :   -0.048300
Sum of atomic charges:    1.0000000

LOEWDIN ATOMIC CHARGES
----------------------
   0 C :    0.087378
   1 N :    0.324185
   2 H :    0.107764
   3 H :    0.106960
   4 H :    0.103671
   5 C :   -0.047339
   6 H :    0.053787
   7 H :    0.054011
   8 C :    0.148090
   9 H :    0.036960
  10 H :    0.046805
  11 H :   -0.027417
  12 H :   -0.001474
  13 H :    0.006618

  Mayer bond orders larger than 0.100000
B(  0-C ,  1-N ) :   0.7960 B(  0-C ,  5-C ) :   1.1822 B(  0-C ,  6-H ) :   0.9488
B(  0-C ,  7-H ) :   0.8550 B(  0-C ,  9-H ) :   0.1101 B(  0-C , 10-H ) :   0.1340
B(  1-N ,  2-H ) :   0.7083 B(  1-N ,  3-H ) :   0.8314 B(  1-N ,  4-H ) :   0.7143
B(  1-N ,  7-H ) :   0.1239 B(  5-C ,  7-H ) :   0.1101 B(  5-C ,  8-C ) :   1.3066
B(  5-C ,  9-H ) :   0.9490 B(  5-C , 10-H ) :   0.9521 B(  5-C , 11-H ) :   0.1767
B(  5-C , 12-H ) :   0.1876 B(  5-C , 13-H ) :   0.2038 B(  8-C , 11-H ) :   0.8356
B(  8-C , 12-H ) :   0.8037 B(  8-C , 13-H ) :   0.8198

Dispersion correction           -0.000149653
FINAL SINGLE POINT ENERGY      -174.625789592830

DIPOLE MOMENT
-------------
                                X             Y             Z
Electronic contribution:      1.52831      -0.90917      -1.45625
Nuclear contribution   :      0.19992       0.44181       0.60618
                        -----------------------------------------
Total Dipole Moment    :      1.72822      -0.46735      -0.85007
                        -----------------------------------------
Magnitude (a.u.)       :      1.98187
Magnitude (Debye)      :      5.03750

Rotational constants in cm-1:     0.427003     0.166237     0.135950
Rotational constants in MHz : 12801.234133  4983.663157  4075.681698

                             ****ORCA TERMINATED NORMALLY****
TOTAL RUN TIME: 0 days 0 hours 0 minutes 13 seconds 554 msec
