                         Program Version 5.0.0 -  RELEASE  -
|  1> !M062X D3Zero RIJCOSX def2-SVPD def2/J TightSCF xyzfile
|  2>
|  3> *xyzfile 0 1 B.xyz
|  4>
|  5> %MaxCore 64000
|  6>
|  7> %pal nprocs 4
|  8> end
|  9>
| 10> %scf
| 11>   MaxIter 150
| 12> end
| 13>
| 14>
| 15>                          ****END OF INPUT****

CARTESIAN COORDINATES (ANGSTROEM)
---------------------------------
  C     -0.701686    4.072499   -4.003920
  N      0.680528    4.614820   -4.048005
  C      1.444422    5.266576   -0.975463
  O      1.565248    4.233493   -1.864885
  H      0.699926    5.584890   -4.388272
  H      1.278044    4.055977   -4.668235
  H      1.085729    4.533581   -3.106524
  C     -1.703475    5.093197   -3.477396
  H     -0.995895    3.740394   -5.000654
  H     -0.643580    3.201910   -3.351533
  C     -1.313997    5.785995   -2.169271
  H     -1.877057    5.850103   -4.251154
  H     -2.653264    4.564475   -3.354796
  H     -2.097137    6.509395   -1.929558
  H     -0.416875    6.387594   -2.339097
  C     -1.073895    4.844728   -0.979904
  H     -1.968893    4.809608   -0.352568
  C      0.148120    5.210874   -0.138092
  H     -0.909754    3.827531   -1.338975
  H      1.474250    6.264638   -1.476917
  H      2.289622    5.303267   -0.264450
  H      0.261827    4.450942    0.640711
  H     -0.002516    6.171031    0.371483

 Total Charge           Charge          ....    0
 Multiplicity           Mult            ....    1
 Number of Electrons    NEL             ....   66
 Basis Dimension        Dim             ....  283

ORBITAL ENERGIES
----------------

  NO   OCC          E(Eh)            E(eV)
   0   2.0000     -19.505835      -530.7808
   1   2.0000     -14.838804      -403.7844
   2   2.0000     -10.617881      -288.9272
   3   2.0000     -10.571973      -287.6780
   4   2.0000     -10.547046      -286.9997
   5   2.0000     -10.536380      -286.7095
   6   2.0000     -10.525221      -286.4058
   7   2.0000     -10.506776      -285.9039
   8   2.0000      -1.086120       -29.5548
   9   2.0000      -0.994023       -27.0487
  10   2.0000      -0.901499       -24.5310
  11   2.0000      -0.835162       -22.7259
  12   2.0000      -0.779088       -21.2001
  13   2.0000      -0.717291       -19.5185
  14   2.0000      -0.666953       -18.1487
  15   2.0000      -0.645324       -17.5601
  16   2.0000      -0.643930       -17.5222
  17   2.0000      -0.595131       -16.1943
  18   2.0000      -0.559806       -15.2331
  19   2.0000      -0.534567       -14.5463
  20   2.0000      -0.526480       -14.3262
  21   2.0000      -0.486671       -13.2430
  22   2.0000      -0.475076       -12.9275
  23   2.0000      -0.459681       -12.5085
  24   2.0000      -0.441082       -12.0025
  25   2.0000      -0.419698       -11.4206
  26   2.0000      -0.414430       -11.2772
  27   2.0000      -0.395206       -10.7541
  28   2.0000      -0.370986       -10.0950
  29   2.0000      -0.362169        -9.8551
  30   2.0000      -0.355025        -9.6607
  31   2.0000      -0.246829        -6.7166
  32   2.0000      -0.242631        -6.6023
  33   0.0000       0.008917         0.2427
  34   0.0000       0.040404         1.0994
  35   0.0000       0.045496         1.2380
  36   0.0000       0.062903         1.7117
  37   0.0000       0.080209         2.1826

MULLIKEN ATOMIC CHARGES
-----------------------
   0 C :    0.699441
   1 N :   -0.124549
   2 C :    0.546961
   3 O :   -0.669426
   4 H :    0.378058
   5 H :    0.318654
   6 H :   -0.546356
   7 C :    0.179537
   8 H :   -0.297214
   9 H :    0.107758
  10 C :    0.142077
  11 H :    0.003486
  12 H :   -0.139385
  13 H :   -0.278501
  14 H :   -0.016069
  15 C :    0.113020
  16 H :   -0.281726
  17 C :    0.222189
  18 H :    0.082412
  19 H :    0.193684
  20 H :   -0.454646
  21 H :    0.007142
  22 H :   -0.186548
Sum of atomic charges:    0.0000000

LOEWDIN ATOMIC CHARGES
----------------------
   0 C :    0.085559
   1 N :    0.310571
   2 C :   -0.069196
   3 O :   -0.403301
   4 H :    0.086118
   5 H :    0.089762
   6 H :   -0.198417
   7 C :   -0.020226
   8 H :    0.027099
   9 H :    0.034919
  10 C :   -0.015454
  11 H :    0.022390
  12 H :    0.031913
  13 H :    0.021512
  14 H :   -0.006612
  15 C :   -0.023429
  16 H :    0.015389
  17 C :   -0.030647
  18 H :   -0.000034
  19 H :   -0.002054
  20 H :    0.007528
  21 H :    0.019541
  22 H :    0.017070

  Mayer bond orders larger than 0.100000
B(  0-C ,  1-N ) :   0.8200 B(  0-C ,  7-C ) :   1.1911 B(  0-C ,  8-H ) :   0.9553
B(  0-C ,  9-H ) :   0.7079 B(  0-C , 11-H ) :   0.1237 B(  0-C , 12-H ) :   0.1345
B(  1-N ,  4-H ) :   0.7508 B(  1-N ,  5-H ) :   0.8124 B(  1-N ,  6-H ) :   1.4013
B(  1-N ,  9-H ) :   0.1517 B(  2-C ,  3-O ) :   1.0168 B(  2-C , 17-C ) :   1.1263
B(  2-C , 19-H ) :   0.7325 B(  2-C , 20-H ) :   1.0683 B(  2-C , 21-H ) :   0.1126
B(  3-O ,  6-H ) :   0.4752 B(  4-H ,  6-H ) :  -0.1054 B(  7-C ,  9-H ) :   0.1336
B(  7-C , 10-C ) :   1.2335 B(  7-C , 11-H ) :   0.7410 B(  7-C , 12-H ) :   0.9299
B(  7-C , 13-H ) :   0.1004 B(  8-H ,  9-H ) :  -0.1765 B( 10-C , 11-H ) :   0.1833
B( 10-C , 13-H ) :   0.8292 B( 10-C , 14-H ) :   0.8759 B( 10-C , 15-C ) :   1.1853
B( 10-C , 16-H ) :   0.2044 B( 13-H , 14-H ) :  -0.1064 B( 13-H , 15-C ) :   0.1395
B( 14-H , 15-C ) :   0.1099 B( 15-C , 16-H ) :   0.8999 B( 15-C , 17-C ) :   1.2691
B( 15-C , 18-H ) :   0.8185 B( 15-C , 21-H ) :   0.2086 B( 15-C , 22-H ) :   0.1259
B( 16-H , 18-H ) :  -0.1142 B( 17-C , 20-H ) :   0.1394 B( 17-C , 21-H ) :   0.7124
B( 17-C , 22-H ) :   0.9347 B( 19-H , 20-H ) :  -0.1410

Dispersion correction           -0.000753177
FINAL SINGLE POINT ENERGY      -367.162298478998

DIPOLE MOMENT
-------------
                                X             Y             Z
Electronic contribution:      1.99105      -1.52692      -1.28628
Nuclear contribution   :     -3.16446       1.92310      -1.11926
                        -----------------------------------------
Total Dipole Moment    :     -1.17341       0.39619      -2.40553
                        -----------------------------------------
Magnitude (a.u.)       :      2.70563
Magnitude (Debye)      :      6.87717

Rotational constants in cm-1:     0.085554     0.055600     0.038553
Rotational constants in MHz :  2564.854379  1666.836664  1155.798427

                             ****ORCA TERMINATED NORMALLY****
TOTAL RUN TIME: 0 days 0 hours 1 minutes 11 seconds 500 msec
