                         Program Version 5.0.0 -  RELEASE  -
|  1> !M062X D3Zero RIJCOSX def2-SVPD def2/J TightSCF
|  2> *xyz 0 1
|  3> C          1.44442        5.26658       -0.97546
|  4> F          1.56525        4.23349       -1.86489
|  5> C         -1.07389        4.84473       -0.97990
|  6> C          0.14812        5.21087       -0.13809
|  7> H          1.47425        6.26464       -1.47692
|  8> H          2.28962        5.30327       -0.26445
|  9> H          0.26183        4.45094        0.64071
| 10> H         -0.00252        6.17103        0.37148
| 11> H         -1.20745        5.57445       -1.75098
| 12> H         -1.94291        4.82190       -0.35605
| 13> H         -0.92683        3.88150       -1.42201
| 14> *
| 15> %MaxCore 64000
| 16>
| 17> %pal nprocs 4
| 18> end
| 19>
| 20> %scf
| 21>   MaxIter 150
| 22> end
| 23>
| 24>
| 25>                          ****END OF INPUT****

CARTESIAN COORDINATES (ANGSTROEM)
---------------------------------
  C      1.444420    5.266580   -0.975460
  F      1.565250    4.233490   -1.864890
  C     -1.073890    4.844730   -0.979900
  C      0.148120    5.210870   -0.138090
  H      1.474250    6.264640   -1.476920
  H      2.289620    5.303270   -0.264450
  H      0.261830    4.450940    0.640710
  H     -0.002520    6.171030    0.371480
  H     -1.207450    5.574450   -1.750980
  H     -1.942910    4.821900   -0.356050
  H     -0.926830    3.881500   -1.422010

 Total Charge           Charge          ....    0
 Multiplicity           Mult            ....    1
 Number of Electrons    NEL             ....   34
 Basis Dimension        Dim             ....  139

ORBITAL ENERGIES
----------------

  NO   OCC          E(Eh)            E(eV)
   0   2.0000     -25.246384      -686.9890
   1   2.0000     -10.630356      -289.2667
   2   2.0000     -10.556906      -287.2680
   3   2.0000     -10.536430      -286.7108
   4   2.0000      -1.321708       -35.9655
   5   2.0000      -0.878868       -23.9152
   6   2.0000      -0.776678       -21.1345
   7   2.0000      -0.676692       -18.4137
   8   2.0000      -0.591060       -16.0836
   9   2.0000      -0.580025       -15.7833
  10   2.0000      -0.555211       -15.1081
  11   2.0000      -0.510447       -13.8900
  12   2.0000      -0.473375       -12.8812
  13   2.0000      -0.442472       -12.0403
  14   2.0000      -0.420528       -11.4431
  15   2.0000      -0.392362       -10.6767
  16   2.0000      -0.387190       -10.5360
  17   0.0000       0.038746         1.0543
  18   0.0000       0.064020         1.7421
  19   0.0000       0.073008         1.9867
  20   0.0000       0.094374         2.5681
  21   0.0000       0.116484         3.1697

MULLIKEN ATOMIC CHARGES
-----------------------
   0 C :    0.715187
   1 F :   -0.465367
   2 C :    0.581163
   3 C :   -0.532969
   4 H :   -0.001794
   5 H :   -0.077809
   6 H :   -0.045912
   7 H :   -0.062948
   8 H :   -0.047038
   9 H :   -0.067052
  10 H :    0.004538
Sum of atomic charges:   -0.0000000

LOEWDIN ATOMIC CHARGES
----------------------
   0 C :    0.111087
   1 F :   -0.225340
   2 C :    0.120741
   3 C :   -0.066461
   4 H :    0.037110
   5 H :    0.027573
   6 H :    0.019359
   7 H :    0.026274
   8 H :   -0.014403
   9 H :   -0.019082
  10 H :   -0.016858

  Mayer bond orders larger than 0.100000
B(  0-C ,  1-F ) :   0.6741 B(  0-C ,  3-C ) :   1.1868 B(  0-C ,  4-H ) :   0.9049
B(  0-C ,  5-H ) :   0.9420 B(  2-C ,  3-C ) :   1.3097 B(  2-C ,  8-H ) :   0.8309
B(  2-C ,  9-H ) :   0.8362 B(  2-C , 10-H ) :   0.8299 B(  3-C ,  4-H ) :   0.1151
B(  3-C ,  5-H ) :   0.1037 B(  3-C ,  6-H ) :   0.9564 B(  3-C ,  7-H ) :   0.9869
B(  3-C ,  8-H ) :   0.1822 B(  3-C ,  9-H ) :   0.1853 B(  3-C , 10-H ) :   0.1708

Dispersion correction           -0.000084802
FINAL SINGLE POINT ENERGY      -218.112163321493

DIPOLE MOMENT
-------------
                                X             Y             Z
Electronic contribution:      4.60155      -2.42743      -3.13142
Nuclear contribution   :     -4.76356       2.92420       3.62609
                        -----------------------------------------
Total Dipole Moment    :     -0.16201       0.49677       0.49467
                        -----------------------------------------
Magnitude (a.u.)       :      0.71953
Magnitude (Debye)      :      1.82891

Rotational constants in cm-1:     0.464485     0.177633     0.142630
Rotational constants in MHz : 13924.923489  5325.290206  4275.938589

                             ****ORCA TERMINATED NORMALLY****
TOTAL RUN TIME: 0 days 0 hours 0 minutes 9 seconds 740 msec
