                         Program Version 5.0.0 -  RELEASE  -
|  1> !M062X D3Zero RIJCOSX def2-SVPD def2/J TightSCF
|  2> *xyz 0 1
|  3> C         -0.70169        4.07250       -4.00392
|  4> C          0.68053        4.61482       -4.04800
|  5> H          0.69993        5.58489       -4.38827
|  6> H          1.27804        4.05598       -4.66824
|  7> H          1.08573        4.53358       -3.10652
|  8> C         -1.70347        5.09320       -3.47740
|  9> H         -0.99590        3.74039       -5.00065
| 10> H         -0.64358        3.20191       -3.35153
| 11> C         -1.31400        5.78600       -2.16927
| 12> H         -1.87706        5.85010       -4.25115
| 13> H         -2.65326        4.56448       -3.35480
| 14> H         -0.38448        6.29945       -2.30062
| 15> H         -1.21111        5.05451       -1.39516
| 16> H         -2.07413        6.48833       -1.89758
| 17> *
| 18> %MaxCore 64000
| 19>
| 20> %pal nprocs 4
| 21> end
| 22>
| 23> %scf
| 24>   MaxIter 150
| 25> end
| 26>
| 27>
| 28>                          ****END OF INPUT****

CARTESIAN COORDINATES (ANGSTROEM)
---------------------------------
  C     -0.701690    4.072500   -4.003920
  C      0.680530    4.614820   -4.048000
  H      0.699930    5.584890   -4.388270
  H      1.278040    4.055980   -4.668240
  H      1.085730    4.533580   -3.106520
  C     -1.703470    5.093200   -3.477400
  H     -0.995900    3.740390   -5.000650
  H     -0.643580    3.201910   -3.351530
  C     -1.314000    5.786000   -2.169270
  H     -1.877060    5.850100   -4.251150
  H     -2.653260    4.564480   -3.354800
  H     -0.384480    6.299450   -2.300620
  H     -1.211110    5.054510   -1.395160
  H     -2.074130    6.488330   -1.897580

 Total Charge           Charge          ....    0
 Multiplicity           Mult            ....    1
 Number of Electrons    NEL             ....   34
 Basis Dimension        Dim             ....  160

ORBITAL ENERGIES
----------------

  NO   OCC          E(Eh)            E(eV)
   0   2.0000     -10.539290      -286.7887
   1   2.0000     -10.534521      -286.6589
   2   2.0000     -10.529867      -286.5322
   3   2.0000     -10.511021      -286.0194
   4   2.0000      -0.894315       -24.3356
   5   2.0000      -0.814686       -22.1687
   6   2.0000      -0.727756       -19.8033
   7   2.0000      -0.638628       -17.3780
   8   2.0000      -0.539713       -14.6863
   9   2.0000      -0.531743       -14.4695
  10   2.0000      -0.492758       -13.4086
  11   2.0000      -0.452117       -12.3027
  12   2.0000      -0.448347       -12.2001
  13   2.0000      -0.427118       -11.6225
  14   2.0000      -0.382232       -10.4011
  15   2.0000      -0.379584       -10.3290
  16   2.0000      -0.376712       -10.2509
  17   0.0000       0.042999         1.1701
  18   0.0000       0.067465         1.8358
  19   0.0000       0.068282         1.8580
  20   0.0000       0.083923         2.2837
  21   0.0000       0.116617         3.1733

MULLIKEN ATOMIC CHARGES
-----------------------
   0 C :   -0.298338
   1 C :    0.950233
   2 H :   -0.179131
   3 H :   -0.376584
   4 H :   -0.002662
   5 C :   -0.362719
   6 H :   -0.108698
   7 H :   -0.049697
   8 C :    0.634355
   9 H :    0.005491
  10 H :   -0.108604
  11 H :   -0.008456
  12 H :   -0.018612
  13 H :   -0.076577
Sum of atomic charges:   -0.0000000

LOEWDIN ATOMIC CHARGES
----------------------
   0 C :   -0.083660
   1 C :    0.113844
   2 H :   -0.026890
   3 H :   -0.035255
   4 H :   -0.029070
   5 C :   -0.085069
   6 H :    0.021918
   7 H :    0.023419
   8 C :    0.124491
   9 H :    0.022480
  10 H :    0.014743
  11 H :   -0.027240
  12 H :   -0.014149
  13 H :   -0.019562

  Mayer bond orders larger than 0.100000
B(  0-C ,  1-C ) :   1.2712 B(  0-C ,  2-H ) :   0.2451 B(  0-C ,  3-H ) :   0.2342
B(  0-C ,  4-H ) :   0.2697 B(  0-C ,  5-C ) :   1.1730 B(  0-C ,  6-H ) :   0.9519
B(  0-C ,  7-H ) :   0.8707 B(  0-C ,  9-H ) :   0.1236 B(  0-C , 10-H ) :   0.1360
B(  1-C ,  2-H ) :   0.7339 B(  1-C ,  3-H ) :   0.7585 B(  1-C ,  4-H ) :   0.6914
B(  1-C ,  7-H ) :   0.1371 B(  2-H ,  3-H ) :  -0.1090 B(  5-C ,  7-H ) :   0.1282
B(  5-C ,  8-C ) :   1.3238 B(  5-C ,  9-H ) :   0.9019 B(  5-C , 10-H ) :   0.9650
B(  5-C , 11-H ) :   0.1897 B(  5-C , 12-H ) :   0.1883 B(  5-C , 13-H ) :   0.2141
B(  8-C , 11-H ) :   0.8448 B(  8-C , 12-H ) :   0.8034 B(  8-C , 13-H ) :   0.7788

Dispersion correction           -0.000145055
FINAL SINGLE POINT ENERGY      -158.228087166239

DIPOLE MOMENT
-------------
                                X             Y             Z
Electronic contribution:     -0.62505      -0.37109      -0.42904
Nuclear contribution   :      0.63648       0.35464       0.41252
                        -----------------------------------------
Total Dipole Moment    :      0.01142      -0.01645      -0.01653
                        -----------------------------------------
Magnitude (a.u.)       :      0.02597
Magnitude (Debye)      :      0.06600

Rotational constants in cm-1:     0.435124     0.173315     0.141457
Rotational constants in MHz : 13044.691962  5195.845291  4240.763698

                             ****ORCA TERMINATED NORMALLY****
TOTAL RUN TIME: 0 days 0 hours 0 minutes 13 seconds 710 msec
