                         Program Version 5.0.0 -  RELEASE  -
|  1> !M062X D3Zero RIJCOSX def2-SVPD def2/J TightSCF xyzfile
|  2>
|  3> *xyzfile 0 1 D.xyz
|  4>
|  5> %MaxCore 64000
|  6>
|  7> %pal nprocs 4
|  8> end
|  9>
| 10> %scf
| 11>   MaxIter 150
| 12> end
| 13>
| 14>
| 15>                          ****END OF INPUT****

CARTESIAN COORDINATES (ANGSTROEM)
---------------------------------
  C     -0.701686    4.072499   -4.003920
  C      0.680528    4.614820   -4.048005
  C      1.444422    5.266576   -0.975463
  F      1.565248    4.233493   -1.864885
  H      0.699926    5.584890   -4.388272
  H      1.278044    4.055977   -4.668235
  H      1.085729    4.533581   -3.106524
  C     -1.703475    5.093197   -3.477396
  H     -0.995895    3.740394   -5.000654
  H     -0.643580    3.201910   -3.351533
  C     -1.313997    5.785995   -2.169271
  H     -1.877057    5.850103   -4.251154
  H     -2.653264    4.564475   -3.354796
  H     -2.097137    6.509395   -1.929558
  H     -0.416875    6.387594   -2.339097
  C     -1.073895    4.844728   -0.979904
  H     -1.968893    4.809608   -0.352568
  C      0.148120    5.210874   -0.138092
  H     -0.909754    3.827531   -1.338975
  H      1.474250    6.264638   -1.476917
  H      2.289622    5.303267   -0.264450
  H      0.261827    4.450942    0.640711
  H     -0.002516    6.171031    0.371483

 Total Charge           Charge          ....    0
 Multiplicity           Mult            ....    1
 Number of Electrons    NEL             ....   66
 Basis Dimension        Dim             ....  283

ORBITAL ENERGIES
----------------

  NO   OCC          E(Eh)            E(eV)
   0   2.0000     -25.265789      -687.5171
   1   2.0000     -10.640442      -289.5412
   2   2.0000     -10.561086      -287.3817
   3   2.0000     -10.546538      -286.9859
   4   2.0000     -10.539956      -286.8068
   5   2.0000     -10.532886      -286.6144
   6   2.0000     -10.520219      -286.2697
   7   2.0000     -10.467119      -284.8248
   8   2.0000      -1.355002       -36.8715
   9   2.0000      -0.907265       -24.6879
  10   2.0000      -0.875970       -23.8364
  11   2.0000      -0.811355       -22.0781
  12   2.0000      -0.778017       -21.1709
  13   2.0000      -0.713220       -19.4077
  14   2.0000      -0.678078       -18.4515
  15   2.0000      -0.624729       -16.9997
  16   2.0000      -0.616792       -16.7838
  17   2.0000      -0.606779       -16.5113
  18   2.0000      -0.575507       -15.6603
  19   2.0000      -0.532143       -14.4803
  20   2.0000      -0.527294       -14.3484
  21   2.0000      -0.498915       -13.5762
  22   2.0000      -0.485601       -13.2139
  23   2.0000      -0.457209       -12.4413
  24   2.0000      -0.445487       -12.1223
  25   2.0000      -0.434212       -11.8155
  26   2.0000      -0.425818       -11.5871
  27   2.0000      -0.401892       -10.9360
  28   2.0000      -0.392124       -10.6702
  29   2.0000      -0.375235       -10.2107
  30   2.0000      -0.362065        -9.8523
  31   2.0000      -0.359374        -9.7791
  32   2.0000      -0.341550        -9.2941
  33   0.0000       0.037052         1.0082
  34   0.0000       0.052156         1.4192
  35   0.0000       0.057470         1.5638
  36   0.0000       0.062921         1.7122
  37   0.0000       0.081494         2.2176

MULLIKEN ATOMIC CHARGES
-----------------------
   0 C :   -0.228077
   1 C :    2.922123
   2 C :    0.746019
   3 F :   -0.623475
   4 H :   -0.172254
   5 H :    0.069368
   6 H :   -2.306060
   7 C :    0.303189
   8 H :   -0.394308
   9 H :    0.087121
  10 C :    0.013359
  11 H :    0.101416
  12 H :   -0.144850
  13 H :   -0.243757
  14 H :    0.013872
  15 C :    0.188870
  16 H :   -0.265658
  17 C :    0.112400
  18 H :    0.038099
  19 H :    0.278183
  20 H :   -0.356707
  21 H :   -0.014515
  22 H :   -0.124359
Sum of atomic charges:   -0.0000000

LOEWDIN ATOMIC CHARGES
----------------------
   0 C :   -0.058459
   1 C :    0.145806
   2 C :    0.164857
   3 F :   -0.196780
   4 H :   -0.023743
   5 H :   -0.024123
   6 H :   -0.175214
   7 C :   -0.035229
   8 H :    0.018713
   9 H :    0.011905
  10 C :   -0.016701
  11 H :    0.025565
  12 H :    0.018653
  13 H :    0.018811
  14 H :   -0.005059
  15 C :   -0.015449
  16 H :    0.022167
  17 C :   -0.011957
  18 H :    0.007134
  19 H :    0.038957
  20 H :    0.033794
  21 H :    0.023001
  22 H :    0.033351

  Mayer bond orders larger than 0.100000
B(  0-C ,  1-C ) :   0.6189 B(  0-C ,  4-H ) :   0.3642 B(  0-C ,  5-H ) :   0.1609
B(  0-C ,  6-H ) :   0.8183 B(  0-C ,  7-C ) :   1.1670 B(  0-C ,  8-H ) :   1.0731
B(  0-C ,  9-H ) :   0.7230 B(  0-C , 10-C ) :   0.1037 B(  0-C , 11-H ) :   0.1379
B(  0-C , 12-H ) :   0.1526 B(  1-C ,  3-F ) :  -0.3740 B(  1-C ,  4-H ) :  -0.1118
B(  1-C ,  5-H ) :   0.6784 B(  1-C ,  6-H ) :  -3.8749 B(  1-C ,  8-H ) :  -0.1254
B(  1-C ,  9-H ) :   0.2523 B(  2-C ,  3-F ) :   0.5656 B(  2-C ,  6-H ) :   0.1882
B(  2-C , 17-C ) :   1.2422 B(  2-C , 19-H ) :   0.7409 B(  2-C , 20-H ) :   1.0293
B(  3-F ,  6-H ) :   0.5687 B(  3-F , 20-H ) :  -0.1074 B(  4-H ,  5-H ) :  -0.2660
B(  4-H ,  6-H ) :   0.8187 B(  4-H ,  8-H ) :   0.2439 B(  4-H , 12-H ) :  -0.1081
B(  5-H ,  6-H ) :   0.1698 B(  5-H ,  8-H ) :  -0.1451 B(  6-H ,  9-H ) :  -0.1151
B(  7-C ,  9-H ) :   0.1813 B(  7-C , 10-C ) :   1.2669 B(  7-C , 11-H ) :   0.6873
B(  7-C , 12-H ) :   0.8848 B(  7-C , 13-H ) :   0.1044 B(  7-C , 14-H ) :   0.1134
B(  8-H ,  9-H ) :  -0.2491 B(  9-H , 18-H ) :   0.1256 B( 10-C , 11-H ) :   0.2160
B( 10-C , 12-H ) :   0.1290 B( 10-C , 13-H ) :   0.8418 B( 10-C , 14-H ) :   0.8742
B( 10-C , 15-C ) :   1.1669 B( 10-C , 16-H ) :   0.2138 B( 11-H , 12-H ) :  -0.1488
B( 13-H , 15-C ) :   0.1458 B( 15-C , 16-H ) :   0.8818 B( 15-C , 17-C ) :   1.2427
B( 15-C , 18-H ) :   0.8259 B( 15-C , 21-H ) :   0.2024 B( 16-H , 18-H ) :  -0.1347
B( 17-C , 20-H ) :   0.1589 B( 17-C , 21-H ) :   0.7473 B( 17-C , 22-H ) :   0.9347
B( 19-H , 20-H ) :  -0.1052

Dispersion correction           -0.000741841
FINAL SINGLE POINT ENERGY      -375.113019729667

DIPOLE MOMENT
-------------
                                X             Y             Z
Electronic contribution:      5.12479      -2.25484       2.78984
Nuclear contribution   :     -5.08831       2.68947      -1.99048
                        -----------------------------------------
Total Dipole Moment    :      0.03649       0.43463       0.79937
                        -----------------------------------------
Magnitude (a.u.)       :      0.91062
Magnitude (Debye)      :      2.31461

Rotational constants in cm-1:     0.084646     0.055672     0.038419
Rotational constants in MHz :  2537.625105  1668.992890  1151.781380

                             ****ORCA TERMINATED NORMALLY****
TOTAL RUN TIME: 0 days 0 hours 1 minutes 8 seconds 11 msec
