                         Program Version 5.0.0 -  RELEASE  -
|  1> !wB97X-D3 RIJCOSX def2-SVPD def2/J TightSCF
|  2> *xyz -1 1
|  3> C         -0.87096        0.24804       -2.66280
|  4> C         -0.47749        0.60819       -4.10105
|  5> H          0.20677        1.45830       -4.11875
|  6> H         -1.36844        0.92942       -4.64785
|  7> C          0.18467       -0.50664       -4.91676
|  8> O         -0.15869       -1.70109       -4.65798
|  9> O          1.05594       -0.17441       -5.74037
| 10> H         -1.54056       -0.58646       -2.67455
| 11> H         -1.35339        1.08600       -2.20455
| 12> H          0.00660       -0.00662       -2.10609
| 13> *
| 14>
| 15> %MaxCore 64000
| 16>
| 17> %pal nprocs 18
| 18> end
| 19>
| 20> %scf
| 21>   MaxIter 150
| 22> end
| 23>
| 24>
| 25>                          ****END OF INPUT****

CARTESIAN COORDINATES (ANGSTROEM)
---------------------------------
  C     -0.870960    0.248040   -2.662800
  C     -0.477490    0.608190   -4.101050
  H      0.206770    1.458300   -4.118750
  H     -1.368440    0.929420   -4.647850
  C      0.184670   -0.506640   -4.916760
  O     -0.158690   -1.701090   -4.657980
  O      1.055940   -0.174410   -5.740370
  H     -1.540560   -0.586460   -2.674550
  H     -1.353390    1.086000   -2.204550
  H      0.006600   -0.006620   -2.106090

 Total Charge           Charge          ....   -1
 Multiplicity           Mult            ....    1
 Number of Electrons    NEL             ....   40
 Basis Dimension        Dim             ....  146

ORBITAL ENERGIES
----------------

  NO   OCC          E(Eh)            E(eV)
   0   2.0000     -18.983707      -516.5729
   1   2.0000     -18.979801      -516.4666
   2   2.0000     -10.177491      -276.9436
   3   2.0000     -10.126717      -275.5620
   4   2.0000     -10.117646      -275.3151
   5   2.0000      -0.928418       -25.2635
   6   2.0000      -0.831098       -22.6153
   7   2.0000      -0.714810       -19.4510
   8   2.0000      -0.582870       -15.8607
   9   2.0000      -0.420744       -11.4490
  10   2.0000      -0.396186       -10.7808
  11   2.0000      -0.360694        -9.8150
  12   2.0000      -0.330566        -8.9952
  13   2.0000      -0.315013        -8.5719
  14   2.0000      -0.307310        -8.3623
  15   2.0000      -0.276802        -7.5322
  16   2.0000      -0.258308        -7.0289
  17   2.0000      -0.143402        -3.9022
  18   2.0000      -0.138412        -3.7664
  19   2.0000      -0.125301        -3.4096
  20   0.0000       0.222249         6.0477
  21   0.0000       0.257842         7.0162
  22   0.0000       0.266792         7.2598
  23   0.0000       0.287413         7.8209
  24   0.0000       0.314066         8.5462

MULLIKEN ATOMIC CHARGES
-----------------------
   0 C :    0.594186
   1 C :   -0.373480
   2 H :   -0.046089
   3 H :   -0.017573
   4 C :    0.441090
   5 O :   -0.743972
   6 O :   -0.676206
   7 H :   -0.039810
   8 H :   -0.080292
   9 H :   -0.057854
Sum of atomic charges:   -1.0000000

LOEWDIN ATOMIC CHARGES
----------------------
   0 C :    0.093451
   1 C :   -0.041813
   2 H :    0.000736
   3 H :    0.011176
   4 C :   -0.301146
   5 O :   -0.337844
   6 O :   -0.328888
   7 H :   -0.029202
   8 H :   -0.043151
   9 H :   -0.023318

  Mayer bond orders larger than 0.100000
B(  0-C ,  1-C ) :   1.2433 B(  0-C ,  7-H ) :   0.8326 B(  0-C ,  8-H ) :   0.8112
B(  0-C ,  9-H ) :   0.8511 B(  1-C ,  2-H ) :   0.9580 B(  1-C ,  3-H ) :   0.9061
B(  1-C ,  4-C ) :   1.0243 B(  1-C ,  7-H ) :   0.2037 B(  1-C ,  8-H ) :   0.1960
B(  1-C ,  9-H ) :   0.1652 B(  2-H ,  4-C ) :   0.1755 B(  4-C ,  5-O ) :   1.5105
B(  4-C ,  6-O ) :   1.5307

Dispersion correction           -0.001934019
FINAL SINGLE POINT ENERGY      -267.584165307746

DIPOLE MOMENT
-------------
                                X             Y             Z
Electronic contribution:      2.59653      -2.86114      -4.51101
Nuclear contribution   :     -3.54611       4.15440       5.90446
                        -----------------------------------------
Total Dipole Moment    :     -0.94958       1.29326       1.39345
                        -----------------------------------------
Magnitude (a.u.)       :      2.12507
Magnitude (Debye)      :      5.40151

Rotational constants in cm-1:     0.332789     0.132085     0.101080
Rotational constants in MHz :  9976.755824  3959.803182  3030.288811

                             ****ORCA TERMINATED NORMALLY****
TOTAL RUN TIME: 0 days 0 hours 0 minutes 6 seconds 775 msec
