                         Program Version 5.0.0 -  RELEASE  -
|  1> !wB97X-D3 RIJCOSX def2-SVPD def2/J TightSCF
|  2> *xyz 1 1
|  3> C          2.48645       -2.67712       -2.56345
|  4> C          3.03764       -2.36672       -3.92351
|  5> N          2.28036       -2.45441       -4.96769
|  6> N          4.32174       -2.01793       -4.01664
|  7> H          4.87994       -1.91167       -3.17382
|  8> H          4.71015       -1.67088       -4.88356
|  9> H          1.27042       -2.41265       -4.86614
| 10> H          2.58183       -2.05528       -5.84688
| 11> C          2.49799       -1.46946       -1.61030
| 12> H          1.47259       -3.05153       -2.69437
| 13> H          3.08320       -3.49064       -2.14147
| 14> H          1.91240       -0.67831       -2.02991
| 15> H          3.50450       -1.13364       -1.47227
| 16> H          2.08509       -1.75655       -0.66585
| 17> *
| 18>
| 19> %MaxCore 64000
| 20>
| 21> %pal nprocs 18
| 22> end
| 23>
| 24> %scf
| 25>   MaxIter 150
| 26> end
| 27>
| 28>
| 29>                          ****END OF INPUT****

CARTESIAN COORDINATES (ANGSTROEM)
---------------------------------
  C      2.486450   -2.677120   -2.563450
  C      3.037640   -2.366720   -3.923510
  N      2.280360   -2.454410   -4.967690
  N      4.321740   -2.017930   -4.016640
  H      4.879940   -1.911670   -3.173820
  H      4.710150   -1.670880   -4.883560
  H      1.270420   -2.412650   -4.866140
  H      2.581830   -2.055280   -5.846880
  C      2.497990   -1.469460   -1.610300
  H      1.472590   -3.051530   -2.694370
  H      3.083200   -3.490640   -2.141470
  H      1.912400   -0.678310   -2.029910
  H      3.504500   -1.133640   -1.472270
  H      2.085090   -1.756550   -0.665850

 Total Charge           Charge          ....    1
 Multiplicity           Mult            ....    1
 Number of Electrons    NEL             ....   40
 Basis Dimension        Dim             ....  172

ORBITAL ENERGIES
----------------

  NO   OCC          E(Eh)            E(eV)
   0   2.0000     -14.688476      -399.6938
   1   2.0000     -14.683023      -399.5454
   2   2.0000     -10.619362      -288.9675
   3   2.0000     -10.489974      -285.4467
   4   2.0000     -10.448437      -284.3164
   5   2.0000      -1.320046       -35.9203
   6   2.0000      -1.220165       -33.2024
   7   2.0000      -1.081294       -29.4235
   8   2.0000      -0.973559       -26.4919
   9   2.0000      -0.923360       -25.1259
  10   2.0000      -0.881356       -23.9829
  11   2.0000      -0.854722       -23.2582
  12   2.0000      -0.803301       -21.8589
  13   2.0000      -0.756981       -20.5985
  14   2.0000      -0.724351       -19.7106
  15   2.0000      -0.710436       -19.3319
  16   2.0000      -0.645940       -17.5769
  17   2.0000      -0.635042       -17.2804
  18   2.0000      -0.624465       -16.9925
  19   2.0000      -0.591846       -16.1050
  20   0.0000      -0.134747        -3.6667
  21   0.0000      -0.081567        -2.2195
  22   0.0000      -0.038249        -1.0408
  23   0.0000      -0.037159        -1.0111
  24   0.0000      -0.007593        -0.2066

MULLIKEN ATOMIC CHARGES
-----------------------
   0 C :   -0.344271
   1 C :    0.621525
   2 N :    0.060525
   3 N :    0.032749
   4 H :    0.045382
   5 H :   -0.104010
   6 H :    0.042940
   7 H :   -0.059531
   8 C :    0.602200
   9 H :    0.058521
  10 H :    0.081478
  11 H :   -0.045464
  12 H :   -0.052799
  13 H :    0.060754
Sum of atomic charges:    1.0000000

LOEWDIN ATOMIC CHARGES
----------------------
   0 C :    0.011933
   1 C :   -0.035917
   2 N :    0.274463
   3 N :    0.279593
   4 H :    0.050597
   5 H :    0.047525
   6 H :    0.062317
   7 H :    0.053635
   8 C :    0.167923
   9 H :    0.036177
  10 H :    0.054800
  11 H :    0.000868
  12 H :   -0.013973
  13 H :    0.010059

  Mayer bond orders larger than 0.100000
B(  0-C ,  1-C ) :   1.1861 B(  0-C ,  8-C ) :   1.2407 B(  0-C ,  9-H ) :   0.8907
B(  0-C , 10-H ) :   0.8819 B(  0-C , 11-H ) :   0.1433 B(  0-C , 12-H ) :   0.1712
B(  0-C , 13-H ) :   0.1364 B(  1-C ,  2-N ) :   1.1106 B(  1-C ,  3-N ) :   1.0961
B(  1-C ,  5-H ) :  -0.1340 B(  1-C ,  7-H ) :  -0.1032 B(  1-C ,  9-H ) :   0.1547
B(  1-C , 10-H ) :   0.1004 B(  2-N ,  3-N ) :   0.1343 B(  2-N ,  6-H ) :   1.0506
B(  2-N ,  7-H ) :   1.1838 B(  3-N ,  4-H ) :   1.0847 B(  3-N ,  5-H ) :   1.2686
B(  4-H ,  5-H ) :  -0.1649 B(  6-H ,  7-H ) :  -0.1220 B(  8-C , 11-H ) :   0.8586
B(  8-C , 12-H ) :   0.8122 B(  8-C , 13-H ) :   0.8584

Dispersion correction           -0.002999211
FINAL SINGLE POINT ENERGY      -228.817738944258

DIPOLE MOMENT
-------------
                                X             Y             Z
Electronic contribution:      1.05741      -1.07490      -3.92065
Nuclear contribution   :     -0.84604       1.34287       2.92710
                        -----------------------------------------
Total Dipole Moment    :      0.21137       0.26797      -0.99355
                        -----------------------------------------
Magnitude (a.u.)       :      1.05054
Magnitude (Debye)      :      2.67026

Rotational constants in cm-1:     0.265816     0.126189     0.097583
Rotational constants in MHz :  7968.948902  3783.040103  2925.457702

                             ****ORCA TERMINATED NORMALLY****
TOTAL RUN TIME: 0 days 0 hours 0 minutes 9 seconds 284 msec
