                         Program Version 5.0.0 -  RELEASE  -
|  1> !wB97X-D3 RIJCOSX def2-SVPD def2/J TightSCF
|  2> *xyz 0 1
|  3> C         -0.87096        0.24804       -2.66280
|  4> C         -0.47749        0.60819       -4.10105
|  5> H          0.20677        1.45830       -4.11875
|  6> H         -1.36844        0.92942       -4.64785
|  7> C          0.18467       -0.50664       -4.91676
|  8> F         -0.15869       -1.70109       -4.65798
|  9> O          1.05594       -0.17441       -5.74037
| 10> H         -1.54056       -0.58646       -2.67455
| 11> H         -1.35339        1.08600       -2.20455
| 12> H          0.00660       -0.00662       -2.10609
| 13> *
| 14>
| 15> %MaxCore 64000
| 16>
| 17> %pal nprocs 18
| 18> end
| 19>
| 20> %scf
| 21>   MaxIter 150
| 22> end
| 23>
| 24>
| 25>                          ****END OF INPUT****

CARTESIAN COORDINATES (ANGSTROEM)
---------------------------------
  C     -0.870960    0.248040   -2.662800
  C     -0.477490    0.608190   -4.101050
  H      0.206770    1.458300   -4.118750
  H     -1.368440    0.929420   -4.647850
  C      0.184670   -0.506640   -4.916760
  F     -0.158690   -1.701090   -4.657980
  O      1.055940   -0.174410   -5.740370
  H     -1.540560   -0.586460   -2.674550
  H     -1.353390    1.086000   -2.204550
  H      0.006600   -0.006620   -2.106090

 Total Charge           Charge          ....    0
 Multiplicity           Mult            ....    1
 Number of Electrons    NEL             ....   40
 Basis Dimension        Dim             ....  146

ORBITAL ENERGIES
----------------

  NO   OCC          E(Eh)            E(eV)
   0   2.0000     -24.871283      -676.7820
   1   2.0000     -19.257392      -524.0203
   2   2.0000     -10.475673      -285.0575
   3   2.0000     -10.325137      -280.9613
   4   2.0000     -10.299770      -280.2710
   5   2.0000      -1.415909       -38.5288
   6   2.0000      -1.149614       -31.2826
   7   2.0000      -0.915453       -24.9107
   8   2.0000      -0.793995       -21.6057
   9   2.0000      -0.751266       -20.4430
  10   2.0000      -0.656190       -17.8558
  11   2.0000      -0.648631       -17.6501
  12   2.0000      -0.601122       -16.3574
  13   2.0000      -0.570525       -15.5248
  14   2.0000      -0.535905       -14.5827
  15   2.0000      -0.504847       -13.7376
  16   2.0000      -0.488510       -13.2930
  17   2.0000      -0.477093       -12.9824
  18   2.0000      -0.448984       -12.2175
  19   2.0000      -0.393755       -10.7146
  20   0.0000       0.053202         1.4477
  21   0.0000       0.081284         2.2119
  22   0.0000       0.116375         3.1667
  23   0.0000       0.124081         3.3764
  24   0.0000       0.147794         4.0217

MULLIKEN ATOMIC CHARGES
-----------------------
   0 C :    0.560928
   1 C :   -0.474578
   2 H :    0.013502
   3 H :    0.073977
   4 C :    0.773336
   5 F :   -0.411619
   6 O :   -0.471857
   7 H :   -0.015942
   8 H :   -0.029219
   9 H :   -0.018528
Sum of atomic charges:    0.0000000

LOEWDIN ATOMIC CHARGES
----------------------
   0 C :    0.128110
   1 C :    0.008006
   2 H :    0.035085
   3 H :    0.041175
   4 C :    0.004208
   5 F :   -0.045611
   6 O :   -0.136517
   7 H :   -0.013961
   8 H :   -0.011910
   9 H :   -0.008585

  Mayer bond orders larger than 0.100000
B(  0-C ,  1-C ) :   1.2726 B(  0-C ,  7-H ) :   0.8372 B(  0-C ,  8-H ) :   0.8305
B(  0-C ,  9-H ) :   0.8622 B(  1-C ,  2-H ) :   0.9819 B(  1-C ,  3-H ) :   0.8886
B(  1-C ,  4-C ) :   1.0540 B(  1-C ,  7-H ) :   0.1685 B(  1-C ,  8-H ) :   0.1865
B(  1-C ,  9-H ) :   0.1485 B(  2-H ,  4-C ) :   0.1269 B(  4-C ,  5-F ) :   0.7395
B(  4-C ,  6-O ) :   1.8492

Dispersion correction           -0.001890936
FINAL SINGLE POINT ENERGY      -292.119423105262

DIPOLE MOMENT
-------------
                                X             Y             Z
Electronic contribution:      2.58829      -5.34762      -5.27215
Nuclear contribution   :     -3.42837       5.66737       6.17046
                        -----------------------------------------
Total Dipole Moment    :     -0.84008       0.31975       0.89831
                        -----------------------------------------
Magnitude (a.u.)       :      1.27080
Magnitude (Debye)      :      3.23012

Rotational constants in cm-1:     0.304660     0.130969     0.097716
Rotational constants in MHz :  9133.464515  3926.366384  2929.457090

                             ****ORCA TERMINATED NORMALLY****
TOTAL RUN TIME: 0 days 0 hours 0 minutes 7 seconds 877 msec
