                         Program Version 5.0.0 -  RELEASE  -
|  1> !wB97X-D3 RIJCOSX def2-SVPD def2/J TightSCF
|  2> *xyz 0 1
|  3> C          2.48645       -2.67712       -2.56345
|  4> C          3.03764       -2.36672       -3.92351
|  5> C          2.28036       -2.45441       -4.96769
|  6> N          4.32174       -2.01793       -4.01664
|  7> H          4.87994       -1.91167       -3.17382
|  8> H          4.71015       -1.67088       -4.88356
|  9> H          1.27042       -2.41265       -4.86614
| 10> H          2.58183       -2.05528       -5.84688
| 11> C          2.49799       -1.46946       -1.61030
| 12> H          1.47259       -3.05153       -2.69437
| 13> H          3.08320       -3.49064       -2.14147
| 14> H          1.91240       -0.67831       -2.02991
| 15> H          3.50450       -1.13364       -1.47227
| 16> H          2.08509       -1.75655       -0.66585
| 17> *
| 18>
| 19> %MaxCore 64000
| 20>
| 21> %pal nprocs 18
| 22> end
| 23>
| 24> %scf
| 25>   MaxIter 150
| 26> end
| 27>
| 28>
| 29>                          ****END OF INPUT****

CARTESIAN COORDINATES (ANGSTROEM)
---------------------------------
  C      2.486450   -2.677120   -2.563450
  C      3.037640   -2.366720   -3.923510
  C      2.280360   -2.454410   -4.967690
  N      4.321740   -2.017930   -4.016640
  H      4.879940   -1.911670   -3.173820
  H      4.710150   -1.670880   -4.883560
  H      1.270420   -2.412650   -4.866140
  H      2.581830   -2.055280   -5.846880
  C      2.497990   -1.469460   -1.610300
  H      1.472590   -3.051530   -2.694370
  H      3.083200   -3.490640   -2.141470
  H      1.912400   -0.678310   -2.029910
  H      3.504500   -1.133640   -1.472270
  H      2.085090   -1.756550   -0.665850

 Total Charge           Charge          ....    0
 Multiplicity           Mult            ....    1
 Number of Electrons    NEL             ....   40
 Basis Dimension        Dim             ....  172

ORBITAL ENERGIES
----------------

  NO   OCC          E(Eh)            E(eV)
   0   2.0000     -14.438292      -392.8859
   1   2.0000     -10.311602      -280.5929
   2   2.0000     -10.289554      -279.9930
   3   2.0000     -10.279515      -279.7198
   4   2.0000     -10.219133      -278.0767
   5   2.0000      -1.034831       -28.1592
   6   2.0000      -0.889849       -24.2140
   7   2.0000      -0.834444       -22.7064
   8   2.0000      -0.742889       -20.2150
   9   2.0000      -0.671722       -18.2785
  10   2.0000      -0.627807       -17.0835
  11   2.0000      -0.580583       -15.7985
  12   2.0000      -0.537271       -14.6199
  13   2.0000      -0.532405       -14.4875
  14   2.0000      -0.486796       -13.2464
  15   2.0000      -0.481290       -13.0966
  16   2.0000      -0.449922       -12.2430
  17   2.0000      -0.429656       -11.6915
  18   2.0000      -0.421728       -11.4758
  19   2.0000      -0.286305        -7.7907
  20   0.0000       0.087523         2.3816
  21   0.0000       0.115040         3.1304
  22   0.0000       0.123618         3.3638
  23   0.0000       0.131895         3.5891
  24   0.0000       0.141264         3.8440

MULLIKEN ATOMIC CHARGES
-----------------------
   0 C :   -0.248655
   1 C :   -0.110592
   2 C :    0.354413
   3 N :    0.172669
   4 H :   -0.130834
   5 H :   -0.170966
   6 H :   -0.036872
   7 H :   -0.391684
   8 C :    0.630023
   9 H :    0.110203
  10 H :   -0.029052
  11 H :   -0.048133
  12 H :   -0.073136
  13 H :   -0.027382
Sum of atomic charges:   -0.0000000

LOEWDIN ATOMIC CHARGES
----------------------
   0 C :   -0.030528
   1 C :   -0.261768
   2 C :    0.155275
   3 N :    0.169077
   4 H :   -0.001983
   5 H :    0.007067
   6 H :   -0.073834
   7 H :   -0.080886
   8 C :    0.130249
   9 H :    0.020932
  10 H :    0.025690
  11 H :   -0.011206
  12 H :   -0.030374
  13 H :   -0.017710

  Mayer bond orders larger than 0.100000
B(  0-C ,  1-C ) :   1.2350 B(  0-C ,  8-C ) :   1.2159 B(  0-C ,  9-H ) :   0.8723
B(  0-C , 10-H ) :   0.9015 B(  0-C , 11-H ) :   0.1382 B(  0-C , 12-H ) :   0.2006
B(  0-C , 13-H ) :   0.1718 B(  1-C ,  2-C ) :   2.0323 B(  1-C ,  3-N ) :   1.1547
B(  1-C ,  6-H ) :   0.1133 B(  1-C ,  7-H ) :   0.2408 B(  1-C ,  9-H ) :   0.1309
B(  1-C , 10-H ) :   0.1591 B(  2-C ,  3-N ) :   0.2362 B(  2-C ,  6-H ) :   0.8729
B(  2-C ,  7-H ) :   0.6899 B(  3-N ,  4-H ) :   1.1420 B(  3-N ,  5-H ) :   1.2010
B(  4-H ,  5-H ) :  -0.1402 B(  6-H ,  7-H ) :   0.1446 B(  8-C , 11-H ) :   0.8583
B(  8-C , 12-H ) :   0.7949 B(  8-C , 13-H ) :   0.8400

Dispersion correction           -0.003007167
FINAL SINGLE POINT ENERGY      -212.359337739901

DIPOLE MOMENT
-------------
                                X             Y             Z
Electronic contribution:      1.52328      -0.87720      -2.12809
Nuclear contribution   :     -0.99743       1.27863       2.57190
                        -----------------------------------------
Total Dipole Moment    :      0.52584       0.40142       0.44381
                        -----------------------------------------
Magnitude (a.u.)       :      0.79663
Magnitude (Debye)      :      2.02487

Rotational constants in cm-1:     0.274050     0.130114     0.100964
Rotational constants in MHz :  8215.815505  3900.722919  3026.834930

                             ****ORCA TERMINATED NORMALLY****
TOTAL RUN TIME: 0 days 0 hours 0 minutes 10 seconds 87 msec
