                         Program Version 5.0.0 -  RELEASE  -
|  1> !wB97X-D3 RIJCOSX def2-SVPD def2/J TightSCF
|  2> *xyz 0 1
|  3> C         -0.87096        0.24804       -2.66280
|  4> C         -0.47749        0.60819       -4.10105
|  5> H          0.20677        1.45830       -4.11875
|  6> H         -1.36844        0.92942       -4.64785
|  7> C          0.18467       -0.50664       -4.91676
|  8> O         -0.15869       -1.70109       -4.65798
|  9> F          1.05594       -0.17441       -5.74037
| 10> H         -1.54056       -0.58646       -2.67455
| 11> H         -1.35339        1.08600       -2.20455
| 12> H          0.00660       -0.00662       -2.10609
| 13> *
| 14>
| 15> %MaxCore 64000
| 16>
| 17> %pal nprocs 18
| 18> end
| 19>
| 20> %scf
| 21>   MaxIter 150
| 22> end
| 23>
| 24>
| 25>                          ****END OF INPUT****

CARTESIAN COORDINATES (ANGSTROEM)
---------------------------------
  C     -0.870960    0.248040   -2.662800
  C     -0.477490    0.608190   -4.101050
  H      0.206770    1.458300   -4.118750
  H     -1.368440    0.929420   -4.647850
  C      0.184670   -0.506640   -4.916760
  O     -0.158690   -1.701090   -4.657980
  F      1.055940   -0.174410   -5.740370
  H     -1.540560   -0.586460   -2.674550
  H     -1.353390    1.086000   -2.204550
  H      0.006600   -0.006620   -2.106090

 Total Charge           Charge          ....    0
 Multiplicity           Mult            ....    1
 Number of Electrons    NEL             ....   40
 Basis Dimension        Dim             ....  146

ORBITAL ENERGIES
----------------

  NO   OCC          E(Eh)            E(eV)
   0   2.0000     -24.880717      -677.0387
   1   2.0000     -19.253969      -523.9271
   2   2.0000     -10.477861      -285.1171
   3   2.0000     -10.326351      -280.9943
   4   2.0000     -10.293614      -280.1035
   5   2.0000      -1.434979       -39.0478
   6   2.0000      -1.134332       -30.8667
   7   2.0000      -0.911455       -24.8019
   8   2.0000      -0.804330       -21.8869
   9   2.0000      -0.750147       -20.4125
  10   2.0000      -0.664916       -18.0933
  11   2.0000      -0.648487       -17.6462
  12   2.0000      -0.613116       -16.6837
  13   2.0000      -0.569666       -15.5014
  14   2.0000      -0.534641       -14.5483
  15   2.0000      -0.495016       -13.4701
  16   2.0000      -0.474754       -12.9187
  17   2.0000      -0.472594       -12.8599
  18   2.0000      -0.444738       -12.1019
  19   2.0000      -0.391561       -10.6549
  20   0.0000       0.050539         1.3752
  21   0.0000       0.084002         2.2858
  22   0.0000       0.112820         3.0700
  23   0.0000       0.126641         3.4461
  24   0.0000       0.147236         4.0065

MULLIKEN ATOMIC CHARGES
-----------------------
   0 C :    0.553589
   1 C :   -0.478973
   2 H :    0.026850
   3 H :    0.078892
   4 C :    0.766439
   5 O :   -0.523136
   6 F :   -0.363026
   7 H :   -0.009334
   8 H :   -0.029410
   9 H :   -0.021891
Sum of atomic charges:    0.0000000

LOEWDIN ATOMIC CHARGES
----------------------
   0 C :    0.137742
   1 C :   -0.000723
   2 H :    0.024828
   3 H :    0.041038
   4 C :    0.003944
   5 O :   -0.147617
   6 F :   -0.030914
   7 H :   -0.009563
   8 H :   -0.012232
   9 H :   -0.006503

  Mayer bond orders larger than 0.100000
B(  0-C ,  1-C ) :   1.3086 B(  0-C ,  7-H ) :   0.8377 B(  0-C ,  8-H ) :   0.8260
B(  0-C ,  9-H ) :   0.8574 B(  1-C ,  2-H ) :   0.9410 B(  1-C ,  3-H ) :   0.8884
B(  1-C ,  4-C ) :   1.0905 B(  1-C ,  7-H ) :   0.1834 B(  1-C ,  8-H ) :   0.1815
B(  1-C ,  9-H ) :   0.1589 B(  2-H ,  4-C ) :   0.1068 B(  4-C ,  5-O ) :   1.8358
B(  4-C ,  6-F ) :   0.7665

Dispersion correction           -0.001905701
FINAL SINGLE POINT ENERGY      -292.112652206429

DIPOLE MOMENT
-------------
                                X             Y             Z
Electronic contribution:      4.64243      -2.80106      -7.11275
Nuclear contribution   :     -4.75269       4.00281       7.35060
                        -----------------------------------------
Total Dipole Moment    :     -0.11026       1.20175       0.23785
                        -----------------------------------------
Magnitude (a.u.)       :      1.23002
Magnitude (Debye)      :      3.12645

Rotational constants in cm-1:     0.323805     0.124913     0.096140
Rotational constants in MHz :  9707.430323  3744.789513  2882.191141

                             ****ORCA TERMINATED NORMALLY****
TOTAL RUN TIME: 0 days 0 hours 0 minutes 7 seconds 757 msec
