                         Program Version 5.0.0 -  RELEASE  -
|  1> !wB97X-D3 RIJCOSX def2-SVPD def2/J TightSCF
|  2> *xyz 0 1
|  3> C          2.48645       -2.67712       -2.56345
|  4> C          3.03764       -2.36672       -3.92351
|  5> N          2.28036       -2.45441       -4.96769
|  6> C          4.32174       -2.01793       -4.01664
|  7> H          4.87994       -1.91167       -3.17382
|  8> H          4.71015       -1.67088       -4.88356
|  9> H          1.27042       -2.41265       -4.86614
| 10> H          2.58183       -2.05528       -5.84688
| 11> C          2.49799       -1.46946       -1.61030
| 12> H          1.47259       -3.05153       -2.69437
| 13> H          3.08320       -3.49064       -2.14147
| 14> H          1.91240       -0.67831       -2.02991
| 15> H          3.50450       -1.13364       -1.47227
| 16> H          2.08509       -1.75655       -0.66585
| 17> *
| 18>
| 19> %MaxCore 64000
| 20>
| 21> %pal nprocs 18
| 22> end
| 23>
| 24> %scf
| 25>   MaxIter 150
| 26> end
| 27>
| 28>
| 29>                          ****END OF INPUT****

CARTESIAN COORDINATES (ANGSTROEM)
---------------------------------
  C      2.486450   -2.677120   -2.563450
  C      3.037640   -2.366720   -3.923510
  N      2.280360   -2.454410   -4.967690
  C      4.321740   -2.017930   -4.016640
  H      4.879940   -1.911670   -3.173820
  H      4.710150   -1.670880   -4.883560
  H      1.270420   -2.412650   -4.866140
  H      2.581830   -2.055280   -5.846880
  C      2.497990   -1.469460   -1.610300
  H      1.472590   -3.051530   -2.694370
  H      3.083200   -3.490640   -2.141470
  H      1.912400   -0.678310   -2.029910
  H      3.504500   -1.133640   -1.472270
  H      2.085090   -1.756550   -0.665850

 Total Charge           Charge          ....    0
 Multiplicity           Mult            ....    1
 Number of Electrons    NEL             ....   40
 Basis Dimension        Dim             ....  172

ORBITAL ENERGIES
----------------

  NO   OCC          E(Eh)            E(eV)
   0   2.0000     -14.442051      -392.9882
   1   2.0000     -10.311836      -280.5993
   2   2.0000     -10.290131      -280.0087
   3   2.0000     -10.275563      -279.6123
   4   2.0000     -10.219785      -278.0945
   5   2.0000      -1.050147       -28.5760
   6   2.0000      -0.891507       -24.2591
   7   2.0000      -0.818079       -22.2611
   8   2.0000      -0.748396       -20.3649
   9   2.0000      -0.675200       -18.3731
  10   2.0000      -0.624630       -16.9971
  11   2.0000      -0.584965       -15.9177
  12   2.0000      -0.546998       -14.8846
  13   2.0000      -0.508019       -13.8239
  14   2.0000      -0.494235       -13.4488
  15   2.0000      -0.476338       -12.9618
  16   2.0000      -0.448116       -12.1939
  17   2.0000      -0.432188       -11.7604
  18   2.0000      -0.430899       -11.7253
  19   2.0000      -0.276364        -7.5202
  20   0.0000       0.089653         2.4396
  21   0.0000       0.110691         3.0121
  22   0.0000       0.124437         3.3861
  23   0.0000       0.128014         3.4834
  24   0.0000       0.142757         3.8846

MULLIKEN ATOMIC CHARGES
-----------------------
   0 C :   -0.092965
   1 C :   -0.068009
   2 N :    0.120189
   3 C :    0.423531
   4 H :   -0.191092
   5 H :   -0.462411
   6 H :   -0.059854
   7 H :   -0.099024
   8 C :    0.606131
   9 H :   -0.067528
  10 H :    0.041028
  11 H :   -0.084295
  12 H :   -0.088100
  13 H :    0.022399
Sum of atomic charges:   -0.0000000

LOEWDIN ATOMIC CHARGES
----------------------
   0 C :   -0.030907
   1 C :   -0.263185
   2 N :    0.157591
   3 C :    0.172343
   4 H :   -0.082472
   5 H :   -0.088636
   6 H :    0.007238
   7 H :    0.013332
   8 C :    0.132460
   9 H :    0.009348
  10 H :    0.030070
  11 H :   -0.014281
  12 H :   -0.024284
  13 H :   -0.018616

  Mayer bond orders larger than 0.100000
B(  0-C ,  1-C ) :   1.1318 B(  0-C ,  3-C ) :   0.1251 B(  0-C ,  8-C ) :   1.2523
B(  0-C ,  9-H ) :   0.8208 B(  0-C , 10-H ) :   0.8450 B(  0-C , 11-H ) :   0.1635
B(  0-C , 12-H ) :   0.1754 B(  0-C , 13-H ) :   0.1461 B(  1-C ,  2-N ) :   1.0676
B(  1-C ,  3-C ) :   1.7949 B(  1-C ,  4-H ) :   0.1023 B(  1-C ,  5-H ) :   0.1225
B(  1-C ,  9-H ) :   0.1974 B(  1-C , 10-H ) :   0.1263 B(  2-N ,  3-C ) :   0.2328
B(  2-N ,  6-H ) :   1.0102 B(  2-N ,  7-H ) :   1.1274 B(  3-C ,  4-H ) :   0.8187
B(  3-C ,  5-H ) :   0.8564 B(  6-H ,  7-H ) :  -0.1078 B(  8-C , 11-H ) :   0.8565
B(  8-C , 12-H ) :   0.8528 B(  8-C , 13-H ) :   0.8190

Dispersion correction           -0.002981099
FINAL SINGLE POINT ENERGY      -212.359844716523

DIPOLE MOMENT
-------------
                                X             Y             Z
Electronic contribution:     -0.25338      -1.19081      -2.96478
Nuclear contribution   :     -0.52463       1.37972       2.79217
                        -----------------------------------------
Total Dipole Moment    :     -0.77801       0.18891      -0.17261
                        -----------------------------------------
Magnitude (a.u.)       :      0.81901
Magnitude (Debye)      :      2.08176

Rotational constants in cm-1:     0.281086     0.127387     0.100311
Rotational constants in MHz :  8426.743103  3818.969834  3007.238026

                             ****ORCA TERMINATED NORMALLY****
TOTAL RUN TIME: 0 days 0 hours 0 minutes 10 seconds 266 msec
