                         Program Version 5.0.0 -  RELEASE  -
|  1> !wB97X-D3 RIJCOSX def2-SVPD def2/J TightSCF xyzfile
|  2>
|  3> *xyzfile 0 1 D1.xyz
|  4>
|  5> %MaxCore 64000
|  6>
|  7> %pal nprocs 18
|  8> end
|  9>
| 10> %scf
| 11>   MaxIter 150
| 12> end
| 13>
| 14>
| 15>                          ****END OF INPUT****

CARTESIAN COORDINATES (ANGSTROEM)
---------------------------------
  C      2.486452   -2.677121   -2.563447
  C     -0.870963    0.248043   -2.662804
  C     -0.477492    0.608191   -4.101052
  H      0.206773    1.458299   -4.118748
  H     -1.368442    0.929419   -4.647855
  C      0.184673   -0.506640   -4.916760
  C      3.037640   -2.366715   -3.923509
  C      2.280360   -2.454408   -4.967692
  N      4.321736   -2.017932   -4.016641
  H      4.879940   -1.911668   -3.173823
  H      4.710148   -1.670882   -4.883561
  H      1.270423   -2.412650   -4.866143
  H      2.581829   -2.055282   -5.846878
  F     -0.158685   -1.701088   -4.657981
  O      1.055938   -0.174410   -5.740373
  C      2.497991   -1.469464   -1.610303
  C      1.582841   -0.321986   -2.042619
  H      2.193083   -1.833912   -0.625420
  H      3.523356   -1.103982   -1.490392
  C      0.100160   -0.673551   -1.915815
  H      1.822311   -0.040361   -3.072834
  H      1.813180    0.557019   -1.433266
  H     -0.063284   -1.679120   -2.301112
  H     -0.168820   -0.691680   -0.853831
  H     -1.001048    1.181040   -2.104071
  H     -1.844645   -0.246592   -2.663281
  H      1.472592   -3.051527   -2.694366
  H      3.083201   -3.490638   -2.141472

 Total Charge           Charge          ....    0
 Multiplicity           Mult            ....    1
 Number of Electrons    NEL             ....   94
 Basis Dimension        Dim             ....  374

ORBITAL ENERGIES
----------------

  NO   OCC          E(Eh)            E(eV)
   0   2.0000     -24.872511      -676.8154
   1   2.0000     -19.253934      -523.9262
   2   2.0000     -14.426654      -392.5692
   3   2.0000     -10.474025      -285.0127
   4   2.0000     -10.320297      -280.8296
   5   2.0000     -10.305128      -280.4168
   6   2.0000     -10.296409      -280.1795
   7   2.0000     -10.292894      -280.0839
   8   2.0000     -10.290167      -280.0097
   9   2.0000     -10.288668      -279.9689
  10   2.0000     -10.283459      -279.8272
  11   2.0000     -10.197860      -277.4979
  12   2.0000      -1.422657       -38.7125
  13   2.0000      -1.148141       -31.2425
  14   2.0000      -1.023226       -27.8434
  15   2.0000      -0.940295       -25.5867
  16   2.0000      -0.904180       -24.6040
  17   2.0000      -0.853726       -23.2311
  18   2.0000      -0.831001       -22.6127
  19   2.0000      -0.785366       -21.3709
  20   2.0000      -0.765527       -20.8311
  21   2.0000      -0.725369       -19.7383
  22   2.0000      -0.686599       -18.6833
  23   2.0000      -0.680178       -18.5086
  24   2.0000      -0.656858       -17.8740
  25   2.0000      -0.642168       -17.4743
  26   2.0000      -0.612982       -16.6801
  27   2.0000      -0.597658       -16.2631
  28   2.0000      -0.584312       -15.8999
  29   2.0000      -0.574241       -15.6259
  30   2.0000      -0.559990       -15.2381
  31   2.0000      -0.543158       -14.7801
  32   2.0000      -0.532206       -14.4821
  33   2.0000      -0.512905       -13.9569
  34   2.0000      -0.503550       -13.7023
  35   2.0000      -0.487136       -13.2556
  36   2.0000      -0.474267       -12.9055
  37   2.0000      -0.471269       -12.8239
  38   2.0000      -0.454158       -12.3583
  39   2.0000      -0.448301       -12.1989
  40   2.0000      -0.435604       -11.8534
  41   2.0000      -0.430129       -11.7044
  42   2.0000      -0.413129       -11.2418
  43   2.0000      -0.408439       -11.1142
  44   2.0000      -0.403677       -10.9846
  45   2.0000      -0.386369       -10.5136
  46   2.0000      -0.270879        -7.3710
  47   0.0000       0.052649         1.4327
  48   0.0000       0.083579         2.2743
  49   0.0000       0.094924         2.5830
  50   0.0000       0.105093         2.8597
  51   0.0000       0.109908         2.9908

MULLIKEN ATOMIC CHARGES
-----------------------
   0 C :    0.205986
   1 C :    0.463916
   2 C :    0.150506
   3 H :    0.211600
   4 H :   -0.211320
   5 C :    0.513149
   6 C :   -0.189102
   7 C :    1.121128
   8 N :    0.146539
   9 H :   -0.084463
  10 H :   -0.161200
  11 H :   -0.508925
  12 H :   -0.371775
  13 F :   -0.600601
  14 O :   -0.478131
  15 C :    0.298070
  16 C :    0.165139
  17 H :   -0.079300
  18 H :   -0.072951
  19 C :    0.002057
  20 H :   -0.120103
  21 H :   -0.159393
  22 H :   -0.033028
  23 H :   -0.152705
  24 H :   -0.088049
  25 H :    0.047680
  26 H :    0.130956
  27 H :   -0.145676
Sum of atomic charges:   -0.0000000

LOEWDIN ATOMIC CHARGES
----------------------
   0 C :    0.021571
   1 C :   -0.019008
   2 C :    0.057624
   3 H :    0.038273
   4 H :    0.040011
   5 C :    0.012021
   6 C :   -0.240382
   7 C :    0.174934
   8 N :    0.171778
   9 H :   -0.006143
  10 H :    0.007400
  11 H :   -0.135357
  12 H :   -0.067508
  13 F :   -0.058334
  14 O :   -0.119361
  15 C :   -0.020491
  16 C :   -0.013313
  17 H :    0.022202
  18 H :    0.011745
  19 C :   -0.027502
  20 H :    0.009138
  21 H :    0.027213
  22 H :   -0.004784
  23 H :    0.029146
  24 H :    0.026034
  25 H :    0.024228
  26 H :    0.011578
  27 H :    0.027283

  Mayer bond orders larger than 0.100000
B(  0-C ,  6-C ) :   1.1718 B(  0-C ,  7-C ) :   0.1334 B(  0-C ,  8-N ) :   0.1179
B(  0-C , 15-C ) :   1.1264 B(  0-C , 17-H ) :   0.1791 B(  0-C , 18-H ) :   0.2114
B(  0-C , 26-H ) :   0.7489 B(  0-C , 27-H ) :   0.8626 B(  1-C ,  2-C ) :   1.1609
B(  1-C ,  4-H ) :   0.1125 B(  1-C , 19-C ) :   1.2898 B(  1-C , 24-H ) :   0.7981
B(  1-C , 25-H ) :   0.6997 B(  2-C ,  3-H ) :   0.7934 B(  2-C ,  4-H ) :   0.7844
B(  2-C ,  5-C ) :   1.1953 B(  2-C , 24-H ) :   0.1206 B(  3-H ,  5-C ) :   0.2056
B(  4-H ,  5-C ) :   0.2683 B(  5-C , 13-F ) :   0.6045 B(  5-C , 14-O ) :   1.8116
B(  6-C ,  7-C ) :   2.0227 B(  6-C ,  8-N ) :   1.0539 B(  6-C , 11-H ) :   0.2467
B(  6-C , 12-H ) :   0.4686 B(  6-C , 15-C ) :   0.1088 B(  6-C , 26-H ) :   0.1485
B(  6-C , 27-H ) :   0.2117 B(  7-C ,  8-N ) :   0.3904 B(  7-C , 11-H ) :   0.2836
B(  7-C , 12-H ) :   0.1592 B(  7-C , 26-H ) :  -0.1273 B(  8-N ,  9-H ) :   1.1374
B(  8-N , 10-H ) :   1.1826 B(  9-H , 10-H ) :  -0.1567 B( 11-H , 12-H ) :   0.2611
B( 11-H , 13-F ) :   0.2597 B( 13-F , 14-O ) :   0.1086 B( 15-C , 16-C ) :   1.1961
B( 15-C , 17-H ) :   0.8663 B( 15-C , 18-H ) :   0.7072 B( 15-C , 20-H ) :   0.1572
B( 15-C , 26-H ) :   0.1531 B( 16-C , 18-H ) :   0.2068 B( 16-C , 19-C ) :   1.1625
B( 16-C , 20-H ) :   0.8674 B( 16-C , 21-H ) :   0.8669 B( 16-C , 23-H ) :   0.2147
B( 19-C , 20-H ) :   0.1179 B( 19-C , 21-H ) :   0.1132 B( 19-C , 22-H ) :   0.8668
B( 19-C , 23-H ) :   0.8410 B( 19-C , 24-H ) :   0.1873 B( 19-C , 25-H ) :   0.2117
B( 22-H , 26-H ) :   0.1244

Dispersion correction           -0.013473738
FINAL SINGLE POINT ENERGY      -581.815624084750

DIPOLE MOMENT
-------------
                                X             Y             Z
Electronic contribution:     -3.71872      -1.62469     -10.21614
Nuclear contribution   :      3.32973       2.37270      11.37738
                        -----------------------------------------
Total Dipole Moment    :     -0.38899       0.74801       1.16124
                        -----------------------------------------
Magnitude (a.u.)       :      1.43503
Magnitude (Debye)      :      3.64756

Rotational constants in cm-1:     0.040902     0.025807     0.019036
Rotational constants in MHz :  1226.202138   773.670450   570.681201

                             ****ORCA TERMINATED NORMALLY****
TOTAL RUN TIME: 0 days 0 hours 1 minutes 8 seconds 908 msec
