                         Program Version 5.0.0 -  RELEASE  -
|  1> !BLYP D3BJ RIJCOSX def2-TZVP def2/J TightSCF
|  2> *xyz -1 1
|  3> C         -2.79070       -0.78527        5.70281
|  4> C         -2.45380        0.05510        6.94145
|  5> C         -2.07842        1.48042        6.56410
|  6> H         -1.62558       -0.38216        7.49891
|  7> H         -3.32527        0.08775        7.59917
|  8> O         -0.90125        1.85816        6.82810
|  9> O         -2.93658        2.17731        5.96415
| 10> H         -1.94052       -0.82114        5.05412
| 11> H         -3.61590       -0.34261        5.18514
| 12> H         -3.05063       -1.77815        6.00536
| 13> *
| 14> %MaxCore 64000
| 15>
| 16> %pal nprocs 4
| 17> end
| 18>
| 19> %scf
| 20>   MaxIter 150
| 21> end
| 22>
| 23>
| 24>                          ****END OF INPUT****

CARTESIAN COORDINATES (ANGSTROEM)
---------------------------------
  C     -2.790700   -0.785270    5.702810
  C     -2.453800    0.055100    6.941450
  C     -2.078420    1.480420    6.564100
  H     -1.625580   -0.382160    7.498910
  H     -3.325270    0.087750    7.599170
  O     -0.901250    1.858160    6.828100
  O     -2.936580    2.177310    5.964150
  H     -1.940520   -0.821140    5.054120
  H     -3.615900   -0.342610    5.185140
  H     -3.050630   -1.778150    6.005360

 Total Charge           Charge          ....   -1
 Multiplicity           Mult            ....    1
 Number of Electrons    NEL             ....   40
 Basis Dimension        Dim             ....  185

ORBITAL ENERGIES
----------------

  NO   OCC          E(Eh)            E(eV)
   0   2.0000     -18.496472      -503.3146
   1   2.0000     -18.494494      -503.2608
   2   2.0000      -9.769643      -265.8455
   3   2.0000      -9.736388      -264.9406
   4   2.0000      -9.722663      -264.5671
   5   2.0000      -0.711111       -19.3503
   6   2.0000      -0.623550       -16.9677
   7   2.0000      -0.521807       -14.1991
   8   2.0000      -0.399937       -10.8828
   9   2.0000      -0.256851        -6.9893
  10   2.0000      -0.234874        -6.3912
  11   2.0000      -0.198121        -5.3911
  12   2.0000      -0.172578        -4.6961
  13   2.0000      -0.157169        -4.2768
  14   2.0000      -0.146545        -3.9877
  15   2.0000      -0.117451        -3.1960
  16   2.0000      -0.104694        -2.8489
  17   2.0000       0.004730         0.1287
  18   2.0000       0.015635         0.4254
  19   2.0000       0.034918         0.9502
  20   0.0000       0.164804         4.4845
  21   0.0000       0.205178         5.5832
  22   0.0000       0.219162         5.9637
  23   0.0000       0.228504         6.2179
  24   0.0000       0.235514         6.4086

MULLIKEN ATOMIC CHARGES
-----------------------
   0 C :   -0.281522
   1 C :   -0.076815
   2 C :    0.135400
   3 H :    0.007672
   4 H :    0.004648
   5 O :   -0.487582
   6 O :   -0.480777
   7 H :    0.071625
   8 H :    0.070958
   9 H :    0.036392
Sum of atomic charges:   -1.0000000

LOEWDIN ATOMIC CHARGES
----------------------
   0 C :   -0.319170
   1 C :   -0.290187
   2 C :   -0.717392
   3 H :    0.112073
   4 H :    0.113862
   5 O :   -0.104260
   6 O :   -0.094554
   7 H :    0.104928
   8 H :    0.105783
   9 H :    0.088918

  Mayer bond orders larger than 0.100000
B(  0-C ,  1-C ) :   0.9411 B(  0-C ,  7-H ) :   0.9827 B(  0-C ,  8-H ) :   0.9670
B(  0-C ,  9-H ) :   0.9628 B(  1-C ,  2-C ) :   0.9094 B(  1-C ,  3-H ) :   0.9385
B(  1-C ,  4-H ) :   0.9385 B(  2-C ,  5-O ) :   1.9220 B(  2-C ,  6-O ) :   1.8895

Dispersion correction           -0.013570284
FINAL SINGLE POINT ENERGY      -267.877494743384

DIPOLE MOMENT
-------------
                                X             Y             Z
Electronic contribution:      1.69752       5.74243       0.65215
Nuclear contribution   :     -2.24498      -7.51881      -0.57245
                        -----------------------------------------
Total Dipole Moment    :     -0.54746      -1.77637       0.07970
                        -----------------------------------------
Magnitude (a.u.)       :      1.86053
Magnitude (Debye)      :      4.72909

Rotational constants in cm-1:     0.305589     0.135336     0.107479
Rotational constants in MHz :  9161.317320  4057.276612  3222.126231

                             ****ORCA TERMINATED NORMALLY****
TOTAL RUN TIME: 0 days 0 hours 0 minutes 9 seconds 122 msec
