                         Program Version 5.0.0 -  RELEASE  -
|  1> !BLYP D3BJ RIJCOSX def2-TZVP def2/J TightSCF
|  2> *xyz 1 1
|  3> C         -0.69912        3.48945        3.75516
|  4> H         -0.96672        4.34901        3.14049
|  5> N         -1.08067        3.79296        5.15686
|  6> C          0.77696        3.13839        3.61741
|  7> H         -1.33146        2.65651        3.44632
|  8> H         -0.87449        4.76274        5.42734
|  9> H         -0.68079        3.13476        5.83900
| 10> H         -2.05755        3.53169        5.34620
| 11> H          0.99957        2.92898        2.59199
| 12> H          0.99576        2.27685        4.21303
| 13> H          1.37223        3.96279        3.95046
| 14> *
| 15> %MaxCore 64000
| 16>
| 17> %pal nprocs 4
| 18> end
| 19>
| 20> %scf
| 21>   MaxIter 150
| 22> end
| 23>
| 24>
| 25>                          ****END OF INPUT****

CARTESIAN COORDINATES (ANGSTROEM)
---------------------------------
  C     -0.699120    3.489450    3.755160
  H     -0.966720    4.349010    3.140490
  N     -1.080670    3.792960    5.156860
  C      0.776960    3.138390    3.617410
  H     -1.331460    2.656510    3.446320
  H     -0.874490    4.762740    5.427340
  H     -0.680790    3.134760    5.839000
  H     -2.057550    3.531690    5.346200
  H      0.999570    2.928980    2.591990
  H      0.995760    2.276850    4.213030
  H      1.372230    3.962790    3.950460

 Total Charge           Charge          ....    1
 Multiplicity           Mult            ....    1
 Number of Electrons    NEL             ....   26
 Basis Dimension        Dim             ....  141

ORBITAL ENERGIES
----------------

  NO   OCC          E(Eh)            E(eV)
   0   2.0000     -14.339292      -390.1920
   1   2.0000     -10.157714      -276.4055
   2   2.0000     -10.078482      -274.2494
   3   2.0000      -1.131742       -30.7963
   4   2.0000      -0.891495       -24.2588
   5   2.0000      -0.780295       -21.2329
   6   2.0000      -0.759885       -20.6775
   7   2.0000      -0.712548       -19.3894
   8   2.0000      -0.647762       -17.6265
   9   2.0000      -0.592797       -16.1308
  10   2.0000      -0.535286       -14.5659
  11   2.0000      -0.522335       -14.2135
  12   2.0000      -0.505821       -13.7641
  13   0.0000      -0.224415        -6.1066
  14   0.0000      -0.166033        -4.5180
  15   0.0000      -0.162278        -4.4158
  16   0.0000      -0.137874        -3.7517
  17   0.0000      -0.099656        -2.7118

MULLIKEN ATOMIC CHARGES
-----------------------
   0 C :   -0.158956
   1 H :    0.179798
   2 N :   -0.247906
   3 C :   -0.304564
   4 H :    0.167356
   5 H :    0.318383
   6 H :    0.299859
   7 H :    0.309927
   8 H :    0.166033
   9 H :    0.134932
  10 H :    0.135138
Sum of atomic charges:    1.0000000

LOEWDIN ATOMIC CHARGES
----------------------
   0 C :   -0.272907
   1 H :    0.151852
   2 N :    0.175363
   3 C :   -0.267629
   4 H :    0.149930
   5 H :    0.220642
   6 H :    0.218103
   7 H :    0.221757
   8 H :    0.146097
   9 H :    0.127854
  10 H :    0.128939

  Mayer bond orders larger than 0.100000
B(  0-C ,  1-H ) :   0.9539 B(  0-C ,  2-N ) :   0.8467 B(  0-C ,  3-C ) :   0.9787
B(  0-C ,  4-H ) :   0.9508 B(  2-N ,  5-H ) :   0.8797 B(  2-N ,  6-H ) :   0.8852
B(  2-N ,  7-H ) :   0.8892 B(  3-C ,  8-H ) :   0.9581 B(  3-C ,  9-H ) :   0.9580
B(  3-C , 10-H ) :   0.9590

Dispersion correction           -0.012385427
FINAL SINGLE POINT ENERGY      -135.514349105755

DIPOLE MOMENT
-------------
                                X             Y             Z
Electronic contribution:     -1.32058       0.57114       1.08939
Nuclear contribution   :      0.33986      -0.24565       0.10678
                        -----------------------------------------
Total Dipole Moment    :     -0.98073       0.32549       1.19617
                        -----------------------------------------
Magnitude (a.u.)       :      1.58069
Magnitude (Debye)      :      4.01780

Rotational constants in cm-1:     1.016237     0.277523     0.247812
Rotational constants in MHz : 30466.024354  8319.937961  7429.230177

                             ****ORCA TERMINATED NORMALLY****
TOTAL RUN TIME: 0 days 0 hours 0 minutes 7 seconds 645 msec
