                         Program Version 5.0.0 -  RELEASE  -
|  1> !BLYP D3BJ RIJCOSX def2-TZVP def2/J TightSCF
|  2> *xyz 0 1
|  3> C         -2.79070       -0.78527        5.70281
|  4> C         -2.45380        0.05510        6.94145
|  5> C         -2.07842        1.48042        6.56410
|  6> H         -1.62558       -0.38216        7.49891
|  7> H         -3.32527        0.08775        7.59917
|  8> F         -0.90125        1.85816        6.82810
|  9> O         -2.93658        2.17731        5.96415
| 10> H         -1.94052       -0.82114        5.05412
| 11> H         -3.61590       -0.34261        5.18514
| 12> H         -3.05063       -1.77815        6.00536
| 13> *
| 14> %MaxCore 64000
| 15>
| 16> %pal nprocs 4
| 17> end
| 18>
| 19> %scf
| 20>   MaxIter 150
| 21> end
| 22>
| 23>
| 24>                          ****END OF INPUT****

CARTESIAN COORDINATES (ANGSTROEM)
---------------------------------
  C     -2.790700   -0.785270    5.702810
  C     -2.453800    0.055100    6.941450
  C     -2.078420    1.480420    6.564100
  H     -1.625580   -0.382160    7.498910
  H     -3.325270    0.087750    7.599170
  F     -0.901250    1.858160    6.828100
  O     -2.936580    2.177310    5.964150
  H     -1.940520   -0.821140    5.054120
  H     -3.615900   -0.342610    5.185140
  H     -3.050630   -1.778150    6.005360

 Total Charge           Charge          ....    0
 Multiplicity           Mult            ....    1
 Number of Electrons    NEL             ....   40
 Basis Dimension        Dim             ....  185

ORBITAL ENERGIES
----------------

  NO   OCC          E(Eh)            E(eV)
   0   2.0000     -24.347886      -662.5397
   1   2.0000     -18.774389      -510.8771
   2   2.0000     -10.072147      -274.0771
   3   2.0000      -9.934906      -270.3425
   4   2.0000      -9.909566      -269.6530
   5   2.0000      -1.200556       -32.6688
   6   2.0000      -0.935616       -25.4594
   7   2.0000      -0.721903       -19.6440
   8   2.0000      -0.616617       -16.7790
   9   2.0000      -0.568275       -15.4635
  10   2.0000      -0.480707       -13.0807
  11   2.0000      -0.466042       -12.6816
  12   2.0000      -0.445001       -12.1091
  13   2.0000      -0.411514       -11.1979
  14   2.0000      -0.380413       -10.3516
  15   2.0000      -0.351289        -9.5591
  16   2.0000      -0.331445        -9.0191
  17   2.0000      -0.326769        -8.8918
  18   2.0000      -0.301468        -8.2034
  19   2.0000      -0.240398        -6.5416
  20   0.0000      -0.063903        -1.7389
  21   0.0000       0.013098         0.3564
  22   0.0000       0.050886         1.3847
  23   0.0000       0.063645         1.7319
  24   0.0000       0.074576         2.0293

MULLIKEN ATOMIC CHARGES
-----------------------
   0 C :   -0.310128
   1 C :   -0.168471
   2 C :    0.333788
   3 H :    0.088042
   4 H :    0.108203
   5 F :   -0.086533
   6 O :   -0.300158
   7 H :    0.103475
   8 H :    0.124654
   9 H :    0.107128
Sum of atomic charges:    0.0000000

LOEWDIN ATOMIC CHARGES
----------------------
   0 C :   -0.278151
   1 C :   -0.255156
   2 C :   -0.515780
   3 H :    0.135027
   4 H :    0.151347
   5 F :    0.326130
   6 O :    0.079544
   7 H :    0.117337
   8 H :    0.122735
   9 H :    0.116967

  Mayer bond orders larger than 0.100000
B(  0-C ,  1-C ) :   0.9521 B(  0-C ,  7-H ) :   0.9740 B(  0-C ,  8-H ) :   0.9694
B(  0-C ,  9-H ) :   0.9673 B(  1-C ,  2-C ) :   0.9779 B(  1-C ,  3-H ) :   0.9503
B(  1-C ,  4-H ) :   0.9404 B(  2-C ,  5-F ) :   1.1686 B(  2-C ,  6-O ) :   2.0699

Dispersion correction           -0.012868030
FINAL SINGLE POINT ENERGY      -292.454737588230

DIPOLE MOMENT
-------------
                                X             Y             Z
Electronic contribution:      3.96466       7.48082       1.46851
Nuclear contribution   :     -3.69486      -8.49563      -1.04945
                        -----------------------------------------
Total Dipole Moment    :      0.26980      -1.01481       0.41905
                        -----------------------------------------
Magnitude (a.u.)       :      1.13059
Magnitude (Debye)      :      2.87374

Rotational constants in cm-1:     0.293725     0.129218     0.102393
Rotational constants in MHz :  8805.653529  3873.869810  3069.666716

                             ****ORCA TERMINATED NORMALLY****
TOTAL RUN TIME: 0 days 0 hours 0 minutes 9 seconds 51 msec
