                         Program Version 5.0.0 -  RELEASE  -
|  1> !BLYP D3BJ RIJCOSX def2-TZVP def2/J TightSCF
|  2> *xyz 0 1
|  3> C         -0.69912        3.48945        3.75516
|  4> H         -0.96672        4.34901        3.14049
|  5> C         -1.08067        3.79296        5.15686
|  6> C          0.77696        3.13839        3.61741
|  7> H         -1.33146        2.65651        3.44632
|  8> H         -0.87449        4.76274        5.42734
|  9> H         -0.68079        3.13476        5.83900
| 10> H         -2.05755        3.53169        5.34620
| 11> H          0.99957        2.92898        2.59199
| 12> H          0.99576        2.27685        4.21303
| 13> H          1.37223        3.96279        3.95046
| 14> *
| 15> %MaxCore 64000
| 16>
| 17> %pal nprocs 4
| 18> end
| 19>
| 20> %scf
| 21>   MaxIter 150
| 22> end
| 23>
| 24>
| 25>                          ****END OF INPUT****

CARTESIAN COORDINATES (ANGSTROEM)
---------------------------------
  C     -0.699120    3.489450    3.755160
  H     -0.966720    4.349010    3.140490
  C     -1.080670    3.792960    5.156860
  C      0.776960    3.138390    3.617410
  H     -1.331460    2.656510    3.446320
  H     -0.874490    4.762740    5.427340
  H     -0.680790    3.134760    5.839000
  H     -2.057550    3.531690    5.346200
  H      0.999570    2.928980    2.591990
  H      0.995760    2.276850    4.213030
  H      1.372230    3.962790    3.950460

 Total Charge           Charge          ....    0
 Multiplicity           Mult            ....    1
 Number of Electrons    NEL             ....   26
 Basis Dimension        Dim             ....  141

ORBITAL ENERGIES
----------------

  NO   OCC          E(Eh)            E(eV)
   0   2.0000      -9.890122      -269.1239
   1   2.0000      -9.881022      -268.8763
   2   2.0000      -9.863689      -268.4046
   3   2.0000      -0.710166       -19.3246
   4   2.0000      -0.618194       -16.8219
   5   2.0000      -0.522857       -14.2277
   6   2.0000      -0.417880       -11.3711
   7   2.0000      -0.386757       -10.5242
   8   2.0000      -0.350657        -9.5419
   9   2.0000      -0.346988        -9.4420
  10   2.0000      -0.295198        -8.0327
  11   2.0000      -0.284773        -7.7491
  12   2.0000      -0.280766        -7.6400
  13   0.0000       0.020525         0.5585
  14   0.0000       0.061923         1.6850
  15   0.0000       0.067690         1.8419
  16   0.0000       0.070560         1.9200
  17   0.0000       0.093991         2.5576

MULLIKEN ATOMIC CHARGES
-----------------------
   0 C :   -0.113548
   1 H :    0.071378
   2 C :   -0.308235
   3 C :   -0.281438
   4 H :    0.068855
   5 H :    0.095269
   6 H :    0.093573
   7 H :    0.101429
   8 H :    0.093985
   9 H :    0.090663
  10 H :    0.088068
Sum of atomic charges:    0.0000000

LOEWDIN ATOMIC CHARGES
----------------------
   0 C :   -0.314398
   1 H :    0.128416
   2 C :   -0.305341
   3 C :   -0.298866
   4 H :    0.129324
   5 H :    0.105103
   6 H :    0.109351
   7 H :    0.110447
   8 H :    0.111431
   9 H :    0.111904
  10 H :    0.112630

  Mayer bond orders larger than 0.100000
B(  0-C ,  1-H ) :   0.9707 B(  0-C ,  2-C ) :   0.9589 B(  0-C ,  3-C ) :   0.9664
B(  0-C ,  4-H ) :   0.9712 B(  2-C ,  5-H ) :   0.9777 B(  2-C ,  6-H ) :   0.9783
B(  2-C ,  7-H ) :   0.9796 B(  3-C ,  8-H ) :   0.9762 B(  3-C ,  9-H ) :   0.9760
B(  3-C , 10-H ) :   0.9757

Dispersion correction           -0.012469430
FINAL SINGLE POINT ENERGY      -119.092549844274

DIPOLE MOMENT
-------------
                                X             Y             Z
Electronic contribution:     -0.14461       0.12153      -0.39727
Nuclear contribution   :      0.10024      -0.14218       0.41628
                        -----------------------------------------
Total Dipole Moment    :     -0.04437      -0.02066       0.01901
                        -----------------------------------------
Magnitude (a.u.)       :      0.05250
Magnitude (Debye)      :      0.13346

Rotational constants in cm-1:     1.024179     0.291605     0.259489
Rotational constants in MHz : 30704.103454  8742.106283  7779.285909

                             ****ORCA TERMINATED NORMALLY****
TOTAL RUN TIME: 0 days 0 hours 0 minutes 7 seconds 237 msec
