                         Program Version 5.0.0 -  RELEASE  -
|  1> !BLYP D3BJ RIJCOSX def2-TZVP def2/J TightSCF
|  2> *xyz 0 1
|  3> C         -2.79070       -0.78527        5.70281
|  4> C         -2.45380        0.05510        6.94145
|  5> C         -2.07842        1.48042        6.56410
|  6> H         -1.62558       -0.38216        7.49891
|  7> H         -3.32527        0.08775        7.59917
|  8> O         -0.90125        1.85816        6.82810
|  9> F         -2.93658        2.17731        5.96415
| 10> H         -1.94052       -0.82114        5.05412
| 11> H         -3.61590       -0.34261        5.18514
| 12> H         -3.05063       -1.77815        6.00536
| 13> *
| 14> %MaxCore 64000
| 15>
| 16> %pal nprocs 4
| 17> end
| 18>
| 19> %scf
| 20>   MaxIter 150
| 21> end
| 22>
| 23>
| 24>                          ****END OF INPUT****

CARTESIAN COORDINATES (ANGSTROEM)
---------------------------------
  C     -2.790700   -0.785270    5.702810
  C     -2.453800    0.055100    6.941450
  C     -2.078420    1.480420    6.564100
  H     -1.625580   -0.382160    7.498910
  H     -3.325270    0.087750    7.599170
  O     -0.901250    1.858160    6.828100
  F     -2.936580    2.177310    5.964150
  H     -1.940520   -0.821140    5.054120
  H     -3.615900   -0.342610    5.185140
  H     -3.050630   -1.778150    6.005360

 Total Charge           Charge          ....    0
 Multiplicity           Mult            ....    1
 Number of Electrons    NEL             ....   40
 Basis Dimension        Dim             ....  185

ORBITAL ENERGIES
----------------

  NO   OCC          E(Eh)            E(eV)
   0   2.0000     -24.351000      -662.6244
   1   2.0000     -18.772346      -510.8215
   2   2.0000     -10.071926      -274.0711
   3   2.0000      -9.934451      -270.3301
   4   2.0000      -9.913429      -269.7581
   5   2.0000      -1.205784       -32.8110
   6   2.0000      -0.930634       -25.3238
   7   2.0000      -0.724828       -19.7236
   8   2.0000      -0.614707       -16.7270
   9   2.0000      -0.574507       -15.6331
  10   2.0000      -0.484485       -13.1835
  11   2.0000      -0.471566       -12.8320
  12   2.0000      -0.440710       -11.9923
  13   2.0000      -0.411547       -11.1988
  14   2.0000      -0.382166       -10.3993
  15   2.0000      -0.353358        -9.6154
  16   2.0000      -0.333821        -9.0837
  17   2.0000      -0.329648        -8.9702
  18   2.0000      -0.302948        -8.2436
  19   2.0000      -0.233986        -6.3671
  20   0.0000      -0.061373        -1.6700
  21   0.0000       0.009512         0.2588
  22   0.0000       0.050176         1.3654
  23   0.0000       0.066437         1.8078
  24   0.0000       0.079093         2.1522

MULLIKEN ATOMIC CHARGES
-----------------------
   0 C :   -0.316176
   1 C :   -0.165237
   2 C :    0.328870
   3 H :    0.112097
   4 H :    0.094855
   5 O :   -0.304251
   6 F :   -0.084477
   7 H :    0.114951
   8 H :    0.108042
   9 H :    0.111325
Sum of atomic charges:    0.0000000

LOEWDIN ATOMIC CHARGES
----------------------
   0 C :   -0.284256
   1 C :   -0.251627
   2 C :   -0.518693
   3 H :    0.148092
   4 H :    0.143435
   5 O :    0.069711
   6 F :    0.337802
   7 H :    0.119726
   8 H :    0.117167
   9 H :    0.118644

  Mayer bond orders larger than 0.100000
B(  0-C ,  1-C ) :   0.9388 B(  0-C ,  7-H ) :   0.9729 B(  0-C ,  8-H ) :   0.9709
B(  0-C ,  9-H ) :   0.9678 B(  1-C ,  2-C ) :   0.9963 B(  1-C ,  3-H ) :   0.9614
B(  1-C ,  4-H ) :   0.9325 B(  2-C ,  5-O ) :   2.0786 B(  2-C ,  6-F ) :   1.1620

Dispersion correction           -0.012791987
FINAL SINGLE POINT ENERGY      -292.452262930156

DIPOLE MOMENT
-------------
                                X             Y             Z
Electronic contribution:      0.61200       7.98204       0.05097
Nuclear contribution   :     -1.47571      -8.84360      -0.10748
                        -----------------------------------------
Total Dipole Moment    :     -0.86371      -0.86156      -0.05651
                        -----------------------------------------
Magnitude (a.u.)       :      1.22126
Magnitude (Debye)      :      3.10420

Rotational constants in cm-1:     0.283081     0.133379     0.103386
Rotational constants in MHz :  8486.545774  3998.599544  3099.448040

                             ****ORCA TERMINATED NORMALLY****
TOTAL RUN TIME: 0 days 0 hours 0 minutes 8 seconds 582 msec
