                         Program Version 5.0.0 -  RELEASE  -
|  1> !BLYP D3BJ RIJCOSX def2-TZVP def2/J TightSCF xyzfile
|  2>
|  3> *xyzfile 0 1 D2.xyz
|  4>
|  5> %MaxCore 64000
|  6>
|  7> %pal nprocs 18
|  8> end
|  9>
| 10> %scf
| 11>   MaxIter 150
| 12> end
| 13>
| 14>
| 15>                          ****END OF INPUT****

CARTESIAN COORDINATES (ANGSTROEM)
---------------------------------
  C     -0.699123    3.489451    3.755163
  H     -0.966716    4.349013    3.140491
  C     -1.080669    3.792957    5.156857
  C      0.776956    3.138391    3.617408
  H     -1.331455    2.656510    3.446323
  H      1.371398    3.888342    4.149744
  H      1.046926    3.232057    2.561331
  C      1.118917    1.731170    4.115155
  H      2.200573    1.654226    4.254882
  C      0.659466    0.635182    3.153306
  H      0.677024    1.576674    5.103150
  H      1.312288    0.638870    2.274207
  H     -0.339563    0.868049    2.772876
  C      0.639957   -0.771175    3.755619
  C     -0.341821   -0.965537    4.915046
  H      1.648266   -1.028665    4.097015
  H      0.398568   -1.482386    2.958453
  H     -0.279892   -2.005646    5.252547
  C     -1.789164   -0.639231    4.557496
  H     -0.032380   -0.352918    5.765118
  H     -2.107151   -1.270102    3.719619
  H     -1.856352    0.391636    4.197604
  C     -2.790700   -0.785275    5.702812
  H     -2.867308   -1.835651    6.001675
  H     -3.774554   -0.486577    5.334807
  C     -2.453797    0.055101    6.941445
  C     -2.078419    1.480421    6.564098
  H     -1.625584   -0.382163    7.498914
  H     -3.325274    0.087746    7.599175
  H     -0.874488    4.762737    5.427344
  H     -0.680793    3.134762    5.839000
  H     -2.057550    3.531691    5.346197
  O     -0.901252    1.858156    6.828104
  F     -2.936582    2.177309    5.964151

 Total Charge           Charge          ....    0
 Multiplicity           Mult            ....    1
 Number of Electrons    NEL             ....  104
 Basis Dimension        Dim             ....  529

ORBITAL ENERGIES
----------------

  NO   OCC          E(Eh)            E(eV)
   0   2.0000     -24.362046      -662.9250
   1   2.0000     -18.781931      -511.0823
   2   2.0000     -10.084532      -274.4141
   3   2.0000      -9.936951      -270.3982
   4   2.0000      -9.923001      -270.0186
   5   2.0000      -9.907659      -269.6011
   6   2.0000      -9.897471      -269.3239
   7   2.0000      -9.893765      -269.2230
   8   2.0000      -9.886692      -269.0306
   9   2.0000      -9.880282      -268.8561
  10   2.0000      -9.877831      -268.7894
  11   2.0000      -9.871277      -268.6111
  12   2.0000      -9.817891      -267.1584
  13   2.0000      -1.221547       -33.2400
  14   2.0000      -0.950080       -25.8530
  15   2.0000      -0.750011       -20.4088
  16   2.0000      -0.722634       -19.6639
  17   2.0000      -0.695675       -18.9303
  18   2.0000      -0.670006       -18.2318
  19   2.0000      -0.629882       -17.1400
  20   2.0000      -0.610113       -16.6020
  21   2.0000      -0.588877       -16.0242
  22   2.0000      -0.553367       -15.0579
  23   2.0000      -0.541641       -14.7388
  24   2.0000      -0.500408       -13.6168
  25   2.0000      -0.497689       -13.5428
  26   2.0000      -0.489753       -13.3269
  27   2.0000      -0.473037       -12.8720
  28   2.0000      -0.454697       -12.3729
  29   2.0000      -0.426618       -11.6089
  30   2.0000      -0.422653       -11.5010
  31   2.0000      -0.404262       -11.0005
  32   2.0000      -0.398148       -10.8342
  33   2.0000      -0.380580       -10.3561
  34   2.0000      -0.370534       -10.0827
  35   2.0000      -0.361801        -9.8451
  36   2.0000      -0.358071        -9.7436
  37   2.0000      -0.351797        -9.5729
  38   2.0000      -0.338767        -9.2183
  39   2.0000      -0.327768        -8.9190
  40   2.0000      -0.322687        -8.7808
  41   2.0000      -0.319791        -8.7020
  42   2.0000      -0.304954        -8.2982
  43   2.0000      -0.299147        -8.1402
  44   2.0000      -0.291756        -7.9391
  45   2.0000      -0.281510        -7.6603
  46   2.0000      -0.277325        -7.5464
  47   2.0000      -0.268079        -7.2948
  48   2.0000      -0.262135        -7.1330
  49   2.0000      -0.253722        -6.9041
  50   2.0000      -0.249669        -6.7938
  51   2.0000      -0.210290        -5.7223
  52   0.0000      -0.075418        -2.0522
  53   0.0000       0.004842         0.1317
  54   0.0000       0.027078         0.7368
  55   0.0000       0.028519         0.7760
  56   0.0000       0.038083         1.0363

MULLIKEN ATOMIC CHARGES
-----------------------
   0 C :   -0.143459
   1 H :    0.058419
   2 C :   -0.362739
   3 C :   -0.055817
   4 H :    0.055207
   5 H :    0.062544
   6 H :    0.052349
   7 C :   -0.200986
   8 H :    0.061538
   9 C :   -0.187080
  10 H :    0.121617
  11 H :    0.071907
  12 H :    0.089710
  13 C :   -0.086563
  14 C :   -0.210040
  15 H :    0.068701
  16 H :    0.069224
  17 H :    0.068869
  18 C :   -0.169998
  19 H :    0.118287
  20 H :    0.075147
  21 H :    0.092104
  22 C :   -0.156916
  23 H :    0.087657
  24 H :    0.093577
  25 C :   -0.169263
  26 C :    0.358048
  27 H :    0.120961
  28 H :    0.109573
  29 H :    0.079842
  30 H :    0.164027
  31 H :    0.072334
  32 O :   -0.317306
  33 F :   -0.091474
Sum of atomic charges:   -0.0000000

LOEWDIN ATOMIC CHARGES
----------------------
   0 C :   -0.299512
   1 H :    0.127166
   2 C :   -0.327082
   3 C :   -0.258121
   4 H :    0.122967
   5 H :    0.131949
   6 H :    0.128444
   7 C :   -0.258202
   8 H :    0.129594
   9 C :   -0.264062
  10 H :    0.137489
  11 H :    0.131386
  12 H :    0.129202
  13 C :   -0.259932
  14 C :   -0.262276
  15 H :    0.133174
  16 H :    0.131172
  17 H :    0.131807
  18 C :   -0.261799
  19 H :    0.136043
  20 H :    0.136454
  21 H :    0.133860
  22 C :   -0.254271
  23 H :    0.137860
  24 H :    0.137084
  25 C :   -0.225125
  26 C :   -0.495154
  27 H :    0.151533
  28 H :    0.148106
  29 H :    0.097616
  30 H :    0.102014
  31 H :    0.100064
  32 O :    0.095429
  33 F :    0.355124

  Mayer bond orders larger than 0.100000
B(  0-C ,  1-H ) :   0.9607 B(  0-C ,  2-C ) :   0.9347 B(  0-C ,  3-C ) :   0.9714
B(  0-C ,  4-H ) :   0.9831 B(  2-C , 29-H ) :   0.9585 B(  2-C , 30-H ) :   0.9593
B(  2-C , 31-H ) :   0.9764 B(  3-C ,  5-H ) :   0.9566 B(  3-C ,  6-H ) :   0.9558
B(  3-C ,  7-C ) :   0.9731 B(  7-C ,  8-H ) :   0.9516 B(  7-C ,  9-C ) :   0.9585
B(  7-C , 10-H ) :   0.9783 B(  9-C , 11-H ) :   0.9556 B(  9-C , 12-H ) :   0.9755
B(  9-C , 13-C ) :   0.9569 B( 13-C , 14-C ) :   0.9748 B( 13-C , 15-H ) :   0.9619
B( 13-C , 16-H ) :   0.9626 B( 14-C , 17-H ) :   0.9550 B( 14-C , 18-C ) :   0.9344
B( 14-C , 19-H ) :   0.9719 B( 18-C , 20-H ) :   0.9593 B( 18-C , 21-H ) :   0.9722
B( 18-C , 22-C ) :   0.9589 B( 22-C , 23-H ) :   0.9553 B( 22-C , 24-H ) :   0.9655
B( 22-C , 25-C ) :   0.9346 B( 25-C , 26-C ) :   0.9840 B( 25-C , 27-H ) :   0.9714
B( 25-C , 28-H ) :   0.9389 B( 26-C , 32-O ) :   1.9568 B( 26-C , 33-F ) :   1.1233

Dispersion correction           -0.074898124
FINAL SINGLE POINT ENERGY      -606.844399495428

DIPOLE MOMENT
-------------
                                X             Y             Z
Electronic contribution:     -8.92463       3.05845       9.47153
Nuclear contribution   :      8.07181      -4.09641      -9.21610
                        -----------------------------------------
Total Dipole Moment    :     -0.85283      -1.03796       0.25543
                        -----------------------------------------
Magnitude (a.u.)       :      1.36745
Magnitude (Debye)      :      3.47578

Rotational constants in cm-1:     0.028400     0.023377     0.015073
Rotational constants in MHz :   851.414727   700.831775   451.871218

                             ****ORCA TERMINATED NORMALLY****
TOTAL RUN TIME: 0 days 0 hours 0 minutes 24 seconds 769 msec
