                         Program Version 5.0.0 -  RELEASE  -
|  1> !BLYP D3BJ RIJCOSX def2-SVPD def2/J TightSCF
|  2> *xyz -1 1
|  3> C         -0.81136       -2.90878       -4.60763
|  4> C         -1.91658       -2.48508       -3.64367
|  5> H         -2.55452       -1.71243       -4.09199
|  6> C         -1.36353       -1.98134       -2.29361
|  7> H         -2.55345       -3.35567       -3.45881
|  8> O         -0.35039       -2.74969       -1.79601
|  9> H         -2.22622       -1.90839       -1.60204
| 10> H         -1.05135       -0.91567       -2.44333
| 11> H         -1.24783       -3.24801       -5.52377
| 12> H         -0.24047       -3.70079       -4.16978
| 13> H         -0.17107       -2.07453       -4.80501
| 14> *
| 15>
| 16> %MaxCore 64000
| 17> %pal nprocs 4
| 18> end
| 19>
| 20> %scf
| 21>   MaxIter 150
| 22> end
| 23>
| 24>
| 25>                          ****END OF INPUT****

CARTESIAN COORDINATES (ANGSTROEM)
---------------------------------
  C     -0.811360   -2.908780   -4.607630
  C     -1.916580   -2.485080   -3.643670
  H     -2.554520   -1.712430   -4.091990
  C     -1.363530   -1.981340   -2.293610
  H     -2.553450   -3.355670   -3.458810
  O     -0.350390   -2.749690   -1.796010
  H     -2.226220   -1.908390   -1.602040
  H     -1.051350   -0.915670   -2.443330
  H     -1.247830   -3.248010   -5.523770
  H     -0.240470   -3.700790   -4.169780
  H     -0.171070   -2.074530   -4.805010

 Total Charge           Charge          ....   -1
 Multiplicity           Mult            ....    1
 Number of Electrons    NEL             ....   34
 Basis Dimension        Dim             ....  139

ORBITAL ENERGIES
----------------

  NO   OCC          E(Eh)            E(eV)
   0   2.0000     -18.474494      -502.7165
   1   2.0000      -9.741547      -265.0810
   2   2.0000      -9.737202      -264.9627
   3   2.0000      -9.731672      -264.8122
   4   2.0000      -0.594798       -16.1853
   5   2.0000      -0.497936       -13.5495
   6   2.0000      -0.392770       -10.6878
   7   2.0000      -0.296568        -8.0700
   8   2.0000      -0.223232        -6.0745
   9   2.0000      -0.212913        -5.7937
  10   2.0000      -0.165462        -4.5024
  11   2.0000      -0.143333        -3.9003
  12   2.0000      -0.117386        -3.1942
  13   2.0000      -0.106019        -2.8849
  14   2.0000      -0.071633        -1.9492
  15   2.0000       0.062200         1.6925
  16   2.0000       0.067068         1.8250
  17   0.0000       0.149717         4.0740
  18   0.0000       0.173586         4.7235
  19   0.0000       0.190265         5.1774
  20   0.0000       0.210208         5.7201
  21   0.0000       0.230461         6.2712

MULLIKEN ATOMIC CHARGES
-----------------------
   0 C :    0.988778
   1 C :   -0.307281
   2 H :   -0.208892
   3 C :    0.604843
   4 H :   -0.176422
   5 O :   -0.790283
   6 H :   -0.313782
   7 H :   -0.219711
   8 H :   -0.255332
   9 H :   -0.128334
  10 H :   -0.193586
Sum of atomic charges:   -1.0000000

LOEWDIN ATOMIC CHARGES
----------------------
   0 C :    0.092275
   1 C :   -0.105012
   2 H :   -0.022466
   3 C :   -0.218010
   4 H :   -0.011893
   5 O :   -0.509669
   6 H :   -0.046776
   7 H :   -0.040053
   8 H :   -0.058150
   9 H :   -0.042101
  10 H :   -0.038145

  Mayer bond orders larger than 0.100000
B(  0-C ,  1-C ) :   1.2758 B(  0-C ,  2-H ) :   0.1113 B(  0-C ,  4-H ) :   0.1257
B(  0-C ,  8-H ) :   0.6819 B(  0-C ,  9-H ) :   0.7352 B(  0-C , 10-H ) :   0.7288
B(  1-C ,  2-H ) :   0.9575 B(  1-C ,  3-C ) :   1.0382 B(  1-C ,  4-H ) :   0.8761
B(  1-C ,  5-O ) :   0.1871 B(  1-C ,  6-H ) :   0.2108 B(  1-C ,  7-H ) :   0.2114
B(  1-C ,  8-H ) :   0.2802 B(  1-C ,  9-H ) :   0.2617 B(  1-C , 10-H ) :   0.2607
B(  2-H ,  3-C ) :   0.1311 B(  3-C ,  4-H ) :   0.1385 B(  3-C ,  5-O ) :   1.1896
B(  3-C ,  6-H ) :   0.8853 B(  3-C ,  7-H ) :   0.8845 B(  6-H ,  7-H ) :   0.1218

Dispersion correction           -0.013588479
FINAL SINGLE POINT ENERGY      -193.535203438427

DIPOLE MOMENT
-------------
                                X             Y             Z
Electronic contribution:      1.38386      -0.60332       2.63446
Nuclear contribution   :     -2.20255       0.75707      -4.26861
                        -----------------------------------------
Total Dipole Moment    :     -0.81870       0.15374      -1.63415
                        -----------------------------------------
Magnitude (a.u.)       :      1.83422
Magnitude (Debye)      :      4.66221

Rotational constants in cm-1:     0.480704     0.187939     0.150770
Rotational constants in MHz : 14411.155440  5634.276828  4519.982802

                             ****ORCA TERMINATED NORMALLY****
TOTAL RUN TIME: 0 days 0 hours 0 minutes 4 seconds 906 msec
