                         Program Version 5.0.0 -  RELEASE  -
|  1> !BLYP D3BJ RIJCOSX def2-SVPD def2/J TightSCF
|  2> *xyz 1 1
|  3> C          1.64703       -2.34528       -5.02041
|  4> C          0.21763       -1.81402       -4.92439
|  5> C          2.20996       -2.81239       -3.66571
|  6> H          2.30838       -1.58870       -5.45713
|  7> H          1.67429       -3.20348       -5.69739
|  8> C          2.48901       -1.66851       -2.73754
|  9> N          3.59631       -0.94761       -2.95225
| 10> N          1.66394       -1.41369       -1.77781
| 11> H          0.81164       -1.96318       -1.70275
| 12> H          1.84550       -0.63508       -1.15875
| 13> H          4.20535       -1.17600       -3.73383
| 14> H          3.81723       -0.12585       -2.40604
| 15> H          3.14311       -3.36280       -3.81152
| 16> H          1.48768       -3.45893       -3.16521
| 17> H         -0.11459       -1.50684       -5.89401
| 18> H          0.19193       -0.97796       -4.25713
| 19> H         -0.42543       -2.58523       -4.55479
| 20> *
| 21>
| 22> %MaxCore 64000
| 23> %pal nprocs 4
| 24> end
| 25>
| 26> %scf
| 27>   MaxIter 150
| 28> end
| 29>
| 30>
| 31>                          ****END OF INPUT****

CARTESIAN COORDINATES (ANGSTROEM)
---------------------------------
  C      1.647030   -2.345280   -5.020410
  C      0.217630   -1.814020   -4.924390
  C      2.209960   -2.812390   -3.665710
  H      2.308380   -1.588700   -5.457130
  H      1.674290   -3.203480   -5.697390
  C      2.489010   -1.668510   -2.737540
  N      3.596310   -0.947610   -2.952250
  N      1.663940   -1.413690   -1.777810
  H      0.811640   -1.963180   -1.702750
  H      1.845500   -0.635080   -1.158750
  H      4.205350   -1.176000   -3.733830
  H      3.817230   -0.125850   -2.406040
  H      3.143110   -3.362800   -3.811520
  H      1.487680   -3.458930   -3.165210
  H     -0.114590   -1.506840   -5.894010
  H      0.191930   -0.977960   -4.257130
  H     -0.425430   -2.585230   -4.554790

 Total Charge           Charge          ....    1
 Multiplicity           Mult            ....    1
 Number of Electrons    NEL             ....   48
 Basis Dimension        Dim             ....  208

ORBITAL ENERGIES
----------------

  NO   OCC          E(Eh)            E(eV)
   0   2.0000     -14.272232      -388.3672
   1   2.0000     -14.263589      -388.1320
   2   2.0000     -10.232332      -278.4359
   3   2.0000     -10.114481      -275.2290
   4   2.0000     -10.083429      -274.3841
   5   2.0000     -10.050271      -273.4818
   6   2.0000      -1.104217       -30.0473
   7   2.0000      -1.015498       -27.6331
   8   2.0000      -0.887590       -24.1526
   9   2.0000      -0.808956       -22.0128
  10   2.0000      -0.765614       -20.8334
  11   2.0000      -0.724025       -19.7017
  12   2.0000      -0.708654       -19.2835
  13   2.0000      -0.670913       -18.2565
  14   2.0000      -0.651058       -17.7162
  15   2.0000      -0.597869       -16.2688
  16   2.0000      -0.572754       -15.5854
  17   2.0000      -0.548786       -14.9332
  18   2.0000      -0.522421       -14.2158
  19   2.0000      -0.512811       -13.9543
  20   2.0000      -0.462105       -12.5745
  21   2.0000      -0.457093       -12.4381
  22   2.0000      -0.452427       -12.3112
  23   2.0000      -0.443194       -12.0599
  24   0.0000      -0.237783        -6.4704
  25   0.0000      -0.182053        -4.9539
  26   0.0000      -0.141760        -3.8575
  27   0.0000      -0.137512        -3.7419
  28   0.0000      -0.110964        -3.0195

MULLIKEN ATOMIC CHARGES
-----------------------
   0 C :   -0.019443
   1 C :    1.163356
   2 C :    0.341875
   3 H :   -0.162539
   4 H :   -0.200190
   5 C :    0.461021
   6 N :    0.284837
   7 N :    0.342075
   8 H :    0.014753
   9 H :   -0.171971
  10 H :   -0.029185
  11 H :   -0.210375
  12 H :   -0.192041
  13 H :   -0.087978
  14 H :   -0.219446
  15 H :   -0.240994
  16 H :   -0.073754
Sum of atomic charges:    1.0000000

LOEWDIN ATOMIC CHARGES
----------------------
   0 C :   -0.032954
   1 C :    0.155887
   2 C :    0.052994
   3 H :    0.022178
   4 H :    0.035878
   5 C :   -0.067560
   6 N :    0.303157
   7 N :    0.307300
   8 H :    0.056503
   9 H :    0.050150
  10 H :    0.047190
  11 H :    0.037518
  12 H :    0.042742
  13 H :    0.032409
  14 H :   -0.003877
  15 H :   -0.029435
  16 H :   -0.010080

  Mayer bond orders larger than 0.100000
B(  0-C ,  1-C ) :   1.3309 B(  0-C ,  2-C ) :   1.1733 B(  0-C ,  3-H ) :   0.8130
B(  0-C ,  4-H ) :   0.8758 B(  0-C , 12-H ) :   0.1085 B(  0-C , 13-H ) :   0.1236
B(  0-C , 14-H ) :   0.2786 B(  0-C , 15-H ) :   0.2815 B(  0-C , 16-H ) :   0.2585
B(  1-C ,  3-H ) :   0.1065 B(  1-C ,  4-H ) :   0.1019 B(  1-C , 14-H ) :   0.6630
B(  1-C , 15-H ) :   0.6974 B(  1-C , 16-H ) :   0.6869 B(  2-C ,  3-H ) :   0.1469
B(  2-C ,  4-H ) :   0.1331 B(  2-C ,  5-C ) :   1.0884 B(  2-C ,  6-N ) :   0.1447
B(  2-C ,  7-N ) :   0.1196 B(  2-C , 12-H ) :   0.8136 B(  2-C , 13-H ) :   0.7563
B(  5-C ,  6-N ) :   1.1787 B(  5-C ,  7-N ) :   1.1970 B(  5-C ,  9-H ) :  -0.1592
B(  5-C , 10-H ) :  -0.1073 B(  5-C , 11-H ) :  -0.1578 B(  5-C , 12-H ) :   0.1205
B(  5-C , 13-H ) :   0.1912 B(  6-N ,  7-N ) :   0.1879 B(  6-N , 10-H ) :   1.1150
B(  6-N , 11-H ) :   1.2754 B(  7-N ,  8-H ) :   1.0850 B(  7-N ,  9-H ) :   1.2733
B(  8-H ,  9-H ) :  -0.1769 B( 10-H , 11-H ) :  -0.1881

Dispersion correction           -0.027637495
FINAL SINGLE POINT ENERGY      -268.056245010320

DIPOLE MOMENT
-------------
                                X             Y             Z
Electronic contribution:      3.26904       1.28273       4.36132
Nuclear contribution   :     -2.54148      -0.64126      -3.14660
                        -----------------------------------------
Total Dipole Moment    :      0.72755       0.64148       1.21472
                        -----------------------------------------
Magnitude (a.u.)       :      1.55447
Magnitude (Debye)      :      3.95114

Rotational constants in cm-1:     0.179759     0.078784     0.067518
Rotational constants in MHz :  5389.046501  2361.884510  2024.132984

                             ****ORCA TERMINATED NORMALLY****
TOTAL RUN TIME: 0 days 0 hours 0 minutes 8 seconds 616 msec
