                         Program Version 5.0.0 -  RELEASE  -
|  1> !BLYP D3BJ RIJCOSX def2-SVPD def2/J TightSCF xyzfile
|  2>
|  3> *xyzfile 0 1 B.xyz
|  4>
|  5> %MaxCore 64000
|  6>
|  7> %pal nprocs 4
|  8> end
|  9>
| 10> %scf
| 11>   MaxIter 150
| 12> end
| 13>
| 14>
| 15>                          ****END OF INPUT****

CARTESIAN COORDINATES (ANGSTROEM)
---------------------------------
  C      1.647032   -2.345276   -5.020411
  C      0.217628   -1.814022   -4.924389
  C      2.209964   -2.812388   -3.665708
  C     -0.811356   -2.908780   -4.607625
  C     -1.916579   -2.485081   -3.643665
  H     -2.554525   -1.712428   -4.091993
  C     -1.363531   -1.981337   -2.293608
  H     -2.553448   -3.355667   -3.458815
  O     -0.350395   -2.749689   -1.796006
  H      2.308385   -1.588704   -5.457128
  H      1.674286   -3.203478   -5.697392
  C      2.489007   -1.668510   -2.737538
  N      3.596314   -0.947608   -2.952247
  N      1.663936   -1.413685   -1.777806
  H      0.811642   -1.963178   -1.702755
  H      1.845503   -0.635078   -1.158749
  H      4.205351   -1.176003   -3.733825
  H      3.817230   -0.125845   -2.406041
  H     -1.244829   -3.280884   -5.541040
  H     -0.306331   -3.757746   -4.142734
  H     -0.036244   -1.318555   -5.865303
  H      0.175004   -1.035382   -4.158095
  H      3.143106   -3.362803   -3.811524
  H      1.487683   -3.458935   -3.165211
  H     -2.226220   -1.908386   -1.602039
  H     -1.051353   -0.915671   -2.443331

 Total Charge           Charge          ....    0
 Multiplicity           Mult            ....    1
 Number of Electrons    NEL             ....   80
 Basis Dimension        Dim             ....  331

ORBITAL ENERGIES
----------------

  NO   OCC          E(Eh)            E(eV)
   0   2.0000     -18.653927      -507.5992
   1   2.0000     -14.101451      -383.7200
   2   2.0000     -14.055336      -382.4651
   3   2.0000     -10.053193      -273.5613
   4   2.0000      -9.946076      -270.6465
   5   2.0000      -9.934586      -270.3338
   6   2.0000      -9.905617      -269.5455
   7   2.0000      -9.898652      -269.3560
   8   2.0000      -9.886501      -269.0254
   9   2.0000      -9.870169      -268.5810
  10   2.0000      -0.924284       -25.1511
  11   2.0000      -0.837706       -22.7951
  12   2.0000      -0.782010       -21.2796
  13   2.0000      -0.730205       -19.8699
  14   2.0000      -0.672032       -18.2869
  15   2.0000      -0.626967       -17.0606
  16   2.0000      -0.583239       -15.8707
  17   2.0000      -0.560665       -15.2565
  18   2.0000      -0.541676       -14.7398
  19   2.0000      -0.524678       -14.2772
  20   2.0000      -0.498950       -13.5771
  21   2.0000      -0.466480       -12.6936
  22   2.0000      -0.439286       -11.9536
  23   2.0000      -0.431640       -11.7455
  24   2.0000      -0.411293       -11.1919
  25   2.0000      -0.390205       -10.6180
  26   2.0000      -0.378207       -10.2915
  27   2.0000      -0.353644        -9.6232
  28   2.0000      -0.342858        -9.3297
  29   2.0000      -0.339858        -9.2480
  30   2.0000      -0.311264        -8.4699
  31   2.0000      -0.302616        -8.2346
  32   2.0000      -0.293458        -7.9854
  33   2.0000      -0.274432        -7.4677
  34   2.0000      -0.270257        -7.3541
  35   2.0000      -0.256515        -6.9801
  36   2.0000      -0.248595        -6.7646
  37   2.0000      -0.241573        -6.5735
  38   2.0000      -0.127694        -3.4747
  39   2.0000      -0.118853        -3.2342
  40   0.0000      -0.064934        -1.7670
  41   0.0000      -0.040909        -1.1132
  42   0.0000      -0.004771        -0.1298
  43   0.0000       0.016827         0.4579
  44   0.0000       0.025456         0.6927

MULLIKEN ATOMIC CHARGES
-----------------------
   0 C :    0.579441
   1 C :    0.473087
   2 C :    0.491343
   3 C :    0.326556
   4 C :    0.564151
   5 H :   -0.310381
   6 C :    0.724350
   7 H :   -0.105353
   8 O :   -0.636570
   9 H :   -0.240141
  10 H :   -0.240726
  11 C :    0.419812
  12 N :    0.295768
  13 N :    0.775593
  14 H :   -0.526259
  15 H :   -0.206840
  16 H :   -0.123232
  17 H :   -0.241237
  18 H :   -0.399994
  19 H :   -0.084743
  20 H :   -0.343908
  21 H :   -0.222187
  22 H :   -0.276867
  23 H :   -0.137972
  24 H :   -0.589888
  25 H :    0.036197
Sum of atomic charges:    0.0000000

LOEWDIN ATOMIC CHARGES
----------------------
   0 C :   -0.007211
   1 C :   -0.006983
   2 C :    0.059520
   3 C :   -0.021912
   4 C :   -0.021175
   5 H :    0.008776
   6 C :   -0.087961
   7 H :    0.012595
   8 O :   -0.365895
   9 H :    0.005379
  10 H :    0.023327
  11 C :   -0.065878
  12 N :    0.257686
  13 N :    0.325540
  14 H :   -0.199401
  15 H :    0.030014
  16 H :    0.017798
  17 H :    0.011598
  18 H :    0.010141
  19 H :   -0.002152
  20 H :    0.014898
  21 H :   -0.008349
  22 H :    0.024066
  23 H :    0.004713
  24 H :   -0.003782
  25 H :   -0.015354

  Mayer bond orders larger than 0.100000
B(  0-C ,  1-C ) :   1.1952 B(  0-C ,  2-C ) :   1.1199 B(  0-C ,  3-C ) :   0.1231
B(  0-C ,  9-H ) :   0.5851 B(  0-C , 10-H ) :   0.7255 B(  0-C , 11-C ) :   0.1128
B(  0-C , 20-H ) :   0.1141 B(  0-C , 21-H ) :   0.2021 B(  0-C , 22-H ) :   0.1374
B(  0-C , 23-H ) :   0.1299 B(  1-C ,  2-C ) :   0.2024 B(  1-C ,  3-C ) :   1.1401
B(  1-C ,  9-H ) :   0.2470 B(  1-C , 10-H ) :   0.1214 B(  1-C , 18-H ) :   0.2736
B(  1-C , 19-H ) :   0.1335 B(  1-C , 20-H ) :   0.6704 B(  1-C , 21-H ) :   0.6636
B(  2-C ,  9-H ) :   0.1704 B(  2-C , 10-H ) :   0.1782 B(  2-C , 11-C ) :   1.0529
B(  2-C , 12-N ) :   0.1308 B(  2-C , 21-H ) :  -0.1090 B(  2-C , 22-H ) :   0.6389
B(  2-C , 23-H ) :   0.7531 B(  3-C ,  4-C ) :   1.2263 B(  3-C ,  5-H ) :   0.1751
B(  3-C ,  6-C ) :   0.1129 B(  3-C ,  7-H ) :   0.2887 B(  3-C , 18-H ) :   0.7056
B(  3-C , 19-H ) :   0.7055 B(  3-C , 20-H ) :   0.1532 B(  3-C , 21-H ) :   0.2172
B(  4-C ,  5-H ) :   0.7839 B(  4-C ,  6-C ) :   1.0796 B(  4-C ,  7-H ) :   0.5382
B(  4-C , 19-H ) :   0.1179 B(  4-C , 24-H ) :   0.1910 B(  4-C , 25-H ) :   0.1468
B(  5-H ,  6-C ) :   0.1346 B(  5-H ,  7-H ) :  -0.1076 B(  6-C ,  7-H ) :   0.1587
B(  6-C ,  8-O ) :   1.0284 B(  6-C , 24-H ) :   0.8926 B(  6-C , 25-H ) :   0.7550
B(  8-O , 14-H ) :   0.5250 B(  9-H , 10-H ) :  -0.1576 B( 11-C , 12-N ) :   1.0680
B( 11-C , 13-N ) :   1.2433 B( 11-C , 15-H ) :  -0.2091 B( 11-C , 16-H ) :  -0.1650
B( 11-C , 17-H ) :  -0.1205 B( 11-C , 22-H ) :   0.1721 B( 11-C , 23-H ) :   0.2506
B( 12-N , 13-N ) :   0.2062 B( 12-N , 16-H ) :   1.2208 B( 12-N , 17-H ) :   1.2628
B( 13-N , 14-H ) :   0.8824 B( 13-N , 15-H ) :   1.2213 B( 14-H , 15-H ) :  -0.2235
B( 16-H , 17-H ) :  -0.1861 B( 18-H , 19-H ) :  -0.1113 B( 19-H , 23-H ) :   0.1400
B( 20-H , 21-H ) :  -0.1368 B( 24-H , 25-H ) :  -0.1139

Dispersion correction           -0.053602923
FINAL SINGLE POINT ENERGY      -460.597787804080

DIPOLE MOMENT
-------------
                                X             Y             Z
Electronic contribution:      5.54211       0.85029       4.34105
Nuclear contribution   :     -2.25948       0.71378      -5.15247
                        -----------------------------------------
Total Dipole Moment    :      3.28263       1.56407      -0.81142
                        -----------------------------------------
Magnitude (a.u.)       :      3.72564
Magnitude (Debye)      :      9.46982

Rotational constants in cm-1:     0.063973     0.031829     0.024059
Rotational constants in MHz :  1917.874550   954.201145   721.285252

                             ****ORCA TERMINATED NORMALLY****
TOTAL RUN TIME: 0 days 0 hours 0 minutes 27 seconds 489 msec
