                         Program Version 5.0.0 -  RELEASE  -
|  1> !BLYP D3BJ RIJCOSX def2-SVPD def2/J TightSCF
|  2> *xyz 0 1
|  3> C         -0.81136       -2.90878       -4.60763
|  4> C         -1.91658       -2.48508       -3.64367
|  5> H         -2.55452       -1.71243       -4.09199
|  6> C         -1.36353       -1.98134       -2.29361
|  7> H         -2.55345       -3.35567       -3.45881
|  8> F         -0.35039       -2.74969       -1.79601
|  9> H         -2.22622       -1.90839       -1.60204
| 10> H         -1.05135       -0.91567       -2.44333
| 11> H         -1.24783       -3.24801       -5.52377
| 12> H         -0.24047       -3.70079       -4.16978
| 13> H         -0.17107       -2.07453       -4.80501
| 14> *
| 15>
| 16> %MaxCore 64000
| 17> %pal nprocs 4
| 18> end
| 19>
| 20> %scf
| 21>   MaxIter 150
| 22> end
| 23>
| 24>
| 25>                          ****END OF INPUT****

CARTESIAN COORDINATES (ANGSTROEM)
---------------------------------
  C     -0.811360   -2.908780   -4.607630
  C     -1.916580   -2.485080   -3.643670
  H     -2.554520   -1.712430   -4.091990
  C     -1.363530   -1.981340   -2.293610
  H     -2.553450   -3.355670   -3.458810
  F     -0.350390   -2.749690   -1.796010
  H     -2.226220   -1.908390   -1.602040
  H     -1.051350   -0.915670   -2.443330
  H     -1.247830   -3.248010   -5.523770
  H     -0.240470   -3.700790   -4.169780
  H     -0.171070   -2.074530   -4.805010

 Total Charge           Charge          ....    0
 Multiplicity           Mult            ....    1
 Number of Electrons    NEL             ....   34
 Basis Dimension        Dim             ....  139

ORBITAL ENERGIES
----------------

  NO   OCC          E(Eh)            E(eV)
   0   2.0000     -24.297057      -661.1565
   1   2.0000      -9.999679      -272.1051
   2   2.0000      -9.928669      -270.1728
   3   2.0000      -9.909566      -269.6530
   4   2.0000      -1.081863       -29.4390
   5   2.0000      -0.703013       -19.1300
   6   2.0000      -0.612543       -16.6681
   7   2.0000      -0.526524       -14.3274
   8   2.0000      -0.453357       -12.3365
   9   2.0000      -0.435846       -11.8600
  10   2.0000      -0.418058       -11.3759
  11   2.0000      -0.383298       -10.4301
  12   2.0000      -0.345191        -9.3931
  13   2.0000      -0.325251        -8.8505
  14   2.0000      -0.311311        -8.4712
  15   2.0000      -0.280455        -7.6316
  16   2.0000      -0.276075        -7.5124
  17   0.0000       0.001141         0.0311
  18   0.0000       0.026415         0.7188
  19   0.0000       0.037922         1.0319
  20   0.0000       0.047457         1.2914
  21   0.0000       0.066486         1.8092

MULLIKEN ATOMIC CHARGES
-----------------------
   0 C :    1.017275
   1 C :   -0.197701
   2 H :   -0.216737
   3 C :    0.917446
   4 H :   -0.192497
   5 F :   -0.380910
   6 H :   -0.238986
   7 H :   -0.149388
   8 H :   -0.234038
   9 H :   -0.135686
  10 H :   -0.188780
Sum of atomic charges:   -0.0000000

LOEWDIN ATOMIC CHARGES
----------------------
   0 C :    0.133181
   1 C :   -0.055634
   2 H :    0.021578
   3 C :    0.088091
   4 H :    0.013928
   5 F :   -0.184896
   6 H :    0.021650
   7 H :    0.030285
   8 H :   -0.024539
   9 H :   -0.023101
  10 H :   -0.020543

  Mayer bond orders larger than 0.100000
B(  0-C ,  1-C ) :   1.3353 B(  0-C ,  8-H ) :   0.7011 B(  0-C ,  9-H ) :   0.7329
B(  0-C , 10-H ) :   0.7174 B(  1-C ,  2-H ) :   0.8804 B(  1-C ,  3-C ) :   1.1964
B(  1-C ,  4-H ) :   0.8392 B(  1-C ,  6-H ) :   0.1611 B(  1-C ,  7-H ) :   0.1645
B(  1-C ,  8-H ) :   0.2620 B(  1-C ,  9-H ) :   0.2287 B(  1-C , 10-H ) :   0.2345
B(  3-C ,  5-F ) :   0.8081 B(  3-C ,  6-H ) :   0.8314 B(  3-C ,  7-H ) :   0.8180

Dispersion correction           -0.012795926
FINAL SINGLE POINT ENERGY      -218.143563932211

DIPOLE MOMENT
-------------
                                X             Y             Z
Electronic contribution:      2.61290      -0.71771       5.48943
Nuclear contribution   :     -3.10989       1.02097      -5.82098
                        -----------------------------------------
Total Dipole Moment    :     -0.49700       0.30326      -0.33155
                        -----------------------------------------
Magnitude (a.u.)       :      0.67000
Magnitude (Debye)      :      1.70300

Rotational constants in cm-1:     0.466172     0.177379     0.142652
Rotational constants in MHz : 13975.492374  5317.681709  4276.599690

                             ****ORCA TERMINATED NORMALLY****
TOTAL RUN TIME: 0 days 0 hours 0 minutes 3 seconds 879 msec
