                         Program Version 5.0.0 -  RELEASE  -
|  1> !BLYP D3BJ RIJCOSX def2-SVPD def2/J TightSCF
|  2> *xyz 0 1
|  3> C          1.64703       -2.34528       -5.02041
|  4> C          0.21763       -1.81402       -4.92439
|  5> C          2.20996       -2.81239       -3.66571
|  6> H          2.30838       -1.58870       -5.45713
|  7> H          1.67429       -3.20348       -5.69739
|  8> C          2.48901       -1.66851       -2.73754
|  9> C          3.59631       -0.94761       -2.95225
| 10> N          1.66394       -1.41369       -1.77781
| 11> H          0.81164       -1.96318       -1.70275
| 12> H          1.84550       -0.63508       -1.15875
| 13> H          4.20535       -1.17600       -3.73383
| 14> H          3.81723       -0.12585       -2.40604
| 15> H          3.14311       -3.36280       -3.81152
| 16> H          1.48768       -3.45893       -3.16521
| 17> H         -0.11459       -1.50684       -5.89401
| 18> H          0.19193       -0.97796       -4.25713
| 19> H         -0.42543       -2.58523       -4.55479
| 20> *
| 21>
| 22> %MaxCore 64000
| 23> %pal nprocs 4
| 24> end
| 25>
| 26> %scf
| 27>   MaxIter 150
| 28> end
| 29>
| 30>
| 31>                          ****END OF INPUT****

CARTESIAN COORDINATES (ANGSTROEM)
---------------------------------
  C      1.647030   -2.345280   -5.020410
  C      0.217630   -1.814020   -4.924390
  C      2.209960   -2.812390   -3.665710
  H      2.308380   -1.588700   -5.457130
  H      1.674290   -3.203480   -5.697390
  C      2.489010   -1.668510   -2.737540
  C      3.596310   -0.947610   -2.952250
  N      1.663940   -1.413690   -1.777810
  H      0.811640   -1.963180   -1.702750
  H      1.845500   -0.635080   -1.158750
  H      4.205350   -1.176000   -3.733830
  H      3.817230   -0.125850   -2.406040
  H      3.143110   -3.362800   -3.811520
  H      1.487680   -3.458930   -3.165210
  H     -0.114590   -1.506840   -5.894010
  H      0.191930   -0.977960   -4.257130
  H     -0.425430   -2.585230   -4.554790

 Total Charge           Charge          ....    0
 Multiplicity           Mult            ....    1
 Number of Electrons    NEL             ....   48
 Basis Dimension        Dim             ....  208

ORBITAL ENERGIES
----------------

  NO   OCC          E(Eh)            E(eV)
   0   2.0000     -14.031557      -381.8181
   1   2.0000      -9.937100      -270.4022
   2   2.0000      -9.919100      -269.9124
   3   2.0000      -9.916696      -269.8470
   4   2.0000      -9.905416      -269.5401
   5   2.0000      -9.853200      -268.1192
   6   2.0000      -0.844766       -22.9873
   7   2.0000      -0.707169       -19.2431
   8   2.0000      -0.648087       -17.6354
   9   2.0000      -0.601097       -16.3567
  10   2.0000      -0.539062       -14.6686
  11   2.0000      -0.500838       -13.6285
  12   2.0000      -0.473863       -12.8945
  13   2.0000      -0.428447       -11.6586
  14   2.0000      -0.399635       -10.8746
  15   2.0000      -0.379013       -10.3135
  16   2.0000      -0.355709        -9.6793
  17   2.0000      -0.341588        -9.2951
  18   2.0000      -0.324059        -8.8181
  19   2.0000      -0.311667        -8.4809
  20   2.0000      -0.295278        -8.0349
  21   2.0000      -0.282587        -7.6896
  22   2.0000      -0.281363        -7.6563
  23   2.0000      -0.149658        -4.0724
  24   0.0000      -0.005083        -0.1383
  25   0.0000       0.013299         0.3619
  26   0.0000       0.025113         0.6834
  27   0.0000       0.031439         0.8555
  28   0.0000       0.044872         1.2210

MULLIKEN ATOMIC CHARGES
-----------------------
   0 C :   -0.102376
   1 C :    1.127081
   2 C :    0.610592
   3 H :   -0.166273
   4 H :   -0.241714
   5 C :   -0.237774
   6 C :    0.706861
   7 N :    0.476960
   8 H :   -0.123167
   9 H :   -0.212130
  10 H :   -0.273318
  11 H :   -0.673191
  12 H :   -0.133044
  13 H :   -0.203555
  14 H :   -0.249243
  15 H :   -0.223739
  16 H :   -0.081969
Sum of atomic charges:    0.0000000

LOEWDIN ATOMIC CHARGES
----------------------
   0 C :   -0.053342
   1 C :    0.134261
   2 C :    0.013476
   3 H :    0.015288
   4 H :    0.010817
   5 C :   -0.270947
   6 C :    0.187715
   7 N :    0.193452
   8 H :    0.002536
   9 H :    0.010355
  10 H :   -0.088507
  11 H :   -0.100688
  12 H :    0.021650
  13 H :    0.006429
  14 H :   -0.025717
  15 H :   -0.031312
  16 H :   -0.025467

  Mayer bond orders larger than 0.100000
B(  0-C ,  1-C ) :   1.3081 B(  0-C ,  2-C ) :   1.1605 B(  0-C ,  3-H ) :   0.8594
B(  0-C ,  4-H ) :   0.8809 B(  0-C , 12-H ) :   0.1343 B(  0-C , 13-H ) :   0.1757
B(  0-C , 14-H ) :   0.2902 B(  0-C , 15-H ) :   0.2801 B(  0-C , 16-H ) :   0.2711
B(  1-C ,  3-H ) :   0.1008 B(  1-C ,  4-H ) :   0.1088 B(  1-C , 14-H ) :   0.6441
B(  1-C , 15-H ) :   0.7293 B(  1-C , 16-H ) :   0.6894 B(  2-C ,  3-H ) :   0.1714
B(  2-C ,  5-C ) :   1.0310 B(  2-C ,  6-C ) :   0.2396 B(  2-C ,  7-N ) :   0.1425
B(  2-C , 12-H ) :   0.7489 B(  2-C , 13-H ) :   0.5868 B(  5-C ,  6-C ) :   1.5423
B(  5-C ,  7-N ) :   1.2936 B(  5-C , 11-H ) :   0.2041 B(  5-C , 12-H ) :   0.1724
B(  5-C , 13-H ) :   0.2802 B(  6-C ,  7-N ) :   0.3145 B(  6-C , 10-H ) :   0.7342
B(  6-C , 11-H ) :   0.5552 B(  7-N ,  8-H ) :   1.0282 B(  7-N ,  9-H ) :   1.2072
B(  8-H ,  9-H ) :  -0.1565 B( 12-H , 13-H ) :  -0.1011

Dispersion correction           -0.028621050
FINAL SINGLE POINT ENERGY      -251.585218136070

DIPOLE MOMENT
-------------
                                X             Y             Z
Electronic contribution:      1.45352       0.29411       3.31126
Nuclear contribution   :     -2.15663      -0.43764      -3.01766
                        -----------------------------------------
Total Dipole Moment    :     -0.70311      -0.14352       0.29360
                        -----------------------------------------
Magnitude (a.u.)       :      0.77535
Magnitude (Debye)      :      1.97077

Rotational constants in cm-1:     0.184410     0.080989     0.069427
Rotational constants in MHz :  5528.462717  2427.993314  2081.376031

                             ****ORCA TERMINATED NORMALLY****
TOTAL RUN TIME: 0 days 0 hours 0 minutes 8 seconds 796 msec
