                         Program Version 5.0.0 -  RELEASE  -
|  1> !BLYP D3BJ RIJCOSX def2-SVPD def2/J TightSCF
|  2> *xyz 0 1
|  3> C          1.64703       -2.34528       -5.02041
|  4> C          0.21763       -1.81402       -4.92439
|  5> C          2.20996       -2.81239       -3.66571
|  6> H          2.30838       -1.58870       -5.45713
|  7> H          1.67429       -3.20348       -5.69739
|  8> C          2.48901       -1.66851       -2.73754
|  9> N          3.59631       -0.94761       -2.95225
| 10> C          1.66394       -1.41369       -1.77781
| 11> H          0.81164       -1.96318       -1.70275
| 12> H          1.84550       -0.63508       -1.15875
| 13> H          4.20535       -1.17600       -3.73383
| 14> H          3.81723       -0.12585       -2.40604
| 15> H          3.14311       -3.36280       -3.81152
| 16> H          1.48768       -3.45893       -3.16521
| 17> H         -0.11459       -1.50684       -5.89401
| 18> H          0.19193       -0.97796       -4.25713
| 19> H         -0.42543       -2.58523       -4.55479
| 20> *
| 21>
| 22> %MaxCore 64000
| 23> %pal nprocs 4
| 24> end
| 25>
| 26> %scf
| 27>   MaxIter 150
| 28> end
| 29>
| 30>
| 31>                          ****END OF INPUT****

CARTESIAN COORDINATES (ANGSTROEM)
---------------------------------
  C      1.647030   -2.345280   -5.020410
  C      0.217630   -1.814020   -4.924390
  C      2.209960   -2.812390   -3.665710
  H      2.308380   -1.588700   -5.457130
  H      1.674290   -3.203480   -5.697390
  C      2.489010   -1.668510   -2.737540
  N      3.596310   -0.947610   -2.952250
  C      1.663940   -1.413690   -1.777810
  H      0.811640   -1.963180   -1.702750
  H      1.845500   -0.635080   -1.158750
  H      4.205350   -1.176000   -3.733830
  H      3.817230   -0.125850   -2.406040
  H      3.143110   -3.362800   -3.811520
  H      1.487680   -3.458930   -3.165210
  H     -0.114590   -1.506840   -5.894010
  H      0.191930   -0.977960   -4.257130
  H     -0.425430   -2.585230   -4.554790

 Total Charge           Charge          ....    0
 Multiplicity           Mult            ....    1
 Number of Electrons    NEL             ....   48
 Basis Dimension        Dim             ....  208

ORBITAL ENERGIES
----------------

  NO   OCC          E(Eh)            E(eV)
   0   2.0000     -14.025033      -381.6405
   1   2.0000      -9.934667      -270.3360
   2   2.0000      -9.917899      -269.8798
   3   2.0000      -9.917381      -269.8657
   4   2.0000      -9.900034      -269.3936
   5   2.0000      -9.856636      -268.2127
   6   2.0000      -0.826984       -22.5034
   7   2.0000      -0.706427       -19.2229
   8   2.0000      -0.654390       -17.8069
   9   2.0000      -0.605457       -16.4753
  10   2.0000      -0.527488       -14.3537
  11   2.0000      -0.502531       -13.6746
  12   2.0000      -0.465782       -12.6746
  13   2.0000      -0.420924       -11.4539
  14   2.0000      -0.394946       -10.7470
  15   2.0000      -0.389775       -10.6063
  16   2.0000      -0.349650        -9.5145
  17   2.0000      -0.342781        -9.3275
  18   2.0000      -0.325204        -8.8492
  19   2.0000      -0.315160        -8.5759
  20   2.0000      -0.292845        -7.9687
  21   2.0000      -0.278171        -7.5694
  22   2.0000      -0.274440        -7.4679
  23   2.0000      -0.160415        -4.3651
  24   0.0000      -0.003943        -0.1073
  25   0.0000       0.015876         0.4320
  26   0.0000       0.025505         0.6940
  27   0.0000       0.032802         0.8926
  28   0.0000       0.049346         1.3428

MULLIKEN ATOMIC CHARGES
-----------------------
   0 C :   -0.000354
   1 C :    1.147169
   2 C :    0.525860
   3 H :   -0.196090
   4 H :   -0.227287
   5 C :   -0.124726
   6 N :    0.381329
   7 C :    0.658171
   8 H :   -0.200345
   9 H :   -0.616827
  10 H :   -0.198134
  11 H :   -0.257111
  12 H :   -0.279733
  13 H :   -0.039126
  14 H :   -0.245293
  15 H :   -0.225852
  16 H :   -0.101649
Sum of atomic charges:    0.0000000

LOEWDIN ATOMIC CHARGES
----------------------
   0 C :   -0.057605
   1 C :    0.137532
   2 C :    0.011969
   3 H :    0.008906
   4 H :    0.010298
   5 C :   -0.267432
   6 N :    0.196647
   7 C :    0.181065
   8 H :   -0.075901
   9 H :   -0.084305
  10 H :   -0.008498
  11 H :   -0.004570
  12 H :    0.013908
  13 H :    0.016666
  14 H :   -0.027013
  15 H :   -0.030366
  16 H :   -0.021300

  Mayer bond orders larger than 0.100000
B(  0-C ,  1-C ) :   1.3015 B(  0-C ,  2-C ) :   1.1313 B(  0-C ,  3-H ) :   0.8104
B(  0-C ,  4-H ) :   0.8252 B(  0-C ,  5-C ) :   0.1024 B(  0-C , 12-H ) :   0.1107
B(  0-C , 13-H ) :   0.1367 B(  0-C , 14-H ) :   0.2901 B(  0-C , 15-H ) :   0.2848
B(  0-C , 16-H ) :   0.2687 B(  1-C ,  3-H ) :   0.1076 B(  1-C ,  4-H ) :   0.1013
B(  1-C , 14-H ) :   0.6459 B(  1-C , 15-H ) :   0.7212 B(  1-C , 16-H ) :   0.6801
B(  2-C ,  3-H ) :   0.1757 B(  2-C ,  4-H ) :   0.1611 B(  2-C ,  5-C ) :   1.0829
B(  2-C ,  6-N ) :   0.1545 B(  2-C ,  7-C ) :   0.2216 B(  2-C , 12-H ) :   0.7721
B(  2-C , 13-H ) :   0.7171 B(  5-C ,  6-N ) :   1.2999 B(  5-C ,  7-C ) :   1.5099
B(  5-C ,  8-H ) :   0.1478 B(  5-C ,  9-H ) :   0.3295 B(  5-C , 12-H ) :   0.1950
B(  5-C , 13-H ) :   0.2122 B(  6-N ,  7-C ) :   0.2957 B(  6-N , 10-H ) :   1.1372
B(  6-N , 11-H ) :   1.2273 B(  7-C ,  8-H ) :   0.8560 B(  7-C ,  9-H ) :   0.4003
B( 10-H , 11-H ) :  -0.1610 B( 15-H , 16-H ) :   0.1044

Dispersion correction           -0.028661826
FINAL SINGLE POINT ENERGY      -251.588902699394

DIPOLE MOMENT
-------------
                                X             Y             Z
Electronic contribution:      3.13261       0.71243       2.31582
Nuclear contribution   :     -2.61370      -0.54788      -2.73987
                        -----------------------------------------
Total Dipole Moment    :      0.51891       0.16456      -0.42405
                        -----------------------------------------
Magnitude (a.u.)       :      0.69005
Magnitude (Debye)      :      1.75396

Rotational constants in cm-1:     0.186678     0.079942     0.069329
Rotational constants in MHz :  5596.476267  2396.611465  2078.426257

                             ****ORCA TERMINATED NORMALLY****
TOTAL RUN TIME: 0 days 0 hours 0 minutes 8 seconds 714 msec
