                         Program Version 5.0.0 -  RELEASE  -
|  1> !BLYP D3BJ RIJCOSX def2-SVPD def2/J TightSCF xyzfile
|  2>
|  3> *xyzfile 0 1 D1.xyz
|  4>
|  5> %MaxCore 64000
|  6>
|  7> %pal nprocs 4
|  8> end
|  9>
| 10> %scf
| 11>   MaxIter 150
| 12> end
| 13>
| 14>
| 15>                          ****END OF INPUT****

CARTESIAN COORDINATES (ANGSTROEM)
---------------------------------
  C      1.647032   -2.345276   -5.020411
  C      0.217628   -1.814022   -4.924389
  C      2.209964   -2.812388   -3.665708
  C     -0.811356   -2.908780   -4.607625
  C     -1.916579   -2.485081   -3.643665
  H     -2.554525   -1.712428   -4.091993
  C     -1.363531   -1.981337   -2.293608
  H     -2.553448   -3.355667   -3.458815
  F     -0.350395   -2.749689   -1.796006
  H      2.308385   -1.588704   -5.457128
  H      1.674286   -3.203478   -5.697392
  C      2.489007   -1.668510   -2.737538
  C      3.596314   -0.947608   -2.952247
  N      1.663936   -1.413685   -1.777806
  H      0.811642   -1.963178   -1.702755
  H      1.845503   -0.635078   -1.158749
  H      4.205351   -1.176003   -3.733825
  H      3.817230   -0.125845   -2.406041
  H     -1.244829   -3.280884   -5.541040
  H     -0.306331   -3.757746   -4.142734
  H     -0.036244   -1.318555   -5.865303
  H      0.175004   -1.035382   -4.158095
  H      3.143106   -3.362803   -3.811524
  H      1.487683   -3.458935   -3.165211
  H     -2.226220   -1.908386   -1.602039
  H     -1.051353   -0.915671   -2.443331

 Total Charge           Charge          ....    0
 Multiplicity           Mult            ....    1
 Number of Electrons    NEL             ....   80
 Basis Dimension        Dim             ....  331

ORBITAL ENERGIES
----------------

  NO   OCC          E(Eh)            E(eV)
   0   2.0000     -24.341339      -662.3615
   1   2.0000     -13.994939      -380.8216
   2   2.0000     -10.020412      -272.6693
   3   2.0000      -9.940154      -270.4853
   4   2.0000      -9.923649      -270.0362
   5   2.0000      -9.920796      -269.9586
   6   2.0000      -9.915285      -269.8086
   7   2.0000      -9.911586      -269.7080
   8   2.0000      -9.907388      -269.5937
   9   2.0000      -9.837589      -267.6944
  10   2.0000      -1.135212       -30.8907
  11   2.0000      -0.822339       -22.3770
  12   2.0000      -0.734488       -19.9864
  13   2.0000      -0.695208       -18.9176
  14   2.0000      -0.654432       -17.8080
  15   2.0000      -0.613121       -16.6839
  16   2.0000      -0.591398       -16.0928
  17   2.0000      -0.543072       -14.7777
  18   2.0000      -0.525814       -14.3081
  19   2.0000      -0.510184       -13.8828
  20   2.0000      -0.476056       -12.9541
  21   2.0000      -0.470565       -12.8047
  22   2.0000      -0.453686       -12.3454
  23   2.0000      -0.431555       -11.7432
  24   2.0000      -0.411326       -11.1927
  25   2.0000      -0.404153       -10.9976
  26   2.0000      -0.385516       -10.4904
  27   2.0000      -0.370111       -10.0712
  28   2.0000      -0.366714        -9.9788
  29   2.0000      -0.340056        -9.2534
  30   2.0000      -0.323306        -8.7976
  31   2.0000      -0.317023        -8.6266
  32   2.0000      -0.313336        -8.5263
  33   2.0000      -0.308237        -8.3876
  34   2.0000      -0.294420        -8.0116
  35   2.0000      -0.287832        -7.8323
  36   2.0000      -0.278928        -7.5900
  37   2.0000      -0.266595        -7.2544
  38   2.0000      -0.265876        -7.2349
  39   2.0000      -0.132930        -3.6172
  40   0.0000      -0.005504        -0.1498
  41   0.0000       0.007017         0.1909
  42   0.0000       0.016498         0.4489
  43   0.0000       0.022604         0.6151
  44   0.0000       0.028279         0.7695

MULLIKEN ATOMIC CHARGES
-----------------------
   0 C :    0.494881
   1 C :    0.443723
   2 C :    0.946322
   3 C :    0.313176
   4 C :    0.542478
   5 H :   -0.260520
   6 C :    0.907314
   7 H :   -0.136535
   8 F :   -0.416830
   9 H :   -0.203988
  10 H :   -0.273302
  11 C :   -0.285005
  12 C :    0.538220
  13 N :    1.000219
  14 H :   -0.652623
  15 H :   -0.211527
  16 H :   -0.267580
  17 H :   -0.537180
  18 H :   -0.396177
  19 H :   -0.082664
  20 H :   -0.330202
  21 H :   -0.205959
  22 H :   -0.145657
  23 H :   -0.409539
  24 H :   -0.491751
  25 H :    0.120707
Sum of atomic charges:   -0.0000000

LOEWDIN ATOMIC CHARGES
----------------------
   0 C :   -0.006108
   1 C :   -0.006857
   2 C :    0.030328
   3 C :   -0.017195
   4 C :    0.000018
   5 H :    0.030353
   6 C :    0.138253
   7 H :    0.018805
   8 F :   -0.146015
   9 H :    0.016162
  10 H :    0.015206
  11 C :   -0.251840
  12 C :    0.179396
  13 N :    0.223867
  14 H :   -0.142468
  15 H :    0.011894
  16 H :   -0.094772
  17 H :   -0.104162
  18 H :    0.020079
  19 H :    0.001551
  20 H :    0.016185
  21 H :   -0.004809
  22 H :    0.023397
  23 H :   -0.012531
  24 H :    0.031462
  25 H :    0.029800

  Mayer bond orders larger than 0.100000
B(  0-C ,  1-C ) :   1.2240 B(  0-C ,  2-C ) :   1.1104 B(  0-C ,  3-C ) :   0.1186
B(  0-C ,  9-H ) :   0.6344 B(  0-C , 10-H ) :   0.7549 B(  0-C , 20-H ) :   0.1270
B(  0-C , 21-H ) :   0.2098 B(  0-C , 22-H ) :   0.1531 B(  0-C , 23-H ) :   0.2139
B(  1-C ,  2-C ) :   0.1791 B(  1-C ,  3-C ) :   1.1499 B(  1-C ,  9-H ) :   0.2566
B(  1-C , 10-H ) :   0.1497 B(  1-C , 18-H ) :   0.2577 B(  1-C , 19-H ) :   0.1197
B(  1-C , 20-H ) :   0.6699 B(  1-C , 21-H ) :   0.6732 B(  2-C ,  9-H ) :   0.1832
B(  2-C , 11-C ) :   0.8992 B(  2-C , 13-N ) :   0.1412 B(  2-C , 14-H ) :  -0.1425
B(  2-C , 15-H ) :   0.1085 B(  2-C , 17-H ) :   0.1407 B(  2-C , 22-H ) :   0.6169
B(  2-C , 23-H ) :   0.4217 B(  3-C ,  4-C ) :   1.2245 B(  3-C ,  5-H ) :   0.1615
B(  3-C ,  6-C ) :   0.1058 B(  3-C ,  7-H ) :   0.2744 B(  3-C , 18-H ) :   0.7381
B(  3-C , 19-H ) :   0.7300 B(  3-C , 20-H ) :   0.1474 B(  3-C , 21-H ) :   0.2161
B(  4-C ,  5-H ) :   0.7578 B(  4-C ,  6-C ) :   1.2310 B(  4-C ,  7-H ) :   0.5503
B(  4-C , 24-H ) :   0.1919 B(  4-C , 25-H ) :   0.1202 B(  5-H ,  6-C ) :   0.1265
B(  6-C ,  7-H ) :   0.1247 B(  6-C ,  8-F ) :   0.6363 B(  6-C , 24-H ) :   0.8528
B(  6-C , 25-H ) :   0.7541 B(  8-F , 14-H ) :   0.2404 B(  8-F , 24-H ) :  -0.1069
B(  9-H , 10-H ) :  -0.1917 B(  9-H , 19-H ) :  -0.1008 B( 11-C , 12-C ) :   1.4668
B( 11-C , 13-N ) :   1.3067 B( 11-C , 14-H ) :   0.1478 B( 11-C , 17-H ) :   0.1985
B( 11-C , 22-H ) :   0.2339 B( 11-C , 23-H ) :   0.3216 B( 12-C , 13-N ) :   0.2051
B( 12-C , 16-H ) :   0.7603 B( 12-C , 17-H ) :   0.5003 B( 13-N , 14-H ) :   0.6061
B( 13-N , 15-H ) :   1.1436 B( 14-H , 15-H ) :  -0.2136 B( 14-H , 23-H ) :   0.1382
B( 18-H , 19-H ) :  -0.1314 B( 19-H , 23-H ) :   0.1334 B( 20-H , 21-H ) :  -0.1146
B( 20-H , 22-H ) :   0.1054 B( 24-H , 25-H ) :  -0.1028

Dispersion correction           -0.053127837
FINAL SINGLE POINT ENERGY      -468.529292635610

DIPOLE MOMENT
-------------
                                X             Y             Z
Electronic contribution:     -1.27475      -1.74751       6.94594
Nuclear contribution   :     -0.37390       1.73388      -6.94752
                        -----------------------------------------
Total Dipole Moment    :     -1.64866      -0.01363      -0.00159
                        -----------------------------------------
Magnitude (a.u.)       :      1.64871
Magnitude (Debye)      :      4.19070

Rotational constants in cm-1:     0.062220     0.032742     0.024374
Rotational constants in MHz :  1865.297979   981.573941   730.711364

                             ****ORCA TERMINATED NORMALLY****
TOTAL RUN TIME: 0 days 0 hours 0 minutes 25 seconds 75 msec
