                         Program Version 5.0.0 -  RELEASE  -
|  1> !BLYP D3BJ RIJCOSX def2-SVPD def2/J TightSCF xyzfile
|  2>
|  3> *xyzfile 0 1 D2.xyz
|  4>
|  5> %MaxCore 64000
|  6>
|  7> %pal nprocs 4
|  8> end
|  9>
| 10> %scf
| 11>   MaxIter 150
| 12> end
| 13>
| 14>
| 15>                          ****END OF INPUT****

CARTESIAN COORDINATES (ANGSTROEM)
---------------------------------
  C      1.647032   -2.345276   -5.020411
  C      0.217628   -1.814022   -4.924389
  C      2.209964   -2.812388   -3.665708
  C     -0.811356   -2.908780   -4.607625
  C     -1.916579   -2.485081   -3.643665
  H     -2.554525   -1.712428   -4.091993
  C     -1.363531   -1.981337   -2.293608
  H     -2.553448   -3.355667   -3.458815
  F     -0.350395   -2.749689   -1.796006
  H      2.308385   -1.588704   -5.457128
  H      1.674286   -3.203478   -5.697392
  C      2.489007   -1.668510   -2.737538
  N      3.596314   -0.947608   -2.952247
  C      1.663936   -1.413685   -1.777806
  H      0.811642   -1.963178   -1.702755
  H      1.845503   -0.635078   -1.158749
  H      4.205351   -1.176003   -3.733825
  H      3.817230   -0.125845   -2.406041
  H     -1.244829   -3.280884   -5.541040
  H     -0.306331   -3.757746   -4.142734
  H     -0.036244   -1.318555   -5.865303
  H      0.175004   -1.035382   -4.158095
  H      3.143106   -3.362803   -3.811524
  H      1.487683   -3.458935   -3.165211
  H     -2.226220   -1.908386   -1.602039
  H     -1.051353   -0.915671   -2.443331

 Total Charge           Charge          ....    0
 Multiplicity           Mult            ....    1
 Number of Electrons    NEL             ....   80
 Basis Dimension        Dim             ....  331

ORBITAL ENERGIES
----------------

  NO   OCC          E(Eh)            E(eV)
   0   2.0000     -24.308434      -661.4661
   1   2.0000     -14.011940      -381.2843
   2   2.0000     -10.001229      -272.1473
   3   2.0000      -9.928026      -270.1553
   4   2.0000      -9.918140      -269.8863
   5   2.0000      -9.915915      -269.8258
   6   2.0000      -9.912690      -269.7380
   7   2.0000      -9.909135      -269.6413
   8   2.0000      -9.907098      -269.5858
   9   2.0000      -9.823456      -267.3098
  10   2.0000      -1.104398       -30.0522
  11   2.0000      -0.813538       -22.1375
  12   2.0000      -0.725076       -19.7303
  13   2.0000      -0.692361       -18.8401
  14   2.0000      -0.645200       -17.5568
  15   2.0000      -0.621569       -16.9138
  16   2.0000      -0.581765       -15.8306
  17   2.0000      -0.534457       -14.5433
  18   2.0000      -0.504674       -13.7329
  19   2.0000      -0.503260       -13.6944
  20   2.0000      -0.467946       -12.7335
  21   2.0000      -0.454648       -12.3716
  22   2.0000      -0.441871       -12.0239
  23   2.0000      -0.431361       -11.7379
  24   2.0000      -0.406791       -11.0693
  25   2.0000      -0.391168       -10.6442
  26   2.0000      -0.388155       -10.5622
  27   2.0000      -0.379676       -10.3315
  28   2.0000      -0.350213        -9.5298
  29   2.0000      -0.335329        -9.1248
  30   2.0000      -0.322081        -8.7643
  31   2.0000      -0.311816        -8.4849
  32   2.0000      -0.303712        -8.2644
  33   2.0000      -0.291761        -7.9392
  34   2.0000      -0.281715        -7.6659
  35   2.0000      -0.278640        -7.5822
  36   2.0000      -0.270081        -7.3493
  37   2.0000      -0.262769        -7.1503
  38   2.0000      -0.248491        -6.7618
  39   2.0000      -0.144549        -3.9334
  40   0.0000       0.001825         0.0497
  41   0.0000       0.007877         0.2143
  42   0.0000       0.015666         0.4263
  43   0.0000       0.028180         0.7668
  44   0.0000       0.036744         0.9999

MULLIKEN ATOMIC CHARGES
-----------------------
   0 C :    0.613086
   1 C :    0.482363
   2 C :    0.693540
   3 C :    0.335940
   4 C :    0.547769
   5 H :   -0.278561
   6 C :    0.846932
   7 H :   -0.144566
   8 F :   -0.465658
   9 H :   -0.203446
  10 H :   -0.264641
  11 C :   -0.092824
  12 N :    0.356387
  13 C :    1.408111
  14 H :   -0.599082
  15 H :   -0.969098
  16 H :   -0.204511
  17 H :   -0.256226
  18 H :   -0.384045
  19 H :   -0.105393
  20 H :   -0.339273
  21 H :   -0.202086
  22 H :   -0.348846
  23 H :   -0.140835
  24 H :   -0.507539
  25 H :    0.222502
Sum of atomic charges:   -0.0000000

LOEWDIN ATOMIC CHARGES
----------------------
   0 C :   -0.010664
   1 C :   -0.006632
   2 C :    0.029670
   3 C :   -0.016838
   4 C :   -0.002187
   5 H :    0.027612
   6 C :    0.137134
   7 H :    0.017094
   8 F :   -0.168923
   9 H :    0.010256
  10 H :    0.014426
  11 C :   -0.243358
  12 N :    0.191255
  13 C :    0.210263
  14 H :   -0.189231
  15 H :   -0.078629
  16 H :   -0.013471
  17 H :   -0.007916
  18 H :    0.017995
  19 H :    0.002071
  20 H :    0.014652
  21 H :   -0.005936
  22 H :    0.015491
  23 H :   -0.002710
  24 H :    0.028689
  25 H :    0.029885

  Mayer bond orders larger than 0.100000
B(  0-C ,  1-C ) :   1.2110 B(  0-C ,  2-C ) :   1.0355 B(  0-C ,  3-C ) :   0.1241
B(  0-C ,  9-H ) :   0.6174 B(  0-C , 10-H ) :   0.6729 B(  0-C , 11-C ) :   0.1559
B(  0-C , 20-H ) :   0.1166 B(  0-C , 21-H ) :   0.2144 B(  0-C , 22-H ) :   0.1448
B(  0-C , 23-H ) :   0.1143 B(  1-C ,  2-C ) :   0.1874 B(  1-C ,  3-C ) :   1.1368
B(  1-C ,  9-H ) :   0.2449 B(  1-C , 10-H ) :   0.1064 B(  1-C , 18-H ) :   0.2457
B(  1-C , 19-H ) :   0.1298 B(  1-C , 20-H ) :   0.6746 B(  1-C , 21-H ) :   0.6808
B(  2-C ,  9-H ) :   0.1331 B(  2-C , 10-H ) :   0.2184 B(  2-C , 11-C ) :   1.1824
B(  2-C , 12-N ) :   0.1855 B(  2-C , 13-C ) :   0.2171 B(  2-C , 14-H ) :  -0.1385
B(  2-C , 21-H ) :  -0.1391 B(  2-C , 22-H ) :   0.6296 B(  2-C , 23-H ) :   0.7492
B(  3-C ,  4-C ) :   1.2355 B(  3-C ,  5-H ) :   0.1609 B(  3-C ,  6-C ) :   0.1045
B(  3-C ,  7-H ) :   0.2760 B(  3-C , 18-H ) :   0.7265 B(  3-C , 19-H ) :   0.7018
B(  3-C , 20-H ) :   0.1521 B(  3-C , 21-H ) :   0.2061 B(  4-C ,  5-H ) :   0.7402
B(  4-C ,  6-C ) :   1.2335 B(  4-C ,  7-H ) :   0.5395 B(  4-C , 19-H ) :   0.1137
B(  4-C , 24-H ) :   0.1900 B(  5-H ,  6-C ) :   0.1437 B(  5-H ,  7-H ) :  -0.1005
B(  6-C ,  7-H ) :   0.1273 B(  6-C ,  8-F ) :   0.6536 B(  6-C , 14-H ) :   0.1188
B(  6-C , 24-H ) :   0.8776 B(  6-C , 25-H ) :   0.7128 B(  8-F , 14-H ) :   0.2947
B(  8-F , 24-H ) :  -0.1191 B(  9-H , 10-H ) :  -0.1377 B( 10-H , 20-H ) :   0.1035
B( 11-C , 12-N ) :   1.1504 B( 11-C , 13-C ) :   1.7118 B( 11-C , 14-H ) :   0.1545
B( 11-C , 15-H ) :   0.2905 B( 11-C , 21-H ) :   0.1346 B( 11-C , 22-H ) :   0.2841
B( 11-C , 23-H ) :   0.2175 B( 12-N , 13-C ) :   0.4076 B( 12-N , 16-H ) :   1.1546
B( 12-N , 17-H ) :   1.2489 B( 13-C , 14-H ) :   0.3109 B( 13-C , 15-H ) :   0.2134
B( 13-C , 23-H ) :  -0.1348 B( 14-H , 15-H ) :  -0.4222 B( 15-H , 21-H ) :  -0.1557
B( 16-H , 17-H ) :  -0.1605 B( 18-H , 19-H ) :  -0.1292 B( 19-H , 23-H ) :   0.1494
B( 20-H , 21-H ) :  -0.1336 B( 20-H , 22-H ) :   0.1042 B( 24-H , 25-H ) :  -0.1382

Dispersion correction           -0.053442103
FINAL SINGLE POINT ENERGY      -468.511987408817

DIPOLE MOMENT
-------------
                                X             Y             Z
Electronic contribution:      0.44354      -1.32120       6.09491
Nuclear contribution   :     -0.73748       1.64619      -6.72655
                        -----------------------------------------
Total Dipole Moment    :     -0.29394       0.32499      -0.63164
                        -----------------------------------------
Magnitude (a.u.)       :      0.76876
Magnitude (Debye)      :      1.95404

Rotational constants in cm-1:     0.063169     0.031711     0.023958
Rotational constants in MHz :  1893.751676   950.657187   718.229932

                             ****ORCA TERMINATED NORMALLY****
TOTAL RUN TIME: 0 days 0 hours 0 minutes 25 seconds 623 msec
