                         Program Version 5.0.0 -  RELEASE  -
|  1> !PBE D3BJ RIJCOSX def2-SVPD def2/J TightSCF
|  2> *xyz -1 1
|  3> C          3.34350        3.35457       -3.59200
|  4> C          2.95263        1.86308       -3.57485
|  5> C          4.12921        0.89839       -3.41895
|  6> H          3.73369       -0.10060       -3.23763
|  7> H          4.71910        0.86256       -4.33901
|  8> C          5.01734        1.31521       -2.22130
|  9> H          2.27894        1.73525       -2.72550
| 10> H          2.37747        1.62579       -4.47587
| 11> O          4.73706        0.85411       -1.12283
| 12> O          5.92815        2.16811       -2.49136
| 13> H          4.00801        3.53975       -4.40994
| 14> H          3.83025        3.60631       -2.67298
| 15> H          2.46347        3.95263       -3.70497
| 16> *
| 17> %MaxCore 64000
| 18>
| 19> %pal nprocs 4
| 20> end
| 21>
| 22> %scf
| 23>   MaxIter 150
| 24> end
| 25>
| 26>
| 27>                          ****END OF INPUT****

CARTESIAN COORDINATES (ANGSTROEM)
---------------------------------
  C      3.343500    3.354570   -3.592000
  C      2.952630    1.863080   -3.574850
  C      4.129210    0.898390   -3.418950
  H      3.733690   -0.100600   -3.237630
  H      4.719100    0.862560   -4.339010
  C      5.017340    1.315210   -2.221300
  H      2.278940    1.735250   -2.725500
  H      2.377470    1.625790   -4.475870
  O      4.737060    0.854110   -1.122830
  O      5.928150    2.168110   -2.491360
  H      4.008010    3.539750   -4.409940
  H      3.830250    3.606310   -2.672980
  H      2.463470    3.952630   -3.704970

 Total Charge           Charge          ....   -1
 Multiplicity           Mult            ....    1
 Number of Electrons    NEL             ....   48
 Basis Dimension        Dim             ....  182

ORBITAL ENERGIES
----------------

  NO   OCC          E(Eh)            E(eV)
   0   2.0000     -18.514717      -503.8111
   1   2.0000     -18.504704      -503.5386
   2   2.0000      -9.775655      -266.0091
   3   2.0000      -9.749411      -265.2950
   4   2.0000      -9.733925      -264.8736
   5   2.0000      -9.720569      -264.5101
   6   2.0000      -0.734475       -19.9861
   7   2.0000      -0.642264       -17.4769
   8   2.0000      -0.554999       -15.1023
   9   2.0000      -0.464302       -12.6343
  10   2.0000      -0.375585       -10.2202
  11   2.0000      -0.275914        -7.5080
  12   2.0000      -0.248820        -6.7707
  13   2.0000      -0.235713        -6.4141
  14   2.0000      -0.203323        -5.5327
  15   2.0000      -0.182660        -4.9704
  16   2.0000      -0.168635        -4.5888
  17   2.0000      -0.157633        -4.2894
  18   2.0000      -0.152518        -4.1502
  19   2.0000      -0.131243        -3.5713
  20   2.0000      -0.127499        -3.4694
  21   2.0000      -0.018636        -0.5071
  22   2.0000      -0.001600        -0.0435
  23   2.0000       0.012718         0.3461
  24   0.0000       0.130921         3.5625
  25   0.0000       0.157196         4.2775
  26   0.0000       0.170944         4.6516
  27   0.0000       0.181372         4.9354
  28   0.0000       0.206449         5.6178

MULLIKEN ATOMIC CHARGES
-----------------------
   0 C :    0.691113
   1 C :   -0.455860
   2 C :    0.155265
   3 H :   -0.018564
   4 H :   -0.018872
   5 C :    0.292762
   6 H :   -0.014287
   7 H :   -0.193272
   8 O :   -0.573750
   9 O :   -0.663692
  10 H :   -0.042675
  11 H :    0.004946
  12 H :   -0.163114
Sum of atomic charges:   -1.0000000

LOEWDIN ATOMIC CHARGES
----------------------
   0 C :    0.109517
   1 C :   -0.089083
   2 C :   -0.006491
   3 H :   -0.004152
   4 H :    0.002438
   5 C :   -0.325886
   6 H :    0.011214
   7 H :   -0.003528
   8 O :   -0.282166
   9 O :   -0.319027
  10 H :   -0.023481
  11 H :   -0.026317
  12 H :   -0.043038

  Mayer bond orders larger than 0.100000
B(  0-C ,  1-C ) :   1.3400 B(  0-C ,  6-H ) :   0.1053 B(  0-C ,  7-H ) :   0.1125
B(  0-C , 10-H ) :   0.7781 B(  0-C , 11-H ) :   0.7897 B(  0-C , 12-H ) :   0.7773
B(  1-C ,  2-C ) :   1.2416 B(  1-C ,  3-H ) :   0.1524 B(  1-C ,  4-H ) :   0.1497
B(  1-C ,  6-H ) :   0.8932 B(  1-C ,  7-H ) :   0.9772 B(  1-C , 10-H ) :   0.2155
B(  1-C , 11-H ) :   0.2323 B(  1-C , 12-H ) :   0.2288 B(  2-C ,  3-H ) :   0.8515
B(  2-C ,  4-H ) :   0.8889 B(  2-C ,  5-C ) :   1.0377 B(  2-C ,  6-H ) :   0.1280
B(  3-H ,  5-C ) :   0.1412 B(  4-H ,  5-C ) :   0.1012 B(  5-C ,  8-O ) :   1.5041
B(  5-C ,  9-O ) :   1.4657

Dispersion correction           -0.009984904
FINAL SINGLE POINT ENERGY      -306.589383526975

DIPOLE MOMENT
-------------
                                X             Y             Z
Electronic contribution:      4.99249      -2.54042       4.52583
Nuclear contribution   :     -6.63819       2.74067      -6.05656
                        -----------------------------------------
Total Dipole Moment    :     -1.64571       0.20025      -1.53073
                        -----------------------------------------
Magnitude (a.u.)       :      2.25646
Magnitude (Debye)      :      5.73545

Rotational constants in cm-1:     0.190880     0.089683     0.076466
Rotational constants in MHz :  5722.446013  2688.617255  2292.390699

                             ****ORCA TERMINATED NORMALLY****
TOTAL RUN TIME: 0 days 0 hours 0 minutes 6 seconds 262 msec
