                         Program Version 5.0.0 -  RELEASE  -
|  1> !PBE D3BJ RIJCOSX def2-SVPD def2/J TightSCF
|  2> *xyz 1 1
|  3> C          3.34350        3.35457       -3.59200
|  4> C          2.95263        1.86308       -3.57485
|  5> C          4.12921        0.89839       -3.41895
|  6> C          4.25587        3.70385       -4.72605
|  7> N          3.73403        4.29378       -5.80077
|  8> N          5.51504        3.40725       -4.63718
|  9> H          6.14919        3.60120       -5.39905
| 10> H          5.81358        2.89950       -3.80879
| 11> H          2.74138        4.51311       -5.82470
| 12> H          4.28755        4.52126       -6.61434
| 13> H          2.27894        1.73525       -2.72550
| 14> H          2.37747        1.62579       -4.47587
| 15> H          3.86125        3.59725       -2.66298
| 16> H          2.44649        3.97346       -3.65656
| 17> H          4.79753        1.01430       -4.24649
| 18> H          3.76482       -0.10731       -3.39293
| 19> H          4.64840        1.11330       -2.50837
| 20> *
| 21> %MaxCore 64000
| 22>
| 23> %pal nprocs 4
| 24> end
| 25>
| 26> %scf
| 27>   MaxIter 150
| 28> end
| 29>
| 30>
| 31>                          ****END OF INPUT****

CARTESIAN COORDINATES (ANGSTROEM)
---------------------------------
  C      3.343500    3.354570   -3.592000
  C      2.952630    1.863080   -3.574850
  C      4.129210    0.898390   -3.418950
  C      4.255870    3.703850   -4.726050
  N      3.734030    4.293780   -5.800770
  N      5.515040    3.407250   -4.637180
  H      6.149190    3.601200   -5.399050
  H      5.813580    2.899500   -3.808790
  H      2.741380    4.513110   -5.824700
  H      4.287550    4.521260   -6.614340
  H      2.278940    1.735250   -2.725500
  H      2.377470    1.625790   -4.475870
  H      3.861250    3.597250   -2.662980
  H      2.446490    3.973460   -3.656560
  H      4.797530    1.014300   -4.246490
  H      3.764820   -0.107310   -3.392930
  H      4.648400    1.113300   -2.508370

 Total Charge           Charge          ....    1
 Multiplicity           Mult            ....    1
 Number of Electrons    NEL             ....   48
 Basis Dimension        Dim             ....  208

ORBITAL ENERGIES
----------------

  NO   OCC          E(Eh)            E(eV)
   0   2.0000     -14.243798      -387.5934
   1   2.0000     -14.240440      -387.5021
   2   2.0000     -10.203964      -277.6640
   3   2.0000     -10.089591      -274.5517
   4   2.0000     -10.059741      -273.7395
   5   2.0000     -10.029048      -272.9043
   6   2.0000      -1.110978       -30.2312
   7   2.0000      -1.022269       -27.8173
   8   2.0000      -0.895760       -24.3749
   9   2.0000      -0.818676       -22.2773
  10   2.0000      -0.769263       -20.9327
  11   2.0000      -0.731210       -19.8972
  12   2.0000      -0.718137       -19.5415
  13   2.0000      -0.673637       -18.3306
  14   2.0000      -0.652094       -17.7444
  15   2.0000      -0.604074       -16.4377
  16   2.0000      -0.574102       -15.6221
  17   2.0000      -0.562024       -15.2934
  18   2.0000      -0.529448       -14.4070
  19   2.0000      -0.516291       -14.0490
  20   2.0000      -0.470121       -12.7927
  21   2.0000      -0.462178       -12.5765
  22   2.0000      -0.457765       -12.4564
  23   2.0000      -0.445485       -12.1223
  24   0.0000      -0.240675        -6.5491
  25   0.0000      -0.177969        -4.8428
  26   0.0000      -0.136257        -3.7077
  27   0.0000      -0.134314        -3.6549
  28   0.0000      -0.111689        -3.0392

MULLIKEN ATOMIC CHARGES
-----------------------
   0 C :    0.059662
   1 C :   -0.263893
   2 C :    0.770495
   3 C :    0.856567
   4 N :   -0.007677
   5 N :    0.108280
   6 H :   -0.157088
   7 H :    0.074368
   8 H :    0.027715
   9 H :   -0.138053
  10 H :   -0.022336
  11 H :   -0.071361
  12 H :    0.051077
  13 H :   -0.061820
  14 H :   -0.058770
  15 H :   -0.170764
  16 H :    0.003598
Sum of atomic charges:    1.0000000

LOEWDIN ATOMIC CHARGES
----------------------
   0 C :    0.043467
   1 C :   -0.035065
   2 C :    0.136654
   3 C :   -0.058967
   4 N :    0.294469
   5 N :    0.301306
   6 H :    0.053896
   7 H :    0.043033
   8 H :    0.049694
   9 H :    0.041040
  10 H :    0.041620
  11 H :    0.035244
  12 H :    0.048285
  13 H :    0.039635
  14 H :   -0.033265
  15 H :    0.003534
  16 H :   -0.004578

  Mayer bond orders larger than 0.100000
B(  0-C ,  1-C ) :   1.2129 B(  0-C ,  3-C ) :   1.0509 B(  0-C ,  4-N ) :   0.1316
B(  0-C ,  5-N ) :   0.1396 B(  0-C , 10-H ) :   0.1223 B(  0-C , 11-H ) :   0.1057
B(  0-C , 12-H ) :   0.8188 B(  0-C , 13-H ) :   0.8933 B(  1-C ,  2-C ) :   1.3458
B(  1-C , 10-H ) :   0.8777 B(  1-C , 11-H ) :   0.9698 B(  1-C , 12-H ) :   0.1269
B(  1-C , 13-H ) :   0.1128 B(  1-C , 14-H ) :   0.2079 B(  1-C , 15-H ) :   0.2205
B(  1-C , 16-H ) :   0.2144 B(  2-C , 10-H ) :   0.1049 B(  2-C , 14-H ) :   0.7982
B(  2-C , 15-H ) :   0.8072 B(  2-C , 16-H ) :   0.7663 B(  3-C ,  4-N ) :   0.9814
B(  3-C ,  5-N ) :   1.1149 B(  3-C ,  6-H ) :  -0.2112 B(  3-C ,  8-H ) :  -0.1045
B(  3-C ,  9-H ) :  -0.1874 B(  4-N ,  5-N ) :   0.2043 B(  4-N ,  8-H ) :   1.0994
B(  4-N ,  9-H ) :   1.3094 B(  5-N ,  6-H ) :   1.3692 B(  5-N ,  7-H ) :   1.0024
B(  6-H ,  7-H ) :  -0.2021 B(  8-H ,  9-H ) :  -0.1842

Dispersion correction           -0.013858603
FINAL SINGLE POINT ENERGY      -267.828321172371

DIPOLE MOMENT
-------------
                                X             Y             Z
Electronic contribution:      1.42114       4.40762      -2.93941
Nuclear contribution   :     -0.87169      -3.40560       1.97790
                        -----------------------------------------
Total Dipole Moment    :      0.54945       1.00202      -0.96150
                        -----------------------------------------
Magnitude (a.u.)       :      1.49346
Magnitude (Debye)      :      3.79608

Rotational constants in cm-1:     0.188632     0.081113     0.066356
Rotational constants in MHz :  5655.057814  2431.708101  1989.304146

                             ****ORCA TERMINATED NORMALLY****
TOTAL RUN TIME: 0 days 0 hours 0 minutes 8 seconds 214 msec
