                         Program Version 5.0.0 -  RELEASE  -
|  1> !PBE D3BJ RIJCOSX def2-SVPD def2/J TightSCF
|  2> *xyz 0 1
|  3> C          3.34350        3.35457       -3.59200
|  4> C          2.95263        1.86308       -3.57485
|  5> C          4.12921        0.89839       -3.41895
|  6> H          3.73369       -0.10060       -3.23763
|  7> H          4.71910        0.86256       -4.33901
|  8> C          5.01734        1.31521       -2.22130
|  9> H          2.27894        1.73525       -2.72550
| 10> H          2.37747        1.62579       -4.47587
| 11> F          4.73706        0.85411       -1.12283
| 12> O          5.92815        2.16811       -2.49136
| 13> H          4.00801        3.53975       -4.40994
| 14> H          3.83025        3.60631       -2.67298
| 15> H          2.46347        3.95263       -3.70497
| 16> *
| 17> %MaxCore 64000
| 18>
| 19> %pal nprocs 4
| 20> end
| 21>
| 22> %scf
| 23>   MaxIter 150
| 24> end
| 25>
| 26>
| 27>                          ****END OF INPUT****

CARTESIAN COORDINATES (ANGSTROEM)
---------------------------------
  C      3.343500    3.354570   -3.592000
  C      2.952630    1.863080   -3.574850
  C      4.129210    0.898390   -3.418950
  H      3.733690   -0.100600   -3.237630
  H      4.719100    0.862560   -4.339010
  C      5.017340    1.315210   -2.221300
  H      2.278940    1.735250   -2.725500
  H      2.377470    1.625790   -4.475870
  F      4.737060    0.854110   -1.122830
  O      5.928150    2.168110   -2.491360
  H      4.008010    3.539750   -4.409940
  H      3.830250    3.606310   -2.672980
  H      2.463470    3.952630   -3.704970

 Total Charge           Charge          ....    0
 Multiplicity           Mult            ....    1
 Number of Electrons    NEL             ....   48
 Basis Dimension        Dim             ....  182

ORBITAL ENERGIES
----------------

  NO   OCC          E(Eh)            E(eV)
   0   2.0000     -24.358664      -662.8329
   1   2.0000     -18.769548      -510.7454
   2   2.0000     -10.069402      -274.0024
   3   2.0000      -9.924580      -270.0616
   4   2.0000      -9.915103      -269.8037
   5   2.0000      -9.884483      -268.9705
   6   2.0000      -1.229715       -33.4623
   7   2.0000      -0.927347       -25.2344
   8   2.0000      -0.734199       -19.9786
   9   2.0000      -0.652791       -17.7634
  10   2.0000      -0.606643       -16.5076
  11   2.0000      -0.550147       -14.9703
  12   2.0000      -0.507293       -13.8042
  13   2.0000      -0.486522       -13.2389
  14   2.0000      -0.445987       -12.1359
  15   2.0000      -0.419867       -11.4252
  16   2.0000      -0.406989       -11.0747
  17   2.0000      -0.369812       -10.0631
  18   2.0000      -0.347845        -9.4654
  19   2.0000      -0.325007        -8.8439
  20   2.0000      -0.318943        -8.6789
  21   2.0000      -0.311050        -8.4641
  22   2.0000      -0.298893        -8.1333
  23   2.0000      -0.238577        -6.4920
  24   0.0000      -0.072400        -1.9701
  25   0.0000      -0.004823        -0.1312
  26   0.0000       0.027345         0.7441
  27   0.0000       0.032048         0.8721
  28   0.0000       0.038364         1.0439

MULLIKEN ATOMIC CHARGES
-----------------------
   0 C :    0.722263
   1 C :   -0.410930
   2 C :    0.137798
   3 H :    0.000743
   4 H :   -0.000442
   5 C :    0.705232
   6 H :   -0.022297
   7 H :   -0.158379
   8 F :   -0.299525
   9 O :   -0.486792
  10 H :   -0.035424
  11 H :   -0.008267
  12 H :   -0.143980
Sum of atomic charges:    0.0000000

LOEWDIN ATOMIC CHARGES
----------------------
   0 C :    0.131249
   1 C :   -0.064695
   2 C :    0.039590
   3 H :    0.020045
   4 H :    0.037278
   5 C :   -0.041273
   6 H :    0.021738
   7 H :    0.025544
   8 F :    0.013475
   9 O :   -0.130735
  10 H :   -0.009108
  11 H :   -0.025019
  12 H :   -0.018089

  Mayer bond orders larger than 0.100000
B(  0-C ,  1-C ) :   1.3584 B(  0-C ,  7-H ) :   0.1035 B(  0-C , 10-H ) :   0.7814
B(  0-C , 11-H ) :   0.7982 B(  0-C , 12-H ) :   0.7773 B(  1-C ,  2-C ) :   1.2351
B(  1-C ,  3-H ) :   0.1474 B(  1-C ,  4-H ) :   0.1478 B(  1-C ,  6-H ) :   0.8923
B(  1-C ,  7-H ) :   0.9665 B(  1-C , 10-H ) :   0.2059 B(  1-C , 11-H ) :   0.2159
B(  1-C , 12-H ) :   0.2161 B(  2-C ,  3-H ) :   0.8427 B(  2-C ,  4-H ) :   0.8832
B(  2-C ,  5-C ) :   1.0472 B(  2-C ,  6-H ) :   0.1108 B(  5-C ,  8-F ) :   0.7659
B(  5-C ,  9-O ) :   1.7558 B(  8-F ,  9-O ) :   0.1179

Dispersion correction           -0.009599228
FINAL SINGLE POINT ENERGY      -331.095094202854

DIPOLE MOMENT
-------------
                                X             Y             Z
Electronic contribution:      6.10142      -4.33913       7.59606
Nuclear contribution   :     -7.06456       3.75953      -7.86734
                        -----------------------------------------
Total Dipole Moment    :     -0.96313      -0.57959      -0.27128
                        -----------------------------------------
Magnitude (a.u.)       :      1.15635
Magnitude (Debye)      :      2.93921

Rotational constants in cm-1:     0.185871     0.085512     0.073500
Rotational constants in MHz :  5572.269993  2563.593529  2203.466497

                             ****ORCA TERMINATED NORMALLY****
TOTAL RUN TIME: 0 days 0 hours 0 minutes 6 seconds 232 msec
