                         Program Version 5.0.0 -  RELEASE  -
|  1> !PBE D3BJ RIJCOSX def2-SVPD def2/J TightSCF
|  2> *xyz 0 1
|  3> C          3.34350        3.35457       -3.59200
|  4> C          2.95263        1.86308       -3.57485
|  5> C          4.12921        0.89839       -3.41895
|  6> C          4.25587        3.70385       -4.72605
|  7> C          3.73403        4.29378       -5.80077
|  8> N          5.51504        3.40725       -4.63718
|  9> H          6.14919        3.60120       -5.39905
| 10> H          5.81358        2.89950       -3.80879
| 11> H          2.74138        4.51311       -5.82470
| 12> H          4.28755        4.52126       -6.61434
| 13> H          2.27894        1.73525       -2.72550
| 14> H          2.37747        1.62579       -4.47587
| 15> H          3.86125        3.59725       -2.66298
| 16> H          2.44649        3.97346       -3.65656
| 17> H          4.79753        1.01430       -4.24649
| 18> H          3.76482       -0.10731       -3.39293
| 19> H          4.64840        1.11330       -2.50837
| 20> *
| 21> %MaxCore 64000
| 22>
| 23> %pal nprocs 4
| 24> end
| 25>
| 26> %scf
| 27>   MaxIter 150
| 28> end
| 29>
| 30>
| 31>                          ****END OF INPUT****

CARTESIAN COORDINATES (ANGSTROEM)
---------------------------------
  C      3.343500    3.354570   -3.592000
  C      2.952630    1.863080   -3.574850
  C      4.129210    0.898390   -3.418950
  C      4.255870    3.703850   -4.726050
  C      3.734030    4.293780   -5.800770
  N      5.515040    3.407250   -4.637180
  H      6.149190    3.601200   -5.399050
  H      5.813580    2.899500   -3.808790
  H      2.741380    4.513110   -5.824700
  H      4.287550    4.521260   -6.614340
  H      2.278940    1.735250   -2.725500
  H      2.377470    1.625790   -4.475870
  H      3.861250    3.597250   -2.662980
  H      2.446490    3.973460   -3.656560
  H      4.797530    1.014300   -4.246490
  H      3.764820   -0.107310   -3.392930
  H      4.648400    1.113300   -2.508370

 Total Charge           Charge          ....    0
 Multiplicity           Mult            ....    1
 Number of Electrons    NEL             ....   48
 Basis Dimension        Dim             ....  208

ORBITAL ENERGIES
----------------

  NO   OCC          E(Eh)            E(eV)
   0   2.0000     -14.004877      -381.0921
   1   2.0000      -9.910757      -269.6854
   2   2.0000      -9.894350      -269.2389
   3   2.0000      -9.893802      -269.2240
   4   2.0000      -9.882182      -268.9079
   5   2.0000      -9.827710      -267.4256
   6   2.0000      -0.850734       -23.1496
   7   2.0000      -0.714689       -19.4477
   8   2.0000      -0.659969       -17.9587
   9   2.0000      -0.608157       -16.5488
  10   2.0000      -0.545033       -14.8311
  11   2.0000      -0.508397       -13.8342
  12   2.0000      -0.476799       -12.9744
  13   2.0000      -0.433914       -11.8074
  14   2.0000      -0.403002       -10.9662
  15   2.0000      -0.386324       -10.5124
  16   2.0000      -0.366660        -9.9773
  17   2.0000      -0.345027        -9.3887
  18   2.0000      -0.329568        -8.9680
  19   2.0000      -0.317734        -8.6460
  20   2.0000      -0.300139        -8.1672
  21   2.0000      -0.285927        -7.7805
  22   2.0000      -0.281624        -7.6634
  23   2.0000      -0.156932        -4.2703
  24   0.0000      -0.004432        -0.1206
  25   0.0000       0.013727         0.3735
  26   0.0000       0.028259         0.7690
  27   0.0000       0.031024         0.8442
  28   0.0000       0.046502         1.2654

MULLIKEN ATOMIC CHARGES
-----------------------
   0 C :    0.272313
   1 C :   -0.299353
   2 C :    0.744349
   3 C :   -0.087672
   4 C :    0.460599
   5 N :    0.262699
   6 H :   -0.218059
   7 H :   -0.079228
   8 H :   -0.125767
   9 H :   -0.508377
  10 H :   -0.047894
  11 H :   -0.106216
  12 H :   -0.046142
  13 H :    0.020624
  14 H :   -0.045680
  15 H :   -0.190394
  16 H :   -0.005801
Sum of atomic charges:   -0.0000000

LOEWDIN ATOMIC CHARGES
----------------------
   0 C :    0.002735
   1 C :   -0.059616
   2 C :    0.114530
   3 C :   -0.272264
   4 C :    0.180625
   5 N :    0.188954
   6 H :    0.014650
   7 H :   -0.004394
   8 H :   -0.084863
   9 H :   -0.091853
  10 H :    0.016185
  11 H :    0.024911
  12 H :    0.020865
  13 H :    0.023590
  14 H :   -0.036341
  15 H :   -0.019383
  16 H :   -0.018332

  Mayer bond orders larger than 0.100000
B(  0-C ,  1-C ) :   1.1861 B(  0-C ,  3-C ) :   1.1391 B(  0-C ,  4-C ) :   0.1762
B(  0-C ,  5-N ) :   0.1476 B(  0-C , 10-H ) :   0.1105 B(  0-C , 11-H ) :   0.1313
B(  0-C , 12-H ) :   0.7248 B(  0-C , 13-H ) :   0.8404 B(  1-C ,  2-C ) :   1.3274
B(  1-C , 10-H ) :   0.8771 B(  1-C , 11-H ) :   0.9840 B(  1-C , 12-H ) :   0.1447
B(  1-C , 13-H ) :   0.1228 B(  1-C , 14-H ) :   0.2151 B(  1-C , 15-H ) :   0.2301
B(  1-C , 16-H ) :   0.2231 B(  2-C , 10-H ) :   0.1046 B(  2-C , 14-H ) :   0.8176
B(  2-C , 15-H ) :   0.7882 B(  2-C , 16-H ) :   0.7610 B(  3-C ,  4-C ) :   1.5685
B(  3-C ,  5-N ) :   1.1726 B(  3-C ,  6-H ) :  -0.1195 B(  3-C ,  9-H ) :   0.1854
B(  3-C , 12-H ) :   0.1770 B(  3-C , 13-H ) :   0.1498 B(  4-C ,  5-N ) :   0.3213
B(  4-C ,  8-H ) :   0.9369 B(  4-C ,  9-H ) :   0.6587 B(  5-N ,  6-H ) :   1.3228
B(  5-N ,  7-H ) :   0.9960 B(  6-H ,  7-H ) :  -0.1764

Dispersion correction           -0.014257921
FINAL SINGLE POINT ENERGY      -251.371669910249

DIPOLE MOMENT
-------------
                                X             Y             Z
Electronic contribution:      1.45411       2.66588      -1.23127
Nuclear contribution   :     -0.93682      -3.08083       1.62582
                        -----------------------------------------
Total Dipole Moment    :      0.51729      -0.41495       0.39455
                        -----------------------------------------
Magnitude (a.u.)       :      0.77165
Magnitude (Debye)      :      1.96137

Rotational constants in cm-1:     0.191400     0.084268     0.068511
Rotational constants in MHz :  5738.038424  2526.291061  2053.912421

                             ****ORCA TERMINATED NORMALLY****
TOTAL RUN TIME: 0 days 0 hours 0 minutes 9 seconds 21 msec
