                         Program Version 5.0.0 -  RELEASE  -
|  1> !PBE D3BJ RIJCOSX def2-SVPD def2/J TightSCF
|  2> *xyz 0 1
|  3> C          3.34350        3.35457       -3.59200
|  4> C          2.95263        1.86308       -3.57485
|  5> C          4.12921        0.89839       -3.41895
|  6> H          3.73369       -0.10060       -3.23763
|  7> H          4.71910        0.86256       -4.33901
|  8> C          5.01734        1.31521       -2.22130
|  9> H          2.27894        1.73525       -2.72550
| 10> H          2.37747        1.62579       -4.47587
| 11> O          4.73706        0.85411       -1.12283
| 12> F          5.92815        2.16811       -2.49136
| 13> H          4.00801        3.53975       -4.40994
| 14> H          3.83025        3.60631       -2.67298
| 15> H          2.46347        3.95263       -3.70497
| 16> *
| 17> %MaxCore 64000
| 18>
| 19> %pal nprocs 4
| 20> end
| 21>
| 22> %scf
| 23>   MaxIter 150
| 24> end
| 25>
| 26>
| 27>                          ****END OF INPUT****

CARTESIAN COORDINATES (ANGSTROEM)
---------------------------------
  C      3.343500    3.354570   -3.592000
  C      2.952630    1.863080   -3.574850
  C      4.129210    0.898390   -3.418950
  H      3.733690   -0.100600   -3.237630
  H      4.719100    0.862560   -4.339010
  C      5.017340    1.315210   -2.221300
  H      2.278940    1.735250   -2.725500
  H      2.377470    1.625790   -4.475870
  O      4.737060    0.854110   -1.122830
  F      5.928150    2.168110   -2.491360
  H      4.008010    3.539750   -4.409940
  H      3.830250    3.606310   -2.672980
  H      2.463470    3.952630   -3.704970

 Total Charge           Charge          ....    0
 Multiplicity           Mult            ....    1
 Number of Electrons    NEL             ....   48
 Basis Dimension        Dim             ....  182

ORBITAL ENERGIES
----------------

  NO   OCC          E(Eh)            E(eV)
   0   2.0000     -24.337650      -662.2611
   1   2.0000     -18.778501      -510.9890
   2   2.0000     -10.065313      -273.8911
   3   2.0000      -9.924093      -270.0483
   4   2.0000      -9.915547      -269.8158
   5   2.0000      -9.892929      -269.2003
   6   2.0000      -1.189599       -32.3706
   7   2.0000      -0.958706       -26.0877
   8   2.0000      -0.736215       -20.0334
   9   2.0000      -0.652491       -17.7552
  10   2.0000      -0.591895       -16.1063
  11   2.0000      -0.548543       -14.9266
  12   2.0000      -0.488029       -13.2799
  13   2.0000      -0.468759       -12.7556
  14   2.0000      -0.449920       -12.2430
  15   2.0000      -0.414449       -11.2777
  16   2.0000      -0.406505       -11.0616
  17   2.0000      -0.374463       -10.1897
  18   2.0000      -0.359556        -9.7840
  19   2.0000      -0.343166        -9.3380
  20   2.0000      -0.317499        -8.6396
  21   2.0000      -0.314664        -8.5624
  22   2.0000      -0.306965        -8.3530
  23   2.0000      -0.250846        -6.8259
  24   0.0000      -0.067102        -1.8259
  25   0.0000      -0.002908        -0.0791
  26   0.0000       0.026533         0.7220
  27   0.0000       0.029456         0.8015
  28   0.0000       0.040851         1.1116

MULLIKEN ATOMIC CHARGES
-----------------------
   0 C :    0.704800
   1 C :   -0.379579
   2 C :    0.125852
   3 H :    0.003316
   4 H :    0.004620
   5 C :    0.703747
   6 H :   -0.004561
   7 H :   -0.161640
   8 O :   -0.426624
   9 F :   -0.355534
  10 H :   -0.046676
  11 H :   -0.031278
  12 H :   -0.136442
Sum of atomic charges:    0.0000000

LOEWDIN ATOMIC CHARGES
----------------------
   0 C :    0.129393
   1 C :   -0.062297
   2 C :    0.041061
   3 H :    0.030985
   4 H :    0.027323
   5 C :   -0.043645
   6 H :    0.027885
   7 H :    0.025206
   8 O :   -0.093897
   9 F :   -0.029817
  10 H :   -0.013117
  11 H :   -0.022988
  12 H :   -0.016091

  Mayer bond orders larger than 0.100000
B(  0-C ,  1-C ) :   1.3643 B(  0-C ,  7-H ) :   0.1064 B(  0-C , 10-H ) :   0.7780
B(  0-C , 11-H ) :   0.8034 B(  0-C , 12-H ) :   0.7817 B(  1-C ,  2-C ) :   1.2487
B(  1-C ,  3-H ) :   0.1425 B(  1-C ,  4-H ) :   0.1460 B(  1-C ,  6-H ) :   0.8930
B(  1-C ,  7-H ) :   0.9687 B(  1-C , 10-H ) :   0.2014 B(  1-C , 11-H ) :   0.2122
B(  1-C , 12-H ) :   0.2144 B(  2-C ,  3-H ) :   0.8472 B(  2-C ,  4-H ) :   0.8811
B(  2-C ,  5-C ) :   1.0287 B(  2-C ,  6-H ) :   0.1169 B(  3-H ,  5-C ) :   0.1153
B(  5-C ,  8-O ) :   1.8099 B(  5-C ,  9-F ) :   0.6970 B(  8-O ,  9-F ) :   0.1285

Dispersion correction           -0.009553252
FINAL SINGLE POINT ENERGY      -331.110844010594

DIPOLE MOMENT
-------------
                                X             Y             Z
Electronic contribution:      8.06812      -2.12385       5.27517
Nuclear contribution   :     -8.40998       2.27527      -6.32148
                        -----------------------------------------
Total Dipole Moment    :     -0.34186       0.15142      -1.04631
                        -----------------------------------------
Magnitude (a.u.)       :      1.11111
Magnitude (Debye)      :      2.82422

Rotational constants in cm-1:     0.181105     0.088112     0.073966
Rotational constants in MHz :  5429.384816  2641.525058  2217.445966

                             ****ORCA TERMINATED NORMALLY****
TOTAL RUN TIME: 0 days 0 hours 0 minutes 6 seconds 499 msec
