                         Program Version 5.0.0 -  RELEASE  -
|  1> !PBE D3BJ RIJCOSX def2-SVPD def2/J TightSCF
|  2> *xyz 0 1
|  3> C          3.34350        3.35457       -3.59200
|  4> C          2.95263        1.86308       -3.57485
|  5> C          4.12921        0.89839       -3.41895
|  6> C          4.25587        3.70385       -4.72605
|  7> N          3.73403        4.29378       -5.80077
|  8> C          5.51504        3.40725       -4.63718
|  9> H          6.14919        3.60120       -5.39905
| 10> H          5.81358        2.89950       -3.80879
| 11> H          2.74138        4.51311       -5.82470
| 12> H          4.28755        4.52126       -6.61434
| 13> H          2.27894        1.73525       -2.72550
| 14> H          2.37747        1.62579       -4.47587
| 15> H          3.86125        3.59725       -2.66298
| 16> H          2.44649        3.97346       -3.65656
| 17> H          4.79753        1.01430       -4.24649
| 18> H          3.76482       -0.10731       -3.39293
| 19> H          4.64840        1.11330       -2.50837
| 20> *
| 21> %MaxCore 64000
| 22>
| 23> %pal nprocs 4
| 24> end
| 25>
| 26> %scf
| 27>   MaxIter 150
| 28> end
| 29>
| 30>
| 31>                          ****END OF INPUT****

CARTESIAN COORDINATES (ANGSTROEM)
---------------------------------
  C      3.343500    3.354570   -3.592000
  C      2.952630    1.863080   -3.574850
  C      4.129210    0.898390   -3.418950
  C      4.255870    3.703850   -4.726050
  N      3.734030    4.293780   -5.800770
  C      5.515040    3.407250   -4.637180
  H      6.149190    3.601200   -5.399050
  H      5.813580    2.899500   -3.808790
  H      2.741380    4.513110   -5.824700
  H      4.287550    4.521260   -6.614340
  H      2.278940    1.735250   -2.725500
  H      2.377470    1.625790   -4.475870
  H      3.861250    3.597250   -2.662980
  H      2.446490    3.973460   -3.656560
  H      4.797530    1.014300   -4.246490
  H      3.764820   -0.107310   -3.392930
  H      4.648400    1.113300   -2.508370

 Total Charge           Charge          ....    0
 Multiplicity           Mult            ....    1
 Number of Electrons    NEL             ....   48
 Basis Dimension        Dim             ....  208

ORBITAL ENERGIES
----------------

  NO   OCC          E(Eh)            E(eV)
   0   2.0000     -14.001982      -381.0133
   1   2.0000      -9.908590      -269.6264
   2   2.0000      -9.893391      -269.2129
   3   2.0000      -9.892320      -269.1837
   4   2.0000      -9.870356      -268.5860
   5   2.0000      -9.826524      -267.3933
   6   2.0000      -0.836609       -22.7653
   7   2.0000      -0.715301       -19.4643
   8   2.0000      -0.655923       -17.8486
   9   2.0000      -0.614103       -16.7106
  10   2.0000      -0.534061       -14.5325
  11   2.0000      -0.507002       -13.7962
  12   2.0000      -0.468782       -12.7562
  13   2.0000      -0.428740       -11.6666
  14   2.0000      -0.403304       -10.9745
  15   2.0000      -0.387354       -10.5405
  16   2.0000      -0.349179        -9.5016
  17   2.0000      -0.346983        -9.4419
  18   2.0000      -0.330475        -8.9927
  19   2.0000      -0.315960        -8.5977
  20   2.0000      -0.293806        -7.9949
  21   2.0000      -0.282029        -7.6744
  22   2.0000      -0.277769        -7.5585
  23   2.0000      -0.161282        -4.3887
  24   0.0000      -0.003806        -0.1036
  25   0.0000       0.013986         0.3806
  26   0.0000       0.027802         0.7565
  27   0.0000       0.034113         0.9283
  28   0.0000       0.049167         1.3379

MULLIKEN ATOMIC CHARGES
-----------------------
   0 C :    0.246526
   1 C :   -0.284940
   2 C :    0.697131
   3 C :    0.098180
   4 N :    0.082229
   5 C :    0.424073
   6 H :   -0.646837
   7 H :    0.114644
   8 H :   -0.111167
   9 H :   -0.189804
  10 H :   -0.053426
  11 H :   -0.102206
  12 H :    0.086115
  13 H :   -0.148295
  14 H :    0.005197
  15 H :   -0.232004
  16 H :    0.014583
Sum of atomic charges:    0.0000000

LOEWDIN ATOMIC CHARGES
----------------------
   0 C :    0.002563
   1 C :   -0.061286
   2 C :    0.117549
   3 C :   -0.257356
   4 N :    0.184890
   5 C :    0.167310
   6 H :   -0.078115
   7 H :   -0.076444
   8 H :   -0.006050
   9 H :    0.000047
  10 H :    0.015875
  11 H :    0.020841
  12 H :    0.028304
  13 H :    0.012682
  14 H :   -0.035357
  15 H :   -0.021566
  16 H :   -0.013885

  Mayer bond orders larger than 0.100000
B(  0-C ,  1-C ) :   1.2036 B(  0-C ,  3-C ) :   1.0093 B(  0-C ,  4-N ) :   0.1522
B(  0-C ,  5-C ) :   0.2345 B(  0-C , 10-H ) :   0.1333 B(  0-C , 11-H ) :   0.1253
B(  0-C , 12-H ) :   0.7759 B(  0-C , 13-H ) :   0.8315 B(  1-C ,  2-C ) :   1.3438
B(  1-C , 10-H ) :   0.8459 B(  1-C , 11-H ) :   0.9617 B(  1-C , 12-H ) :   0.1448
B(  1-C , 13-H ) :   0.1344 B(  1-C , 14-H ) :   0.2131 B(  1-C , 15-H ) :   0.2384
B(  1-C , 16-H ) :   0.2164 B(  2-C , 10-H ) :   0.1118 B(  2-C , 14-H ) :   0.8047
B(  2-C , 15-H ) :   0.8196 B(  2-C , 16-H ) :   0.7637 B(  3-C ,  4-N ) :   1.0930
B(  3-C ,  5-C ) :   1.7415 B(  3-C ,  6-H ) :   0.2282 B(  3-C ,  7-H ) :   0.2284
B(  3-C ,  9-H ) :  -0.1119 B(  3-C , 13-H ) :   0.1307 B(  4-N ,  5-C ) :   0.2891
B(  4-N ,  8-H ) :   1.1340 B(  4-N ,  9-H ) :   1.2916 B(  5-C ,  6-H ) :   0.7666
B(  5-C ,  7-H ) :   0.6437 B(  6-H ,  7-H ) :  -0.1609 B(  8-H ,  9-H ) :  -0.1660

Dispersion correction           -0.014311284
FINAL SINGLE POINT ENERGY      -251.370862944273

DIPOLE MOMENT
-------------
                                X             Y             Z
Electronic contribution:     -0.07319       3.49010      -2.25514
Nuclear contribution   :     -0.51555      -3.29052       1.90104
                        -----------------------------------------
Total Dipole Moment    :     -0.58874       0.19958      -0.35410
                        -----------------------------------------
Magnitude (a.u.)       :      0.71543
Magnitude (Debye)      :      1.81847

Rotational constants in cm-1:     0.197086     0.081749     0.067746
Rotational constants in MHz :  5908.486274  2450.769911  2030.963952

                             ****ORCA TERMINATED NORMALLY****
TOTAL RUN TIME: 0 days 0 hours 0 minutes 8 seconds 633 msec
