                         Program Version 5.0.0 -  RELEASE  -
|  1> !PBE D3BJ RIJCOSX def2-SVPD def2/J TightSCF xyzfile
|  2>
|  3> *xyzfile 0 1 D1.xyz
|  4>
|  5> %MaxCore 64000
|  6>
|  7> %pal nprocs 4
|  8> end
|  9>
| 10> %scf
| 11>   MaxIter 150
| 12> end
| 13>
| 14>
| 15>                          ****END OF INPUT****

CARTESIAN COORDINATES (ANGSTROEM)
---------------------------------
  C      3.343500    3.354571   -3.591998
  C      2.952633    1.863077   -3.574849
  C      4.129209    0.898394   -3.418950
  H      3.733687   -0.100605   -3.237633
  H      4.719095    0.862556   -4.339005
  C      5.017344    1.315212   -2.221305
  C      4.255868    3.703851   -4.726054
  C      3.734032    4.293783   -5.800770
  N      5.515039    3.407255   -4.637185
  H      6.149187    3.601203   -5.399053
  H      5.813584    2.899504   -3.808785
  H      2.741380    4.513109   -5.824701
  H      4.287548    4.521260   -6.614341
  H      2.278938    1.735250   -2.725496
  H      2.377466    1.625787   -4.475869
  F      4.737055    0.854112   -1.122825
  O      5.928146    2.168108   -2.491365
  H      3.861246    3.597252   -2.662979
  H      2.446493    3.973461   -3.656556

 Total Charge           Charge          ....    0
 Multiplicity           Mult            ....    1
 Number of Electrons    NEL             ....   70
 Basis Dimension        Dim             ....  266

ORBITAL ENERGIES
----------------

  NO   OCC          E(Eh)            E(eV)
   0   2.0000     -24.380505      -663.4273
   1   2.0000     -18.798247      -511.5263
   2   2.0000     -13.969384      -380.1263
   3   2.0000     -10.096467      -274.7388
   4   2.0000      -9.935448      -270.3573
   5   2.0000      -9.920097      -269.9396
   6   2.0000      -9.901879      -269.4438
   7   2.0000      -9.898143      -269.3422
   8   2.0000      -9.818756      -267.1819
   9   2.0000      -1.250636       -34.0315
  10   2.0000      -0.964400       -26.2427
  11   2.0000      -0.830087       -22.5878
  12   2.0000      -0.744644       -20.2628
  13   2.0000      -0.676168       -18.3995
  14   2.0000      -0.639766       -17.4089
  15   2.0000      -0.611176       -16.6309
  16   2.0000      -0.567395       -15.4396
  17   2.0000      -0.527695       -14.3593
  18   2.0000      -0.516353       -14.0507
  19   2.0000      -0.494755       -13.4630
  20   2.0000      -0.488449       -13.2914
  21   2.0000      -0.452681       -12.3181
  22   2.0000      -0.434054       -11.8112
  23   2.0000      -0.411141       -11.1877
  24   2.0000      -0.397543       -10.8177
  25   2.0000      -0.383309       -10.4304
  26   2.0000      -0.351022        -9.5518
  27   2.0000      -0.342674        -9.3246
  28   2.0000      -0.333800        -9.0832
  29   2.0000      -0.328888        -8.9495
  30   2.0000      -0.317560        -8.6412
  31   2.0000      -0.287282        -7.8173
  32   2.0000      -0.282757        -7.6942
  33   2.0000      -0.262452        -7.1417
  34   2.0000      -0.144939        -3.9440
  35   0.0000      -0.097241        -2.6461
  36   0.0000      -0.010981        -0.2988
  37   0.0000       0.014079         0.3831
  38   0.0000       0.022936         0.6241
  39   0.0000       0.028283         0.7696

MULLIKEN ATOMIC CHARGES
-----------------------
   0 C :    0.403247
   1 C :   -0.011793
   2 C :    0.148759
   3 H :   -0.165854
   4 H :    0.146362
   5 C :    0.782246
   6 C :   -0.082367
   7 C :    0.336087
   8 N :    0.668237
   9 H :   -0.254062
  10 H :   -0.464638
  11 H :   -0.131398
  12 H :   -0.439289
  13 H :    0.045516
  14 H :   -0.156824
  15 F :   -0.319662
  16 O :   -0.494502
  17 H :    0.046322
  18 H :   -0.056386
Sum of atomic charges:   -0.0000000

LOEWDIN ATOMIC CHARGES
----------------------
   0 C :    0.019034
   1 C :   -0.002281
   2 C :    0.058295
   3 H :    0.022926
   4 H :    0.034635
   5 C :    0.018871
   6 C :   -0.256510
   7 C :    0.172425
   8 N :    0.215381
   9 H :    0.014342
  10 H :   -0.146583
  11 H :   -0.091357
  12 H :   -0.093162
  13 H :    0.023721
  14 H :    0.034592
  15 F :    0.034340
  16 O :   -0.103950
  17 H :    0.018152
  18 H :    0.027129

  Mayer bond orders larger than 0.100000
B(  0-C ,  1-C ) :   1.1780 B(  0-C ,  6-C ) :   1.1406 B(  0-C ,  8-N ) :   0.1307
B(  0-C , 13-H ) :   0.1197 B(  0-C , 14-H ) :   0.1579 B(  0-C , 17-H ) :   0.6169
B(  0-C , 18-H ) :   0.8286 B(  1-C ,  2-C ) :   1.3032 B(  1-C ,  3-H ) :   0.2026
B(  1-C ,  4-H ) :   0.1666 B(  1-C , 13-H ) :   0.8146 B(  1-C , 14-H ) :   0.9457
B(  1-C , 17-H ) :   0.1644 B(  1-C , 18-H ) :   0.1601 B(  2-C ,  3-H ) :   0.8197
B(  2-C ,  4-H ) :   0.8162 B(  2-C ,  5-C ) :   1.0850 B(  2-C , 13-H ) :   0.1275
B(  3-H ,  5-C ) :   0.1035 B(  5-C , 15-F ) :   0.7467 B(  5-C , 16-O ) :   1.5753
B(  6-C ,  7-C ) :   1.4859 B(  6-C ,  8-N ) :   1.1661 B(  6-C ,  9-H ) :  -0.1182
B(  6-C , 12-H ) :   0.1886 B(  6-C , 17-H ) :   0.2014 B(  6-C , 18-H ) :   0.1505
B(  7-C ,  8-N ) :   0.2408 B(  7-C , 11-H ) :   0.9526 B(  7-C , 12-H ) :   0.6560
B(  8-N ,  9-H ) :   1.2414 B(  8-N , 10-H ) :   0.9038 B(  9-H , 10-H ) :  -0.2311
B( 10-H , 16-O ) :   0.2054 B( 15-F , 16-O ) :   0.1194

Dispersion correction           -0.018864051
FINAL SINGLE POINT ENERGY      -463.586228027855

DIPOLE MOMENT
-------------
                                X             Y             Z
Electronic contribution:      5.57812      -5.90646      10.53997
Nuclear contribution   :     -5.86483       4.68058     -10.07545
                        -----------------------------------------
Total Dipole Moment    :     -0.28671      -1.22588       0.46452
                        -----------------------------------------
Magnitude (a.u.)       :      1.34193
Magnitude (Debye)      :      3.41090

Rotational constants in cm-1:     0.107256     0.035474     0.030113
Rotational constants in MHz :  3215.453922  1063.481574   902.777619

                             ****ORCA TERMINATED NORMALLY****
TOTAL RUN TIME: 0 days 0 hours 0 minutes 16 seconds 650 msec
