                         Program Version 5.0.0 -  RELEASE  -
|  1> !PBE D3BJ RIJCOSX def2-SVPD def2/J TightSCF xyzfile
|  2>
|  3> *xyzfile 0 1 D2.xyz
|  4>
|  5> %MaxCore 64000
|  6>
|  7> %pal nprocs 4
|  8> end
|  9>
| 10> %scf
| 11>   MaxIter 150
| 12> end
| 13>
| 14>
| 15>                          ****END OF INPUT****

CARTESIAN COORDINATES (ANGSTROEM)
---------------------------------
  C      3.343500    3.354571   -3.591998
  C      2.952633    1.863077   -3.574849
  C      4.129209    0.898394   -3.418950
  H      3.733687   -0.100605   -3.237633
  H      4.719095    0.862556   -4.339005
  C      5.017344    1.315212   -2.221305
  C      4.255868    3.703851   -4.726054
  N      3.734032    4.293783   -5.800770
  C      5.515039    3.407255   -4.637185
  H      6.149187    3.601203   -5.399053
  H      5.813584    2.899504   -3.808785
  H      2.741380    4.513109   -5.824701
  H      4.287548    4.521260   -6.614341
  H      2.278938    1.735250   -2.725496
  H      2.377466    1.625787   -4.475869
  F      4.737055    0.854112   -1.122825
  O      5.928146    2.168108   -2.491365
  H      3.861246    3.597252   -2.662979
  H      2.446493    3.973461   -3.656556

 Total Charge           Charge          ....    0
 Multiplicity           Mult            ....    1
 Number of Electrons    NEL             ....   70
 Basis Dimension        Dim             ....  266

ORBITAL ENERGIES
----------------

  NO   OCC          E(Eh)            E(eV)
   0   2.0000     -24.361834      -662.9192
   1   2.0000     -18.771824      -510.8073
   2   2.0000     -13.994199      -380.8015
   3   2.0000     -10.074279      -274.1351
   4   2.0000      -9.922610      -270.0079
   5   2.0000      -9.916262      -269.8352
   6   2.0000      -9.898559      -269.3535
   7   2.0000      -9.897986      -269.3379
   8   2.0000      -9.797685      -266.6086
   9   2.0000      -1.232416       -33.5357
  10   2.0000      -0.939149       -25.5555
  11   2.0000      -0.829246       -22.5649
  12   2.0000      -0.738339       -20.0912
  13   2.0000      -0.673844       -18.3362
  14   2.0000      -0.628842       -17.1117
  15   2.0000      -0.611044       -16.6274
  16   2.0000      -0.557517       -15.1708
  17   2.0000      -0.515846       -14.0369
  18   2.0000      -0.505059       -13.7434
  19   2.0000      -0.485715       -13.2170
  20   2.0000      -0.475773       -12.9464
  21   2.0000      -0.445477       -12.1221
  22   2.0000      -0.427993       -11.6463
  23   2.0000      -0.415905       -11.3174
  24   2.0000      -0.399179       -10.8622
  25   2.0000      -0.368168       -10.0183
  26   2.0000      -0.347611        -9.4590
  27   2.0000      -0.346171        -9.4198
  28   2.0000      -0.322227        -8.7682
  29   2.0000      -0.313437        -8.5291
  30   2.0000      -0.306849        -8.3498
  31   2.0000      -0.285254        -7.7622
  32   2.0000      -0.278398        -7.5756
  33   2.0000      -0.223129        -6.0716
  34   2.0000      -0.150253        -4.0886
  35   0.0000      -0.077654        -2.1131
  36   0.0000      -0.007671        -0.2087
  37   0.0000       0.012222         0.3326
  38   0.0000       0.017002         0.4626
  39   0.0000       0.029247         0.7959

MULLIKEN ATOMIC CHARGES
-----------------------
   0 C :    0.261772
   1 C :    0.021490
   2 C :    0.099566
   3 H :   -0.210725
   4 H :    0.203652
   5 C :    0.783379
   6 C :    0.168328
   7 N :    0.053558
   8 C :    0.779705
   9 H :   -0.704765
  10 H :   -0.114544
  11 H :   -0.140503
  12 H :   -0.208142
  13 H :    0.022450
  14 H :   -0.156454
  15 F :   -0.330409
  16 O :   -0.485826
  17 H :    0.232148
  18 H :   -0.274682
Sum of atomic charges:    0.0000000

LOEWDIN ATOMIC CHARGES
----------------------
   0 C :    0.018609
   1 C :   -0.005946
   2 C :    0.058658
   3 H :    0.020528
   4 H :    0.032902
   5 C :    0.013639
   6 C :   -0.240077
   7 N :    0.177379
   8 C :    0.200935
   9 H :   -0.072027
  10 H :   -0.190847
  11 H :   -0.011865
  12 H :   -0.001733
  13 H :    0.022969
  14 H :    0.030079
  15 F :    0.022415
  16 O :   -0.115159
  17 H :    0.023629
  18 H :    0.015912

  Mayer bond orders larger than 0.100000
B(  0-C ,  1-C ) :   1.2014 B(  0-C ,  6-C ) :   1.0481 B(  0-C ,  7-N ) :   0.1533
B(  0-C ,  8-C ) :   0.2428 B(  0-C , 13-H ) :   0.1255 B(  0-C , 14-H ) :   0.1504
B(  0-C , 17-H ) :   0.7062 B(  0-C , 18-H ) :   0.8792 B(  1-C ,  2-C ) :   1.2929
B(  1-C ,  3-H ) :   0.1996 B(  1-C ,  4-H ) :   0.1550 B(  1-C , 13-H ) :   0.7845
B(  1-C , 14-H ) :   0.9216 B(  1-C , 17-H ) :   0.1541 B(  1-C , 18-H ) :   0.1865
B(  2-C ,  3-H ) :   0.8608 B(  2-C ,  4-H ) :   0.7894 B(  2-C ,  5-C ) :   1.0712
B(  2-C , 10-H ) :   0.1088 B(  2-C , 13-H ) :   0.1418 B(  2-C , 15-F ) :   0.1023
B(  2-C , 16-O ) :   0.1173 B(  3-H ,  5-C ) :   0.1040 B(  3-H , 10-H ) :  -0.1139
B(  4-H , 10-H ) :   0.1128 B(  5-C , 15-F ) :   0.7387 B(  5-C , 16-O ) :   1.6177
B(  6-C ,  7-N ) :   0.9774 B(  6-C ,  8-C ) :   1.7766 B(  6-C ,  9-H ) :   0.2854
B(  6-C , 10-H ) :   0.3046 B(  6-C , 12-H ) :  -0.1378 B(  6-C , 17-H ) :   0.1055
B(  6-C , 18-H ) :   0.1200 B(  7-N ,  8-C ) :   0.3334 B(  7-N , 11-H ) :   1.1813
B(  7-N , 12-H ) :   1.3427 B(  8-C ,  9-H ) :   0.7362 B(  8-C , 10-H ) :   0.5445
B(  9-H , 10-H ) :  -0.2631 B( 10-H , 16-O ) :   0.1407 B( 11-H , 12-H ) :  -0.1632
B( 15-F , 16-O ) :   0.1194

Dispersion correction           -0.018966248
FINAL SINGLE POINT ENERGY      -463.561006142946

DIPOLE MOMENT
-------------
                                X             Y             Z
Electronic contribution:      4.32656      -5.07969       9.53357
Nuclear contribution   :     -5.64491       4.57111      -9.93176
                        -----------------------------------------
Total Dipole Moment    :     -1.31835      -0.50858      -0.39820
                        -----------------------------------------
Magnitude (a.u.)       :      1.46808
Magnitude (Debye)      :      3.73155

Rotational constants in cm-1:     0.109825     0.034347     0.029470
Rotational constants in MHz :  3292.465653  1029.684117   883.494260

                             ****ORCA TERMINATED NORMALLY****
TOTAL RUN TIME: 0 days 0 hours 0 minutes 17 seconds 9 msec
