                         Program Version 5.0.0 -  RELEASE  -
|  1> !PBE D3BJ RIJCOSX def2-SVPD def2/J TightSCF xyzfile
|  2>
|  3> *xyzfile 0 1 D3.xyz
|  4>
|  5> %MaxCore 64000
|  6>
|  7> %pal nprocs 4
|  8> end
|  9>
| 10> %scf
| 11>   MaxIter 150
| 12> end
| 13>
| 14>
| 15>                          ****END OF INPUT****

CARTESIAN COORDINATES (ANGSTROEM)
---------------------------------
  C      3.343500    3.354571   -3.591998
  C      2.952633    1.863077   -3.574849
  C      4.129209    0.898394   -3.418950
  H      3.733687   -0.100605   -3.237633
  H      4.719095    0.862556   -4.339005
  C      5.017344    1.315212   -2.221305
  C      4.255868    3.703851   -4.726054
  C      3.734032    4.293783   -5.800770
  N      5.515039    3.407255   -4.637185
  H      6.149187    3.601203   -5.399053
  H      5.813584    2.899504   -3.808785
  H      2.741380    4.513109   -5.824701
  H      4.287548    4.521260   -6.614341
  H      2.278938    1.735250   -2.725496
  H      2.377466    1.625787   -4.475869
  O      4.737055    0.854112   -1.122825
  F      5.928146    2.168108   -2.491365
  H      3.861246    3.597252   -2.662979
  H      2.446493    3.973461   -3.656556

 Total Charge           Charge          ....    0
 Multiplicity           Mult            ....    1
 Number of Electrons    NEL             ....   70
 Basis Dimension        Dim             ....  266

ORBITAL ENERGIES
----------------

  NO   OCC          E(Eh)            E(eV)
   0   2.0000     -24.369869      -663.1379
   1   2.0000     -18.795428      -511.4496
   2   2.0000     -13.995472      -380.8362
   3   2.0000     -10.082988      -274.3720
   4   2.0000      -9.932011      -270.2638
   5   2.0000      -9.919265      -269.9169
   6   2.0000      -9.915147      -269.8049
   7   2.0000      -9.906809      -269.5780
   8   2.0000      -9.831601      -267.5315
   9   2.0000      -1.226243       -33.3678
  10   2.0000      -0.975499       -26.5447
  11   2.0000      -0.851487       -23.1701
  12   2.0000      -0.745178       -20.2773
  13   2.0000      -0.681969       -18.5573
  14   2.0000      -0.648653       -17.6508
  15   2.0000      -0.612503       -16.6671
  16   2.0000      -0.576393       -15.6844
  17   2.0000      -0.527820       -14.3627
  18   2.0000      -0.515026       -14.0146
  19   2.0000      -0.495133       -13.4733
  20   2.0000      -0.473946       -12.8967
  21   2.0000      -0.452124       -12.3029
  22   2.0000      -0.433843       -11.8055
  23   2.0000      -0.422170       -11.4878
  24   2.0000      -0.401876       -10.9356
  25   2.0000      -0.378196       -10.2912
  26   2.0000      -0.358159        -9.7460
  27   2.0000      -0.354258        -9.6399
  28   2.0000      -0.343476        -9.3465
  29   2.0000      -0.334487        -9.1019
  30   2.0000      -0.321601        -8.7512
  31   2.0000      -0.295762        -8.0481
  32   2.0000      -0.294744        -8.0204
  33   2.0000      -0.264884        -7.2078
  34   2.0000      -0.160111        -4.3568
  35   0.0000      -0.084019        -2.2863
  36   0.0000      -0.008317        -0.2263
  37   0.0000       0.006405         0.1743
  38   0.0000       0.021405         0.5824
  39   0.0000       0.023215         0.6317

MULLIKEN ATOMIC CHARGES
-----------------------
   0 C :    0.354290
   1 C :    0.016486
   2 C :    0.150702
   3 H :   -0.173632
   4 H :    0.161430
   5 C :    0.708638
   6 C :   -0.032676
   7 C :    0.340997
   8 N :    0.647290
   9 H :   -0.250235
  10 H :   -0.396148
  11 H :   -0.122343
  12 H :   -0.445488
  13 H :    0.058249
  14 H :   -0.155550
  15 O :   -0.398841
  16 F :   -0.432838
  17 H :    0.024341
  18 H :   -0.054674
Sum of atomic charges:    0.0000000

LOEWDIN ATOMIC CHARGES
----------------------
   0 C :    0.018886
   1 C :   -0.000258
   2 C :    0.054279
   3 H :    0.032331
   4 H :    0.023757
   5 C :   -0.015282
   6 C :   -0.257576
   7 C :    0.180210
   8 N :    0.212931
   9 H :    0.017905
  10 H :   -0.102294
  11 H :   -0.085687
  12 H :   -0.090011
  13 H :    0.029950
  14 H :    0.033537
  15 O :   -0.073028
  16 F :   -0.029120
  17 H :    0.020515
  18 H :    0.028952

  Mayer bond orders larger than 0.100000
B(  0-C ,  1-C ) :   1.1940 B(  0-C ,  6-C ) :   1.1431 B(  0-C ,  8-N ) :   0.1382
B(  0-C , 13-H ) :   0.1167 B(  0-C , 14-H ) :   0.1656 B(  0-C , 17-H ) :   0.6296
B(  0-C , 18-H ) :   0.8297 B(  1-C ,  2-C ) :   1.3068 B(  1-C ,  3-H ) :   0.1928
B(  1-C ,  4-H ) :   0.1613 B(  1-C , 13-H ) :   0.8204 B(  1-C , 14-H ) :   0.9351
B(  1-C , 17-H ) :   0.1655 B(  1-C , 18-H ) :   0.1559 B(  2-C ,  3-H ) :   0.8255
B(  2-C ,  4-H ) :   0.8035 B(  2-C ,  5-C ) :   1.0723 B(  2-C , 13-H ) :   0.1310
B(  2-C , 16-F ) :   0.1431 B(  3-H ,  5-C ) :   0.1366 B(  5-C , 15-O ) :   1.8117
B(  5-C , 16-F ) :   0.5972 B(  6-C ,  7-C ) :   1.4748 B(  6-C ,  8-N ) :   1.1452
B(  6-C ,  9-H ) :  -0.1313 B(  6-C , 12-H ) :   0.1840 B(  6-C , 17-H ) :   0.1778
B(  6-C , 18-H ) :   0.1605 B(  7-C ,  8-N ) :   0.2502 B(  7-C , 11-H ) :   0.9616
B(  7-C , 12-H ) :   0.6491 B(  8-N ,  9-H ) :   1.2601 B(  8-N , 10-H ) :   0.9273
B(  9-H , 10-H ) :  -0.2280 B( 10-H , 16-F ) :   0.1161 B( 15-O , 16-F ) :   0.1408

Dispersion correction           -0.018696242
FINAL SINGLE POINT ENERGY      -463.590421029852

DIPOLE MOMENT
-------------
                                X             Y             Z
Electronic contribution:      7.47563      -3.56928       8.06439
Nuclear contribution   :     -7.21688       3.18902      -8.52197
                        -----------------------------------------
Total Dipole Moment    :      0.25875      -0.38026      -0.45759
                        -----------------------------------------
Magnitude (a.u.)       :      0.64880
Magnitude (Debye)      :      1.64911

Rotational constants in cm-1:     0.103917     0.036987     0.030872
Rotational constants in MHz :  3115.342573  1108.839114   925.506342

                             ****ORCA TERMINATED NORMALLY****
TOTAL RUN TIME: 0 days 0 hours 0 minutes 17 seconds 416 msec
