                         Program Version 5.0.0 -  RELEASE  -
|  1> !DLPNO-CCSD(T) aug-cc-pVTZ aug-cc-pVTZ/C TightSCF TightPNO RIJCOSX def2/J
|  2> *xyz -1 1
|  3> C         -0.87096        0.24804       -2.66280
|  4> C         -0.47749        0.60819       -4.10105
|  5> H          0.20677        1.45830       -4.11875
|  6> H         -1.36844        0.92942       -4.64785
|  7> C          0.18467       -0.50664       -4.91676
|  8> O         -0.15869       -1.70109       -4.65798
|  9> O          1.05594       -0.17441       -5.74037
| 10> H         -1.54056       -0.58646       -2.67455
| 11> H         -1.35339        1.08600       -2.20455
| 12> H          0.00660       -0.00662       -2.10609
| 13> *
| 14>
| 15> %MaxCore 64000
| 16>
| 17> %pal nprocs 18
| 18> end
| 19>
| 20> %scf
| 21>   MaxIter 150
| 22> end
| 23>
| 24>
| 25>                          ****END OF INPUT****

CARTESIAN COORDINATES (ANGSTROEM)
---------------------------------
  C     -0.870960    0.248040   -2.662800
  C     -0.477490    0.608190   -4.101050
  H      0.206770    1.458300   -4.118750
  H     -1.368440    0.929420   -4.647850
  C      0.184670   -0.506640   -4.916760
  O     -0.158690   -1.701090   -4.657980
  O      1.055940   -0.174410   -5.740370
  H     -1.540560   -0.586460   -2.674550
  H     -1.353390    1.086000   -2.204550
  H      0.006600   -0.006620   -2.106090

 Total Charge           Charge          ....   -1
 Multiplicity           Mult            ....    1
 Number of Electrons    NEL             ....   40
 Basis Dimension        Dim             ....  345

ORBITAL ENERGIES
----------------

  NO   OCC          E(Eh)            E(eV)
   0   2.0000     -20.285390      -551.9935
   1   2.0000     -20.280314      -551.8554
   2   2.0000     -11.125616      -302.7434
   3   2.0000     -11.060915      -300.9828
   4   2.0000     -11.054176      -300.7994
   5   2.0000      -1.162902       -31.6442
   6   2.0000      -1.054101       -28.6835
   7   2.0000      -0.874576       -23.7984
   8   2.0000      -0.712829       -19.3971
   9   2.0000      -0.514814       -14.0088
  10   2.0000      -0.461612       -12.5611
  11   2.0000      -0.444933       -12.1073
  12   2.0000      -0.401421       -10.9232
  13   2.0000      -0.379370       -10.3232
  14   2.0000      -0.370356       -10.0779
  15   2.0000      -0.334526        -9.1029
  16   2.0000      -0.308949        -8.4069
  17   2.0000      -0.197481        -5.3737
  18   2.0000      -0.196114        -5.3365
  19   2.0000      -0.184435        -5.0187
  20   0.0000       0.117279         3.1913
  21   0.0000       0.134337         3.6555
  22   0.0000       0.137911         3.7527
  23   0.0000       0.146433         3.9846
  24   0.0000       0.158569         4.3149

MULLIKEN ATOMIC CHARGES
-----------------------
   0 C :   -0.904548
   1 C :   -0.215909
   2 H :    0.259602
   3 H :    0.213674
   4 C :    0.450270
   5 O :   -0.845404
   6 O :   -0.827462
   7 H :    0.313702
   8 H :    0.275685
   9 H :    0.280390
Sum of atomic charges:   -1.0000000

LOEWDIN ATOMIC CHARGES
----------------------
   0 C :    0.547565
   1 C :    0.173790
   2 H :   -0.201735
   3 H :   -0.180919
   4 C :   -1.205631
   5 O :    0.233980
   6 O :    0.249428
   7 H :   -0.208143
   8 H :   -0.211962
   9 H :   -0.196373

  Mayer bond orders larger than 0.100000
B(  0-C ,  1-C ) :   0.8584 B(  0-C ,  7-H ) :   0.9217 B(  0-C ,  8-H ) :   0.9629
B(  0-C ,  9-H ) :   0.9420 B(  1-C ,  2-H ) :   0.9532 B(  1-C ,  3-H ) :   0.9569
B(  1-C ,  4-C ) :   0.7190 B(  4-C ,  5-O ) :   1.4214 B(  4-C ,  6-O ) :   1.4189

E(0)                                       ...   -266.375145852
E(0)                                       ...   -266.375145852
E(CORR)(strong-pairs)                      ...     -1.023641974
E(CORR)(weak-pairs)                        ...     -0.000896418
E(CORR)(corrected)                         ...     -1.024538392
E(TOT)                                     ...   -267.399684244
E(CCSD(T))                                 ...   -267.443445872
FINAL SINGLE POINT ENERGY      -267.443445871881

DIPOLE MOMENT
-------------
                                X             Y             Z
Electronic contribution:      2.54030      -2.78015      -4.44389
Nuclear contribution   :     -3.54611       4.15440       5.90446
                        -----------------------------------------
Total Dipole Moment    :     -1.00581       1.37426       1.46057
                        -----------------------------------------
Magnitude (a.u.)       :      2.24355
Magnitude (Debye)      :      5.70265

Rotational constants in cm-1:     0.332789     0.132085     0.101080
Rotational constants in MHz :  9976.755824  3959.803182  3030.288811

                             ****ORCA TERMINATED NORMALLY****
TOTAL RUN TIME: 0 days 0 hours 4 minutes 4 seconds 808 msec
