                         Program Version 5.0.0 -  RELEASE  -
|  1> !DLPNO-CCSD(T) aug-cc-pVTZ aug-cc-pVTZ/C TightSCF TightPNO RIJCOSX def2/J
|  2> *xyz 1 1
|  3> C          2.48645       -2.67712       -2.56345
|  4> C          3.03764       -2.36672       -3.92351
|  5> N          2.28036       -2.45441       -4.96769
|  6> N          4.32174       -2.01793       -4.01664
|  7> H          4.87994       -1.91167       -3.17382
|  8> H          4.71015       -1.67088       -4.88356
|  9> H          1.27042       -2.41265       -4.86614
| 10> H          2.58183       -2.05528       -5.84688
| 11> C          2.49799       -1.46946       -1.61030
| 12> H          1.47259       -3.05153       -2.69437
| 13> H          3.08320       -3.49064       -2.14147
| 14> H          1.91240       -0.67831       -2.02991
| 15> H          3.50450       -1.13364       -1.47227
| 16> H          2.08509       -1.75655       -0.66585
| 17> *
| 18>
| 19> %MaxCore 64000
| 20>
| 21> %pal nprocs 18
| 22> end
| 23>
| 24> %scf
| 25>   MaxIter 150
| 26> end
| 27>
| 28>
| 29>                          ****END OF INPUT****

CARTESIAN COORDINATES (ANGSTROEM)
---------------------------------
  C      2.486450   -2.677120   -2.563450
  C      3.037640   -2.366720   -3.923510
  N      2.280360   -2.454410   -4.967690
  N      4.321740   -2.017930   -4.016640
  H      4.879940   -1.911670   -3.173820
  H      4.710150   -1.670880   -4.883560
  H      1.270420   -2.412650   -4.866140
  H      2.581830   -2.055280   -5.846880
  C      2.497990   -1.469460   -1.610300
  H      1.472590   -3.051530   -2.694370
  H      3.083200   -3.490640   -2.141470
  H      1.912400   -0.678310   -2.029910
  H      3.504500   -1.133640   -1.472270
  H      2.085090   -1.756550   -0.665850

 Total Charge           Charge          ....    1
 Multiplicity           Mult            ....    1
 Number of Electrons    NEL             ....   40
 Basis Dimension        Dim             ....  437

ORBITAL ENERGIES
----------------

  NO   OCC          E(Eh)            E(eV)
   0   2.0000     -15.810668      -430.2301
   1   2.0000     -15.803911      -430.0463
   2   2.0000     -11.572133      -314.8938
   3   2.0000     -11.425988      -310.9170
   4   2.0000     -11.382691      -309.7388
   5   2.0000      -1.527073       -41.5538
   6   2.0000      -1.406839       -38.2820
   7   2.0000      -1.239896       -33.7393
   8   2.0000      -1.098184       -29.8831
   9   2.0000      -1.027446       -27.9582
  10   2.0000      -0.958844       -26.0915
  11   2.0000      -0.938618       -25.5411
  12   2.0000      -0.870101       -23.6767
  13   2.0000      -0.815714       -22.1967
  14   2.0000      -0.787917       -21.4403
  15   2.0000      -0.766747       -20.8643
  16   2.0000      -0.698291       -19.0015
  17   2.0000      -0.686673       -18.6853
  18   2.0000      -0.678014       -18.4497
  19   2.0000      -0.632575       -17.2132
  20   0.0000      -0.098336        -2.6758
  21   0.0000      -0.076643        -2.0856
  22   0.0000      -0.073901        -2.0109
  23   0.0000      -0.064904        -1.7661
  24   0.0000      -0.052711        -1.4343

MULLIKEN ATOMIC CHARGES
-----------------------
   0 C :   -0.097581
   1 C :    0.645223
   2 N :   -0.390066
   3 N :   -0.363076
   4 H :    0.130604
   5 H :    0.162147
   6 H :    0.139410
   7 H :    0.171736
   8 C :   -0.912011
   9 H :    0.245763
  10 H :    0.338044
  11 H :    0.310873
  12 H :    0.316951
  13 H :    0.301983
Sum of atomic charges:    1.0000000

LOEWDIN ATOMIC CHARGES
----------------------
   0 C :    0.346770
   1 C :   -0.217994
   2 N :    0.944995
   3 N :    0.949210
   4 H :   -0.236517
   5 H :   -0.231133
   6 H :   -0.221250
   7 H :   -0.224990
   8 C :    0.652826
   9 H :   -0.141667
  10 H :   -0.119992
  11 H :   -0.164809
  12 H :   -0.179954
  13 H :   -0.155494

  Mayer bond orders larger than 0.100000
B(  0-C ,  1-C ) :   0.4411 B(  0-C ,  3-N ) :  -0.1072 B(  0-C ,  8-C ) :   0.8251
B(  0-C ,  9-H ) :   0.9795 B(  0-C , 10-H ) :   0.9091 B(  1-C ,  2-N ) :   0.9041
B(  1-C ,  3-N ) :   1.0743 B(  1-C ,  8-C ) :   0.1258 B(  2-N ,  6-H ) :   1.0849
B(  2-N ,  7-H ) :   1.0397 B(  3-N ,  4-H ) :   1.1010 B(  3-N ,  5-H ) :   1.0401
B(  8-C , 11-H ) :   0.9161 B(  8-C , 12-H ) :   0.9073 B(  8-C , 13-H ) :   0.9626

E(0)                                       ...   -227.641598080
E(0)                                       ...   -227.641598080
E(CORR)(strong-pairs)                      ...     -0.968954517
E(CORR)(weak-pairs)                        ...     -0.000930053
E(CORR)(corrected)                         ...     -0.969884570
E(TOT)                                     ...   -228.611482650
E(CCSD(T))                                 ...   -228.649888491
FINAL SINGLE POINT ENERGY      -228.649888491255

DIPOLE MOMENT
-------------
                                X             Y             Z
Electronic contribution:      1.01746      -1.06637      -3.85422
Nuclear contribution   :     -0.84604       1.34287       2.92710
                        -----------------------------------------
Total Dipole Moment    :      0.17142       0.27650      -0.92712
                        -----------------------------------------
Magnitude (a.u.)       :      0.98255
Magnitude (Debye)      :      2.49743

Rotational constants in cm-1:     0.265816     0.126189     0.097583
Rotational constants in MHz :  7968.948902  3783.040103  2925.457702

                             ****ORCA TERMINATED NORMALLY****
TOTAL RUN TIME: 0 days 0 hours 6 minutes 14 seconds 378 msec
