                         Program Version 5.0.0 -  RELEASE  -
|  1> !DLPNO-CCSD(T) aug-cc-pVTZ aug-cc-pVTZ/C TightSCF TightPNO RIJCOSX def2/J
|  2>
|  3> *xyzfile 0 1 B.xyz
|  4>
|  5> %MaxCore 64000
|  6>
|  7> %pal nprocs 18
|  8> end
|  9>
| 10> %scf
| 11>   MaxIter 150
| 12> end
| 13>
| 14>
| 15>                          ****END OF INPUT****

CARTESIAN COORDINATES (ANGSTROEM)
---------------------------------
  C      2.486452   -2.677121   -2.563447
  C     -0.870963    0.248043   -2.662804
  C     -0.477492    0.608191   -4.101052
  H      0.206773    1.458299   -4.118748
  H     -1.368442    0.929419   -4.647855
  C      0.184673   -0.506640   -4.916760
  C      3.037640   -2.366715   -3.923509
  N      2.280360   -2.454408   -4.967692
  N      4.321736   -2.017932   -4.016641
  H      4.879940   -1.911668   -3.173823
  H      4.710148   -1.670882   -4.883561
  H      1.270423   -2.412650   -4.866143
  H      2.581829   -2.055282   -5.846878
  O     -0.158685   -1.701088   -4.657981
  O      1.055938   -0.174410   -5.740373
  C      2.497991   -1.469464   -1.610303
  C      1.582841   -0.321986   -2.042619
  H      2.193083   -1.833912   -0.625420
  H      3.523356   -1.103982   -1.490392
  C      0.100160   -0.673551   -1.915815
  H      1.822311   -0.040361   -3.072834
  H      1.813180    0.557019   -1.433266
  H     -0.063284   -1.679120   -2.301112
  H     -0.168820   -0.691680   -0.853831
  H     -1.001048    1.181040   -2.104071
  H     -1.844645   -0.246592   -2.663281
  H      1.472592   -3.051527   -2.694366
  H      3.083201   -3.490638   -2.141472

 Total Charge           Charge          ....    0
 Multiplicity           Mult            ....    1
 Number of Electrons    NEL             ....   94
 Basis Dimension        Dim             ....  920

ORBITAL ENERGIES
----------------

  NO   OCC          E(Eh)            E(eV)
   0   2.0000     -20.455428      -556.6205
   1   2.0000     -20.450723      -556.4925
   2   2.0000     -15.645636      -425.7394
   3   2.0000     -15.605838      -424.6564
   4   2.0000     -11.397706      -310.1473
   5   2.0000     -11.290733      -307.2365
   6   2.0000     -11.273688      -306.7726
   7   2.0000     -11.254328      -306.2458
   8   2.0000     -11.222174      -305.3709
   9   2.0000     -11.202467      -304.8346
  10   2.0000     -11.198589      -304.7291
  11   2.0000     -11.186969      -304.4129
  12   2.0000      -1.354975       -36.8707
  13   2.0000      -1.338706       -36.4280
  14   2.0000      -1.236086       -33.6356
  15   2.0000      -1.227999       -33.4155
  16   2.0000      -1.111789       -30.2533
  17   2.0000      -1.050716       -28.5914
  18   2.0000      -0.992187       -26.9988
  19   2.0000      -0.920957       -25.0605
  20   2.0000      -0.882568       -24.0159
  21   2.0000      -0.833264       -22.6743
  22   2.0000      -0.795676       -21.6514
  23   2.0000      -0.777886       -21.1674
  24   2.0000      -0.757085       -20.6013
  25   2.0000      -0.702470       -19.1152
  26   2.0000      -0.672488       -18.2993
  27   2.0000      -0.662288       -18.0218
  28   2.0000      -0.638967       -17.3872
  29   2.0000      -0.620812       -16.8932
  30   2.0000      -0.612575       -16.6690
  31   2.0000      -0.583958       -15.8903
  32   2.0000      -0.577783       -15.7223
  33   2.0000      -0.574564       -15.6347
  34   2.0000      -0.556466       -15.1422
  35   2.0000      -0.544064       -14.8047
  36   2.0000      -0.525134       -14.2896
  37   2.0000      -0.505099       -13.7444
  38   2.0000      -0.499304       -13.5868
  39   2.0000      -0.481410       -13.0998
  40   2.0000      -0.460988       -12.5441
  41   2.0000      -0.453311       -12.3352
  42   2.0000      -0.443994       -12.0817
  43   2.0000      -0.434727       -11.8295
  44   2.0000      -0.375073       -10.2063
  45   2.0000      -0.362678        -9.8690
  46   2.0000      -0.357177        -9.7193
  47   0.0000       0.007874         0.2143
  48   0.0000       0.024408         0.6642
  49   0.0000       0.028090         0.7644
  50   0.0000       0.036088         0.9820
  51   0.0000       0.046001         1.2518

MULLIKEN ATOMIC CHARGES
-----------------------
   0 C :    0.042560
   1 C :   -0.657404
   2 C :   -0.336750
   3 H :    0.180808
   4 H :    0.372775
   5 C :    1.162725
   6 C :    1.078956
   7 N :   -0.519815
   8 N :   -0.752157
   9 H :    0.088621
  10 H :    0.096729
  11 H :    0.210535
  12 H :    0.124703
  13 O :   -1.038205
  14 O :   -1.127874
  15 C :   -0.615493
  16 C :   -0.414049
  17 H :    0.202995
  18 H :    0.260996
  19 C :   -0.337584
  20 H :    0.174111
  21 H :    0.219850
  22 H :    0.324908
  23 H :    0.349516
  24 H :    0.286939
  25 H :    0.187856
  26 H :   -0.058269
  27 H :    0.492021
Sum of atomic charges:   -0.0000000

LOEWDIN ATOMIC CHARGES
----------------------
   0 C :    0.353065
   1 C :    0.288409
   2 C :    0.249820
   3 H :   -0.178897
   4 H :   -0.153899
   5 C :   -1.052777
   6 C :   -0.225902
   7 N :    0.924087
   8 N :    0.922226
   9 H :   -0.256877
  10 H :   -0.243346
  11 H :   -0.607854
  12 H :   -0.251103
  13 O :    0.479562
  14 O :    0.366933
  15 C :    0.314150
  16 C :    0.299936
  17 H :   -0.132493
  18 H :   -0.150389
  19 C :    0.282170
  20 H :   -0.177028
  21 H :   -0.127295
  22 H :   -0.210093
  23 H :   -0.136378
  24 H :   -0.147990
  25 H :   -0.147269
  26 H :   -0.154799
  27 H :   -0.125968

  Mayer bond orders larger than 0.100000
B(  0-C ,  6-C ) :   0.4240 B(  0-C ,  8-N ) :  -0.1527 B(  0-C , 15-C ) :   0.8586
B(  0-C , 26-H ) :   1.2006 B(  0-C , 27-H ) :   0.8449 B(  1-C ,  2-C ) :   0.9291
B(  1-C ,  5-C ) :   0.1108 B(  1-C , 19-C ) :   0.8623 B(  1-C , 24-H ) :   0.9281
B(  1-C , 25-H ) :   1.0666 B(  2-C ,  3-H ) :   1.0570 B(  2-C ,  4-H ) :   0.8949
B(  2-C ,  5-C ) :   0.7733 B(  4-H ,  5-C ) :  -0.1196 B(  5-C , 13-O ) :   0.9734
B(  5-C , 14-O ) :   1.0217 B(  6-C ,  7-N ) :   0.7285 B(  6-C ,  8-N ) :   0.6939
B(  6-C , 10-H ) :  -0.1005 B(  6-C , 12-H ) :  -0.1320 B(  6-C , 15-C ) :   0.1421
B(  6-C , 26-H ) :   0.1771 B(  6-C , 27-H ) :  -0.2191 B(  7-N , 11-H ) :   0.9406
B(  7-N , 12-H ) :   1.0949 B(  8-N ,  9-H ) :   1.1401 B(  8-N , 10-H ) :   1.1598
B( 11-H , 13-O ) :   0.2335 B( 13-O , 14-O ) :   0.1073 B( 15-C , 16-C ) :   0.8897
B( 15-C , 17-H ) :   1.0444 B( 15-C , 18-H ) :   0.9367 B( 16-C , 19-C ) :   0.6487
B( 16-C , 20-H ) :   1.0241 B( 16-C , 21-H ) :   1.0119 B( 19-C , 22-H ) :   1.0613
B( 19-C , 23-H ) :   0.8655

E(0)                                       ...   -571.101513795
E(0)                                       ...   -571.101513795
E(CORR)(strong-pairs)                      ...     -2.351493137
E(CORR)(weak-pairs)                        ...     -0.003583707
E(CORR)(corrected)                         ...     -2.355076844
E(TOT)                                     ...   -573.456590638
E(CCSD(T))                                 ...   -573.558183514
FINAL SINGLE POINT ENERGY      -573.558183513618

DIPOLE MOMENT
-------------
                                X             Y             Z
Electronic contribution:      1.77153      -2.91061      -8.61216
Nuclear contribution   :      1.39386       1.90489      10.36520
                        -----------------------------------------
Total Dipole Moment    :      3.16539      -1.00572       1.75304
                        -----------------------------------------
Magnitude (a.u.)       :      3.75557
Magnitude (Debye)      :      9.54590

Rotational constants in cm-1:     0.041165     0.025922     0.019001
Rotational constants in MHz :  1234.086888   777.109255   569.639629

                             ****ORCA TERMINATED NORMALLY****
TOTAL RUN TIME: 0 days 4 hours 9 minutes 31 seconds 175 msec
