                         Program Version 5.0.0 -  RELEASE  -
|  1> !DLPNO-CCSD(T) aug-cc-pVTZ aug-cc-pVTZ/C TightSCF TightPNO RIJCOSX def2/J
|  2> *xyz 0 1
|  3> C         -0.87096        0.24804       -2.66280
|  4> C         -0.47749        0.60819       -4.10105
|  5> H          0.20677        1.45830       -4.11875
|  6> H         -1.36844        0.92942       -4.64785
|  7> C          0.18467       -0.50664       -4.91676
|  8> F         -0.15869       -1.70109       -4.65798
|  9> O          1.05594       -0.17441       -5.74037
| 10> H         -1.54056       -0.58646       -2.67455
| 11> H         -1.35339        1.08600       -2.20455
| 12> H          0.00660       -0.00662       -2.10609
| 13> *
| 14>
| 15> %MaxCore 64000
| 16>
| 17> %pal nprocs 18
| 18> end
| 19>
| 20> %scf
| 21>   MaxIter 150
| 22> end
| 23>
| 24>
| 25>                          ****END OF INPUT****

CARTESIAN COORDINATES (ANGSTROEM)
---------------------------------
  C     -0.870960    0.248040   -2.662800
  C     -0.477490    0.608190   -4.101050
  H      0.206770    1.458300   -4.118750
  H     -1.368440    0.929420   -4.647850
  C      0.184670   -0.506640   -4.916760
  F     -0.158690   -1.701090   -4.657980
  O      1.055940   -0.174410   -5.740370
  H     -1.540560   -0.586460   -2.674550
  H     -1.353390    1.086000   -2.204550
  H      0.006600   -0.006620   -2.106090

 Total Charge           Charge          ....    0
 Multiplicity           Mult            ....    1
 Number of Electrons    NEL             ....   40
 Basis Dimension        Dim             ....  345

ORBITAL ENERGIES
----------------

  NO   OCC          E(Eh)            E(eV)
   0   2.0000     -26.371409      -717.6025
   1   2.0000     -20.564802      -559.5967
   2   2.0000     -11.429657      -311.0168
   3   2.0000     -11.262806      -306.4765
   4   2.0000     -11.234793      -305.7143
   5   2.0000      -1.719677       -46.7948
   6   2.0000      -1.382559       -37.6213
   7   2.0000      -1.078592       -29.3500
   8   2.0000      -0.933549       -25.4032
   9   2.0000      -0.874718       -23.8023
  10   2.0000      -0.772912       -21.0320
  11   2.0000      -0.762808       -20.7571
  12   2.0000      -0.700842       -19.0709
  13   2.0000      -0.640940       -17.4409
  14   2.0000      -0.612506       -16.6671
  15   2.0000      -0.570948       -15.5363
  16   2.0000      -0.545533       -14.8447
  17   2.0000      -0.532633       -14.4937
  18   2.0000      -0.492260       -13.3951
  19   2.0000      -0.463377       -12.6091
  20   0.0000       0.025560         0.6955
  21   0.0000       0.038222         1.0401
  22   0.0000       0.040649         1.1061
  23   0.0000       0.047094         1.2815
  24   0.0000       0.062876         1.7109

MULLIKEN ATOMIC CHARGES
-----------------------
   0 C :   -0.902016
   1 C :   -0.284826
   2 H :    0.314309
   3 H :    0.275573
   4 C :    0.598958
   5 F :   -0.285016
   6 O :   -0.632487
   7 H :    0.311910
   8 H :    0.309831
   9 H :    0.293765
Sum of atomic charges:   -0.0000000

LOEWDIN ATOMIC CHARGES
----------------------
   0 C :    0.595500
   1 C :    0.246924
   2 H :   -0.169781
   3 H :   -0.159608
   4 C :   -0.912641
   5 F :    0.566936
   6 O :    0.388634
   7 H :   -0.191066
   8 H :   -0.181086
   9 H :   -0.183811

  Mayer bond orders larger than 0.100000
B(  0-C ,  1-C ) :   0.8768 B(  0-C ,  7-H ) :   0.9202 B(  0-C ,  8-H ) :   0.9438
B(  0-C ,  9-H ) :   0.9284 B(  1-C ,  2-H ) :   0.9151 B(  1-C ,  3-H ) :   0.9165
B(  1-C ,  4-C ) :   0.7910 B(  4-C ,  5-F ) :   0.8384 B(  4-C ,  6-O ) :   1.6693

E(0)                                       ...   -290.931049905
E(0)                                       ...   -290.931049905
E(CORR)(strong-pairs)                      ...     -1.023999309
E(CORR)(weak-pairs)                        ...     -0.000868656
E(CORR)(corrected)                         ...     -1.024867965
E(TOT)                                     ...   -291.955917871
E(CCSD(T))                                 ...   -291.995953882
FINAL SINGLE POINT ENERGY      -291.995953882207

DIPOLE MOMENT
-------------
                                X             Y             Z
Electronic contribution:      2.51091      -5.31937      -5.18745
Nuclear contribution   :     -3.42837       5.66737       6.17046
                        -----------------------------------------
Total Dipole Moment    :     -0.91745       0.34800       0.98300
                        -----------------------------------------
Magnitude (a.u.)       :      1.38893
Magnitude (Debye)      :      3.53037

Rotational constants in cm-1:     0.304660     0.130969     0.097716
Rotational constants in MHz :  9133.464515  3926.366384  2929.457090

                             ****ORCA TERMINATED NORMALLY****
TOTAL RUN TIME: 0 days 0 hours 3 minutes 39 seconds 185 msec
