                         Program Version 5.0.0 -  RELEASE  -
|  1> !DLPNO-CCSD(T) aug-cc-pVTZ aug-cc-pVTZ/C TightSCF TightPNO RIJCOSX def2/J
|  2> *xyz 0 1
|  3> C          2.48645       -2.67712       -2.56345
|  4> C          3.03764       -2.36672       -3.92351
|  5> C          2.28036       -2.45441       -4.96769
|  6> N          4.32174       -2.01793       -4.01664
|  7> H          4.87994       -1.91167       -3.17382
|  8> H          4.71015       -1.67088       -4.88356
|  9> H          1.27042       -2.41265       -4.86614
| 10> H          2.58183       -2.05528       -5.84688
| 11> C          2.49799       -1.46946       -1.61030
| 12> H          1.47259       -3.05153       -2.69437
| 13> H          3.08320       -3.49064       -2.14147
| 14> H          1.91240       -0.67831       -2.02991
| 15> H          3.50450       -1.13364       -1.47227
| 16> H          2.08509       -1.75655       -0.66585
| 17> *
| 18>
| 19> %MaxCore 64000
| 20>
| 21> %pal nprocs 18
| 22> end
| 23>
| 24> %scf
| 25>   MaxIter 150
| 26> end
| 27>
| 28>
| 29>                          ****END OF INPUT****

CARTESIAN COORDINATES (ANGSTROEM)
---------------------------------
  C      2.486450   -2.677120   -2.563450
  C      3.037640   -2.366720   -3.923510
  C      2.280360   -2.454410   -4.967690
  N      4.321740   -2.017930   -4.016640
  H      4.879940   -1.911670   -3.173820
  H      4.710150   -1.670880   -4.883560
  H      1.270420   -2.412650   -4.866140
  H      2.581830   -2.055280   -5.846880
  C      2.497990   -1.469460   -1.610300
  H      1.472590   -3.051530   -2.694370
  H      3.083200   -3.490640   -2.141470
  H      1.912400   -0.678310   -2.029910
  H      3.504500   -1.133640   -1.472270
  H      2.085090   -1.756550   -0.665850

 Total Charge           Charge          ....    0
 Multiplicity           Mult            ....    1
 Number of Electrons    NEL             ....   40
 Basis Dimension        Dim             ....  437

ORBITAL ENERGIES
----------------

  NO   OCC          E(Eh)            E(eV)
   0   2.0000     -15.559858      -423.4053
   1   2.0000     -11.254714      -306.2563
   2   2.0000     -11.225128      -305.4513
   3   2.0000     -11.213128      -305.1247
   4   2.0000     -11.148584      -303.3684
   5   2.0000      -1.233067       -33.5535
   6   2.0000      -1.052799       -28.6481
   7   2.0000      -0.988894       -26.9092
   8   2.0000      -0.868478       -23.6325
   9   2.0000      -0.766050       -20.8453
  10   2.0000      -0.702469       -19.1152
  11   2.0000      -0.653821       -17.7914
  12   2.0000      -0.601585       -16.3700
  13   2.0000      -0.594145       -16.1675
  14   2.0000      -0.547711       -14.9040
  15   2.0000      -0.534402       -14.5418
  16   2.0000      -0.502548       -13.6750
  17   2.0000      -0.479374       -13.0444
  18   2.0000      -0.471397       -12.8274
  19   2.0000      -0.300589        -8.1794
  20   0.0000       0.027476         0.7477
  21   0.0000       0.035762         0.9731
  22   0.0000       0.039964         1.0875
  23   0.0000       0.043569         1.1856
  24   0.0000       0.055916         1.5216

MULLIKEN ATOMIC CHARGES
-----------------------
   0 C :   -0.137221
   1 C :    0.899055
   2 C :   -1.442235
   3 N :   -0.625050
   4 H :    0.052287
   5 H :    0.051452
   6 H :    0.218499
   7 H :    0.525696
   8 C :   -0.961485
   9 H :    0.197797
  10 H :    0.320917
  11 H :    0.316677
  12 H :    0.308138
  13 H :    0.275473
Sum of atomic charges:    0.0000000

LOEWDIN ATOMIC CHARGES
----------------------
   0 C :    0.280709
   1 C :   -0.310244
   2 C :    0.548996
   3 N :    0.845159
   4 H :   -0.282266
   5 H :   -0.268644
   6 H :   -0.288881
   7 H :   -0.288346
   8 C :    0.615150
   9 H :   -0.158662
  10 H :   -0.141403
  11 H :   -0.175920
  12 H :   -0.193725
  13 H :   -0.181922

  Mayer bond orders larger than 0.100000
B(  0-C ,  1-C ) :   0.6122 B(  0-C ,  3-N ) :  -0.1345 B(  0-C ,  8-C ) :   0.8517
B(  0-C ,  9-H ) :   1.0125 B(  0-C , 10-H ) :   0.9393 B(  1-C ,  2-C ) :   0.9367
B(  1-C ,  3-N ) :   0.7999 B(  2-C ,  3-N ) :  -0.1745 B(  2-C ,  6-H ) :   1.2527
B(  2-C ,  7-H ) :   0.6066 B(  3-N ,  4-H ) :   1.1750 B(  3-N ,  5-H ) :   1.1475
B(  8-C , 11-H ) :   0.9181 B(  8-C , 12-H ) :   0.9212 B(  8-C , 13-H ) :   0.9910

E(0)                                       ...   -211.202442516
E(0)                                       ...   -211.202442516
E(CORR)(strong-pairs)                      ...     -0.949854428
E(CORR)(weak-pairs)                        ...     -0.000924141
E(CORR)(corrected)                         ...     -0.950778569
E(TOT)                                     ...   -212.153221085
E(CCSD(T))                                 ...   -212.191773310
FINAL SINGLE POINT ENERGY      -212.191773309935

DIPOLE MOMENT
-------------
                                X             Y             Z
Electronic contribution:      1.51025      -0.85820      -2.06972
Nuclear contribution   :     -0.99743       1.27863       2.57190
                        -----------------------------------------
Total Dipole Moment    :      0.51282       0.42043       0.50218
                        -----------------------------------------
Magnitude (a.u.)       :      0.83182
Magnitude (Debye)      :      2.11431

Rotational constants in cm-1:     0.274050     0.130114     0.100964
Rotational constants in MHz :  8215.815505  3900.722919  3026.834930

                             ****ORCA TERMINATED NORMALLY****
TOTAL RUN TIME: 0 days 0 hours 7 minutes 9 seconds 267 msec
