                         Program Version 5.0.0 -  RELEASE  -
|  1> !DLPNO-CCSD(T) aug-cc-pVTZ aug-cc-pVTZ/C TightSCF TightPNO RIJCOSX def2/J
|  2> *xyz 0 1
|  3> C         -0.87096        0.24804       -2.66280
|  4> C         -0.47749        0.60819       -4.10105
|  5> H          0.20677        1.45830       -4.11875
|  6> H         -1.36844        0.92942       -4.64785
|  7> C          0.18467       -0.50664       -4.91676
|  8> O         -0.15869       -1.70109       -4.65798
|  9> F          1.05594       -0.17441       -5.74037
| 10> H         -1.54056       -0.58646       -2.67455
| 11> H         -1.35339        1.08600       -2.20455
| 12> H          0.00660       -0.00662       -2.10609
| 13> *
| 14>
| 15> %MaxCore 64000
| 16>
| 17> %pal nprocs 18
| 18> end
| 19>
| 20> %scf
| 21>   MaxIter 150
| 22> end
| 23>
| 24>
| 25>                          ****END OF INPUT****

CARTESIAN COORDINATES (ANGSTROEM)
---------------------------------
  C     -0.870960    0.248040   -2.662800
  C     -0.477490    0.608190   -4.101050
  H      0.206770    1.458300   -4.118750
  H     -1.368440    0.929420   -4.647850
  C      0.184670   -0.506640   -4.916760
  O     -0.158690   -1.701090   -4.657980
  F      1.055940   -0.174410   -5.740370
  H     -1.540560   -0.586460   -2.674550
  H     -1.353390    1.086000   -2.204550
  H      0.006600   -0.006620   -2.106090

 Total Charge           Charge          ....    0
 Multiplicity           Mult            ....    1
 Number of Electrons    NEL             ....   40
 Basis Dimension        Dim             ....  345

ORBITAL ENERGIES
----------------

  NO   OCC          E(Eh)            E(eV)
   0   2.0000     -26.381828      -717.8860
   1   2.0000     -20.560539      -559.4807
   2   2.0000     -11.432794      -311.1021
   3   2.0000     -11.264234      -306.5154
   4   2.0000     -11.228208      -305.5351
   5   2.0000      -1.740231       -47.3541
   6   2.0000      -1.364457       -37.1288
   7   2.0000      -1.074374       -29.2352
   8   2.0000      -0.946079       -25.7441
   9   2.0000      -0.874899       -23.8072
  10   2.0000      -0.777957       -21.1693
  11   2.0000      -0.771456       -20.9924
  12   2.0000      -0.711070       -19.3492
  13   2.0000      -0.638295       -17.3689
  14   2.0000      -0.610929       -16.6242
  15   2.0000      -0.550509       -14.9801
  16   2.0000      -0.536562       -14.6006
  17   2.0000      -0.526890       -14.3374
  18   2.0000      -0.486040       -13.2258
  19   2.0000      -0.463386       -12.6094
  20   0.0000       0.026024         0.7081
  21   0.0000       0.039271         1.0686
  22   0.0000       0.040523         1.1027
  23   0.0000       0.048512         1.3201
  24   0.0000       0.065095         1.7713

MULLIKEN ATOMIC CHARGES
-----------------------
   0 C :   -0.877505
   1 C :   -0.333098
   2 H :    0.286895
   3 H :    0.268804
   4 C :    0.605224
   5 O :   -0.645724
   6 F :   -0.243167
   7 H :    0.329268
   8 H :    0.313722
   9 H :    0.295581
Sum of atomic charges:   -0.0000000

LOEWDIN ATOMIC CHARGES
----------------------
   0 C :    0.596951
   1 C :    0.245111
   2 H :   -0.178076
   3 H :   -0.160132
   4 C :   -0.915750
   5 O :    0.373113
   6 F :    0.593357
   7 H :   -0.189967
   8 H :   -0.182520
   9 H :   -0.182087

  Mayer bond orders larger than 0.100000
B(  0-C ,  1-C ) :   0.8771 B(  0-C ,  7-H ) :   0.9133 B(  0-C ,  8-H ) :   0.9311
B(  0-C ,  9-H ) :   0.9257 B(  1-C ,  2-H ) :   0.9256 B(  1-C ,  3-H ) :   0.9098
B(  1-C ,  4-C ) :   0.8151 B(  4-C ,  5-O ) :   1.6596 B(  4-C ,  6-F ) :   0.8844

E(0)                                       ...   -290.923417282
E(0)                                       ...   -290.923417282
E(CORR)(strong-pairs)                      ...     -1.024916641
E(CORR)(weak-pairs)                        ...     -0.000880021
E(CORR)(corrected)                         ...     -1.025796662
E(TOT)                                     ...   -291.949213944
E(CCSD(T))                                 ...   -291.989571325
FINAL SINGLE POINT ENERGY      -291.989571325363

DIPOLE MOMENT
-------------
                                X             Y             Z
Electronic contribution:      4.62896      -2.69224      -7.08454
Nuclear contribution   :     -4.75269       4.00281       7.35060
                        -----------------------------------------
Total Dipole Moment    :     -0.12373       1.31057       0.26606
                        -----------------------------------------
Magnitude (a.u.)       :      1.34301
Magnitude (Debye)      :      3.41367

Rotational constants in cm-1:     0.323805     0.124913     0.096140
Rotational constants in MHz :  9707.430323  3744.789513  2882.191141

                             ****ORCA TERMINATED NORMALLY****
TOTAL RUN TIME: 0 days 0 hours 3 minutes 28 seconds 494 msec
