                         Program Version 5.0.0 -  RELEASE  -
|  1> !DLPNO-CCSD(T) aug-cc-pVTZ aug-cc-pVTZ/C TightSCF TightPNO RIJCOSX def2/J
|  2> *xyz 0 1
|  3> C          2.48645       -2.67712       -2.56345
|  4> C          3.03764       -2.36672       -3.92351
|  5> N          2.28036       -2.45441       -4.96769
|  6> C          4.32174       -2.01793       -4.01664
|  7> H          4.87994       -1.91167       -3.17382
|  8> H          4.71015       -1.67088       -4.88356
|  9> H          1.27042       -2.41265       -4.86614
| 10> H          2.58183       -2.05528       -5.84688
| 11> C          2.49799       -1.46946       -1.61030
| 12> H          1.47259       -3.05153       -2.69437
| 13> H          3.08320       -3.49064       -2.14147
| 14> H          1.91240       -0.67831       -2.02991
| 15> H          3.50450       -1.13364       -1.47227
| 16> H          2.08509       -1.75655       -0.66585
| 17> *
| 18>
| 19> %MaxCore 64000
| 20>
| 21> %pal nprocs 18
| 22> end
| 23>
| 24> %scf
| 25>   MaxIter 150
| 26> end
| 27>
| 28>
| 29>                          ****END OF INPUT****

CARTESIAN COORDINATES (ANGSTROEM)
---------------------------------
  C      2.486450   -2.677120   -2.563450
  C      3.037640   -2.366720   -3.923510
  N      2.280360   -2.454410   -4.967690
  C      4.321740   -2.017930   -4.016640
  H      4.879940   -1.911670   -3.173820
  H      4.710150   -1.670880   -4.883560
  H      1.270420   -2.412650   -4.866140
  H      2.581830   -2.055280   -5.846880
  C      2.497990   -1.469460   -1.610300
  H      1.472590   -3.051530   -2.694370
  H      3.083200   -3.490640   -2.141470
  H      1.912400   -0.678310   -2.029910
  H      3.504500   -1.133640   -1.472270
  H      2.085090   -1.756550   -0.665850

 Total Charge           Charge          ....    0
 Multiplicity           Mult            ....    1
 Number of Electrons    NEL             ....   40
 Basis Dimension        Dim             ....  437

ORBITAL ENERGIES
----------------

  NO   OCC          E(Eh)            E(eV)
   0   2.0000     -15.564591      -423.5341
   1   2.0000     -11.255754      -306.2846
   2   2.0000     -11.225649      -305.4654
   3   2.0000     -11.209335      -305.0215
   4   2.0000     -11.149448      -303.3919
   5   2.0000      -1.251758       -34.0621
   6   2.0000      -1.054160       -28.6851
   7   2.0000      -0.969164       -26.3723
   8   2.0000      -0.873734       -23.7755
   9   2.0000      -0.771685       -20.9986
  10   2.0000      -0.699290       -19.0287
  11   2.0000      -0.659859       -17.9557
  12   2.0000      -0.610533       -16.6134
  13   2.0000      -0.571799       -15.5594
  14   2.0000      -0.551765       -15.0143
  15   2.0000      -0.532824       -14.4989
  16   2.0000      -0.499653       -13.5963
  17   2.0000      -0.483631       -13.1603
  18   2.0000      -0.481535       -13.1032
  19   2.0000      -0.287252        -7.8165
  20   0.0000       0.026382         0.7179
  21   0.0000       0.035768         0.9733
  22   0.0000       0.040494         1.1019
  23   0.0000       0.044367         1.2073
  24   0.0000       0.056278         1.5314

MULLIKEN ATOMIC CHARGES
-----------------------
   0 C :   -0.112024
   1 C :    0.723880
   2 N :   -0.617969
   3 C :   -1.284332
   4 H :    0.255900
   5 H :    0.513404
   6 H :    0.057035
   7 H :    0.044243
   8 C :   -0.972653
   9 H :    0.210550
  10 H :    0.302205
  11 H :    0.310592
  12 H :    0.321155
  13 H :    0.248014
Sum of atomic charges:   -0.0000000

LOEWDIN ATOMIC CHARGES
----------------------
   0 C :    0.282548
   1 C :   -0.315957
   2 N :    0.832385
   3 C :    0.560856
   4 H :   -0.295354
   5 H :   -0.291567
   6 H :   -0.269465
   7 H :   -0.263121
   8 C :    0.614037
   9 H :   -0.163000
  10 H :   -0.139011
  11 H :   -0.177563
  12 H :   -0.191823
  13 H :   -0.182965

  Mayer bond orders larger than 0.100000
B(  0-C ,  1-C ) :   0.6724 B(  0-C ,  8-C ) :   0.7910 B(  0-C ,  9-H ) :   0.9852
B(  0-C , 10-H ) :   0.9747 B(  1-C ,  2-N ) :   0.6443 B(  1-C ,  3-C ) :   1.2594
B(  1-C ,  8-C ) :   0.1613 B(  2-N ,  3-C ) :  -0.2328 B(  2-N ,  6-H ) :   1.1484
B(  2-N ,  7-H ) :   1.1780 B(  3-C ,  4-H ) :   1.1972 B(  3-C ,  5-H ) :   0.6874
B(  8-C , 11-H ) :   0.9323 B(  8-C , 12-H ) :   0.9134 B(  8-C , 13-H ) :   1.0017

E(0)                                       ...   -211.202567559
E(0)                                       ...   -211.202567559
E(CORR)(strong-pairs)                      ...     -0.950264225
E(CORR)(weak-pairs)                        ...     -0.000922907
E(CORR)(corrected)                         ...     -0.951187132
E(TOT)                                     ...   -212.153754692
E(CCSD(T))                                 ...   -212.192462424
FINAL SINGLE POINT ENERGY      -212.192462424314

DIPOLE MOMENT
-------------
                                X             Y             Z
Electronic contribution:     -0.29854      -1.17906      -2.91444
Nuclear contribution   :     -0.52463       1.37972       2.79217
                        -----------------------------------------
Total Dipole Moment    :     -0.82317       0.20066      -0.12227
                        -----------------------------------------
Magnitude (a.u.)       :      0.85605
Magnitude (Debye)      :      2.17592

Rotational constants in cm-1:     0.281086     0.127387     0.100311
Rotational constants in MHz :  8426.743103  3818.969834  3007.238026

                             ****ORCA TERMINATED NORMALLY****
TOTAL RUN TIME: 0 days 0 hours 7 minutes 15 seconds 932 msec
