                         Program Version 5.0.0 -  RELEASE  -
|  1> !DLPNO-CCSD(T) aug-cc-pVTZ aug-cc-pVTZ/C TightSCF TightPNO RIJCOSX def2/J
|  2>
|  3> *xyzfile 0 1 D1.xyz
|  4>
|  5> %MaxCore 64000
|  6>
|  7> %pal nprocs 18
|  8> end
|  9>
| 10> %scf
| 11>   MaxIter 150
| 12> end
| 13>
| 14>
| 15>                          ****END OF INPUT****

CARTESIAN COORDINATES (ANGSTROEM)
---------------------------------
  C      2.486452   -2.677121   -2.563447
  C     -0.870963    0.248043   -2.662804
  C     -0.477492    0.608191   -4.101052
  H      0.206773    1.458299   -4.118748
  H     -1.368442    0.929419   -4.647855
  C      0.184673   -0.506640   -4.916760
  C      3.037640   -2.366715   -3.923509
  C      2.280360   -2.454408   -4.967692
  N      4.321736   -2.017932   -4.016641
  H      4.879940   -1.911668   -3.173823
  H      4.710148   -1.670882   -4.883561
  H      1.270423   -2.412650   -4.866143
  H      2.581829   -2.055282   -5.846878
  F     -0.158685   -1.701088   -4.657981
  O      1.055938   -0.174410   -5.740373
  C      2.497991   -1.469464   -1.610303
  C      1.582841   -0.321986   -2.042619
  H      2.193083   -1.833912   -0.625420
  H      3.523356   -1.103982   -1.490392
  C      0.100160   -0.673551   -1.915815
  H      1.822311   -0.040361   -3.072834
  H      1.813180    0.557019   -1.433266
  H     -0.063284   -1.679120   -2.301112
  H     -0.168820   -0.691680   -0.853831
  H     -1.001048    1.181040   -2.104071
  H     -1.844645   -0.246592   -2.663281
  H      1.472592   -3.051527   -2.694366
  H      3.083201   -3.490638   -2.141472

 Total Charge           Charge          ....    0
 Multiplicity           Mult            ....    1
 Number of Electrons    NEL             ....   94
 Basis Dimension        Dim             ....  920

ORBITAL ENERGIES
----------------

  NO   OCC          E(Eh)            E(eV)
   0   2.0000     -26.370629      -717.5813
   1   2.0000     -20.559873      -559.4626
   2   2.0000     -15.545564      -423.0163
   3   2.0000     -11.427733      -310.9644
   4   2.0000     -11.258449      -306.3580
   5   2.0000     -11.240639      -305.8733
   6   2.0000     -11.235341      -305.7292
   7   2.0000     -11.226998      -305.5021
   8   2.0000     -11.223986      -305.4202
   9   2.0000     -11.222317      -305.3748
  10   2.0000     -11.217977      -305.2567
  11   2.0000     -11.124520      -302.7136
  12   2.0000      -1.728143       -47.0252
  13   2.0000      -1.381378       -37.5892
  14   2.0000      -1.219215       -33.1765
  15   2.0000      -1.110014       -30.2050
  16   2.0000      -1.067406       -29.0456
  17   2.0000      -1.009765       -27.4771
  18   2.0000      -0.981334       -26.7034
  19   2.0000      -0.923790       -25.1376
  20   2.0000      -0.893635       -24.3170
  21   2.0000      -0.844245       -22.9731
  22   2.0000      -0.795426       -21.6447
  23   2.0000      -0.793313       -21.5871
  24   2.0000      -0.770532       -20.9672
  25   2.0000      -0.739396       -20.1200
  26   2.0000      -0.694638       -18.9021
  27   2.0000      -0.687172       -18.6989
  28   2.0000      -0.652990       -17.7688
  29   2.0000      -0.644375       -17.5343
  30   2.0000      -0.630031       -17.1440
  31   2.0000      -0.609599       -16.5880
  32   2.0000      -0.595808       -16.2128
  33   2.0000      -0.583614       -15.8810
  34   2.0000      -0.559556       -15.2263
  35   2.0000      -0.544493       -14.8164
  36   2.0000      -0.525573       -14.3016
  37   2.0000      -0.523398       -14.2424
  38   2.0000      -0.511913       -13.9299
  39   2.0000      -0.498232       -13.5576
  40   2.0000      -0.484919       -13.1953
  41   2.0000      -0.477805       -13.0017
  42   2.0000      -0.463277       -12.6064
  43   2.0000      -0.454234       -12.3603
  44   2.0000      -0.449297       -12.2260
  45   2.0000      -0.446868       -12.1599
  46   2.0000      -0.282453        -7.6859
  47   0.0000       0.024357         0.6628
  48   0.0000       0.028997         0.7891
  49   0.0000       0.033803         0.9198
  50   0.0000       0.036673         0.9979
  51   0.0000       0.045149         1.2286

MULLIKEN ATOMIC CHARGES
-----------------------
   0 C :   -0.078103
   1 C :   -0.667245
   2 C :   -0.224461
   3 H :    0.217335
   4 H :    0.383997
   5 C :    0.966529
   6 C :    1.220825
   7 C :   -1.509210
   8 N :   -0.924090
   9 H :   -0.003558
  10 H :   -0.005804
  11 H :    0.524385
  12 H :    0.617018
  13 F :   -0.484675
  14 O :   -0.942091
  15 C :   -0.655360
  16 C :   -0.453794
  17 H :    0.219245
  18 H :    0.249857
  19 C :   -0.350083
  20 H :    0.180928
  21 H :    0.223615
  22 H :    0.389049
  23 H :    0.303997
  24 H :    0.292487
  25 H :    0.190021
  26 H :   -0.131211
  27 H :    0.450398
Sum of atomic charges:   -0.0000000

LOEWDIN ATOMIC CHARGES
----------------------
   0 C :    0.303712
   1 C :    0.297148
   2 C :    0.288826
   3 H :   -0.159285
   4 H :   -0.148084
   5 C :   -0.853366
   6 C :   -0.290595
   7 C :    0.515381
   8 N :    0.848187
   9 H :   -0.284100
  10 H :   -0.267212
  11 H :   -0.551545
  12 H :   -0.286416
  13 F :    0.719676
  14 O :    0.476577
  15 C :    0.308168
  16 C :    0.297728
  17 H :   -0.141549
  18 H :   -0.148531
  19 C :    0.289504
  20 H :   -0.178167
  21 H :   -0.129250
  22 H :   -0.192847
  23 H :   -0.128236
  24 H :   -0.137812
  25 H :   -0.147425
  26 H :   -0.168742
  27 H :   -0.131744

  Mayer bond orders larger than 0.100000
B(  0-C ,  6-C ) :   0.5671 B(  0-C ,  8-N ) :  -0.1729 B(  0-C , 15-C ) :   0.8523
B(  0-C , 26-H ) :   1.2451 B(  0-C , 27-H ) :   0.8558 B(  1-C ,  2-C ) :   0.9098
B(  1-C ,  5-C ) :   0.1368 B(  1-C , 19-C ) :   0.8808 B(  1-C , 24-H ) :   0.9206
B(  1-C , 25-H ) :   1.0533 B(  2-C ,  3-H ) :   1.0257 B(  2-C ,  4-H ) :   0.8964
B(  2-C ,  5-C ) :   0.7575 B(  4-H ,  5-C ) :  -0.1315 B(  5-C , 13-F ) :   0.7797
B(  5-C , 14-O ) :   1.3375 B(  6-C ,  7-C ) :   0.8792 B(  6-C ,  8-N ) :   0.4300
B(  6-C , 11-H ) :  -0.1216 B(  6-C , 26-H ) :   0.1699 B(  6-C , 27-H ) :  -0.1859
B(  7-C ,  8-N ) :  -0.2432 B(  7-C , 11-H ) :   0.9905 B(  7-C , 12-H ) :   0.5202
B(  8-N ,  9-H ) :   1.2702 B(  8-N , 10-H ) :   1.2481 B( 11-H , 13-F ) :  -0.2025
B( 11-H , 14-O ) :   0.1112 B( 13-F , 19-C ) :  -0.1117 B( 13-F , 22-H ) :  -0.1365
B( 15-C , 16-C ) :   0.9150 B( 15-C , 17-H ) :   1.0434 B( 15-C , 18-H ) :   0.9631
B( 15-C , 19-C ) :   0.1005 B( 16-C , 19-C ) :   0.6444 B( 16-C , 20-H ) :   1.0243
B( 16-C , 21-H ) :   1.0195 B( 19-C , 22-H ) :   1.0243 B( 19-C , 23-H ) :   0.9251

E(0)                                       ...   -579.015607415
E(0)                                       ...   -579.015607415
E(CORR)(strong-pairs)                      ...     -2.333295732
E(CORR)(weak-pairs)                        ...     -0.003521528
E(CORR)(corrected)                         ...     -2.336817260
E(TOT)                                     ...   -581.352424676
E(CCSD(T))                                 ...   -581.450297008
FINAL SINGLE POINT ENERGY      -581.450297007869

DIPOLE MOMENT
-------------
                                X             Y             Z
Electronic contribution:     -3.82537      -1.57252     -10.10853
Nuclear contribution   :      3.32973       2.37270      11.37738
                        -----------------------------------------
Total Dipole Moment    :     -0.49564       0.80019       1.26885
                        -----------------------------------------
Magnitude (a.u.)       :      1.57986
Magnitude (Debye)      :      4.01568

Rotational constants in cm-1:     0.040902     0.025807     0.019036
Rotational constants in MHz :  1226.202138   773.670450   570.681201

                             ****ORCA TERMINATED NORMALLY****
TOTAL RUN TIME: 0 days 3 hours 51 minutes 59 seconds 757 msec
