                         Program Version 5.0.0 -  RELEASE  -
|  1> !DLPNO-CCSD(T) aug-cc-pVTZ aug-cc-pVTZ/C TightSCF TightPNO RIJCOSX def2/J
|  2>
|  3> *xyzfile 0 1 D3.xyz
|  4>
|  5> %MaxCore 64000
|  6>
|  7> %pal nprocs 18
|  8> end
|  9>
| 10> %scf
| 11>   MaxIter 150
| 12> end
| 13>
| 14>
| 15>                          ****END OF INPUT****

CARTESIAN COORDINATES (ANGSTROEM)
---------------------------------
  C      2.486452   -2.677121   -2.563447
  C     -0.870963    0.248043   -2.662804
  C     -0.477492    0.608191   -4.101052
  H      0.206773    1.458299   -4.118748
  H     -1.368442    0.929419   -4.647855
  C      0.184673   -0.506640   -4.916760
  C      3.037640   -2.366715   -3.923509
  C      2.280360   -2.454408   -4.967692
  N      4.321736   -2.017932   -4.016641
  H      4.879940   -1.911668   -3.173823
  H      4.710148   -1.670882   -4.883561
  H      1.270423   -2.412650   -4.866143
  H      2.581829   -2.055282   -5.846878
  O     -0.158685   -1.701088   -4.657981
  F      1.055938   -0.174410   -5.740373
  C      2.497991   -1.469464   -1.610303
  C      1.582841   -0.321986   -2.042619
  H      2.193083   -1.833912   -0.625420
  H      3.523356   -1.103982   -1.490392
  C      0.100160   -0.673551   -1.915815
  H      1.822311   -0.040361   -3.072834
  H      1.813180    0.557019   -1.433266
  H     -0.063284   -1.679120   -2.301112
  H     -0.168820   -0.691680   -0.853831
  H     -1.001048    1.181040   -2.104071
  H     -1.844645   -0.246592   -2.663281
  H      1.472592   -3.051527   -2.694366
  H      3.083201   -3.490638   -2.141472

 Total Charge           Charge          ....    0
 Multiplicity           Mult            ....    1
 Number of Electrons    NEL             ....   94
 Basis Dimension        Dim             ....  920

ORBITAL ENERGIES
----------------

  NO   OCC          E(Eh)            E(eV)
   0   2.0000     -26.380197      -717.8417
   1   2.0000     -20.555967      -559.3563
   2   2.0000     -15.544371      -422.9838
   3   2.0000     -11.435174      -311.1669
   4   2.0000     -11.261654      -306.4452
   5   2.0000     -11.237342      -305.7836
   6   2.0000     -11.232233      -305.6446
   7   2.0000     -11.220753      -305.3322
   8   2.0000     -11.220139      -305.3155
   9   2.0000     -11.216706      -305.2221
  10   2.0000     -11.212013      -305.0944
  11   2.0000     -11.115420      -302.4660
  12   2.0000      -1.740292       -47.3557
  13   2.0000      -1.374823       -37.4108
  14   2.0000      -1.217589       -33.1323
  15   2.0000      -1.103884       -30.0382
  16   2.0000      -1.064544       -28.9677
  17   2.0000      -1.007576       -27.4175
  18   2.0000      -0.979398       -26.6508
  19   2.0000      -0.927997       -25.2521
  20   2.0000      -0.891879       -24.2693
  21   2.0000      -0.840487       -22.8708
  22   2.0000      -0.790170       -21.5016
  23   2.0000      -0.779663       -21.2157
  24   2.0000      -0.767119       -20.8744
  25   2.0000      -0.748556       -20.3693
  26   2.0000      -0.714600       -19.4453
  27   2.0000      -0.686818       -18.6893
  28   2.0000      -0.650724       -17.7071
  29   2.0000      -0.641751       -17.4629
  30   2.0000      -0.626031       -17.0352
  31   2.0000      -0.605341       -16.4722
  32   2.0000      -0.597096       -16.2478
  33   2.0000      -0.568894       -15.4804
  34   2.0000      -0.565313       -15.3829
  35   2.0000      -0.551428       -15.0051
  36   2.0000      -0.529070       -14.3967
  37   2.0000      -0.516092       -14.0436
  38   2.0000      -0.505109       -13.7447
  39   2.0000      -0.500025       -13.6064
  40   2.0000      -0.481738       -13.1088
  41   2.0000      -0.468566       -12.7503
  42   2.0000      -0.458221       -12.4688
  43   2.0000      -0.448609       -12.2073
  44   2.0000      -0.447602       -12.1799
  45   2.0000      -0.422963       -11.5094
  46   2.0000      -0.280539        -7.6339
  47   0.0000       0.024215         0.6589
  48   0.0000       0.029445         0.8012
  49   0.0000       0.033368         0.9080
  50   0.0000       0.037635         1.0241
  51   0.0000       0.044581         1.2131

MULLIKEN ATOMIC CHARGES
-----------------------
   0 C :   -0.037204
   1 C :   -0.639883
   2 C :   -0.310435
   3 H :    0.222727
   4 H :    0.365654
   5 C :    1.005947
   6 C :    1.196258
   7 C :   -1.506821
   8 N :   -0.912625
   9 H :    0.000387
  10 H :   -0.010757
  11 H :    0.439511
  12 H :    0.581293
  13 O :   -0.846065
  14 F :   -0.503727
  15 C :   -0.660100
  16 C :   -0.446555
  17 H :    0.219692
  18 H :    0.246788
  19 C :   -0.334485
  20 H :    0.171374
  21 H :    0.217097
  22 H :    0.346432
  23 H :    0.342527
  24 H :    0.292634
  25 H :    0.199246
  26 H :   -0.090904
  27 H :    0.451994
Sum of atomic charges:    0.0000000

LOEWDIN ATOMIC CHARGES
----------------------
   0 C :    0.307761
   1 C :    0.303618
   2 C :    0.293119
   3 H :   -0.167033
   4 H :   -0.148232
   5 C :   -0.821816
   6 C :   -0.290683
   7 C :    0.522874
   8 N :    0.843630
   9 H :   -0.285380
  10 H :   -0.270856
  11 H :   -0.611425
  12 H :   -0.278595
  13 O :    0.565378
  14 F :    0.657985
  15 C :    0.308392
  16 C :    0.294339
  17 H :   -0.140754
  18 H :   -0.150078
  19 C :    0.287645
  20 H :   -0.176872
  21 H :   -0.131296
  22 H :   -0.202723
  23 H :   -0.129992
  24 H :   -0.138783
  25 H :   -0.142814
  26 H :   -0.165042
  27 H :   -0.132370

  Mayer bond orders larger than 0.100000
B(  0-C ,  6-C ) :   0.5306 B(  0-C ,  8-N ) :  -0.1682 B(  0-C , 15-C ) :   0.8543
B(  0-C , 26-H ) :   1.2290 B(  0-C , 27-H ) :   0.8580 B(  1-C ,  2-C ) :   0.9371
B(  1-C , 19-C ) :   0.8670 B(  1-C , 24-H ) :   0.9248 B(  1-C , 25-H ) :   1.0518
B(  2-C ,  3-H ) :   1.0337 B(  2-C ,  4-H ) :   0.8821 B(  2-C ,  5-C ) :   0.7968
B(  4-H ,  5-C ) :  -0.1099 B(  5-C ,  7-C ) :   0.1017 B(  5-C , 13-O ) :   1.5145
B(  5-C , 14-F ) :   0.4819 B(  6-C ,  7-C ) :   0.9103 B(  6-C ,  8-N ) :   0.4086
B(  6-C , 11-H ) :  -0.1342 B(  6-C , 26-H ) :   0.1759 B(  6-C , 27-H ) :  -0.1927
B(  7-C ,  8-N ) :  -0.2314 B(  7-C , 11-H ) :   0.9638 B(  7-C , 12-H ) :   0.5761
B(  8-N ,  9-H ) :   1.2626 B(  8-N , 10-H ) :   1.2505 B( 11-H , 14-F ) :   0.1321
B( 13-O , 22-H ) :  -0.1061 B( 15-C , 16-C ) :   0.9045 B( 15-C , 17-H ) :   1.0408
B( 15-C , 18-H ) :   0.9630 B( 15-C , 19-C ) :   0.1047 B( 16-C , 19-C ) :   0.6583
B( 16-C , 20-H ) :   1.0275 B( 16-C , 21-H ) :   1.0216 B( 19-C , 22-H ) :   1.0443
B( 19-C , 23-H ) :   0.8743

E(0)                                       ...   -579.008127449
E(0)                                       ...   -579.008127449
E(CORR)(strong-pairs)                      ...     -2.334641182
E(CORR)(weak-pairs)                        ...     -0.003599128
E(CORR)(corrected)                         ...     -2.338240310
E(TOT)                                     ...   -581.346367759
E(CCSD(T))                                 ...   -581.444756063
FINAL SINGLE POINT ENERGY      -581.444756062526

DIPOLE MOMENT
-------------
                                X             Y             Z
Electronic contribution:     -1.82225       1.06186     -12.04003
Nuclear contribution   :      1.88979       0.56282      12.66056
                        -----------------------------------------
Total Dipole Moment    :      0.06753       1.62468       0.62053
                        -----------------------------------------
Magnitude (a.u.)       :      1.74047
Magnitude (Debye)      :      4.42391

Rotational constants in cm-1:     0.040271     0.025954     0.018866
Rotational constants in MHz :  1207.302496   778.083475   565.600538

                             ****ORCA TERMINATED NORMALLY****
TOTAL RUN TIME: 0 days 3 hours 35 minutes 42 seconds 820 msec
