                         Program Version 5.0.0 -  RELEASE  -
|  1> !DLPNO-CCSD(T) aug-cc-pVTZ aug-cc-pVTZ/C TightSCF TightPNO RIJCOSX def2/J
|  2>
|  3> *xyzfile 0 1 D4.xyz
|  4>
|  5> %MaxCore 64000
|  6>
|  7> %pal nprocs 18
|  8> end
|  9>
| 10> %scf
| 11>   MaxIter 150
| 12> end
| 13>
| 14>
| 15>                          ****END OF INPUT****

CARTESIAN COORDINATES (ANGSTROEM)
---------------------------------
  C      2.486452   -2.677121   -2.563447
  C     -0.870963    0.248043   -2.662804
  C     -0.477492    0.608191   -4.101052
  H      0.206773    1.458299   -4.118748
  H     -1.368442    0.929419   -4.647855
  C      0.184673   -0.506640   -4.916760
  C      3.037640   -2.366715   -3.923509
  N      2.280360   -2.454408   -4.967692
  C      4.321736   -2.017932   -4.016641
  H      4.879940   -1.911668   -3.173823
  H      4.710148   -1.670882   -4.883561
  H      1.270423   -2.412650   -4.866143
  H      2.581829   -2.055282   -5.846878
  O     -0.158685   -1.701088   -4.657981
  F      1.055938   -0.174410   -5.740373
  C      2.497991   -1.469464   -1.610303
  C      1.582841   -0.321986   -2.042619
  H      2.193083   -1.833912   -0.625420
  H      3.523356   -1.103982   -1.490392
  C      0.100160   -0.673551   -1.915815
  H      1.822311   -0.040361   -3.072834
  H      1.813180    0.557019   -1.433266
  H     -0.063284   -1.679120   -2.301112
  H     -0.168820   -0.691680   -0.853831
  H     -1.001048    1.181040   -2.104071
  H     -1.844645   -0.246592   -2.663281
  H      1.472592   -3.051527   -2.694366
  H      3.083201   -3.490638   -2.141472

 Total Charge           Charge          ....    0
 Multiplicity           Mult            ....    1
 Number of Electrons    NEL             ....   94
 Basis Dimension        Dim             ....  920

ORBITAL ENERGIES
----------------

  NO   OCC          E(Eh)            E(eV)
   0   2.0000     -26.402272      -718.4423
   1   2.0000     -20.582582      -560.0805
   2   2.0000     -15.523978      -422.4289
   3   2.0000     -11.458896      -311.8124
   4   2.0000     -11.274423      -306.7927
   5   2.0000     -11.245745      -306.0123
   6   2.0000     -11.240038      -305.8570
   7   2.0000     -11.223504      -305.4071
   8   2.0000     -11.222442      -305.3782
   9   2.0000     -11.218337      -305.2665
  10   2.0000     -11.213112      -305.1243
  11   2.0000     -11.132393      -302.9278
  12   2.0000      -1.762194       -47.9517
  13   2.0000      -1.401318       -38.1318
  14   2.0000      -1.227788       -33.4098
  15   2.0000      -1.113051       -30.2876
  16   2.0000      -1.067993       -29.0616
  17   2.0000      -1.018036       -27.7022
  18   2.0000      -0.968523       -26.3549
  19   2.0000      -0.934385       -25.4259
  20   2.0000      -0.904154       -24.6033
  21   2.0000      -0.850074       -23.1317
  22   2.0000      -0.803115       -21.8539
  23   2.0000      -0.799178       -21.7468
  24   2.0000      -0.781237       -21.2585
  25   2.0000      -0.758093       -20.6288
  26   2.0000      -0.725561       -19.7435
  27   2.0000      -0.676788       -18.4163
  28   2.0000      -0.657723       -17.8975
  29   2.0000      -0.650276       -17.6949
  30   2.0000      -0.646089       -17.5810
  31   2.0000      -0.615717       -16.7545
  32   2.0000      -0.587864       -15.9966
  33   2.0000      -0.579148       -15.7594
  34   2.0000      -0.562446       -15.3049
  35   2.0000      -0.553478       -15.0609
  36   2.0000      -0.533974       -14.5302
  37   2.0000      -0.523942       -14.2572
  38   2.0000      -0.510462       -13.8904
  39   2.0000      -0.506015       -13.7694
  40   2.0000      -0.485990       -13.2245
  41   2.0000      -0.481447       -13.1008
  42   2.0000      -0.472328       -12.8527
  43   2.0000      -0.462054       -12.5731
  44   2.0000      -0.452148       -12.3036
  45   2.0000      -0.443654       -12.0724
  46   2.0000      -0.268135        -7.2963
  47   0.0000       0.021378         0.5817
  48   0.0000       0.031455         0.8559
  49   0.0000       0.032837         0.8935
  50   0.0000       0.037777         1.0280
  51   0.0000       0.045841         1.2474

MULLIKEN ATOMIC CHARGES
-----------------------
   0 C :    0.137625
   1 C :   -0.634216
   2 C :   -0.338835
   3 H :    0.236998
   4 H :    0.369088
   5 C :    1.113939
   6 C :    1.162246
   7 N :   -0.760581
   8 C :   -1.737310
   9 H :    0.231019
  10 H :    0.391067
  11 H :    0.204813
  12 H :   -0.056519
  13 O :   -0.833945
  14 F :   -0.495447
  15 C :   -0.630214
  16 C :   -0.410999
  17 H :    0.215802
  18 H :    0.231093
  19 C :   -0.329509
  20 H :    0.134444
  21 H :    0.246426
  22 H :    0.307566
  23 H :    0.354992
  24 H :    0.302491
  25 H :    0.201646
  26 H :   -0.121552
  27 H :    0.507874
Sum of atomic charges:    0.0000000

LOEWDIN ATOMIC CHARGES
----------------------
   0 C :    0.309989
   1 C :    0.304768
   2 C :    0.296985
   3 H :   -0.164529
   4 H :   -0.146838
   5 C :   -0.815015
   6 C :   -0.305650
   7 N :    0.833947
   8 C :    0.558793
   9 H :   -0.299638
  10 H :   -0.294359
  11 H :   -0.624310
  12 H :   -0.267155
  13 O :    0.571261
  14 F :    0.658912
  15 C :    0.310695
  16 C :    0.294243
  17 H :   -0.140173
  18 H :   -0.148427
  19 C :    0.285259
  20 H :   -0.177219
  21 H :   -0.128704
  22 H :   -0.205911
  23 H :   -0.128714
  24 H :   -0.136902
  25 H :   -0.142743
  26 H :   -0.169621
  27 H :   -0.128945

  Mayer bond orders larger than 0.100000
B(  0-C ,  6-C ) :   0.4617 B(  0-C ,  7-N ) :  -0.1203 B(  0-C ,  8-C ) :  -0.1396
B(  0-C , 15-C ) :   0.8380 B(  0-C , 26-H ) :   1.1568 B(  0-C , 27-H ) :   0.9352
B(  1-C ,  2-C ) :   0.9463 B(  1-C , 19-C ) :   0.8593 B(  1-C , 24-H ) :   0.9141
B(  1-C , 25-H ) :   1.0563 B(  2-C ,  3-H ) :   1.0186 B(  2-C ,  4-H ) :   0.8704
B(  2-C ,  5-C ) :   0.8186 B(  4-H ,  5-C ) :  -0.1022 B(  5-C , 13-O ) :   1.3931
B(  5-C , 14-F ) :   0.4511 B(  6-C ,  7-N ) :   0.2278 B(  6-C ,  8-C ) :   0.7867
B(  6-C ,  9-H ) :  -0.1262 B(  6-C , 12-H ) :  -0.2176 B(  6-C , 15-C ) :   0.2227
B(  6-C , 26-H ) :   0.2524 B(  6-C , 27-H ) :  -0.2548 B(  7-N , 11-H ) :   0.9536
B(  7-N , 12-H ) :   1.3146 B(  8-C ,  9-H ) :   1.3352 B(  8-C , 10-H ) :   0.8672
B(  8-C , 27-H ) :  -0.1373 B( 11-H , 14-F ) :   0.1069 B( 13-O , 22-H ) :  -0.1043
B( 15-C , 16-C ) :   0.8836 B( 15-C , 17-H ) :   1.0064 B( 15-C , 18-H ) :   0.9898
B( 16-C , 19-C ) :   0.6654 B( 16-C , 20-H ) :   1.0627 B( 16-C , 21-H ) :   0.9947
B( 19-C , 22-H ) :   1.0781 B( 19-C , 23-H ) :   0.8727

E(0)                                       ...   -579.028898240
E(0)                                       ...   -579.028898240
E(CORR)(strong-pairs)                      ...     -2.331975711
E(CORR)(weak-pairs)                        ...     -0.003579872
E(CORR)(corrected)                         ...     -2.335555583
E(TOT)                                     ...   -581.364453823
E(CCSD(T))                                 ...   -581.462753223
FINAL SINGLE POINT ENERGY      -581.462753223014

DIPOLE MOMENT
-------------
                                X             Y             Z
Electronic contribution:     -3.52307       0.92990     -12.66331
Nuclear contribution   :      2.21030       0.63135      12.80988
                        -----------------------------------------
Total Dipole Moment    :     -1.31277       1.56125       0.14657
                        -----------------------------------------
Magnitude (a.u.)       :      2.04508
Magnitude (Debye)      :      5.19819

Rotational constants in cm-1:     0.039980     0.026547     0.019089
Rotational constants in MHz :  1198.568620   795.867393   572.288555

                             ****ORCA TERMINATED NORMALLY****
TOTAL RUN TIME: 0 days 3 hours 25 minutes 27 seconds 376 msec
