                         Program Version 5.0.0 -  RELEASE  -
|  1> !LC-BLYP RIJCOSX def2-SVPD def2/J TightSCF
|  2> *xyz -1 1
|  3> C          3.90595        2.81985       -3.75292
|  4> C          3.80351        1.37472       -3.26081
|  5> C          3.93993        0.32036       -4.36773
|  6> H          4.10504       -0.65508       -3.90773
|  7> H          3.02280        0.28052       -4.95712
|  8> C          5.10585        0.66802       -5.30546
|  9> H          4.57483        1.21516       -2.50044
| 10> H          2.84351        1.26085       -2.75146
| 11> O          4.80913        1.15019       -6.41436
| 12> O          6.26737        0.56500       -4.81948
| 13> H          3.15892        2.99660       -4.49832
| 14> H          4.87575        2.98549       -4.17357
| 15> H          3.75481        3.48808       -2.93101
| 16> *
| 17>
| 18> %MaxCore 64000
| 19>
| 20> %pal nprocs 4
| 21> end
| 22>
| 23> %scf
| 24>   MaxIter 150
| 25> end
| 26>
| 27>
| 28>                          ****END OF INPUT****

CARTESIAN COORDINATES (ANGSTROEM)
---------------------------------
  C      3.905950    2.819850   -3.752920
  C      3.803510    1.374720   -3.260810
  C      3.939930    0.320360   -4.367730
  H      4.105040   -0.655080   -3.907730
  H      3.022800    0.280520   -4.957120
  C      5.105850    0.668020   -5.305460
  H      4.574830    1.215160   -2.500440
  H      2.843510    1.260850   -2.751460
  O      4.809130    1.150190   -6.414360
  O      6.267370    0.565000   -4.819480
  H      3.158920    2.996600   -4.498320
  H      4.875750    2.985490   -4.173570
  H      3.754810    3.488080   -2.931010

 Total Charge           Charge          ....   -1
 Multiplicity           Mult            ....    1
 Number of Electrons    NEL             ....   48
 Basis Dimension        Dim             ....  182

ORBITAL ENERGIES
----------------

  NO   OCC          E(Eh)            E(eV)
   0   2.0000     -18.702799      -508.9290
   1   2.0000     -18.699125      -508.8290
   2   2.0000      -9.978356      -271.5249
   3   2.0000      -9.938744      -270.4470
   4   2.0000      -9.925670      -270.0912
   5   2.0000      -9.912648      -269.7369
   6   2.0000      -0.912989       -24.8437
   7   2.0000      -0.818137       -22.2627
   8   2.0000      -0.741533       -20.1781
   9   2.0000      -0.643956       -17.5229
  10   2.0000      -0.547856       -14.9079
  11   2.0000      -0.434213       -11.8155
  12   2.0000      -0.411589       -11.1999
  13   2.0000      -0.395132       -10.7521
  14   2.0000      -0.354492        -9.6462
  15   2.0000      -0.339671        -9.2429
  16   2.0000      -0.316286        -8.6066
  17   2.0000      -0.308947        -8.4069
  18   2.0000      -0.297740        -8.1019
  19   2.0000      -0.273793        -7.4503
  20   2.0000      -0.271629        -7.3914
  21   2.0000      -0.156193        -4.2502
  22   2.0000      -0.145201        -3.9511
  23   2.0000      -0.135137        -3.6773
  24   0.0000       0.198536         5.4024
  25   0.0000       0.221690         6.0325
  26   0.0000       0.236133         6.4255
  27   0.0000       0.250813         6.8250
  28   0.0000       0.275068         7.4850

MULLIKEN ATOMIC CHARGES
-----------------------
   0 C :    0.890794
   1 C :   -0.294970
   2 C :    0.417791
   3 H :   -0.123714
   4 H :   -0.071297
   5 C :    0.051110
   6 H :   -0.095870
   7 H :   -0.257173
   8 O :   -0.509961
   9 O :   -0.584316
  10 H :   -0.123098
  11 H :   -0.081350
  12 H :   -0.217947
Sum of atomic charges:   -1.0000000

LOEWDIN ATOMIC CHARGES
----------------------
   0 C :    0.101111
   1 C :   -0.096904
   2 C :   -0.012138
   3 H :    0.009137
   4 H :    0.007511
   5 C :   -0.355529
   6 H :    0.017886
   7 H :    0.001140
   8 O :   -0.297241
   9 O :   -0.311438
  10 H :   -0.015247
  11 H :   -0.014123
  12 H :   -0.034165

  Mayer bond orders larger than 0.100000
B(  0-C ,  1-C ) :   1.3305 B(  0-C ,  7-H ) :   0.1198 B(  0-C , 10-H ) :   0.7210
B(  0-C , 11-H ) :   0.7604 B(  0-C , 12-H ) :   0.6883 B(  1-C ,  2-C ) :   1.2032
B(  1-C ,  3-H ) :   0.1597 B(  1-C ,  4-H ) :   0.1738 B(  1-C ,  6-H ) :   0.8922
B(  1-C ,  7-H ) :   0.9196 B(  1-C , 10-H ) :   0.2301 B(  1-C , 11-H ) :   0.2436
B(  1-C , 12-H ) :   0.2616 B(  2-C ,  3-H ) :   0.7959 B(  2-C ,  4-H ) :   0.8241
B(  2-C ,  5-C ) :   0.9854 B(  2-C ,  6-H ) :   0.1070 B(  3-H ,  5-C ) :   0.1338
B(  4-H ,  5-C ) :   0.2038 B(  5-C ,  8-O ) :   1.6638 B(  5-C ,  9-O ) :   1.6407

FINAL SINGLE POINT ENERGY      -306.229921009878

DIPOLE MOMENT
-------------
                                X             Y             Z
Electronic contribution:      4.10994      -2.85318      -4.78312
Nuclear contribution   :     -5.80393       3.20473       6.46101
                        -----------------------------------------
Total Dipole Moment    :     -1.69399       0.35155       1.67788
                        -----------------------------------------
Magnitude (a.u.)       :      2.41008
Magnitude (Debye)      :      6.12594

Rotational constants in cm-1:     0.184459     0.088019     0.082330
Rotational constants in MHz :  5529.929668  2638.753248  2468.201746

                             ****ORCA TERMINATED NORMALLY****
TOTAL RUN TIME: 0 days 0 hours 0 minutes 19 seconds 939 msec
