                         Program Version 5.0.0 -  RELEASE  -
|  1> !LC-BLYP RIJCOSX def2-SVPD def2/J TightSCF
|  2> *xyz 1 1
|  3> C          3.90595        2.81985       -3.75292
|  4> N          5.29562        3.13151       -4.10533
|  5> C          3.80351        1.37472       -3.26081
|  6> C          3.93993        0.32036       -4.36773
|  7> C          5.70862        3.46889       -5.32419
|  8> N          6.90470        3.03895       -5.71708
|  9> N          4.98188        4.29357       -6.09746
| 10> H          5.00055        4.10131       -7.08776
| 11> H          4.08469        4.59690       -5.73965
| 12> H          5.96336        2.52611       -3.64239
| 13> H          7.04716        2.06686       -5.47360
| 14> H          7.19815        3.30799       -6.64523
| 15> H          3.28202        2.94919       -4.64026
| 16> H          3.56525        3.51457       -2.98252
| 17> H          4.57483        1.21516       -2.50044
| 18> H          2.84351        1.26085       -2.75146
| 19> H          3.18417        0.48061       -5.10803
| 20> H          3.82485       -0.65632       -3.94614
| 21> H          4.90589        0.40174       -4.82073
| 22> *
| 23>
| 24> %MaxCore 64000
| 25>
| 26> %pal nprocs 4
| 27> end
| 28>
| 29> %scf
| 30>   MaxIter 150
| 31> end
| 32>
| 33>
| 34>                          ****END OF INPUT****

CARTESIAN COORDINATES (ANGSTROEM)
---------------------------------
  C      3.905950    2.819850   -3.752920
  N      5.295620    3.131510   -4.105330
  C      3.803510    1.374720   -3.260810
  C      3.939930    0.320360   -4.367730
  C      5.708620    3.468890   -5.324190
  N      6.904700    3.038950   -5.717080
  N      4.981880    4.293570   -6.097460
  H      5.000550    4.101310   -7.087760
  H      4.084690    4.596900   -5.739650
  H      5.963360    2.526110   -3.642390
  H      7.047160    2.066860   -5.473600
  H      7.198150    3.307990   -6.645230
  H      3.282020    2.949190   -4.640260
  H      3.565250    3.514570   -2.982520
  H      4.574830    1.215160   -2.500440
  H      2.843510    1.260850   -2.751460
  H      3.184170    0.480610   -5.108030
  H      3.824850   -0.656320   -3.946140
  H      4.905890    0.401740   -4.820730

 Total Charge           Charge          ....    1
 Multiplicity           Mult            ....    1
 Number of Electrons    NEL             ....   56
 Basis Dimension        Dim             ....  236

ORBITAL ENERGIES
----------------

  NO   OCC          E(Eh)            E(eV)
   0   2.0000     -14.415006      -392.2523
   1   2.0000     -14.413692      -392.2165
   2   2.0000     -14.413316      -392.2063
   3   2.0000     -10.424509      -283.6653
   4   2.0000     -10.290469      -280.0179
   5   2.0000     -10.236577      -278.5514
   6   2.0000     -10.211935      -277.8809
   7   2.0000      -1.315399       -35.7938
   8   2.0000      -1.202525       -32.7224
   9   2.0000      -1.193579       -32.4789
  10   2.0000      -1.049641       -28.5622
  11   2.0000      -0.969678       -26.3863
  12   2.0000      -0.924765       -25.1641
  13   2.0000      -0.888964       -24.1899
  14   2.0000      -0.869731       -23.6666
  15   2.0000      -0.841180       -22.8897
  16   2.0000      -0.804987       -21.9048
  17   2.0000      -0.789393       -21.4805
  18   2.0000      -0.753653       -20.5079
  19   2.0000      -0.736479       -20.0406
  20   2.0000      -0.697108       -18.9693
  21   2.0000      -0.688150       -18.7255
  22   2.0000      -0.660390       -17.9701
  23   2.0000      -0.614550       -16.7227
  24   2.0000      -0.595245       -16.1974
  25   2.0000      -0.593827       -16.1589
  26   2.0000      -0.584855       -15.9147
  27   2.0000      -0.552745       -15.0410
  28   0.0000      -0.114047        -3.1034
  29   0.0000      -0.093925        -2.5558
  30   0.0000      -0.064542        -1.7563
  31   0.0000      -0.048781        -1.3274
  32   0.0000      -0.032592        -0.8869

MULLIKEN ATOMIC CHARGES
-----------------------
   0 C :    0.837801
   1 N :   -0.167022
   2 C :   -0.120790
   3 C :    1.120977
   4 C :    0.421638
   5 N :    0.254808
   6 N :    0.227877
   7 H :   -0.044704
   8 H :   -0.018796
   9 H :   -0.089826
  10 H :   -0.048937
  11 H :   -0.022351
  12 H :   -0.101202
  13 H :   -0.411429
  14 H :   -0.123453
  15 H :   -0.187611
  16 H :   -0.030351
  17 H :   -0.111191
  18 H :   -0.385436
Sum of atomic charges:    1.0000000

LOEWDIN ATOMIC CHARGES
----------------------
   0 C :    0.055640
   1 N :    0.074747
   2 C :   -0.057505
   3 C :    0.134964
   4 C :   -0.081517
   5 N :    0.284194
   6 N :    0.293921
   7 H :    0.038486
   8 H :    0.024574
   9 H :    0.044893
  10 H :    0.031524
  11 H :    0.038065
  12 H :    0.028818
  13 H :    0.042594
  14 H :    0.033764
  15 H :    0.043797
  16 H :   -0.004097
  17 H :    0.004038
  18 H :   -0.030901

  Mayer bond orders larger than 0.100000
B(  0-C ,  1-N ) :   0.9782 B(  0-C ,  2-C ) :   1.1607 B(  0-C , 12-H ) :   0.7022
B(  0-C , 13-H ) :   0.8821 B(  0-C , 15-H ) :   0.1725 B(  1-N ,  2-C ) :   0.1202
B(  1-N ,  4-C ) :   1.2804 B(  1-N ,  5-N ) :   0.1848 B(  1-N ,  9-H ) :   1.0830
B(  1-N , 12-H ) :   0.1257 B(  2-C ,  3-C ) :   1.2227 B(  2-C , 14-H ) :   0.8870
B(  2-C , 15-H ) :   0.9264 B(  2-C , 16-H ) :   0.2320 B(  2-C , 17-H ) :   0.2470
B(  2-C , 18-H ) :   0.2569 B(  3-C , 16-H ) :   0.6801 B(  3-C , 17-H ) :   0.6873
B(  3-C , 18-H ) :   0.6909 B(  4-C ,  5-N ) :   1.0800 B(  4-C ,  6-N ) :   1.1034
B(  4-C ,  9-H ) :  -0.1907 B(  5-N ,  6-N ) :   0.1133 B(  5-N , 10-H ) :   1.0202
B(  5-N , 11-H ) :   0.9896 B(  6-N ,  7-H ) :   1.1223 B(  6-N ,  8-H ) :   0.9637
B(  7-H ,  8-H ) :  -0.1268 B( 10-H , 11-H ) :  -0.1010 B( 12-H , 13-H ) :  -0.1395
B( 16-H , 18-H ) :   0.1301

FINAL SINGLE POINT ENERGY      -322.638124659563

DIPOLE MOMENT
-------------
                                X             Y             Z
Electronic contribution:      4.01292       5.69010      -2.05508
Nuclear contribution   :     -3.60155      -5.39511       0.90505
                        -----------------------------------------
Total Dipole Moment    :      0.41137       0.29499      -1.15002
                        -----------------------------------------
Magnitude (a.u.)       :      1.25650
Magnitude (Debye)      :      3.19377

Rotational constants in cm-1:     0.145371     0.050507     0.045444
Rotational constants in MHz :  4358.114605  1514.164418  1362.368391

                             ****ORCA TERMINATED NORMALLY****
TOTAL RUN TIME: 0 days 0 hours 0 minutes 35 seconds 388 msec
