                         Program Version 5.0.0 -  RELEASE  -
|  1> !LC-BLYP RIJCOSX def2-SVPD def2/J TightSCF
|  2> *xyz 0 1
|  3> C          3.90595        2.81985       -3.75292
|  4> C          3.80351        1.37472       -3.26081
|  5> C          3.93993        0.32036       -4.36773
|  6> H          4.10504       -0.65508       -3.90773
|  7> H          3.02280        0.28052       -4.95712
|  8> C          5.10585        0.66802       -5.30546
|  9> H          4.57483        1.21516       -2.50044
| 10> H          2.84351        1.26085       -2.75146
| 11> F          4.80913        1.15019       -6.41436
| 12> O          6.26737        0.56500       -4.81948
| 13> H          3.15892        2.99660       -4.49832
| 14> H          4.87575        2.98549       -4.17357
| 15> H          3.75481        3.48808       -2.93101
| 16> *
| 17>
| 18> %MaxCore 64000
| 19>
| 20> %pal nprocs 4
| 21> end
| 22>
| 23> %scf
| 24>   MaxIter 150
| 25> end
| 26>
| 27>
| 28>                          ****END OF INPUT****

CARTESIAN COORDINATES (ANGSTROEM)
---------------------------------
  C      3.905950    2.819850   -3.752920
  C      3.803510    1.374720   -3.260810
  C      3.939930    0.320360   -4.367730
  H      4.105040   -0.655080   -3.907730
  H      3.022800    0.280520   -4.957120
  C      5.105850    0.668020   -5.305460
  H      4.574830    1.215160   -2.500440
  H      2.843510    1.260850   -2.751460
  F      4.809130    1.150190   -6.414360
  O      6.267370    0.565000   -4.819480
  H      3.158920    2.996600   -4.498320
  H      4.875750    2.985490   -4.173570
  H      3.754810    3.488080   -2.931010

 Total Charge           Charge          ....    0
 Multiplicity           Mult            ....    1
 Number of Electrons    NEL             ....   48
 Basis Dimension        Dim             ....  182

ORBITAL ENERGIES
----------------

  NO   OCC          E(Eh)            E(eV)
   0   2.0000     -24.553866      -668.1447
   1   2.0000     -18.968528      -516.1599
   2   2.0000     -10.272850      -279.5384
   3   2.0000     -10.116510      -275.2842
   4   2.0000     -10.102761      -274.9101
   5   2.0000     -10.080650      -274.3084
   6   2.0000      -1.397691       -38.0331
   7   2.0000      -1.117433       -30.4069
   8   2.0000      -0.921290       -25.0696
   9   2.0000      -0.833929       -22.6924
  10   2.0000      -0.771482       -20.9931
  11   2.0000      -0.720022       -19.5928
  12   2.0000      -0.667058       -18.1516
  13   2.0000      -0.642499       -17.4833
  14   2.0000      -0.615427       -16.7466
  15   2.0000      -0.573260       -15.5992
  16   2.0000      -0.563110       -15.3230
  17   2.0000      -0.522620       -14.2212
  18   2.0000      -0.507729       -13.8160
  19   2.0000      -0.478469       -13.0198
  20   2.0000      -0.458326       -12.4717
  21   2.0000      -0.448089       -12.1931
  22   2.0000      -0.446867       -12.1599
  23   2.0000      -0.394559       -10.7365
  24   0.0000       0.044430         1.2090
  25   0.0000       0.065907         1.7934
  26   0.0000       0.093503         2.5444
  27   0.0000       0.098150         2.6708
  28   0.0000       0.112867         3.0713

MULLIKEN ATOMIC CHARGES
-----------------------
   0 C :    0.909043
   1 C :   -0.199914
   2 C :    0.358646
   3 H :   -0.087568
   4 H :   -0.058966
   5 C :    0.466268
   6 H :   -0.089922
   7 H :   -0.225314
   8 F :   -0.256484
   9 O :   -0.382881
  10 H :   -0.133062
  11 H :   -0.116671
  12 H :   -0.183176
Sum of atomic charges:   -0.0000000

LOEWDIN ATOMIC CHARGES
----------------------
   0 C :    0.117383
   1 C :   -0.070313
   2 C :    0.033600
   3 H :    0.041156
   4 H :    0.029435
   5 C :   -0.064465
   6 H :    0.035274
   7 H :    0.027277
   8 F :   -0.000904
   9 O :   -0.116912
  10 H :   -0.007899
  11 H :   -0.014214
  12 H :   -0.009418

  Mayer bond orders larger than 0.100000
B(  0-C ,  1-C ) :   1.3452 B(  0-C ,  7-H ) :   0.1134 B(  0-C , 10-H ) :   0.7246
B(  0-C , 11-H ) :   0.7588 B(  0-C , 12-H ) :   0.7080 B(  1-C ,  2-C ) :   1.2127
B(  1-C ,  3-H ) :   0.1479 B(  1-C ,  4-H ) :   0.1644 B(  1-C ,  6-H ) :   0.8886
B(  1-C ,  7-H ) :   0.9134 B(  1-C , 10-H ) :   0.2145 B(  1-C , 11-H ) :   0.2289
B(  1-C , 12-H ) :   0.2452 B(  2-C ,  3-H ) :   0.8079 B(  2-C ,  4-H ) :   0.8407
B(  2-C ,  5-C ) :   1.0481 B(  2-C ,  6-H ) :   0.1011 B(  3-H ,  5-C ) :   0.1106
B(  4-H ,  5-C ) :   0.1089 B(  5-C ,  8-F ) :   0.8667 B(  5-C ,  9-O ) :   1.9386
B(  8-F ,  9-O ) :   0.1198

FINAL SINGLE POINT ENERGY      -330.741777039827

DIPOLE MOMENT
-------------
                                X             Y             Z
Electronic contribution:      4.78274      -3.20057      -8.22872
Nuclear contribution   :     -5.98367       3.22001       8.44002
                        -----------------------------------------
Total Dipole Moment    :     -1.20093       0.01944       0.21130
                        -----------------------------------------
Magnitude (a.u.)       :      1.21953
Magnitude (Debye)      :      3.09981

Rotational constants in cm-1:     0.177409     0.085514     0.078973
Rotational constants in MHz :  5318.577687  2563.657993  2367.557452

                             ****ORCA TERMINATED NORMALLY****
TOTAL RUN TIME: 0 days 0 hours 0 minutes 22 seconds 385 msec
