                         Program Version 5.0.0 -  RELEASE  -
|  1> !LC-BLYP RIJCOSX def2-SVPD def2/J TightSCF
|  2> *xyz 0 1
|  3> C          3.90595        2.81985       -3.75292
|  4> C          5.29562        3.13151       -4.10533
|  5> C          3.80351        1.37472       -3.26081
|  6> C          3.93993        0.32036       -4.36773
|  7> C          5.70862        3.46889       -5.32419
|  8> N          6.90470        3.03895       -5.71708
|  9> N          4.98188        4.29357       -6.09746
| 10> H          5.00055        4.10131       -7.08776
| 11> H          4.08469        4.59690       -5.73965
| 12> H          5.96336        2.52611       -3.64239
| 13> H          7.04716        2.06686       -5.47360
| 14> H          7.19815        3.30799       -6.64523
| 15> H          3.28202        2.94919       -4.64026
| 16> H          3.56525        3.51457       -2.98252
| 17> H          4.57483        1.21516       -2.50044
| 18> H          2.84351        1.26085       -2.75146
| 19> H          3.18417        0.48061       -5.10803
| 20> H          3.82485       -0.65632       -3.94614
| 21> H          4.90589        0.40174       -4.82073
| 22> *
| 23>
| 24> %MaxCore 64000
| 25>
| 26> %pal nprocs 4
| 27> end
| 28>
| 29> %scf
| 30>   MaxIter 150
| 31> end
| 32>
| 33>
| 34>                          ****END OF INPUT****

CARTESIAN COORDINATES (ANGSTROEM)
---------------------------------
  C      3.905950    2.819850   -3.752920
  C      5.295620    3.131510   -4.105330
  C      3.803510    1.374720   -3.260810
  C      3.939930    0.320360   -4.367730
  C      5.708620    3.468890   -5.324190
  N      6.904700    3.038950   -5.717080
  N      4.981880    4.293570   -6.097460
  H      5.000550    4.101310   -7.087760
  H      4.084690    4.596900   -5.739650
  H      5.963360    2.526110   -3.642390
  H      7.047160    2.066860   -5.473600
  H      7.198150    3.307990   -6.645230
  H      3.282020    2.949190   -4.640260
  H      3.565250    3.514570   -2.982520
  H      4.574830    1.215160   -2.500440
  H      2.843510    1.260850   -2.751460
  H      3.184170    0.480610   -5.108030
  H      3.824850   -0.656320   -3.946140
  H      4.905890    0.401740   -4.820730

 Total Charge           Charge          ....    0
 Multiplicity           Mult            ....    1
 Number of Electrons    NEL             ....   56
 Basis Dimension        Dim             ....  236

ORBITAL ENERGIES
----------------

  NO   OCC          E(Eh)            E(eV)
   0   2.0000     -14.193919      -386.2362
   1   2.0000     -14.190364      -386.1394
   2   2.0000     -10.131375      -275.6887
   3   2.0000     -10.068810      -273.9863
   4   2.0000     -10.062497      -273.8145
   5   2.0000     -10.062415      -273.8122
   6   2.0000     -10.013522      -272.4818
   7   2.0000      -1.061764       -28.8921
   8   2.0000      -0.971641       -26.4397
   9   2.0000      -0.895808       -24.3762
  10   2.0000      -0.827079       -22.5060
  11   2.0000      -0.764852       -20.8127
  12   2.0000      -0.698508       -19.0074
  13   2.0000      -0.675084       -18.3700
  14   2.0000      -0.641156       -17.4467
  15   2.0000      -0.617862       -16.8129
  16   2.0000      -0.582379       -15.8474
  17   2.0000      -0.552403       -15.0316
  18   2.0000      -0.545236       -14.8366
  19   2.0000      -0.519893       -14.1470
  20   2.0000      -0.488489       -13.2924
  21   2.0000      -0.477174       -12.9846
  22   2.0000      -0.451628       -12.2894
  23   2.0000      -0.433044       -11.7837
  24   2.0000      -0.418460       -11.3869
  25   2.0000      -0.413023       -11.2389
  26   2.0000      -0.376191       -10.2367
  27   2.0000      -0.265341        -7.2203
  28   0.0000       0.065606         1.7852
  29   0.0000       0.091433         2.4880
  30   0.0000       0.096075         2.6143
  31   0.0000       0.110550         3.0082
  32   0.0000       0.118586         3.2269

MULLIKEN ATOMIC CHARGES
-----------------------
   0 C :    0.518532
   1 C :    0.121711
   2 C :   -0.062546
   3 C :    1.143393
   4 C :   -0.058311
   5 N :    0.298463
   6 N :    0.202441
   7 H :   -0.124321
   8 H :   -0.006108
   9 H :   -0.369765
  10 H :   -0.041612
  11 H :   -0.130533
  12 H :   -0.276870
  13 H :   -0.292221
  14 H :   -0.141881
  15 H :   -0.225140
  16 H :   -0.051523
  17 H :   -0.115268
  18 H :   -0.388442
Sum of atomic charges:    0.0000000

LOEWDIN ATOMIC CHARGES
----------------------
   0 C :   -0.077203
   1 C :   -0.021910
   2 C :   -0.088389
   3 C :    0.118234
   4 C :   -0.262044
   5 N :    0.202948
   6 N :    0.211731
   7 H :   -0.011267
   8 H :   -0.007153
   9 H :   -0.052184
  10 H :   -0.003200
  11 H :   -0.011278
  12 H :    0.007668
  13 H :    0.014566
  14 H :    0.023296
  15 H :    0.018356
  16 H :   -0.015435
  17 H :   -0.017543
  18 H :   -0.029193

  Mayer bond orders larger than 0.100000
B(  0-C ,  1-C ) :   0.9443 B(  0-C ,  2-C ) :   1.2192 B(  0-C ,  9-H ) :   0.2360
B(  0-C , 12-H ) :   0.6933 B(  0-C , 13-H ) :   0.8035 B(  0-C , 14-H ) :   0.1570
B(  0-C , 15-H ) :   0.2143 B(  1-C ,  2-C ) :   0.1252 B(  1-C ,  4-C ) :   1.8712
B(  1-C ,  5-N ) :   0.3162 B(  1-C ,  6-N ) :   0.1819 B(  1-C ,  9-H ) :   0.4072
B(  1-C , 12-H ) :   0.1287 B(  1-C , 13-H ) :   0.1634 B(  2-C ,  3-C ) :   1.2003
B(  2-C , 14-H ) :   0.8818 B(  2-C , 15-H ) :   0.8560 B(  2-C , 16-H ) :   0.2375
B(  2-C , 17-H ) :   0.2420 B(  2-C , 18-H ) :   0.2807 B(  3-C , 16-H ) :   0.6833
B(  3-C , 17-H ) :   0.6606 B(  3-C , 18-H ) :   0.7042 B(  4-C ,  5-N ) :   1.0284
B(  4-C ,  6-N ) :   1.0973 B(  4-C ,  9-H ) :   0.4000 B(  4-C , 11-H ) :   0.1052
B(  5-N , 10-H ) :   0.9989 B(  5-N , 11-H ) :   0.9179 B(  6-N ,  7-H ) :   1.0786
B(  6-N ,  8-H ) :   0.9789 B(  7-H ,  8-H ) :  -0.1019 B( 16-H , 18-H ) :   0.1239

FINAL SINGLE POINT ENERGY      -306.175422968246

DIPOLE MOMENT
-------------
                                X             Y             Z
Electronic contribution:      3.38876       4.92340      -2.11257
Nuclear contribution   :     -3.52450      -5.28471       1.03374
                        -----------------------------------------
Total Dipole Moment    :     -0.13575      -0.36131      -1.07883
                        -----------------------------------------
Magnitude (a.u.)       :      1.14579
Magnitude (Debye)      :      2.91237

Rotational constants in cm-1:     0.147126     0.050704     0.045476
Rotational constants in MHz :  4410.719889  1520.080198  1363.327077

                             ****ORCA TERMINATED NORMALLY****
TOTAL RUN TIME: 0 days 0 hours 0 minutes 39 seconds 83 msec
