                         Program Version 5.0.0 -  RELEASE  -
|  1> !LC-BLYP RIJCOSX def2-SVPD def2/J TightSCF
|  2> *xyz 0 1
|  3> C          3.90595        2.81985       -3.75292
|  4> C          3.80351        1.37472       -3.26081
|  5> C          3.93993        0.32036       -4.36773
|  6> H          4.10504       -0.65508       -3.90773
|  7> H          3.02280        0.28052       -4.95712
|  8> C          5.10585        0.66802       -5.30546
|  9> H          4.57483        1.21516       -2.50044
| 10> H          2.84351        1.26085       -2.75146
| 11> O          4.80913        1.15019       -6.41436
| 12> F          6.26737        0.56500       -4.81948
| 13> H          3.15892        2.99660       -4.49832
| 14> H          4.87575        2.98549       -4.17357
| 15> H          3.75481        3.48808       -2.93101
| 16> *
| 17>
| 18> %MaxCore 64000
| 19>
| 20> %pal nprocs 4
| 21> end
| 22>
| 23> %scf
| 24>   MaxIter 150
| 25> end
| 26>
| 27>
| 28>                          ****END OF INPUT****

CARTESIAN COORDINATES (ANGSTROEM)
---------------------------------
  C      3.905950    2.819850   -3.752920
  C      3.803510    1.374720   -3.260810
  C      3.939930    0.320360   -4.367730
  H      4.105040   -0.655080   -3.907730
  H      3.022800    0.280520   -4.957120
  C      5.105850    0.668020   -5.305460
  H      4.574830    1.215160   -2.500440
  H      2.843510    1.260850   -2.751460
  O      4.809130    1.150190   -6.414360
  F      6.267370    0.565000   -4.819480
  H      3.158920    2.996600   -4.498320
  H      4.875750    2.985490   -4.173570
  H      3.754810    3.488080   -2.931010

 Total Charge           Charge          ....    0
 Multiplicity           Mult            ....    1
 Number of Electrons    NEL             ....   48
 Basis Dimension        Dim             ....  182

ORBITAL ENERGIES
----------------

  NO   OCC          E(Eh)            E(eV)
   0   2.0000     -24.547427      -667.9695
   1   2.0000     -18.971344      -516.2365
   2   2.0000     -10.270803      -279.4828
   3   2.0000     -10.115830      -275.2657
   4   2.0000     -10.104944      -274.9695
   5   2.0000     -10.079099      -274.2662
   6   2.0000      -1.384437       -37.6724
   7   2.0000      -1.127948       -30.6930
   8   2.0000      -0.922457       -25.1013
   9   2.0000      -0.832315       -22.6485
  10   2.0000      -0.763806       -20.7842
  11   2.0000      -0.719467       -19.5777
  12   2.0000      -0.661589       -18.0028
  13   2.0000      -0.643603       -17.5133
  14   2.0000      -0.601849       -16.3772
  15   2.0000      -0.581011       -15.8101
  16   2.0000      -0.563108       -15.3230
  17   2.0000      -0.523660       -14.2495
  18   2.0000      -0.503046       -13.6886
  19   2.0000      -0.478384       -13.0175
  20   2.0000      -0.467243       -12.7143
  21   2.0000      -0.455121       -12.3845
  22   2.0000      -0.446036       -12.1372
  23   2.0000      -0.394376       -10.7315
  24   0.0000       0.048372         1.3163
  25   0.0000       0.064434         1.7533
  26   0.0000       0.094332         2.5669
  27   0.0000       0.101029         2.7491
  28   0.0000       0.107806         2.9336

MULLIKEN ATOMIC CHARGES
-----------------------
   0 C :    0.926362
   1 C :   -0.239221
   2 C :    0.385975
   3 H :   -0.100298
   4 H :   -0.059188
   5 C :    0.463462
   6 H :   -0.113355
   7 H :   -0.223618
   8 O :   -0.319564
   9 F :   -0.309957
  10 H :   -0.108179
  11 H :   -0.105583
  12 H :   -0.196834
Sum of atomic charges:    0.0000000

LOEWDIN ATOMIC CHARGES
----------------------
   0 C :    0.118732
   1 C :   -0.075553
   2 C :    0.036031
   3 H :    0.033491
   4 H :    0.040383
   5 C :   -0.064955
   6 H :    0.029175
   7 H :    0.027978
   8 O :   -0.106231
   9 F :   -0.011597
  10 H :   -0.002046
  11 H :   -0.014781
  12 H :   -0.010625

  Mayer bond orders larger than 0.100000
B(  0-C ,  1-C ) :   1.3480 B(  0-C ,  7-H ) :   0.1121 B(  0-C , 10-H ) :   0.7259
B(  0-C , 11-H ) :   0.7580 B(  0-C , 12-H ) :   0.6920 B(  1-C ,  2-C ) :   1.1939
B(  1-C ,  3-H ) :   0.1543 B(  1-C ,  4-H ) :   0.1584 B(  1-C ,  6-H ) :   0.8899
B(  1-C ,  7-H ) :   0.9117 B(  1-C , 10-H ) :   0.2224 B(  1-C , 11-H ) :   0.2290
B(  1-C , 12-H ) :   0.2537 B(  2-C ,  3-H ) :   0.8138 B(  2-C ,  4-H ) :   0.8506
B(  2-C ,  5-C ) :   1.0179 B(  4-H ,  5-C ) :   0.1443 B(  5-C ,  8-O ) :   1.9701
B(  5-C ,  9-F ) :   0.8200 B(  8-O ,  9-F ) :   0.1256 B( 10-H , 11-H ) :   0.1002

FINAL SINGLE POINT ENERGY      -330.746874806682

DIPOLE MOMENT
-------------
                                X             Y             Z
Electronic contribution:      7.24688      -4.19341      -5.52561
Nuclear contribution   :     -7.63086       3.88103       6.63849
                        -----------------------------------------
Total Dipole Moment    :     -0.38398      -0.31238       1.11288
                        -----------------------------------------
Magnitude (a.u.)       :      1.21800
Magnitude (Debye)      :      3.09591

Rotational constants in cm-1:     0.177064     0.085023     0.079676
Rotational constants in MHz :  5308.232158  2548.918275  2388.614336

                             ****ORCA TERMINATED NORMALLY****
TOTAL RUN TIME: 0 days 0 hours 0 minutes 19 seconds 974 msec
