                         Program Version 5.0.0 -  RELEASE  -
|  1> !LC-BLYP RIJCOSX def2-SVPD def2/J TightSCF
|  2> *xyz 0 1
|  3> C          3.90595        2.81985       -3.75292
|  4> N          5.29562        3.13151       -4.10533
|  5> C          3.80351        1.37472       -3.26081
|  6> C          3.93993        0.32036       -4.36773
|  7> C          5.70862        3.46889       -5.32419
|  8> C          6.90470        3.03895       -5.71708
|  9> N          4.98188        4.29357       -6.09746
| 10> H          5.00055        4.10131       -7.08776
| 11> H          4.08469        4.59690       -5.73965
| 12> H          5.96336        2.52611       -3.64239
| 13> H          7.04716        2.06686       -5.47360
| 14> H          7.19815        3.30799       -6.64523
| 15> H          3.28202        2.94919       -4.64026
| 16> H          3.56525        3.51457       -2.98252
| 17> H          4.57483        1.21516       -2.50044
| 18> H          2.84351        1.26085       -2.75146
| 19> H          3.18417        0.48061       -5.10803
| 20> H          3.82485       -0.65632       -3.94614
| 21> H          4.90589        0.40174       -4.82073
| 22> *
| 23>
| 24> %MaxCore 64000
| 25>
| 26> %pal nprocs 4
| 27> end
| 28>
| 29> %scf
| 30>   MaxIter 150
| 31> end
| 32>
| 33>
| 34>                          ****END OF INPUT****

CARTESIAN COORDINATES (ANGSTROEM)
---------------------------------
  C      3.905950    2.819850   -3.752920
  N      5.295620    3.131510   -4.105330
  C      3.803510    1.374720   -3.260810
  C      3.939930    0.320360   -4.367730
  C      5.708620    3.468890   -5.324190
  C      6.904700    3.038950   -5.717080
  N      4.981880    4.293570   -6.097460
  H      5.000550    4.101310   -7.087760
  H      4.084690    4.596900   -5.739650
  H      5.963360    2.526110   -3.642390
  H      7.047160    2.066860   -5.473600
  H      7.198150    3.307990   -6.645230
  H      3.282020    2.949190   -4.640260
  H      3.565250    3.514570   -2.982520
  H      4.574830    1.215160   -2.500440
  H      2.843510    1.260850   -2.751460
  H      3.184170    0.480610   -5.108030
  H      3.824850   -0.656320   -3.946140
  H      4.905890    0.401740   -4.820730

 Total Charge           Charge          ....    0
 Multiplicity           Mult            ....    1
 Number of Electrons    NEL             ....   56
 Basis Dimension        Dim             ....  236

ORBITAL ENERGIES
----------------

  NO   OCC          E(Eh)            E(eV)
   0   2.0000     -14.193124      -386.2145
   1   2.0000     -14.190422      -386.1410
   2   2.0000     -10.136405      -275.8256
   3   2.0000     -10.123250      -275.4676
   4   2.0000     -10.095739      -274.7190
   5   2.0000     -10.078320      -274.2450
   6   2.0000      -9.999212      -272.0924
   7   2.0000      -1.066919       -29.0323
   8   2.0000      -0.984564       -26.7913
   9   2.0000      -0.896483       -24.3946
  10   2.0000      -0.832759       -22.6605
  11   2.0000      -0.777805       -21.1652
  12   2.0000      -0.710399       -19.3309
  13   2.0000      -0.700183       -19.0529
  14   2.0000      -0.641824       -17.4649
  15   2.0000      -0.603004       -16.4086
  16   2.0000      -0.585558       -15.9338
  17   2.0000      -0.569470       -15.4961
  18   2.0000      -0.550946       -14.9920
  19   2.0000      -0.510331       -13.8868
  20   2.0000      -0.504451       -13.7268
  21   2.0000      -0.489527       -13.3207
  22   2.0000      -0.467403       -12.7187
  23   2.0000      -0.454852       -12.3772
  24   2.0000      -0.450377       -12.2554
  25   2.0000      -0.437034       -11.8923
  26   2.0000      -0.360638        -9.8135
  27   2.0000      -0.269938        -7.3454
  28   0.0000       0.065797         1.7904
  29   0.0000       0.084857         2.3091
  30   0.0000       0.092462         2.5160
  31   0.0000       0.103880         2.8267
  32   0.0000       0.119284         3.2459

MULLIKEN ATOMIC CHARGES
-----------------------
   0 C :    0.828719
   1 N :   -0.189281
   2 C :   -0.146269
   3 C :    1.131409
   4 C :   -0.045629
   5 C :    0.730468
   6 N :    0.259772
   7 H :   -0.058048
   8 H :   -0.100088
   9 H :   -0.052069
  10 H :   -0.432797
  11 H :   -0.437973
  12 H :   -0.124432
  13 H :   -0.450081
  14 H :   -0.137847
  15 H :   -0.225277
  16 H :   -0.036319
  17 H :   -0.128511
  18 H :   -0.385748
Sum of atomic charges:   -0.0000000

LOEWDIN ATOMIC CHARGES
----------------------
   0 C :    0.024823
   1 N :    0.014272
   2 C :   -0.077982
   3 C :    0.124212
   4 C :   -0.266137
   5 C :    0.140104
   6 N :    0.215130
   7 H :    0.004139
   8 H :   -0.019831
   9 H :    0.017383
  10 H :   -0.106817
  11 H :   -0.101692
  12 H :    0.015925
  13 H :    0.018070
  14 H :    0.023809
  15 H :    0.023366
  16 H :   -0.012852
  17 H :   -0.013628
  18 H :   -0.022298

  Mayer bond orders larger than 0.100000
B(  0-C ,  1-N ) :   0.9639 B(  0-C ,  2-C ) :   1.1654 B(  0-C , 12-H ) :   0.7024
B(  0-C , 13-H ) :   0.8594 B(  0-C , 15-H ) :   0.1750 B(  1-N ,  2-C ) :   0.1096
B(  1-N ,  4-C ) :   1.2460 B(  1-N ,  5-C ) :   0.2358 B(  1-N ,  9-H ) :   1.0247
B(  1-N , 12-H ) :   0.1345 B(  2-C ,  3-C ) :   1.2207 B(  2-C , 14-H ) :   0.8778
B(  2-C , 15-H ) :   0.9219 B(  2-C , 16-H ) :   0.2370 B(  2-C , 17-H ) :   0.2577
B(  2-C , 18-H ) :   0.2731 B(  3-C , 16-H ) :   0.6577 B(  3-C , 17-H ) :   0.6603
B(  3-C , 18-H ) :   0.6996 B(  4-C ,  5-C ) :   1.8250 B(  4-C ,  6-N ) :   1.0342
B(  4-C ,  9-H ) :  -0.1573 B(  4-C , 10-H ) :   0.2356 B(  4-C , 11-H ) :   0.4075
B(  5-C ,  6-N ) :   0.2429 B(  5-C , 10-H ) :   0.7347 B(  5-C , 11-H ) :   0.3983
B(  6-N ,  7-H ) :   1.0793 B(  6-N ,  8-H ) :   0.9027 B(  6-N , 11-H ) :   0.1149
B(  7-H ,  8-H ) :  -0.1302 B( 10-H , 11-H ) :   0.1580 B( 12-H , 13-H ) :  -0.1412
B( 16-H , 18-H ) :   0.1687

FINAL SINGLE POINT ENERGY      -306.164237764507

DIPOLE MOMENT
-------------
                                X             Y             Z
Electronic contribution:      1.75458       4.86108      -0.58822
Nuclear contribution   :     -3.17203      -5.30499       0.68068
                        -----------------------------------------
Total Dipole Moment    :     -1.41745      -0.44391       0.09246
                        -----------------------------------------
Magnitude (a.u.)       :      1.48821
Magnitude (Debye)      :      3.78272

Rotational constants in cm-1:     0.149640     0.051631     0.046708
Rotational constants in MHz :  4486.107270  1547.846261  1400.277765

                             ****ORCA TERMINATED NORMALLY****
TOTAL RUN TIME: 0 days 0 hours 0 minutes 38 seconds 840 msec
