                         Program Version 5.0.0 -  RELEASE  -
|  1> !LC-BLYP RIJCOSX def2-SVPD def2/J TightSCF
|  2> *xyz 0 1
|  3> C          3.90595        2.81985       -3.75292
|  4> N          5.29562        3.13151       -4.10533
|  5> C          3.80351        1.37472       -3.26081
|  6> C          3.93993        0.32036       -4.36773
|  7> C          5.70862        3.46889       -5.32419
|  8> N          6.90470        3.03895       -5.71708
|  9> C          4.98188        4.29357       -6.09746
| 10> H          5.00055        4.10131       -7.08776
| 11> H          4.08469        4.59690       -5.73965
| 12> H          5.96336        2.52611       -3.64239
| 13> H          7.04716        2.06686       -5.47360
| 14> H          7.19815        3.30799       -6.64523
| 15> H          3.28202        2.94919       -4.64026
| 16> H          3.56525        3.51457       -2.98252
| 17> H          4.57483        1.21516       -2.50044
| 18> H          2.84351        1.26085       -2.75146
| 19> H          3.18417        0.48061       -5.10803
| 20> H          3.82485       -0.65632       -3.94614
| 21> H          4.90589        0.40174       -4.82073
| 22> *
| 23>
| 24> %MaxCore 64000
| 25>
| 26> %pal nprocs 4
| 27> end
| 28>
| 29> %scf
| 30>   MaxIter 150
| 31> end
| 32>
| 33>
| 34>                          ****END OF INPUT****

CARTESIAN COORDINATES (ANGSTROEM)
---------------------------------
  C      3.905950    2.819850   -3.752920
  N      5.295620    3.131510   -4.105330
  C      3.803510    1.374720   -3.260810
  C      3.939930    0.320360   -4.367730
  C      5.708620    3.468890   -5.324190
  N      6.904700    3.038950   -5.717080
  C      4.981880    4.293570   -6.097460
  H      5.000550    4.101310   -7.087760
  H      4.084690    4.596900   -5.739650
  H      5.963360    2.526110   -3.642390
  H      7.047160    2.066860   -5.473600
  H      7.198150    3.307990   -6.645230
  H      3.282020    2.949190   -4.640260
  H      3.565250    3.514570   -2.982520
  H      4.574830    1.215160   -2.500440
  H      2.843510    1.260850   -2.751460
  H      3.184170    0.480610   -5.108030
  H      3.824850   -0.656320   -3.946140
  H      4.905890    0.401740   -4.820730

 Total Charge           Charge          ....    0
 Multiplicity           Mult            ....    1
 Number of Electrons    NEL             ....   56
 Basis Dimension        Dim             ....  236

ORBITAL ENERGIES
----------------

  NO   OCC          E(Eh)            E(eV)
   0   2.0000     -14.192601      -386.2003
   1   2.0000     -14.192143      -386.1878
   2   2.0000     -10.135517      -275.8014
   3   2.0000     -10.117208      -275.3032
   4   2.0000     -10.094046      -274.6729
   5   2.0000     -10.080091      -274.2932
   6   2.0000     -10.004456      -272.2351
   7   2.0000      -1.071591       -29.1595
   8   2.0000      -0.986923       -26.8555
   9   2.0000      -0.891415       -24.2566
  10   2.0000      -0.817664       -22.2498
  11   2.0000      -0.797824       -21.7099
  12   2.0000      -0.715274       -19.4636
  13   2.0000      -0.673049       -18.3146
  14   2.0000      -0.641862       -17.4660
  15   2.0000      -0.621921       -16.9233
  16   2.0000      -0.581165       -15.8143
  17   2.0000      -0.573941       -15.6177
  18   2.0000      -0.538312       -14.6482
  19   2.0000      -0.518843       -14.1184
  20   2.0000      -0.502629       -13.6772
  21   2.0000      -0.484776       -13.1914
  22   2.0000      -0.469090       -12.7646
  23   2.0000      -0.455425       -12.3927
  24   2.0000      -0.448648       -12.2083
  25   2.0000      -0.437247       -11.8981
  26   2.0000      -0.358252        -9.7485
  27   2.0000      -0.273011        -7.4290
  28   0.0000       0.063229         1.7205
  29   0.0000       0.087990         2.3943
  30   0.0000       0.096745         2.6326
  31   0.0000       0.100384         2.7316
  32   0.0000       0.121486         3.3058

MULLIKEN ATOMIC CHARGES
-----------------------
   0 C :    0.827952
   1 N :   -0.079522
   2 C :   -0.096444
   3 C :    1.114530
   4 C :   -0.135578
   5 N :    0.212002
   6 C :    0.636077
   7 H :   -0.482459
   8 H :   -0.224391
   9 H :   -0.182422
  10 H :   -0.100646
  11 H :   -0.001327
  12 H :   -0.063488
  13 H :   -0.505691
  14 H :   -0.163359
  15 H :   -0.209457
  16 H :   -0.047053
  17 H :   -0.125911
  18 H :   -0.372813
Sum of atomic charges:    0.0000000

LOEWDIN ATOMIC CHARGES
----------------------
   0 C :    0.035919
   1 N :    0.014987
   2 C :   -0.078855
   3 C :    0.121425
   4 C :   -0.277655
   5 N :    0.204565
   6 C :    0.156268
   7 H :   -0.101711
   8 H :   -0.107003
   9 H :    0.008097
  10 H :   -0.015218
  11 H :    0.003533
  12 H :    0.020867
  13 H :    0.022791
  14 H :    0.020378
  15 H :    0.024597
  16 H :   -0.010616
  17 H :   -0.014163
  18 H :   -0.028207

  Mayer bond orders larger than 0.100000
B(  0-C ,  1-N ) :   1.0119 B(  0-C ,  2-C ) :   1.1456 B(  0-C , 12-H ) :   0.7286
B(  0-C , 13-H ) :   0.8715 B(  0-C , 15-H ) :   0.1863 B(  1-N ,  2-C ) :   0.1206
B(  1-N ,  4-C ) :   1.2578 B(  1-N ,  5-N ) :   0.1538 B(  1-N ,  6-C ) :   0.2082
B(  1-N ,  9-H ) :   0.9591 B(  1-N , 12-H ) :   0.1382 B(  2-C ,  3-C ) :   1.2179
B(  2-C , 14-H ) :   0.8819 B(  2-C , 15-H ) :   0.9083 B(  2-C , 16-H ) :   0.2392
B(  2-C , 17-H ) :   0.2553 B(  2-C , 18-H ) :   0.2651 B(  3-C , 16-H ) :   0.6825
B(  3-C , 17-H ) :   0.6628 B(  3-C , 18-H ) :   0.7133 B(  4-C ,  5-N ) :   1.1019
B(  4-C ,  6-C ) :   1.9269 B(  4-C ,  7-H ) :   0.2373 B(  4-C ,  8-H ) :   0.3365
B(  4-C ,  9-H ) :  -0.1042 B(  5-N ,  6-C ) :   0.1504 B(  5-N , 10-H ) :   0.9273
B(  5-N , 11-H ) :   0.9790 B(  6-C ,  7-H ) :   0.6931 B(  6-C ,  8-H ) :   0.4537
B(  7-H ,  8-H ) :   0.3127 B( 12-H , 13-H ) :  -0.1261 B( 16-H , 18-H ) :   0.1334

FINAL SINGLE POINT ENERGY      -306.168361573113

DIPOLE MOMENT
-------------
                                X             Y             Z
Electronic contribution:      3.60031       3.69169      -0.29397
Nuclear contribution   :     -3.59323      -5.03016       0.59736
                        -----------------------------------------
Total Dipole Moment    :      0.00708      -1.33847       0.30338
                        -----------------------------------------
Magnitude (a.u.)       :      1.37244
Magnitude (Debye)      :      3.48847

Rotational constants in cm-1:     0.148888     0.051791     0.046487
Rotational constants in MHz :  4463.542717  1552.665696  1393.643356

                             ****ORCA TERMINATED NORMALLY****
TOTAL RUN TIME: 0 days 0 hours 0 minutes 38 seconds 954 msec
