                         Program Version 5.0.0 -  RELEASE  -
|  1> !LC-BLYP RIJCOSX def2-SVPD def2/J TightSCF xyzfile
|  2>
|  3> *xyzfile 0 1 D1.xyz
|  4>
|  5> %MaxCore 64000
|  6>
|  7> %pal nprocs 4
|  8> end
|  9>
| 10> %scf
| 11>   MaxIter 150
| 12> end
| 13>
| 14>
| 15>                          ****END OF INPUT****

CARTESIAN COORDINATES (ANGSTROEM)
---------------------------------
  C      3.905947    2.819855   -3.752920
  C      5.295615    3.131515   -4.105334
  C      3.803511    1.374716   -3.260807
  C      3.939934    0.320362   -4.367729
  H      4.105043   -0.655085   -3.907733
  H      3.022801    0.280517   -4.957117
  C      5.105846    0.668022   -5.305463
  C      5.708619    3.468885   -5.324190
  N      6.904696    3.038954   -5.717084
  N      4.981884    4.293570   -6.097457
  H      5.000546    4.101311   -7.087761
  H      4.084693    4.596899   -5.739652
  H      5.963358    2.526112   -3.642391
  H      7.047164    2.066861   -5.473604
  H      7.198145    3.307994   -6.645225
  H      3.282025    2.949187   -4.640259
  H      3.565254    3.514574   -2.982523
  H      4.574833    1.215157   -2.500443
  H      2.843514    1.260845   -2.751465
  F      4.809132    1.150187   -6.414361
  O      6.267366    0.564999   -4.819481

 Total Charge           Charge          ....    0
 Multiplicity           Mult            ....    1
 Number of Electrons    NEL             ....   78
 Basis Dimension        Dim             ....  294

ORBITAL ENERGIES
----------------

  NO   OCC          E(Eh)            E(eV)
   0   2.0000     -24.560238      -668.3180
   1   2.0000     -18.973390      -516.2922
   2   2.0000     -14.192871      -386.2076
   3   2.0000     -14.170969      -385.6117
   4   2.0000     -10.280505      -279.7468
   5   2.0000     -10.129987      -275.6510
   6   2.0000     -10.115847      -275.2662
   7   2.0000     -10.093587      -274.6605
   8   2.0000     -10.075627      -274.1718
   9   2.0000     -10.013345      -272.4770
  10   2.0000      -1.404358       -38.2145
  11   2.0000      -1.128994       -30.7215
  12   2.0000      -1.055769       -28.7289
  13   2.0000      -0.964417       -26.2431
  14   2.0000      -0.924993       -25.1703
  15   2.0000      -0.856821       -23.3153
  16   2.0000      -0.799399       -21.7527
  17   2.0000      -0.766507       -20.8577
  18   2.0000      -0.716006       -19.4835
  19   2.0000      -0.688443       -18.7335
  20   2.0000      -0.672656       -18.3039
  21   2.0000      -0.651747       -17.7349
  22   2.0000      -0.640475       -17.4282
  23   2.0000      -0.626283       -17.0420
  24   2.0000      -0.606444       -16.5022
  25   2.0000      -0.573364       -15.6020
  26   2.0000      -0.567212       -15.4346
  27   2.0000      -0.546681       -14.8759
  28   2.0000      -0.536626       -14.6023
  29   2.0000      -0.504174       -13.7193
  30   2.0000      -0.495062       -13.4713
  31   2.0000      -0.471378       -12.8268
  32   2.0000      -0.468754       -12.7555
  33   2.0000      -0.449314       -12.2265
  34   2.0000      -0.435456       -11.8494
  35   2.0000      -0.423058       -11.5120
  36   2.0000      -0.403931       -10.9915
  37   2.0000      -0.366053        -9.9608
  38   2.0000      -0.265373        -7.2212
  39   0.0000       0.038591         1.0501
  40   0.0000       0.062191         1.6923
  41   0.0000       0.084140         2.2896
  42   0.0000       0.092288         2.5113
  43   0.0000       0.103663         2.8208

MULLIKEN ATOMIC CHARGES
-----------------------
   0 C :    0.558914
   1 C :    0.181785
   2 C :    0.361467
   3 C :    0.499752
   4 H :   -0.156376
   5 H :   -0.091453
   6 C :    0.499282
   7 C :   -0.222590
   8 N :    0.473646
   9 N :    0.209310
  10 H :   -0.068764
  11 H :   -0.018475
  12 H :   -0.405713
  13 H :   -0.160426
  14 H :   -0.052147
  15 H :   -0.250353
  16 H :   -0.315676
  17 H :   -0.015255
  18 H :   -0.272112
  19 F :   -0.289855
  20 O :   -0.464962
Sum of atomic charges:   -0.0000000

LOEWDIN ATOMIC CHARGES
----------------------
   0 C :   -0.056726
   1 C :   -0.018772
   2 C :   -0.024905
   3 C :    0.055019
   4 H :    0.043054
   5 H :    0.031100
   6 C :   -0.029829
   7 C :   -0.271200
   8 N :    0.230450
   9 N :    0.218918
  10 H :   -0.010126
  11 H :   -0.007342
  12 H :   -0.051198
  13 H :   -0.080014
  14 H :   -0.002438
  15 H :    0.011681
  16 H :    0.017995
  17 H :    0.038812
  18 H :    0.027156
  19 F :    0.004219
  20 O :   -0.125855

  Mayer bond orders larger than 0.100000
B(  0-C ,  1-C ) :   0.9946 B(  0-C ,  2-C ) :   1.2264 B(  0-C , 12-H ) :   0.2457
B(  0-C , 15-H ) :   0.6848 B(  0-C , 16-H ) :   0.7320 B(  0-C , 18-H ) :   0.2434
B(  1-C ,  2-C ) :   0.1819 B(  1-C ,  7-C ) :   1.8150 B(  1-C ,  8-N ) :   0.3377
B(  1-C ,  9-N ) :   0.1953 B(  1-C , 12-H ) :   0.2818 B(  1-C , 15-H ) :   0.1291
B(  1-C , 16-H ) :   0.1802 B(  2-C ,  3-C ) :   1.1783 B(  2-C ,  4-H ) :   0.1995
B(  2-C ,  5-H ) :   0.1418 B(  2-C , 17-H ) :   0.7935 B(  2-C , 18-H ) :   0.7866
B(  3-C ,  4-H ) :   0.7472 B(  3-C ,  5-H ) :   0.8260 B(  3-C ,  6-C ) :   1.0981
B(  3-C , 17-H ) :   0.1044 B(  4-H ,  6-C ) :   0.1291 B(  5-H ,  6-C ) :   0.1556
B(  6-C , 19-F ) :   0.8285 B(  6-C , 20-O ) :   1.8078 B(  7-C ,  8-N ) :   0.9588
B(  7-C ,  9-N ) :   1.0852 B(  7-C , 10-H ) :   0.1029 B(  7-C , 12-H ) :   0.3714
B(  7-C , 14-H ) :   0.2211 B(  8-N ,  9-N ) :   0.1209 B(  8-N , 13-H ) :   0.8986
B(  8-N , 14-H ) :   0.7949 B(  9-N , 10-H ) :   1.0244 B(  9-N , 11-H ) :   0.9766
B( 10-H , 11-H ) :  -0.1118 B( 12-H , 15-H ) :   0.1003 B( 13-H , 20-O ) :   0.1277
B( 15-H , 16-H ) :  -0.1324 B( 17-H , 18-H ) :  -0.1247 B( 19-F , 20-O ) :   0.1130

FINAL SINGLE POINT ENERGY      -518.254512137618

DIPOLE MOMENT
-------------
                                X             Y             Z
Electronic contribution:      3.35326      -3.66403      -6.44502
Nuclear contribution   :     -4.60158       3.22721       5.56005
                        -----------------------------------------
Total Dipole Moment    :     -1.24832      -0.43682      -0.88497
                        -----------------------------------------
Magnitude (a.u.)       :      1.59131
Magnitude (Debye)      :      4.04480

Rotational constants in cm-1:     0.061224     0.042534     0.033552
Rotational constants in MHz :  1835.464095  1275.135177  1005.856966

                             ****ORCA TERMINATED NORMALLY****
TOTAL RUN TIME: 0 days 0 hours 1 minutes 22 seconds 444 msec
