                         Program Version 5.0.0 -  RELEASE  -
|  1> !LC-BLYP RIJCOSX def2-SVPD def2/J TightSCF xyzfile
|  2>
|  3> *xyzfile 0 1 D3.xyz
|  4>
|  5> %MaxCore 64000
|  6>
|  7> %pal nprocs 4
|  8> end
|  9>
| 10> %scf
| 11>   MaxIter 150
| 12> end
| 13>
| 14>
| 15>                          ****END OF INPUT****

CARTESIAN COORDINATES (ANGSTROEM)
---------------------------------
  C      3.905947    2.819855   -3.752920
  N      5.295615    3.131515   -4.105334
  C      3.803511    1.374716   -3.260807
  C      3.939934    0.320362   -4.367729
  H      4.105043   -0.655085   -3.907733
  H      3.022801    0.280517   -4.957117
  C      5.105846    0.668022   -5.305463
  C      5.708619    3.468885   -5.324190
  N      6.904696    3.038954   -5.717084
  C      4.981884    4.293570   -6.097457
  H      5.000546    4.101311   -7.087761
  H      4.084693    4.596899   -5.739652
  H      5.963358    2.526112   -3.642391
  H      7.047164    2.066861   -5.473604
  H      7.198145    3.307994   -6.645225
  H      3.282025    2.949187   -4.640259
  H      3.565254    3.514574   -2.982523
  H      4.574833    1.215157   -2.500443
  H      2.843514    1.260845   -2.751465
  F      4.809132    1.150187   -6.414361
  O      6.267366    0.564999   -4.819481

 Total Charge           Charge          ....    0
 Multiplicity           Mult            ....    1
 Number of Electrons    NEL             ....   78
 Basis Dimension        Dim             ....  294

ORBITAL ENERGIES
----------------

  NO   OCC          E(Eh)            E(eV)
   0   2.0000     -24.570233      -668.5900
   1   2.0000     -18.990504      -516.7579
   2   2.0000     -14.193131      -386.2147
   3   2.0000     -14.170145      -385.5893
   4   2.0000     -10.296609      -280.1850
   5   2.0000     -10.133116      -275.7361
   6   2.0000     -10.130442      -275.6633
   7   2.0000     -10.130384      -275.6618
   8   2.0000     -10.118787      -275.3462
   9   2.0000      -9.999580      -272.1024
  10   2.0000      -1.414287       -38.4847
  11   2.0000      -1.146957       -31.2103
  12   2.0000      -1.067388       -29.0451
  13   2.0000      -0.984934       -26.8014
  14   2.0000      -0.924105       -25.1462
  15   2.0000      -0.844083       -22.9687
  16   2.0000      -0.808252       -21.9937
  17   2.0000      -0.784236       -21.3402
  18   2.0000      -0.742386       -20.2014
  19   2.0000      -0.689100       -18.7514
  20   2.0000      -0.675879       -18.3916
  21   2.0000      -0.666518       -18.1369
  22   2.0000      -0.648423       -17.6445
  23   2.0000      -0.621626       -16.9153
  24   2.0000      -0.609109       -16.5747
  25   2.0000      -0.592207       -16.1148
  26   2.0000      -0.580400       -15.7935
  27   2.0000      -0.542172       -14.7533
  28   2.0000      -0.533779       -14.5249
  29   2.0000      -0.517205       -14.0739
  30   2.0000      -0.498129       -13.5548
  31   2.0000      -0.493939       -13.4408
  32   2.0000      -0.480165       -13.0660
  33   2.0000      -0.473437       -12.8829
  34   2.0000      -0.460733       -12.5372
  35   2.0000      -0.436788       -11.8856
  36   2.0000      -0.417809       -11.3692
  37   2.0000      -0.352450        -9.5906
  38   2.0000      -0.267899        -7.2899
  39   0.0000       0.022017         0.5991
  40   0.0000       0.059364         1.6154
  41   0.0000       0.083304         2.2668
  42   0.0000       0.090948         2.4748
  43   0.0000       0.095493         2.5985

MULLIKEN ATOMIC CHARGES
-----------------------
   0 C :    0.899386
   1 N :   -0.050781
   2 C :    0.342043
   3 C :    0.495142
   4 H :   -0.156049
   5 H :   -0.088796
   6 C :    0.482636
   7 C :   -0.261794
   8 N :    0.397528
   9 C :    0.597215
  10 H :   -0.498219
  11 H :   -0.282362
  12 H :   -0.164997
  13 H :   -0.182507
  14 H :    0.041978
  15 H :   -0.060344
  16 H :   -0.526095
  17 H :   -0.034208
  18 H :   -0.249635
  19 F :   -0.271846
  20 O :   -0.428295
Sum of atomic charges:   -0.0000000

LOEWDIN ATOMIC CHARGES
----------------------
   0 C :    0.053823
   1 N :    0.026115
   2 C :   -0.015118
   3 C :    0.056235
   4 H :    0.045375
   5 H :    0.035252
   6 C :   -0.025337
   7 C :   -0.289153
   8 N :    0.230118
   9 C :    0.151110
  10 H :   -0.099696
  11 H :   -0.109379
  12 H :    0.005779
  13 H :   -0.090283
  14 H :    0.011003
  15 H :    0.024575
  16 H :    0.026595
  17 H :    0.035960
  18 H :    0.033250
  19 F :    0.018885
  20 O :   -0.125109

  Mayer bond orders larger than 0.100000
B(  0-C ,  1-N ) :   0.9351 B(  0-C ,  2-C ) :   1.1381 B(  0-C ,  3-C ) :   0.1227
B(  0-C , 15-H ) :   0.7045 B(  0-C , 16-H ) :   0.8124 B(  0-C , 18-H ) :   0.2154
B(  1-N ,  2-C ) :   0.1701 B(  1-N ,  7-C ) :   1.3203 B(  1-N ,  9-C ) :   0.2479
B(  1-N , 12-H ) :   0.9287 B(  1-N , 15-H ) :   0.1678 B(  2-C ,  3-C ) :   1.1825
B(  2-C ,  4-H ) :   0.1993 B(  2-C ,  5-H ) :   0.1400 B(  2-C , 17-H ) :   0.7995
B(  2-C , 18-H ) :   0.8414 B(  3-C ,  4-H ) :   0.7365 B(  3-C ,  5-H ) :   0.8058
B(  3-C ,  6-C ) :   1.1093 B(  4-H ,  6-C ) :   0.1447 B(  5-H ,  6-C ) :   0.1861
B(  6-C , 19-F ) :   0.8740 B(  6-C , 20-O ) :   1.8185 B(  7-C ,  8-N ) :   1.1057
B(  7-C ,  9-C ) :   1.9701 B(  7-C , 10-H ) :   0.2643 B(  7-C , 11-H ) :   0.3393
B(  7-C , 12-H ) :  -0.1446 B(  7-C , 13-H ) :   0.1643 B(  7-C , 14-H ) :   0.1214
B(  7-C , 15-H ) :   0.1082 B(  8-N ,  9-C ) :   0.1655 B(  8-N , 13-H ) :   0.8289
B(  8-N , 14-H ) :   0.8807 B(  9-C , 10-H ) :   0.6590 B(  9-C , 11-H ) :   0.5048
B( 10-H , 11-H ) :   0.2163 B( 15-H , 16-H ) :  -0.1573 B( 17-H , 18-H ) :  -0.1185
B( 19-F , 20-O ) :   0.1186

FINAL SINGLE POINT ENERGY      -518.244330862814

DIPOLE MOMENT
-------------
                                X             Y             Z
Electronic contribution:      3.53352      -4.88212      -4.86527
Nuclear contribution   :     -4.64021       3.37029       5.31478
                        -----------------------------------------
Total Dipole Moment    :     -1.10669      -1.51183       0.44951
                        -----------------------------------------
Magnitude (a.u.)       :      1.92677
Magnitude (Debye)      :      4.89747

Rotational constants in cm-1:     0.061077     0.043622     0.034103
Rotational constants in MHz :  1831.041375  1307.759852  1022.388536

                             ****ORCA TERMINATED NORMALLY****
TOTAL RUN TIME: 0 days 0 hours 1 minutes 25 seconds 928 msec
