                         Program Version 5.0.0 -  RELEASE  -
|  1> !B3LYP D3BJ RIJCOSX def2-SVPD def2/J TightSCF
|  2> *xyz -1 1
|  3> C         -0.46129        2.23469       -4.98962
|  4> C          0.84888        2.66797       -4.30235
|  5> C          2.09343        1.86104       -4.65684
|  6> H          2.44481        2.04157       -5.67499
|  7> H          2.90175        2.13786       -3.98034
|  8> S          1.87964        0.07859       -4.46297
|  9> O          3.20757       -0.46611       -4.42026
| 10> O          1.07506       -0.05616       -3.26876
| 11> O          1.13166       -0.31996       -5.67903
| 12> H          0.66843        2.55943       -3.23285
| 13> H          1.03407        3.72943       -4.49708
| 14> H         -0.35183        2.31783       -6.05075
| 15> H         -1.26108        2.86600       -4.66300
| 16> H         -0.68032        1.21949       -4.73211
| 17> *
| 18>
| 19> %MaxCore 64000
| 20>
| 21> %pal nprocs 8
| 22> end
| 23>
| 24> %scf
| 25>   MaxIter 150
| 26> end
| 27>
| 28>
| 29>                          ****END OF INPUT****

CARTESIAN COORDINATES (ANGSTROEM)
---------------------------------
  C     -0.461290    2.234690   -4.989620
  C      0.848880    2.667970   -4.302350
  C      2.093430    1.861040   -4.656840
  H      2.444810    2.041570   -5.674990
  H      2.901750    2.137860   -3.980340
  S      1.879640    0.078590   -4.462970
  O      3.207570   -0.466110   -4.420260
  O      1.075060   -0.056160   -3.268760
  O      1.131660   -0.319960   -5.679030
  H      0.668430    2.559430   -3.232850
  H      1.034070    3.729430   -4.497080
  H     -0.351830    2.317830   -6.050750
  H     -1.261080    2.866000   -4.663000
  H     -0.680320    1.219490   -4.732110

 Total Charge           Charge          ....   -1
 Multiplicity           Mult            ....    1
 Number of Electrons    NEL             ....   66
 Basis Dimension        Dim             ....  212

ORBITAL ENERGIES
----------------

  NO   OCC          E(Eh)            E(eV)
   0   2.0000     -88.883681     -2418.6479
   1   2.0000     -18.925316      -514.9840
   2   2.0000     -18.923124      -514.9244
   3   2.0000     -18.909828      -514.5626
   4   2.0000     -10.050163      -273.4788
   5   2.0000     -10.043412      -273.2951
   6   2.0000     -10.029439      -272.9149
   7   2.0000      -7.937302      -215.9850
   8   2.0000      -5.906303      -160.7187
   9   2.0000      -5.906093      -160.7130
  10   2.0000      -5.905563      -160.6985
  11   2.0000      -0.936120       -25.4731
  12   2.0000      -0.799223       -21.7480
  13   2.0000      -0.772969       -21.0336
  14   2.0000      -0.645123       -17.5547
  15   2.0000      -0.556672       -15.1478
  16   2.0000      -0.462278       -12.5792
  17   2.0000      -0.379340       -10.3224
  18   2.0000      -0.331738        -9.0271
  19   2.0000      -0.315421        -8.5830
  20   2.0000      -0.294615        -8.0169
  21   2.0000      -0.280549        -7.6341
  22   2.0000      -0.263967        -7.1829
  23   2.0000      -0.251779        -6.8513
  24   2.0000      -0.223703        -6.0873
  25   2.0000      -0.215021        -5.8510
  26   2.0000      -0.197475        -5.3736
  27   2.0000      -0.156836        -4.2677
  28   2.0000      -0.154352        -4.2001
  29   2.0000      -0.122613        -3.3365
  30   2.0000      -0.113054        -3.0764
  31   2.0000      -0.101590        -2.7644
  32   2.0000      -0.071042        -1.9331
  33   0.0000       0.137045         3.7292
  34   0.0000       0.161485         4.3942
  35   0.0000       0.169180         4.6036
  36   0.0000       0.175883         4.7860
  37   0.0000       0.196798         5.3552

MULLIKEN ATOMIC CHARGES
-----------------------
   0 C :    0.989108
   1 C :   -0.080103
   2 C :    0.265520
   3 H :   -0.113829
   4 H :   -0.120738
   5 S :    1.312527
   6 O :   -0.822247
   7 O :   -0.813204
   8 O :   -0.821912
   9 H :   -0.016933
  10 H :   -0.309498
  11 H :   -0.142523
  12 H :   -0.215362
  13 H :   -0.110806
Sum of atomic charges:   -1.0000000

LOEWDIN ATOMIC CHARGES
----------------------
   0 C :    0.127219
   1 C :   -0.088159
   2 C :   -0.085517
   3 H :    0.003509
   4 H :   -0.004682
   5 S :    0.862644
   6 O :   -0.568621
   7 O :   -0.565800
   8 O :   -0.587889
   9 H :    0.007111
  10 H :    0.000290
  11 H :   -0.023858
  12 H :   -0.038859
  13 H :   -0.037388

  Mayer bond orders larger than 0.100000
B(  0-C ,  1-C ) :   1.2696 B(  0-C ,  9-H ) :   0.1133 B(  0-C , 11-H ) :   0.7099
B(  0-C , 12-H ) :   0.6937 B(  0-C , 13-H ) :   0.7709 B(  1-C ,  2-C ) :   1.2382
B(  1-C ,  3-H ) :   0.1481 B(  1-C ,  4-H ) :   0.1590 B(  1-C ,  9-H ) :   0.8246
B(  1-C , 10-H ) :   0.8541 B(  1-C , 11-H ) :   0.2372 B(  1-C , 12-H ) :   0.2418
B(  1-C , 13-H ) :   0.2350 B(  2-C ,  3-H ) :   0.8917 B(  2-C ,  4-H ) :   0.8781
B(  2-C ,  5-S ) :   0.9028 B(  2-C ,  9-H ) :   0.1419 B(  2-C , 10-H ) :   0.1424
B(  5-S ,  6-O ) :   1.3609 B(  5-S ,  7-O ) :   1.2713 B(  5-S ,  8-O ) :   1.2482

Dispersion correction           -0.023196974
FINAL SINGLE POINT ENERGY      -741.851051387155

DIPOLE MOMENT
-------------
                                X             Y             Z
Electronic contribution:      4.87296      -9.04491       1.03857
Nuclear contribution   :     -5.21326      11.14780      -1.06438
                        -----------------------------------------
Total Dipole Moment    :     -0.34031       2.10289      -0.02581
                        -----------------------------------------
Magnitude (a.u.)       :      2.13040
Magnitude (Debye)      :      5.41505

Rotational constants in cm-1:     0.135673     0.057896     0.054396
Rotational constants in MHz :  4067.361083  1735.682437  1630.763840

                             ****ORCA TERMINATED NORMALLY****
TOTAL RUN TIME: 0 days 0 hours 0 minutes 14 seconds 523 msec
