                         Program Version 5.0.0 -  RELEASE  -
|  1> !B3LYP D3BJ RIJCOSX def2-SVPD def2/J TightSCF
|  2> *xyz 1 1
|  3> C         -0.46129        2.23469       -4.98962
|  4> C          0.84888        2.66797       -4.30235
|  5> C          2.09343        1.86104       -4.65684
|  6> C         -0.42384        2.39877       -6.47432
|  7> N         -0.95947        3.49265       -7.00740
|  8> N          0.14558        1.48689       -7.20399
|  9> H          0.56537        0.69681       -6.72386
| 10> H          0.22068        1.58177       -8.20752
| 11> H         -1.40624        4.18151       -6.40326
| 12> H         -0.93421        3.68160       -7.99947
| 13> H          0.66843        2.55943       -3.23285
| 14> H          1.03407        3.72943       -4.49708
| 15> H         -1.28888        2.82674       -4.59500
| 16> H         -0.65170        1.18634       -4.75655
| 17> H          2.29129        1.95234       -5.70442
| 18> H          1.93270        0.83176       -4.41261
| 19> H          2.92953        2.23285       -4.10223
| 20> *
| 21>
| 22> %MaxCore 64000
| 23>
| 24> %pal nprocs 8
| 25> end
| 26>
| 27> %scf
| 28>   MaxIter 150
| 29> end
| 30>
| 31>
| 32>                          ****END OF INPUT****

CARTESIAN COORDINATES (ANGSTROEM)
---------------------------------
  C     -0.461290    2.234690   -4.989620
  C      0.848880    2.667970   -4.302350
  C      2.093430    1.861040   -4.656840
  C     -0.423840    2.398770   -6.474320
  N     -0.959470    3.492650   -7.007400
  N      0.145580    1.486890   -7.203990
  H      0.565370    0.696810   -6.723860
  H      0.220680    1.581770   -8.207520
  H     -1.406240    4.181510   -6.403260
  H     -0.934210    3.681600   -7.999470
  H      0.668430    2.559430   -3.232850
  H      1.034070    3.729430   -4.497080
  H     -1.288880    2.826740   -4.595000
  H     -0.651700    1.186340   -4.756550
  H      2.291290    1.952340   -5.704420
  H      1.932700    0.831760   -4.412610
  H      2.929530    2.232850   -4.102230

 Total Charge           Charge          ....    1
 Multiplicity           Mult            ....    1
 Number of Electrons    NEL             ....   48
 Basis Dimension        Dim             ....  208

ORBITAL ENERGIES
----------------

  NO   OCC          E(Eh)            E(eV)
   0   2.0000     -14.575447      -396.6181
   1   2.0000     -14.571788      -396.5185
   2   2.0000     -10.500966      -285.7458
   3   2.0000     -10.376875      -282.3691
   4   2.0000     -10.344185      -281.4796
   5   2.0000     -10.312891      -280.6280
   6   2.0000      -1.193186       -32.4682
   7   2.0000      -1.098574       -29.8937
   8   2.0000      -0.966265       -26.2934
   9   2.0000      -0.884052       -24.0563
  10   2.0000      -0.829314       -22.5668
  11   2.0000      -0.784609       -21.3503
  12   2.0000      -0.772421       -21.0187
  13   2.0000      -0.728720       -19.8295
  14   2.0000      -0.700628       -19.0651
  15   2.0000      -0.652004       -17.7419
  16   2.0000      -0.622007       -16.9257
  17   2.0000      -0.606810       -16.5122
  18   2.0000      -0.574516       -15.6334
  19   2.0000      -0.561197       -15.2709
  20   2.0000      -0.510640       -13.8952
  21   2.0000      -0.499539       -13.5932
  22   2.0000      -0.498228       -13.5575
  23   2.0000      -0.485927       -13.2227
  24   0.0000      -0.208999        -5.6872
  25   0.0000      -0.158070        -4.3013
  26   0.0000      -0.116973        -3.1830
  27   0.0000      -0.112951        -3.0735
  28   0.0000      -0.089092        -2.4243

MULLIKEN ATOMIC CHARGES
-----------------------
   0 C :    0.227141
   1 C :   -0.156698
   2 C :    0.995900
   3 C :    0.748733
   4 N :    0.087457
   5 N :    0.170321
   6 H :    0.067486
   7 H :   -0.171703
   8 H :    0.018739
   9 H :   -0.161965
  10 H :   -0.109108
  11 H :   -0.140985
  12 H :   -0.118503
  13 H :   -0.029091
  14 H :   -0.167100
  15 H :   -0.075110
  16 H :   -0.185517
Sum of atomic charges:    1.0000000

LOEWDIN ATOMIC CHARGES
----------------------
   0 C :    0.051549
   1 C :   -0.032538
   2 C :    0.143705
   3 C :   -0.044667
   4 N :    0.286682
   5 N :    0.294116
   6 H :    0.048779
   7 H :    0.053195
   8 H :    0.052366
   9 H :    0.041636
  10 H :    0.036148
  11 H :    0.030781
  12 H :    0.036777
  13 H :    0.044181
  14 H :   -0.033570
  15 H :   -0.009124
  16 H :   -0.000016

  Mayer bond orders larger than 0.100000
B(  0-C ,  1-C ) :   1.1856 B(  0-C ,  3-C ) :   1.0577 B(  0-C ,  4-N ) :   0.1221
B(  0-C ,  5-N ) :   0.1253 B(  0-C , 10-H ) :   0.1327 B(  0-C , 11-H ) :   0.1053
B(  0-C , 12-H ) :   0.8593 B(  0-C , 13-H ) :   0.8059 B(  1-C ,  2-C ) :   1.3026
B(  1-C , 10-H ) :   0.8636 B(  1-C , 11-H ) :   0.9355 B(  1-C , 12-H ) :   0.1253
B(  1-C , 13-H ) :   0.1468 B(  1-C , 14-H ) :   0.2354 B(  1-C , 15-H ) :   0.2392
B(  1-C , 16-H ) :   0.2437 B(  2-C , 10-H ) :   0.1063 B(  2-C , 14-H ) :   0.7540
B(  2-C , 15-H ) :   0.7368 B(  2-C , 16-H ) :   0.7333 B(  3-C ,  4-N ) :   1.0541
B(  3-C ,  5-N ) :   1.1557 B(  3-C ,  7-H ) :  -0.1948 B(  3-C ,  9-H ) :  -0.1778
B(  3-C , 12-H ) :   0.1042 B(  4-N ,  5-N ) :   0.1686 B(  4-N ,  8-H ) :   1.1066
B(  4-N ,  9-H ) :   1.3054 B(  5-N ,  6-H ) :   1.0365 B(  5-N ,  7-H ) :   1.3420
B(  6-H ,  7-H ) :  -0.1947 B(  8-H ,  9-H ) :  -0.1843

Dispersion correction           -0.022547246
FINAL SINGLE POINT ENERGY      -268.017827919439

DIPOLE MOMENT
-------------
                                X             Y             Z
Electronic contribution:     -3.54548       0.62930      -4.29537
Nuclear contribution   :      2.80679      -0.44323       2.95915
                        -----------------------------------------
Total Dipole Moment    :     -0.73869       0.18607      -1.33622
                        -----------------------------------------
Magnitude (a.u.)       :      1.53810
Magnitude (Debye)      :      3.90954

Rotational constants in cm-1:     0.187834     0.079484     0.065778
Rotational constants in MHz :  5631.136036  2382.861517  1971.985559

                             ****ORCA TERMINATED NORMALLY****
TOTAL RUN TIME: 0 days 0 hours 0 minutes 13 seconds 432 msec
