                         Program Version 5.0.0 -  RELEASE  -
|  1> !B3LYP D3BJ RIJCOSX def2-SVPD def2/J TightSCF xyzfile
|  2>
|  3> *xyzfile 0 1 B.xyz
|  4>
|  5> %MaxCore 64000
|  6>
|  7> %pal nprocs 4
|  8> end
|  9>
| 10> %scf
| 11>   MaxIter 150
| 12> end
| 13>
| 14>
| 15>                          ****END OF INPUT****

CARTESIAN COORDINATES (ANGSTROEM)
---------------------------------
  C     -0.461293    2.234686   -4.989619
  C      0.848883    2.667967   -4.302351
  C      2.093434    1.861037   -4.656845
  H      2.444814    2.041567   -5.674990
  H      2.901748    2.137864   -3.980338
  S      1.879644    0.078594   -4.462965
  C     -0.423841    2.398772   -6.474317
  N     -0.959467    3.492647   -7.007401
  N      0.145585    1.486891   -7.203987
  H      0.565371    0.696807   -6.723858
  H      0.220682    1.581768   -8.207520
  H     -1.406243    4.181507   -6.403261
  H     -0.934215    3.681601   -7.999468
  O      3.207574   -0.466111   -4.420259
  O      1.075064   -0.056160   -3.268758
  O      1.131661   -0.319960   -5.679031
  H      0.668432    2.559427   -3.232850
  H      1.034074    3.729426   -4.497081
  H     -1.288884    2.826737   -4.594997
  H     -0.651696    1.186343   -4.756552

 Total Charge           Charge          ....    0
 Multiplicity           Mult            ....    1
 Number of Electrons    NEL             ....   88
 Basis Dimension        Dim             ....  296

ORBITAL ENERGIES
----------------

  NO   OCC          E(Eh)            E(eV)
   0   2.0000     -89.034027     -2422.7391
   1   2.0000     -19.078091      -519.1413
   2   2.0000     -19.064616      -518.7746
   3   2.0000     -19.062874      -518.7272
   4   2.0000     -14.441761      -392.9803
   5   2.0000     -14.408567      -392.0770
   6   2.0000     -10.358113      -281.8586
   7   2.0000     -10.235196      -278.5139
   8   2.0000     -10.215660      -277.9822
   9   2.0000     -10.191848      -277.3343
  10   2.0000      -8.087020      -220.0590
  11   2.0000      -6.056518      -164.8062
  12   2.0000      -6.055606      -164.7814
  13   2.0000      -6.055116      -164.7681
  14   2.0000      -1.085163       -29.5288
  15   2.0000      -1.050499       -28.5855
  16   2.0000      -0.958284       -26.0762
  17   2.0000      -0.938785       -25.5456
  18   2.0000      -0.935156       -25.4469
  19   2.0000      -0.829761       -22.5789
  20   2.0000      -0.753138       -20.4939
  21   2.0000      -0.692868       -18.8539
  22   2.0000      -0.649959       -17.6863
  23   2.0000      -0.635533       -17.2937
  24   2.0000      -0.604676       -16.4541
  25   2.0000      -0.566044       -15.4029
  26   2.0000      -0.522541       -14.2191
  27   2.0000      -0.515497       -14.0274
  28   2.0000      -0.485762       -13.2183
  29   2.0000      -0.474925       -12.9234
  30   2.0000      -0.449649       -12.2356
  31   2.0000      -0.440752       -11.9935
  32   2.0000      -0.418153       -11.3785
  33   2.0000      -0.409371       -11.1395
  34   2.0000      -0.394137       -10.7250
  35   2.0000      -0.379603       -10.3295
  36   2.0000      -0.363508        -9.8916
  37   2.0000      -0.349398        -9.5076
  38   2.0000      -0.307098        -8.3566
  39   2.0000      -0.301327        -8.1995
  40   2.0000      -0.272695        -7.4204
  41   2.0000      -0.261648        -7.1198
  42   2.0000      -0.254154        -6.9159
  43   2.0000      -0.222276        -6.0484
  44   0.0000      -0.069402        -1.8885
  45   0.0000      -0.043097        -1.1727
  46   0.0000      -0.004836        -0.1316
  47   0.0000       0.015158         0.4125
  48   0.0000       0.029136         0.7928

MULLIKEN ATOMIC CHARGES
-----------------------
   0 C :    0.311075
   1 C :    0.335162
   2 C :    0.321191
   3 H :    0.009726
   4 H :   -0.244643
   5 S :    1.433480
   6 C :    0.670584
   7 N :    0.120867
   8 N :    0.521587
   9 H :   -0.210477
  10 H :   -0.219658
  11 H :   -0.046857
  12 H :   -0.220421
  13 O :   -0.773218
  14 O :   -0.798459
  15 O :   -0.893219
  16 H :    0.078006
  17 H :   -0.290639
  18 H :   -0.173198
  19 H :    0.069110
Sum of atomic charges:    0.0000000

LOEWDIN ATOMIC CHARGES
----------------------
   0 C :    0.061275
   1 C :   -0.008924
   2 C :   -0.060995
   3 H :    0.004791
   4 H :    0.015482
   5 S :    0.941028
   6 C :   -0.039837
   7 N :    0.254236
   8 N :    0.313474
   9 H :   -0.120173
  10 H :    0.041674
  11 H :    0.033834
  12 H :    0.023810
  13 O :   -0.512983
  14 O :   -0.524259
  15 O :   -0.528747
  16 H :    0.031339
  17 H :    0.019439
  18 H :    0.027258
  19 H :    0.028278

  Mayer bond orders larger than 0.100000
B(  0-C ,  1-C ) :   1.1938 B(  0-C ,  6-C ) :   1.0940 B(  0-C , 16-H ) :   0.1617
B(  0-C , 18-H ) :   0.7250 B(  0-C , 19-H ) :   0.8117 B(  1-C ,  2-C ) :   1.2942
B(  1-C ,  3-H ) :   0.1409 B(  1-C ,  4-H ) :   0.2064 B(  1-C , 16-H ) :   0.7749
B(  1-C , 17-H ) :   0.7937 B(  1-C , 18-H ) :   0.1681 B(  1-C , 19-H ) :   0.1509
B(  2-C ,  3-H ) :   0.8672 B(  2-C ,  4-H ) :   0.7703 B(  2-C ,  5-S ) :   0.8785
B(  2-C , 14-O ) :   0.1016 B(  2-C , 15-O ) :   0.1458 B(  2-C , 16-H ) :   0.1626
B(  2-C , 17-H ) :   0.1357 B(  4-H ,  5-S ) :   0.1100 B(  5-S , 13-O ) :   1.3928
B(  5-S , 14-O ) :   1.3154 B(  5-S , 15-O ) :   1.1257 B(  6-C ,  7-N ) :   0.9958
B(  6-C ,  8-N ) :   1.1657 B(  6-C , 10-H ) :  -0.2370 B(  6-C , 11-H ) :  -0.1313
B(  6-C , 12-H ) :  -0.1731 B(  6-C , 18-H ) :   0.1447 B(  7-N ,  8-N ) :   0.1590
B(  7-N , 11-H ) :   1.1748 B(  7-N , 12-H ) :   1.3253 B(  8-N ,  9-H ) :   1.1103
B(  8-N , 10-H ) :   1.2964 B(  9-H , 10-H ) :  -0.2418 B(  9-H , 15-O ) :   0.2095
B( 11-H , 12-H ) :  -0.1865

Dispersion correction           -0.038444262
FINAL SINGLE POINT ENERGY      -891.037282958120

DIPOLE MOMENT
-------------
                                X             Y             Z
Electronic contribution:      3.09155      -7.61145       1.08274
Nuclear contribution   :     -5.91573      12.15027      -4.18945
                        -----------------------------------------
Total Dipole Moment    :     -2.82417       4.53883      -3.10671
                        -----------------------------------------
Magnitude (a.u.)       :      6.18293
Magnitude (Debye)      :     15.71575

Rotational constants in cm-1:     0.082044     0.024757     0.022371
Rotational constants in MHz :  2459.631375   742.181961   670.660570

                             ****ORCA TERMINATED NORMALLY****
TOTAL RUN TIME: 0 days 0 hours 1 minutes 4 seconds 3 msec
