                         Program Version 5.0.0 -  RELEASE  -
|  1> !B3LYP D3BJ RIJCOSX def2-SVPD def2/J TightSCF
|  2> *xyz 0 1
|  3> C         -0.46129        2.23469       -4.98962
|  4> C          0.84888        2.66797       -4.30235
|  5> C          2.09343        1.86104       -4.65684
|  6> H          2.44481        2.04157       -5.67499
|  7> H          2.90175        2.13786       -3.98034
|  8> S          1.87964        0.07859       -4.46297
|  9> F          3.20757       -0.46611       -4.42026
| 10> O          1.07506       -0.05616       -3.26876
| 11> O          1.13166       -0.31996       -5.67903
| 12> H          0.66843        2.55943       -3.23285
| 13> H          1.03407        3.72943       -4.49708
| 14> H         -0.35183        2.31783       -6.05075
| 15> H         -1.26108        2.86600       -4.66300
| 16> H         -0.68032        1.21949       -4.73211
| 17> *
| 18>
| 19> %MaxCore 64000
| 20>
| 21> %pal nprocs 8
| 22> end
| 23>
| 24> %scf
| 25>   MaxIter 150
| 26> end
| 27>
| 28>
| 29>                          ****END OF INPUT****

CARTESIAN COORDINATES (ANGSTROEM)
---------------------------------
  C     -0.461290    2.234690   -4.989620
  C      0.848880    2.667970   -4.302350
  C      2.093430    1.861040   -4.656840
  H      2.444810    2.041570   -5.674990
  H      2.901750    2.137860   -3.980340
  S      1.879640    0.078590   -4.462970
  F      3.207570   -0.466110   -4.420260
  O      1.075060   -0.056160   -3.268760
  O      1.131660   -0.319960   -5.679030
  H      0.668430    2.559430   -3.232850
  H      1.034070    3.729430   -4.497080
  H     -0.351830    2.317830   -6.050750
  H     -1.261080    2.866000   -4.663000
  H     -0.680320    1.219490   -4.732110

 Total Charge           Charge          ....    0
 Multiplicity           Mult            ....    1
 Number of Electrons    NEL             ....   66
 Basis Dimension        Dim             ....  212

ORBITAL ENERGIES
----------------

  NO   OCC          E(Eh)            E(eV)
   0   2.0000     -89.140104     -2425.6255
   1   2.0000     -24.820412      -675.3977
   2   2.0000     -19.154379      -521.2172
   3   2.0000     -19.141497      -520.8666
   4   2.0000     -10.242921      -278.7241
   5   2.0000     -10.209028      -277.8018
   6   2.0000     -10.171583      -276.7828
   7   2.0000      -8.194695      -222.9890
   8   2.0000      -6.167600      -167.8289
   9   2.0000      -6.161372      -167.6595
  10   2.0000      -6.159905      -167.6195
  11   2.0000      -1.384254       -37.6675
  12   2.0000      -1.109506       -30.1912
  13   2.0000      -1.004508       -27.3340
  14   2.0000      -0.822464       -22.3804
  15   2.0000      -0.753843       -20.5131
  16   2.0000      -0.707745       -19.2587
  17   2.0000      -0.634115       -17.2551
  18   2.0000      -0.595675       -16.2091
  19   2.0000      -0.582751       -15.8575
  20   2.0000      -0.555670       -15.1205
  21   2.0000      -0.494929       -13.4677
  22   2.0000      -0.484504       -13.1840
  23   2.0000      -0.456645       -12.4259
  24   2.0000      -0.450032       -12.2460
  25   2.0000      -0.424866       -11.5612
  26   2.0000      -0.390493       -10.6259
  27   2.0000      -0.375139       -10.2081
  28   2.0000      -0.369470       -10.0538
  29   2.0000      -0.351568        -9.5666
  30   2.0000      -0.337772        -9.1913
  31   2.0000      -0.320066        -8.7094
  32   2.0000      -0.309447        -8.4205
  33   0.0000      -0.006068        -0.1651
  34   0.0000       0.015759         0.4288
  35   0.0000       0.032857         0.8941
  36   0.0000       0.037005         1.0070
  37   0.0000       0.048080         1.3083

MULLIKEN ATOMIC CHARGES
-----------------------
   0 C :    1.006223
   1 C :   -0.076746
   2 C :    0.228437
   3 H :   -0.060147
   4 H :   -0.064266
   5 S :    1.502983
   6 F :   -0.450078
   7 O :   -0.671378
   8 O :   -0.680901
   9 H :   -0.000125
  10 H :   -0.276687
  11 H :   -0.128291
  12 H :   -0.194557
  13 H :   -0.134468
Sum of atomic charges:   -0.0000000

LOEWDIN ATOMIC CHARGES
----------------------
   0 C :    0.149317
   1 C :   -0.057930
   2 C :   -0.050350
   3 H :    0.023202
   4 H :    0.012588
   5 S :    1.126420
   6 F :   -0.253296
   7 O :   -0.460157
   8 O :   -0.478984
   9 H :    0.021321
  10 H :    0.028519
  11 H :   -0.011899
  12 H :   -0.016567
  13 H :   -0.032186

  Mayer bond orders larger than 0.100000
B(  0-C ,  1-C ) :   1.2872 B(  0-C ,  9-H ) :   0.1095 B(  0-C , 11-H ) :   0.7137
B(  0-C , 12-H ) :   0.6994 B(  0-C , 13-H ) :   0.7739 B(  1-C ,  2-C ) :   1.2899
B(  1-C ,  3-H ) :   0.1410 B(  1-C ,  4-H ) :   0.1681 B(  1-C ,  9-H ) :   0.8230
B(  1-C , 10-H ) :   0.8557 B(  1-C , 11-H ) :   0.2301 B(  1-C , 12-H ) :   0.2323
B(  1-C , 13-H ) :   0.2222 B(  2-C ,  3-H ) :   0.8959 B(  2-C ,  4-H ) :   0.8410
B(  2-C ,  5-S ) :   0.9430 B(  2-C ,  9-H ) :   0.1382 B(  2-C , 10-H ) :   0.1374
B(  5-S ,  6-F ) :   0.6910 B(  5-S ,  7-O ) :   1.4731 B(  5-S ,  8-O ) :   1.4468

Dispersion correction           -0.022433315
FINAL SINGLE POINT ENERGY      -766.331102074454

DIPOLE MOMENT
-------------
                                X             Y             Z
Electronic contribution:      8.07906     -11.20009       1.23155
Nuclear contribution   :     -7.07796      12.41139      -1.18012
                        -----------------------------------------
Total Dipole Moment    :      1.00110       1.21130       0.05143
                        -----------------------------------------
Magnitude (a.u.)       :      1.57229
Magnitude (Debye)      :      3.99644

Rotational constants in cm-1:     0.134396     0.055628     0.052255
Rotational constants in MHz :  4029.100214  1667.685325  1566.551712

                             ****ORCA TERMINATED NORMALLY****
TOTAL RUN TIME: 0 days 0 hours 0 minutes 14 seconds 36 msec
