                         Program Version 5.0.0 -  RELEASE  -
|  1> !B3LYP D3BJ RIJCOSX def2-SVPD def2/J TightSCF
|  2> *xyz 0 1
|  3> C         -0.46129        2.23469       -4.98962
|  4> C          0.84888        2.66797       -4.30235
|  5> C          2.09343        1.86104       -4.65684
|  6> C         -0.42384        2.39877       -6.47432
|  7> C         -0.95947        3.49265       -7.00740
|  8> N          0.14558        1.48689       -7.20399
|  9> H          0.56537        0.69681       -6.72386
| 10> H          0.22068        1.58177       -8.20752
| 11> H         -1.40624        4.18151       -6.40326
| 12> H         -0.93421        3.68160       -7.99947
| 13> H          0.66843        2.55943       -3.23285
| 14> H          1.03407        3.72943       -4.49708
| 15> H         -1.28888        2.82674       -4.59500
| 16> H         -0.65170        1.18634       -4.75655
| 17> H          2.29129        1.95234       -5.70442
| 18> H          1.93270        0.83176       -4.41261
| 19> H          2.92953        2.23285       -4.10223
| 20> *
| 21>
| 22> %MaxCore 64000
| 23>
| 24> %pal nprocs 8
| 25> end
| 26>
| 27> %scf
| 28>   MaxIter 150
| 29> end
| 30>
| 31>
| 32>                          ****END OF INPUT****

CARTESIAN COORDINATES (ANGSTROEM)
---------------------------------
  C     -0.461290    2.234690   -4.989620
  C      0.848880    2.667970   -4.302350
  C      2.093430    1.861040   -4.656840
  C     -0.423840    2.398770   -6.474320
  C     -0.959470    3.492650   -7.007400
  N      0.145580    1.486890   -7.203990
  H      0.565370    0.696810   -6.723860
  H      0.220680    1.581770   -8.207520
  H     -1.406240    4.181510   -6.403260
  H     -0.934210    3.681600   -7.999470
  H      0.668430    2.559430   -3.232850
  H      1.034070    3.729430   -4.497080
  H     -1.288880    2.826740   -4.595000
  H     -0.651700    1.186340   -4.756550
  H      2.291290    1.952340   -5.704420
  H      1.932700    0.831760   -4.412610
  H      2.929530    2.232850   -4.102230

 Total Charge           Charge          ....    0
 Multiplicity           Mult            ....    1
 Number of Electrons    NEL             ....   48
 Basis Dimension        Dim             ....  208

ORBITAL ENERGIES
----------------

  NO   OCC          E(Eh)            E(eV)
   0   2.0000     -14.333511      -390.0347
   1   2.0000     -10.200749      -277.5765
   2   2.0000     -10.180507      -277.0257
   3   2.0000     -10.178830      -276.9801
   4   2.0000     -10.167846      -276.6812
   5   2.0000     -10.114675      -275.2343
   6   2.0000      -0.927945       -25.2507
   7   2.0000      -0.785668       -21.3791
   8   2.0000      -0.728518       -19.8240
   9   2.0000      -0.674311       -18.3489
  10   2.0000      -0.601997       -16.3812
  11   2.0000      -0.562792       -15.3144
  12   2.0000      -0.526586       -14.3291
  13   2.0000      -0.484958       -13.1964
  14   2.0000      -0.449816       -12.2401
  15   2.0000      -0.433653       -11.8003
  16   2.0000      -0.409959       -11.1555
  17   2.0000      -0.391551       -10.6546
  18   2.0000      -0.375030       -10.2051
  19   2.0000      -0.361041        -9.8244
  20   2.0000      -0.339681        -9.2432
  21   2.0000      -0.326195        -8.8762
  22   2.0000      -0.325385        -8.8542
  23   2.0000      -0.186808        -5.0833
  24   0.0000       0.013959         0.3798
  25   0.0000       0.037073         1.0088
  26   0.0000       0.045426         1.2361
  27   0.0000       0.049074         1.3354
  28   0.0000       0.066283         1.8036

MULLIKEN ATOMIC CHARGES
-----------------------
   0 C :    0.451981
   1 C :   -0.182817
   2 C :    0.980436
   3 C :   -0.063826
   4 C :    0.599605
   5 N :    0.322247
   6 H :   -0.087758
   7 H :   -0.240133
   8 H :   -0.214657
   9 H :   -0.606574
  10 H :   -0.140170
  11 H :   -0.181707
  12 H :   -0.044889
  13 H :   -0.137141
  14 H :   -0.153666
  15 H :   -0.086774
  16 H :   -0.214160
Sum of atomic charges:   -0.0000000

LOEWDIN ATOMIC CHARGES
----------------------
   0 C :    0.011115
   1 C :   -0.055149
   2 C :    0.122533
   3 C :   -0.263429
   4 C :    0.184056
   5 N :    0.179399
   6 H :   -0.000363
   7 H :    0.013673
   8 H :   -0.086328
   9 H :   -0.095193
  10 H :    0.011536
  11 H :    0.021246
  12 H :    0.020375
  13 H :    0.017005
  14 H :   -0.035993
  15 H :   -0.022473
  16 H :   -0.022010

  Mayer bond orders larger than 0.100000
B(  0-C ,  1-C ) :   1.1526 B(  0-C ,  3-C ) :   1.1141 B(  0-C ,  4-C ) :   0.1897
B(  0-C ,  5-N ) :   0.1326 B(  0-C , 10-H ) :   0.1185 B(  0-C , 11-H ) :   0.1316
B(  0-C , 12-H ) :   0.8069 B(  0-C , 13-H ) :   0.6849 B(  1-C ,  2-C ) :   1.2803
B(  1-C , 10-H ) :   0.8566 B(  1-C , 11-H ) :   0.9495 B(  1-C , 12-H ) :   0.1358
B(  1-C , 13-H ) :   0.1739 B(  1-C , 14-H ) :   0.2422 B(  1-C , 15-H ) :   0.2506
B(  1-C , 16-H ) :   0.2534 B(  2-C , 10-H ) :   0.1069 B(  2-C , 14-H ) :   0.7780
B(  2-C , 15-H ) :   0.7295 B(  2-C , 16-H ) :   0.7078 B(  3-C ,  4-C ) :   1.5754
B(  3-C ,  5-N ) :   1.1950 B(  3-C ,  7-H ) :  -0.1175 B(  3-C ,  9-H ) :   0.1723
B(  3-C , 12-H ) :   0.1681 B(  3-C , 13-H ) :   0.1956 B(  4-C ,  5-N ) :   0.3027
B(  4-C ,  8-H ) :   0.9004 B(  4-C ,  9-H ) :   0.5853 B(  5-N ,  6-H ) :   1.0127
B(  5-N ,  7-H ) :   1.2953 B(  6-H ,  7-H ) :  -0.1723

Dispersion correction           -0.023324931
FINAL SINGLE POINT ENERGY      -251.558848797592

DIPOLE MOMENT
-------------
                                X             Y             Z
Electronic contribution:     -2.08582      -0.44480      -2.64029
Nuclear contribution   :      2.52905      -0.17478       2.67366
                        -----------------------------------------
Total Dipole Moment    :      0.44323      -0.61958       0.03337
                        -----------------------------------------
Magnitude (a.u.)       :      0.76253
Magnitude (Debye)      :      1.93819

Rotational constants in cm-1:     0.190920     0.082419     0.067855
Rotational constants in MHz :  5723.626725  2470.870287  2034.242308

                             ****ORCA TERMINATED NORMALLY****
TOTAL RUN TIME: 0 days 0 hours 0 minutes 13 seconds 522 msec
