                         Program Version 5.0.0 -  RELEASE  -
|  1> !B3LYP D3BJ RIJCOSX def2-SVPD def2/J TightSCF
|  2> *xyz 0 1
|  3> C         -0.46129        2.23469       -4.98962
|  4> C          0.84888        2.66797       -4.30235
|  5> C          2.09343        1.86104       -4.65684
|  6> H          2.44481        2.04157       -5.67499
|  7> H          2.90175        2.13786       -3.98034
|  8> S          1.87964        0.07859       -4.46297
|  9> O          3.20757       -0.46611       -4.42026
| 10> F          1.07506       -0.05616       -3.26876
| 11> O          1.13166       -0.31996       -5.67903
| 12> H          0.66843        2.55943       -3.23285
| 13> H          1.03407        3.72943       -4.49708
| 14> H         -0.35183        2.31783       -6.05075
| 15> H         -1.26108        2.86600       -4.66300
| 16> H         -0.68032        1.21949       -4.73211
| 17> *
| 18>
| 19> %MaxCore 64000
| 20>
| 21> %pal nprocs 8
| 22> end
| 23>
| 24> %scf
| 25>   MaxIter 150
| 26> end
| 27>
| 28>
| 29>                          ****END OF INPUT****

CARTESIAN COORDINATES (ANGSTROEM)
---------------------------------
  C     -0.461290    2.234690   -4.989620
  C      0.848880    2.667970   -4.302350
  C      2.093430    1.861040   -4.656840
  H      2.444810    2.041570   -5.674990
  H      2.901750    2.137860   -3.980340
  S      1.879640    0.078590   -4.462970
  O      3.207570   -0.466110   -4.420260
  F      1.075060   -0.056160   -3.268760
  O      1.131660   -0.319960   -5.679030
  H      0.668430    2.559430   -3.232850
  H      1.034070    3.729430   -4.497080
  H     -0.351830    2.317830   -6.050750
  H     -1.261080    2.866000   -4.663000
  H     -0.680320    1.219490   -4.732110

 Total Charge           Charge          ....    0
 Multiplicity           Mult            ....    1
 Number of Electrons    NEL             ....   66
 Basis Dimension        Dim             ....  212

ORBITAL ENERGIES
----------------

  NO   OCC          E(Eh)            E(eV)
   0   2.0000     -89.139184     -2425.6005
   1   2.0000     -24.815656      -675.2683
   2   2.0000     -19.156854      -521.2845
   3   2.0000     -19.140145      -520.8298
   4   2.0000     -10.242618      -278.7158
   5   2.0000     -10.215557      -277.9795
   6   2.0000     -10.183025      -277.0942
   7   2.0000      -8.193708      -222.9621
   8   2.0000      -6.166838      -167.8082
   9   2.0000      -6.160278      -167.6297
  10   2.0000      -6.158857      -167.5910
  11   2.0000      -1.376071       -37.4448
  12   2.0000      -1.112318       -30.2677
  13   2.0000      -1.006844       -27.3976
  14   2.0000      -0.829032       -22.5591
  15   2.0000      -0.750366       -20.4185
  16   2.0000      -0.711240       -19.3538
  17   2.0000      -0.635537       -17.2938
  18   2.0000      -0.595575       -16.2064
  19   2.0000      -0.589910       -16.0523
  20   2.0000      -0.546097       -14.8601
  21   2.0000      -0.493890       -13.4394
  22   2.0000      -0.484099       -13.1730
  23   2.0000      -0.464955       -12.6521
  24   2.0000      -0.448794       -12.2123
  25   2.0000      -0.435434       -11.8488
  26   2.0000      -0.393240       -10.7006
  27   2.0000      -0.387999       -10.5580
  28   2.0000      -0.379565       -10.3285
  29   2.0000      -0.361662        -9.8413
  30   2.0000      -0.336140        -9.1468
  31   2.0000      -0.321359        -8.7446
  32   2.0000      -0.309019        -8.4088
  33   0.0000      -0.010454        -0.2845
  34   0.0000       0.021656         0.5893
  35   0.0000       0.031349         0.8530
  36   0.0000       0.034279         0.9328
  37   0.0000       0.042892         1.1672

MULLIKEN ATOMIC CHARGES
-----------------------
   0 C :    1.033306
   1 C :   -0.060818
   2 C :    0.264435
   3 H :   -0.067311
   4 H :   -0.081660
   5 S :    1.443231
   6 O :   -0.669488
   7 F :   -0.407644
   8 O :   -0.680492
   9 H :   -0.029369
  10 H :   -0.278986
  11 H :   -0.125094
  12 H :   -0.189005
  13 H :   -0.151105
Sum of atomic charges:   -0.0000000

LOEWDIN ATOMIC CHARGES
----------------------
   0 C :    0.145157
   1 C :   -0.071710
   2 C :   -0.037697
   3 H :    0.035757
   4 H :    0.016840
   5 S :    1.118704
   6 O :   -0.455336
   7 F :   -0.254891
   8 O :   -0.477526
   9 H :    0.015997
  10 H :    0.026767
  11 H :   -0.008250
  12 H :   -0.016271
  13 H :   -0.037540

  Mayer bond orders larger than 0.100000
B(  0-C ,  1-C ) :   1.2871 B(  0-C ,  9-H ) :   0.1060 B(  0-C , 11-H ) :   0.7146
B(  0-C , 12-H ) :   0.6997 B(  0-C , 13-H ) :   0.7632 B(  1-C ,  2-C ) :   1.2340
B(  1-C ,  3-H ) :   0.1431 B(  1-C ,  4-H ) :   0.1513 B(  1-C ,  9-H ) :   0.8280
B(  1-C , 10-H ) :   0.8621 B(  1-C , 11-H ) :   0.2371 B(  1-C , 12-H ) :   0.2325
B(  1-C , 13-H ) :   0.2283 B(  2-C ,  3-H ) :   0.8907 B(  2-C ,  4-H ) :   0.8875
B(  2-C ,  5-S ) :   0.9727 B(  2-C ,  9-H ) :   0.1305 B(  2-C , 10-H ) :   0.1334
B(  5-S ,  6-O ) :   1.5764 B(  5-S ,  7-F ) :   0.6617 B(  5-S ,  8-O ) :   1.4776
B( 11-H , 13-H ) :   0.1048

Dispersion correction           -0.022225231
FINAL SINGLE POINT ENERGY      -766.334629711979

DIPOLE MOMENT
-------------
                                X             Y             Z
Electronic contribution:      4.40617     -10.43964       3.16161
Nuclear contribution   :     -4.78457      11.97051      -2.41849
                        -----------------------------------------
Total Dipole Moment    :     -0.37840       1.53087       0.74312
                        -----------------------------------------
Magnitude (a.u.)       :      1.74327
Magnitude (Debye)      :      4.43104

Rotational constants in cm-1:     0.129206     0.056639     0.054229
Rotational constants in MHz :  3873.509495  1697.990779  1625.734877

                             ****ORCA TERMINATED NORMALLY****
TOTAL RUN TIME: 0 days 0 hours 0 minutes 14 seconds 220 msec
