                         Program Version 5.0.0 -  RELEASE  -
|  1> !B3LYP D3BJ RIJCOSX def2-SVPD def2/J TightSCF
|  2> *xyz 0 1
|  3> C         -0.46129        2.23469       -4.98962
|  4> C          0.84888        2.66797       -4.30235
|  5> C          2.09343        1.86104       -4.65684
|  6> C         -0.42384        2.39877       -6.47432
|  7> N         -0.95947        3.49265       -7.00740
|  8> C          0.14558        1.48689       -7.20399
|  9> H          0.56537        0.69681       -6.72386
| 10> H          0.22068        1.58177       -8.20752
| 11> H         -1.40624        4.18151       -6.40326
| 12> H         -0.93421        3.68160       -7.99947
| 13> H          0.66843        2.55943       -3.23285
| 14> H          1.03407        3.72943       -4.49708
| 15> H         -1.28888        2.82674       -4.59500
| 16> H         -0.65170        1.18634       -4.75655
| 17> H          2.29129        1.95234       -5.70442
| 18> H          1.93270        0.83176       -4.41261
| 19> H          2.92953        2.23285       -4.10223
| 20> *
| 21>
| 22> %MaxCore 64000
| 23>
| 24> %pal nprocs 8
| 25> end
| 26>
| 27> %scf
| 28>   MaxIter 150
| 29> end
| 30>
| 31>
| 32>                          ****END OF INPUT****

CARTESIAN COORDINATES (ANGSTROEM)
---------------------------------
  C     -0.461290    2.234690   -4.989620
  C      0.848880    2.667970   -4.302350
  C      2.093430    1.861040   -4.656840
  C     -0.423840    2.398770   -6.474320
  N     -0.959470    3.492650   -7.007400
  C      0.145580    1.486890   -7.203990
  H      0.565370    0.696810   -6.723860
  H      0.220680    1.581770   -8.207520
  H     -1.406240    4.181510   -6.403260
  H     -0.934210    3.681600   -7.999470
  H      0.668430    2.559430   -3.232850
  H      1.034070    3.729430   -4.497080
  H     -1.288880    2.826740   -4.595000
  H     -0.651700    1.186340   -4.756550
  H      2.291290    1.952340   -5.704420
  H      1.932700    0.831760   -4.412610
  H      2.929530    2.232850   -4.102230

 Total Charge           Charge          ....    0
 Multiplicity           Mult            ....    1
 Number of Electrons    NEL             ....   48
 Basis Dimension        Dim             ....  208

ORBITAL ENERGIES
----------------

  NO   OCC          E(Eh)            E(eV)
   0   2.0000     -14.330521      -389.9533
   1   2.0000     -10.198471      -277.5145
   2   2.0000     -10.180132      -277.0155
   3   2.0000     -10.177581      -276.9461
   4   2.0000     -10.157898      -276.4105
   5   2.0000     -10.113873      -275.2125
   6   2.0000      -0.915230       -24.9047
   7   2.0000      -0.785779       -21.3821
   8   2.0000      -0.725628       -19.7453
   9   2.0000      -0.679620       -18.4934
  10   2.0000      -0.592613       -16.1258
  11   2.0000      -0.561345       -15.2750
  12   2.0000      -0.519507       -14.1365
  13   2.0000      -0.478923       -13.0322
  14   2.0000      -0.451193       -12.2776
  15   2.0000      -0.434392       -11.8204
  16   2.0000      -0.395014       -10.7489
  17   2.0000      -0.393773       -10.7151
  18   2.0000      -0.375203       -10.2098
  19   2.0000      -0.361344        -9.8327
  20   2.0000      -0.335014        -9.1162
  21   2.0000      -0.324980        -8.8432
  22   2.0000      -0.318669        -8.6714
  23   2.0000      -0.191614        -5.2141
  24   0.0000       0.014569         0.3964
  25   0.0000       0.037802         1.0286
  26   0.0000       0.044506         1.2111
  27   0.0000       0.051669         1.4060
  28   0.0000       0.067431         1.8349

MULLIKEN ATOMIC CHARGES
-----------------------
   0 C :    0.447292
   1 C :   -0.166133
   2 C :    0.950711
   3 C :    0.049862
   4 N :    0.179190
   5 C :    0.598196
   6 H :   -0.030625
   7 H :   -0.694042
   8 H :   -0.131217
   9 H :   -0.219448
  10 H :   -0.140789
  11 H :   -0.179955
  12 H :   -0.212556
  13 H :   -0.002791
  14 H :   -0.114095
  15 H :   -0.087155
  16 H :   -0.246445
Sum of atomic charges:    0.0000000

LOEWDIN ATOMIC CHARGES
----------------------
   0 C :    0.011315
   1 C :   -0.057096
   2 C :    0.126045
   3 C :   -0.252354
   4 N :    0.175255
   5 C :    0.174579
   6 H :   -0.078103
   7 H :   -0.083239
   8 H :   -0.003069
   9 H :    0.000812
  10 H :    0.011120
  11 H :    0.017379
  12 H :    0.010064
  13 H :    0.024457
  14 H :   -0.035044
  15 H :   -0.018365
  16 H :   -0.023756

  Mayer bond orders larger than 0.100000
B(  0-C ,  1-C ) :   1.1671 B(  0-C ,  3-C ) :   1.0050 B(  0-C ,  4-N ) :   0.1381
B(  0-C ,  5-C ) :   0.2201 B(  0-C , 10-H ) :   0.1431 B(  0-C , 11-H ) :   0.1243
B(  0-C , 12-H ) :   0.7676 B(  0-C , 13-H ) :   0.7649 B(  1-C ,  2-C ) :   1.2941
B(  1-C , 10-H ) :   0.8197 B(  1-C , 11-H ) :   0.9232 B(  1-C , 12-H ) :   0.1528
B(  1-C , 13-H ) :   0.1619 B(  1-C , 14-H ) :   0.2403 B(  1-C , 15-H ) :   0.2467
B(  1-C , 16-H ) :   0.2614 B(  2-C , 10-H ) :   0.1118 B(  2-C , 14-H ) :   0.7735
B(  2-C , 15-H ) :   0.7348 B(  2-C , 16-H ) :   0.7231 B(  3-C ,  4-N ) :   1.1451
B(  3-C ,  5-C ) :   1.7548 B(  3-C ,  6-H ) :   0.2293 B(  3-C ,  7-H ) :   0.2222
B(  3-C ,  9-H ) :  -0.1062 B(  3-C , 12-H ) :   0.1539 B(  3-C , 13-H ) :   0.1140
B(  4-N ,  5-C ) :   0.2711 B(  4-N ,  8-H ) :   1.1273 B(  4-N ,  9-H ) :   1.2805
B(  5-C ,  6-H ) :   0.6857 B(  5-C ,  7-H ) :   0.6262 B(  6-H ,  7-H ) :  -0.1374
B(  8-H ,  9-H ) :  -0.1656 B( 14-H , 15-H ) :   0.1018

Dispersion correction           -0.023426695
FINAL SINGLE POINT ENERGY      -251.558633334411

DIPOLE MOMENT
-------------
                                X             Y             Z
Electronic contribution:     -3.07351       1.28306      -2.50067
Nuclear contribution   :      2.79043      -0.64920       2.62716
                        -----------------------------------------
Total Dipole Moment    :     -0.28308       0.63385       0.12649
                        -----------------------------------------
Magnitude (a.u.)       :      0.70562
Magnitude (Debye)      :      1.79354

Rotational constants in cm-1:     0.196182     0.080190     0.067215
Rotational constants in MHz :  5881.393438  2404.041106  2015.067205

                             ****ORCA TERMINATED NORMALLY****
TOTAL RUN TIME: 0 days 0 hours 0 minutes 13 seconds 474 msec
