                         Program Version 5.0.0 -  RELEASE  -
|  1> !B3LYP D3BJ RIJCOSX def2-SVPD def2/J TightSCF
|  2> *xyz 0 1
|  3> C         -0.46129        2.23469       -4.98962
|  4> C          0.84888        2.66797       -4.30235
|  5> C          2.09343        1.86104       -4.65684
|  6> H          2.44481        2.04157       -5.67499
|  7> H          2.90175        2.13786       -3.98034
|  8> S          1.87964        0.07859       -4.46297
|  9> O          3.20757       -0.46611       -4.42026
| 10> O          1.07506       -0.05616       -3.26876
| 11> F          1.13166       -0.31996       -5.67903
| 12> H          0.66843        2.55943       -3.23285
| 13> H          1.03407        3.72943       -4.49708
| 14> H         -0.35183        2.31783       -6.05075
| 15> H         -1.26108        2.86600       -4.66300
| 16> H         -0.68032        1.21949       -4.73211
| 17> *
| 18>
| 19> %MaxCore 64000
| 20>
| 21> %pal nprocs 8
| 22> end
| 23>
| 24> %scf
| 25>   MaxIter 150
| 26> end
| 27>
| 28>
| 29>                          ****END OF INPUT****

CARTESIAN COORDINATES (ANGSTROEM)
---------------------------------
  C     -0.461290    2.234690   -4.989620
  C      0.848880    2.667970   -4.302350
  C      2.093430    1.861040   -4.656840
  H      2.444810    2.041570   -5.674990
  H      2.901750    2.137860   -3.980340
  S      1.879640    0.078590   -4.462970
  O      3.207570   -0.466110   -4.420260
  O      1.075060   -0.056160   -3.268760
  F      1.131660   -0.319960   -5.679030
  H      0.668430    2.559430   -3.232850
  H      1.034070    3.729430   -4.497080
  H     -0.351830    2.317830   -6.050750
  H     -1.261080    2.866000   -4.663000
  H     -0.680320    1.219490   -4.732110

 Total Charge           Charge          ....    0
 Multiplicity           Mult            ....    1
 Number of Electrons    NEL             ....   66
 Basis Dimension        Dim             ....  212

ORBITAL ENERGIES
----------------

  NO   OCC          E(Eh)            E(eV)
   0   2.0000     -89.137715     -2425.5605
   1   2.0000     -24.796701      -674.7525
   2   2.0000     -19.156733      -521.2812
   3   2.0000     -19.153171      -521.1843
   4   2.0000     -10.242002      -278.6990
   5   2.0000     -10.210642      -277.8457
   6   2.0000     -10.185540      -277.1626
   7   2.0000      -8.192159      -222.9200
   8   2.0000      -6.165004      -167.7583
   9   2.0000      -6.159005      -167.5951
  10   2.0000      -6.157508      -167.5543
  11   2.0000      -1.344865       -36.5956
  12   2.0000      -1.120789       -30.4982
  13   2.0000      -1.026498       -27.9324
  14   2.0000      -0.825912       -22.4742
  15   2.0000      -0.745716       -20.2920
  16   2.0000      -0.700642       -19.0654
  17   2.0000      -0.633453       -17.2371
  18   2.0000      -0.572239       -15.5714
  19   2.0000      -0.568069       -15.4579
  20   2.0000      -0.551272       -15.0009
  21   2.0000      -0.500447       -13.6179
  22   2.0000      -0.479211       -13.0400
  23   2.0000      -0.462706       -12.5909
  24   2.0000      -0.454829       -12.3765
  25   2.0000      -0.437240       -11.8979
  26   2.0000      -0.399062       -10.8590
  27   2.0000      -0.386998       -10.5308
  28   2.0000      -0.376355       -10.2411
  29   2.0000      -0.359325        -9.7777
  30   2.0000      -0.343664        -9.3516
  31   2.0000      -0.331267        -9.0142
  32   2.0000      -0.324884        -8.8405
  33   0.0000      -0.004157        -0.1131
  34   0.0000       0.020882         0.5682
  35   0.0000       0.029890         0.8133
  36   0.0000       0.033482         0.9111
  37   0.0000       0.046840         1.2746

MULLIKEN ATOMIC CHARGES
-----------------------
   0 C :    0.995361
   1 C :   -0.026176
   2 C :    0.232207
   3 H :   -0.058630
   4 H :   -0.071850
   5 S :    1.452013
   6 O :   -0.676424
   7 O :   -0.681892
   8 F :   -0.406374
   9 H :    0.002313
  10 H :   -0.274995
  11 H :   -0.135056
  12 H :   -0.185236
  13 H :   -0.165259
Sum of atomic charges:   -0.0000000

LOEWDIN ATOMIC CHARGES
----------------------
   0 C :    0.144459
   1 C :   -0.066633
   2 C :   -0.040120
   3 H :    0.021798
   4 H :    0.027475
   5 S :    1.116338
   6 O :   -0.455836
   7 O :   -0.458164
   8 F :   -0.272550
   9 H :    0.022153
  10 H :    0.026444
  11 H :   -0.015365
  12 H :   -0.014082
  13 H :   -0.035917

  Mayer bond orders larger than 0.100000
B(  0-C ,  1-C ) :   1.2838 B(  0-C ,  9-H ) :   0.1118 B(  0-C , 11-H ) :   0.7133
B(  0-C , 12-H ) :   0.7127 B(  0-C , 13-H ) :   0.7734 B(  1-C ,  2-C ) :   1.2752
B(  1-C ,  3-H ) :   0.1451 B(  1-C ,  4-H ) :   0.1442 B(  1-C ,  9-H ) :   0.8299
B(  1-C , 10-H ) :   0.8484 B(  1-C , 11-H ) :   0.2295 B(  1-C , 12-H ) :   0.2294
B(  1-C , 13-H ) :   0.2188 B(  2-C ,  3-H ) :   0.8954 B(  2-C ,  4-H ) :   0.8725
B(  2-C ,  5-S ) :   0.9675 B(  2-C ,  9-H ) :   0.1418 B(  2-C , 10-H ) :   0.1315
B(  5-S ,  6-O ) :   1.5726 B(  5-S ,  7-O ) :   1.5040 B(  5-S ,  8-F ) :   0.6135

Dispersion correction           -0.022244215
FINAL SINGLE POINT ENERGY      -766.351326514485

DIPOLE MOMENT
-------------
                                X             Y             Z
Electronic contribution:      4.48865     -10.90055      -0.92872
Nuclear contribution   :     -4.84544      12.25421       0.17361
                        -----------------------------------------
Total Dipole Moment    :     -0.35679       1.35367      -0.75511
                        -----------------------------------------
Magnitude (a.u.)       :      1.59057
Magnitude (Debye)      :      4.04290

Rotational constants in cm-1:     0.128954     0.057447     0.053381
Rotational constants in MHz :  3865.954571  1722.226669  1600.330369

                             ****ORCA TERMINATED NORMALLY****
TOTAL RUN TIME: 0 days 0 hours 0 minutes 14 seconds 60 msec
