                         Program Version 5.0.0 -  RELEASE  -
|  1> !B3LYP D3BJ RIJCOSX def2-SVPD def2/J TightSCF xyzfile
|  2>
|  3> *xyzfile 0 1 D1.xyz
|  4>
|  5> %MaxCore 64000
|  6>
|  7> %pal nprocs 4
|  8> end
|  9>
| 10> %scf
| 11>   MaxIter 150
| 12> end
| 13>
| 14>
| 15>                          ****END OF INPUT****

CARTESIAN COORDINATES (ANGSTROEM)
---------------------------------
  C     -0.461293    2.234686   -4.989619
  C      0.848883    2.667967   -4.302351
  C      2.093434    1.861037   -4.656845
  H      2.444814    2.041567   -5.674990
  H      2.901748    2.137864   -3.980338
  S      1.879644    0.078594   -4.462965
  C     -0.423841    2.398772   -6.474317
  C     -0.959467    3.492647   -7.007401
  N      0.145585    1.486891   -7.203987
  H      0.565371    0.696807   -6.723858
  H      0.220682    1.581768   -8.207520
  H     -1.406243    4.181507   -6.403261
  H     -0.934215    3.681601   -7.999468
  F      3.207574   -0.466111   -4.420259
  O      1.075064   -0.056160   -3.268758
  O      1.131661   -0.319960   -5.679031
  H      0.668432    2.559427   -3.232850
  H      1.034074    3.729426   -4.497081
  H     -1.288884    2.826737   -4.594997
  H     -0.651696    1.186343   -4.756552

 Total Charge           Charge          ....    0
 Multiplicity           Mult            ....    1
 Number of Electrons    NEL             ....   88
 Basis Dimension        Dim             ....  296

ORBITAL ENERGIES
----------------

  NO   OCC          E(Eh)            E(eV)
   0   2.0000     -89.159874     -2426.1635
   1   2.0000     -24.836130      -675.8255
   2   2.0000     -19.170279      -521.6498
   3   2.0000     -19.166167      -521.5379
   4   2.0000     -14.305100      -389.2616
   5   2.0000     -10.251509      -278.9577
   6   2.0000     -10.212650      -277.9003
   7   2.0000     -10.194672      -277.4111
   8   2.0000     -10.184485      -277.1339
   9   2.0000     -10.108420      -275.0641
  10   2.0000      -8.213936      -223.5126
  11   2.0000      -6.186828      -168.3522
  12   2.0000      -6.180904      -168.1909
  13   2.0000      -6.178991      -168.1389
  14   2.0000      -1.399776       -38.0898
  15   2.0000      -1.130007       -30.7491
  16   2.0000      -1.030369       -28.0378
  17   2.0000      -0.912608       -24.8333
  18   2.0000      -0.832064       -22.6416
  19   2.0000      -0.769148       -20.9296
  20   2.0000      -0.737199       -20.0602
  21   2.0000      -0.691727       -18.8229
  22   2.0000      -0.646259       -17.5856
  23   2.0000      -0.613702       -16.6997
  24   2.0000      -0.600509       -16.3407
  25   2.0000      -0.581567       -15.8252
  26   2.0000      -0.557307       -15.1651
  27   2.0000      -0.527531       -14.3548
  28   2.0000      -0.504475       -13.7275
  29   2.0000      -0.494185       -13.4475
  30   2.0000      -0.475674       -12.9438
  31   2.0000      -0.460067       -12.5191
  32   2.0000      -0.450296       -12.2532
  33   2.0000      -0.416301       -11.3281
  34   2.0000      -0.401672       -10.9300
  35   2.0000      -0.395408       -10.7596
  36   2.0000      -0.382817       -10.4170
  37   2.0000      -0.367746       -10.0069
  38   2.0000      -0.353620        -9.6225
  39   2.0000      -0.347169        -9.4470
  40   2.0000      -0.333426        -9.0730
  41   2.0000      -0.330667        -8.9979
  42   2.0000      -0.321079        -8.7370
  43   2.0000      -0.178235        -4.8500
  44   0.0000      -0.016133        -0.4390
  45   0.0000       0.011173         0.3040
  46   0.0000       0.022595         0.6149
  47   0.0000       0.031597         0.8598
  48   0.0000       0.037085         1.0091

MULLIKEN ATOMIC CHARGES
-----------------------
   0 C :    0.652300
   1 C :    0.291017
   2 C :    0.267535
   3 H :    0.081872
   4 H :   -0.214880
   5 S :    1.617878
   6 C :   -0.121026
   7 C :    0.483003
   8 N :    0.783648
   9 H :   -0.454722
  10 H :   -0.279178
  11 H :   -0.194233
  12 H :   -0.542607
  13 F :   -0.463961
  14 O :   -0.674297
  15 O :   -0.819292
  16 H :    0.087680
  17 H :   -0.286232
  18 H :   -0.076116
  19 H :   -0.138390
Sum of atomic charges:   -0.0000000

LOEWDIN ATOMIC CHARGES
----------------------
   0 C :    0.036051
   1 C :    0.001593
   2 C :   -0.033924
   3 H :    0.021458
   4 H :    0.014248
   5 S :    1.177326
   6 C :   -0.246558
   7 C :    0.176976
   8 N :    0.205499
   9 H :   -0.138398
  10 H :    0.015772
  11 H :   -0.091847
  12 H :   -0.096407
  13 F :   -0.242613
  14 O :   -0.444027
  15 O :   -0.454556
  16 H :    0.023555
  17 H :    0.036916
  18 H :    0.028639
  19 H :    0.010297

  Mayer bond orders larger than 0.100000
B(  0-C ,  1-C ) :   1.1371 B(  0-C ,  6-C ) :   1.1223 B(  0-C ,  8-N ) :   0.1264
B(  0-C , 16-H ) :   0.1608 B(  0-C , 17-H ) :   0.1087 B(  0-C , 18-H ) :   0.6659
B(  0-C , 19-H ) :   0.6564 B(  1-C ,  2-C ) :   1.3468 B(  1-C ,  3-H ) :   0.1421
B(  1-C ,  4-H ) :   0.2404 B(  1-C , 16-H ) :   0.7513 B(  1-C , 17-H ) :   0.8334
B(  1-C , 18-H ) :   0.1591 B(  1-C , 19-H ) :   0.1837 B(  2-C ,  3-H ) :   0.8647
B(  2-C ,  4-H ) :   0.7252 B(  2-C ,  5-S ) :   0.9221 B(  2-C , 15-O ) :   0.1368
B(  2-C , 16-H ) :   0.1462 B(  2-C , 17-H ) :   0.1261 B(  5-S , 13-F ) :   0.6520
B(  5-S , 14-O ) :   1.5146 B(  5-S , 15-O ) :   1.3532 B(  6-C ,  7-C ) :   1.5209
B(  6-C ,  8-N ) :   1.1874 B(  6-C , 10-H ) :  -0.1229 B(  6-C , 12-H ) :   0.1845
B(  6-C , 18-H ) :   0.1942 B(  6-C , 19-H ) :   0.1976 B(  7-C ,  8-N ) :   0.1994
B(  7-C , 11-H ) :   0.9110 B(  7-C , 12-H ) :   0.5568 B(  8-N ,  9-H ) :   0.9003
B(  8-N , 10-H ) :   1.2044 B(  9-H , 10-H ) :  -0.2126 B(  9-H , 15-O ) :   0.1619

Dispersion correction           -0.038454533
FINAL SINGLE POINT ENERGY      -898.913539232546

DIPOLE MOMENT
-------------
                                X             Y             Z
Electronic contribution:     10.14696     -13.88077       5.44734
Nuclear contribution   :     -8.53047      14.15581      -5.17613
                        -----------------------------------------
Total Dipole Moment    :      1.61649       0.27504       0.27121
                        -----------------------------------------
Magnitude (a.u.)       :      1.66200
Magnitude (Debye)      :      4.22448

Rotational constants in cm-1:     0.081196     0.024861     0.022477
Rotational constants in MHz :  2434.181666   745.320670   673.846846

                             ****ORCA TERMINATED NORMALLY****
TOTAL RUN TIME: 0 days 0 hours 1 minutes 15 seconds 488 msec
