                         Program Version 5.0.0 -  RELEASE  -
|  1> !B3LYP D3BJ RIJCOSX def2-SVPD def2/J TightSCF xyzfile
|  2>
|  3> *xyzfile 0 1 D3.xyz
|  4>
|  5> %MaxCore 64000
|  6>
|  7> %pal nprocs 4
|  8> end
|  9>
| 10> %scf
| 11>   MaxIter 150
| 12> end
| 13>
| 14>
| 15>                          ****END OF INPUT****

CARTESIAN COORDINATES (ANGSTROEM)
---------------------------------
  C     -0.461293    2.234686   -4.989619
  C      0.848883    2.667967   -4.302351
  C      2.093434    1.861037   -4.656845
  H      2.444814    2.041567   -5.674990
  H      2.901748    2.137864   -3.980338
  S      1.879644    0.078594   -4.462965
  C     -0.423841    2.398772   -6.474317
  C     -0.959467    3.492647   -7.007401
  N      0.145585    1.486891   -7.203987
  H      0.565371    0.696807   -6.723858
  H      0.220682    1.581768   -8.207520
  H     -1.406243    4.181507   -6.403261
  H     -0.934215    3.681601   -7.999468
  O      3.207574   -0.466111   -4.420259
  F      1.075064   -0.056160   -3.268758
  O      1.131661   -0.319960   -5.679031
  H      0.668432    2.559427   -3.232850
  H      1.034074    3.729426   -4.497081
  H     -1.288884    2.826737   -4.594997
  H     -0.651696    1.186343   -4.756552

 Total Charge           Charge          ....    0
 Multiplicity           Mult            ....    1
 Number of Electrons    NEL             ....   88
 Basis Dimension        Dim             ....  296

ORBITAL ENERGIES
----------------

  NO   OCC          E(Eh)            E(eV)
   0   2.0000     -89.159250     -2426.1465
   1   2.0000     -24.830685      -675.6773
   2   2.0000     -19.173294      -521.7318
   3   2.0000     -19.164924      -521.5041
   4   2.0000     -14.307769      -389.3342
   5   2.0000     -10.251134      -278.9475
   6   2.0000     -10.218333      -278.0550
   7   2.0000     -10.200254      -277.5630
   8   2.0000     -10.195220      -277.4261
   9   2.0000     -10.113207      -275.1943
  10   2.0000      -8.213206      -223.4927
  11   2.0000      -6.186292      -168.3376
  12   2.0000      -6.180137      -168.1701
  13   2.0000      -6.178168      -168.1165
  14   2.0000      -1.390962       -37.8500
  15   2.0000      -1.132609       -30.8199
  16   2.0000      -1.033632       -28.1266
  17   2.0000      -0.916357       -24.9353
  18   2.0000      -0.837874       -22.7997
  19   2.0000      -0.766948       -20.8697
  20   2.0000      -0.737625       -20.0718
  21   2.0000      -0.696140       -18.9429
  22   2.0000      -0.647297       -17.6139
  23   2.0000      -0.610269       -16.6063
  24   2.0000      -0.608403       -16.5555
  25   2.0000      -0.576889       -15.6979
  26   2.0000      -0.562587       -15.3088
  27   2.0000      -0.521390       -14.1877
  28   2.0000      -0.503970       -13.7137
  29   2.0000      -0.496887       -13.5210
  30   2.0000      -0.479211       -13.0400
  31   2.0000      -0.463530       -12.6133
  32   2.0000      -0.456420       -12.4198
  33   2.0000      -0.423817       -11.5327
  34   2.0000      -0.407619       -11.0919
  35   2.0000      -0.401602       -10.9281
  36   2.0000      -0.386175       -10.5083
  37   2.0000      -0.382172       -10.3994
  38   2.0000      -0.350976        -9.5505
  39   2.0000      -0.348939        -9.4951
  40   2.0000      -0.342819        -9.3286
  41   2.0000      -0.330922        -9.0048
  42   2.0000      -0.324410        -8.8276
  43   2.0000      -0.182256        -4.9594
  44   0.0000      -0.017762        -0.4833
  45   0.0000       0.016069         0.4373
  46   0.0000       0.022185         0.6037
  47   0.0000       0.032185         0.8758
  48   0.0000       0.032398         0.8816

MULLIKEN ATOMIC CHARGES
-----------------------
   0 C :    0.677170
   1 C :    0.321586
   2 C :    0.287213
   3 H :    0.072468
   4 H :   -0.237292
   5 S :    1.544024
   6 C :   -0.113048
   7 C :    0.479487
   8 N :    0.781461
   9 H :   -0.449264
  10 H :   -0.274289
  11 H :   -0.199592
  12 H :   -0.536801
  13 O :   -0.652708
  14 F :   -0.430745
  15 O :   -0.807683
  16 H :    0.059560
  17 H :   -0.289166
  18 H :   -0.083932
  19 H :   -0.148449
Sum of atomic charges:    0.0000000

LOEWDIN ATOMIC CHARGES
----------------------
   0 C :    0.028462
   1 C :   -0.013359
   2 C :   -0.021360
   3 H :    0.033972
   4 H :    0.018404
   5 S :    1.169640
   6 C :   -0.245507
   7 C :    0.178735
   8 N :    0.206847
   9 H :   -0.137141
  10 H :    0.017308
  11 H :   -0.091311
  12 H :   -0.094456
  13 O :   -0.439578
  14 F :   -0.243922
  15 O :   -0.452507
  16 H :    0.018148
  17 H :    0.034973
  18 H :    0.027856
  19 H :    0.004795

  Mayer bond orders larger than 0.100000
B(  0-C ,  1-C ) :   1.1324 B(  0-C ,  6-C ) :   1.1274 B(  0-C ,  8-N ) :   0.1264
B(  0-C , 16-H ) :   0.1540 B(  0-C , 17-H ) :   0.1078 B(  0-C , 18-H ) :   0.6736
B(  0-C , 19-H ) :   0.6326 B(  1-C ,  2-C ) :   1.3064 B(  1-C ,  3-H ) :   0.1419
B(  1-C ,  4-H ) :   0.2184 B(  1-C , 16-H ) :   0.7523 B(  1-C , 17-H ) :   0.8297
B(  1-C , 18-H ) :   0.1630 B(  1-C , 19-H ) :   0.1739 B(  2-C ,  3-H ) :   0.8624
B(  2-C ,  4-H ) :   0.7841 B(  2-C ,  5-S ) :   0.9546 B(  2-C , 15-O ) :   0.1118
B(  2-C , 16-H ) :   0.1441 B(  2-C , 17-H ) :   0.1161 B(  4-H ,  5-S ) :   0.1026
B(  5-S , 13-O ) :   1.5707 B(  5-S , 14-F ) :   0.6514 B(  5-S , 15-O ) :   1.3887
B(  6-C ,  7-C ) :   1.5139 B(  6-C ,  8-N ) :   1.1913 B(  6-C , 10-H ) :  -0.1191
B(  6-C , 12-H ) :   0.1785 B(  6-C , 18-H ) :   0.1930 B(  6-C , 19-H ) :   0.2168
B(  7-C ,  8-N ) :   0.2042 B(  7-C , 11-H ) :   0.9087 B(  7-C , 12-H ) :   0.5697
B(  8-N ,  9-H ) :   0.8893 B(  8-N , 10-H ) :   1.2008 B(  9-H , 10-H ) :  -0.2147
B(  9-H , 15-O ) :   0.1571 B( 16-H , 17-H ) :  -0.1030

Dispersion correction           -0.038226232
FINAL SINGLE POINT ENERGY      -898.917787221900

DIPOLE MOMENT
-------------
                                X             Y             Z
Electronic contribution:      6.45820     -13.11631       7.35867
Nuclear contribution   :     -6.19944      13.70770      -6.43483
                        -----------------------------------------
Total Dipole Moment    :      0.25877       0.59139       0.92384
                        -----------------------------------------
Magnitude (a.u.)       :      1.12702
Magnitude (Debye)      :      2.86465

Rotational constants in cm-1:     0.079903     0.025241     0.022805
Rotational constants in MHz :  2395.439281   756.708181   683.680583

                             ****ORCA TERMINATED NORMALLY****
TOTAL RUN TIME: 0 days 0 hours 1 minutes 11 seconds 869 msec
