                         Program Version 5.0.0 -  RELEASE  -
|  1> !LC-BLYP RIJCOSX def2-SVPD def2/J TightSCF
|  2> *xyz -1 1
|  3> C          1.44442        5.26658       -0.97546
|  4> O          1.56525        4.23349       -1.86489
|  5> C         -1.07389        4.84473       -0.97990
|  6> C          0.14812        5.21087       -0.13809
|  7> H          1.47425        6.26464       -1.47692
|  8> H          2.28962        5.30327       -0.26445
|  9> H          0.26183        4.45094        0.64071
| 10> H         -0.00252        6.17103        0.37148
| 11> H         -1.20745        5.57445       -1.75098
| 12> H         -1.94291        4.82190       -0.35605
| 13> H         -0.92683        3.88150       -1.42201
| 14> *
| 15> %MaxCore 64000
| 16>
| 17> %pal nprocs 4
| 18> end
| 19>
| 20> %scf
| 21>   MaxIter 150
| 22> end
| 23>
| 24>
| 25>                          ****END OF INPUT****

CARTESIAN COORDINATES (ANGSTROEM)
---------------------------------
  C      1.444420    5.266580   -0.975460
  O      1.565250    4.233490   -1.864890
  C     -1.073890    4.844730   -0.979900
  C      0.148120    5.210870   -0.138090
  H      1.474250    6.264640   -1.476920
  H      2.289620    5.303270   -0.264450
  H      0.261830    4.450940    0.640710
  H     -0.002520    6.171030    0.371480
  H     -1.207450    5.574450   -1.750980
  H     -1.942910    4.821900   -0.356050
  H     -0.926830    3.881500   -1.422010

 Total Charge           Charge          ....   -1
 Multiplicity           Mult            ....    1
 Number of Electrons    NEL             ....   34
 Basis Dimension        Dim             ....  139

ORBITAL ENERGIES
----------------

  NO   OCC          E(Eh)            E(eV)
   0   2.0000     -18.626638      -506.8566
   1   2.0000      -9.902402      -269.4581
   2   2.0000      -9.898801      -269.3601
   3   2.0000      -9.894867      -269.2530
   4   2.0000      -0.774167       -21.0662
   5   2.0000      -0.682845       -18.5811
   6   2.0000      -0.570286       -15.5183
   7   2.0000      -0.465120       -12.6565
   8   2.0000      -0.382635       -10.4120
   9   2.0000      -0.371058       -10.0970
  10   2.0000      -0.316445        -8.6109
  11   2.0000      -0.289774        -7.8852
  12   2.0000      -0.262054        -7.1309
  13   2.0000      -0.248651        -6.7661
  14   2.0000      -0.212151        -5.7729
  15   2.0000      -0.071572        -1.9476
  16   2.0000      -0.067027        -1.8239
  17   0.0000       0.216870         5.9013
  18   0.0000       0.240891         6.5550
  19   0.0000       0.259431         7.0595
  20   0.0000       0.287086         7.8120
  21   0.0000       0.308667         8.3993

MULLIKEN ATOMIC CHARGES
-----------------------
   0 C :    0.423353
   1 O :   -0.785807
   2 C :    0.832993
   3 C :   -0.322817
   4 H :   -0.160977
   5 H :   -0.240061
   6 H :   -0.132764
   7 H :   -0.173639
   8 H :   -0.150799
   9 H :   -0.200990
  10 H :   -0.088492
Sum of atomic charges:   -1.0000000

LOEWDIN ATOMIC CHARGES
----------------------
   0 C :   -0.241489
   1 O :   -0.547078
   2 C :    0.071712
   3 C :   -0.123270
   4 H :   -0.021467
   5 H :   -0.028642
   6 H :    0.001604
   7 H :   -0.005675
   8 H :   -0.026240
   9 H :   -0.046596
  10 H :   -0.032860

  Mayer bond orders larger than 0.100000
B(  0-C ,  1-O ) :   1.2960 B(  0-C ,  3-C ) :   1.0587 B(  0-C ,  4-H ) :   0.9142
B(  0-C ,  5-H ) :   0.9317 B(  0-C ,  6-H ) :   0.1157 B(  0-C ,  7-H ) :   0.1018
B(  2-C ,  3-C ) :   1.2916 B(  2-C ,  6-H ) :   0.1026 B(  2-C ,  8-H ) :   0.7643
B(  2-C ,  9-H ) :   0.7291 B(  2-C , 10-H ) :   0.7760 B(  3-C ,  4-H ) :   0.1622
B(  3-C ,  5-H ) :   0.1620 B(  3-C ,  6-H ) :   0.9038 B(  3-C ,  7-H ) :   0.9646
B(  3-C ,  8-H ) :   0.2209 B(  3-C ,  9-H ) :   0.2460 B(  3-C , 10-H ) :   0.2222

FINAL SINGLE POINT ENERGY      -193.109977875722

DIPOLE MOMENT
-------------
                                X             Y             Z
Electronic contribution:      2.03313      -1.26288      -1.38714
Nuclear contribution   :     -3.50495       2.13585       2.58010
                        -----------------------------------------
Total Dipole Moment    :     -1.47182       0.87297       1.19296
                        -----------------------------------------
Magnitude (a.u.)       :      2.08602
Magnitude (Debye)      :      5.30224

Rotational constants in cm-1:     0.478988     0.188199     0.150738
Rotational constants in MHz : 14359.706344  5642.078771  4519.011003

                             ****ORCA TERMINATED NORMALLY****
TOTAL RUN TIME: 0 days 0 hours 0 minutes 11 seconds 520 msec
