                         Program Version 5.0.0 -  RELEASE  -
|  1> !LC-BLYP RIJCOSX def2-SVPD def2/J TightSCF
|  2> *xyz 1 1
|  3> C         -0.70169        4.07250       -4.00392
|  4> N          0.68053        4.61482       -4.04800
|  5> H          0.69993        5.58489       -4.38827
|  6> H          1.27804        4.05598       -4.66824
|  7> H          1.08573        4.53358       -3.10652
|  8> C         -1.70347        5.09320       -3.47740
|  9> H         -0.99590        3.74039       -5.00065
| 10> H         -0.64358        3.20191       -3.35153
| 11> C         -1.31400        5.78600       -2.16927
| 12> H         -1.87706        5.85010       -4.25115
| 13> H         -2.65326        4.56448       -3.35480
| 14> H         -0.38448        6.29945       -2.30062
| 15> H         -1.21111        5.05451       -1.39516
| 16> H         -2.07413        6.48833       -1.89758
| 17> *
| 18> %MaxCore 64000
| 19>
| 20> %pal nprocs 4
| 21> end
| 22>
| 23> %scf
| 24>   MaxIter 150
| 25> end
| 26>
| 27>
| 28>                          ****END OF INPUT****

CARTESIAN COORDINATES (ANGSTROEM)
---------------------------------
  C     -0.701690    4.072500   -4.003920
  N      0.680530    4.614820   -4.048000
  H      0.699930    5.584890   -4.388270
  H      1.278040    4.055980   -4.668240
  H      1.085730    4.533580   -3.106520
  C     -1.703470    5.093200   -3.477400
  H     -0.995900    3.740390   -5.000650
  H     -0.643580    3.201910   -3.351530
  C     -1.314000    5.786000   -2.169270
  H     -1.877060    5.850100   -4.251150
  H     -2.653260    4.564480   -3.354800
  H     -0.384480    6.299450   -2.300620
  H     -1.211110    5.054510   -1.395160
  H     -2.074130    6.488330   -1.897580

 Total Charge           Charge          ....    1
 Multiplicity           Mult            ....    1
 Number of Electrons    NEL             ....   34
 Basis Dimension        Dim             ....  160

ORBITAL ENERGIES
----------------

  NO   OCC          E(Eh)            E(eV)
   0   2.0000     -14.516739      -395.0206
   1   2.0000     -10.331629      -281.1379
   2   2.0000     -10.263404      -279.2814
   3   2.0000     -10.233698      -278.4731
   4   2.0000      -1.305711       -35.5302
   5   2.0000      -1.076711       -29.2988
   6   2.0000      -0.989435       -26.9239
   7   2.0000      -0.912710       -24.8361
   8   2.0000      -0.893951       -24.3257
   9   2.0000      -0.876668       -23.8553
  10   2.0000      -0.789691       -21.4886
  11   2.0000      -0.740087       -20.1388
  12   2.0000      -0.711834       -19.3700
  13   2.0000      -0.687262       -18.7013
  14   2.0000      -0.628127       -17.0922
  15   2.0000      -0.623008       -16.9529
  16   2.0000      -0.607887       -16.5414
  17   0.0000      -0.128454        -3.4954
  18   0.0000      -0.070647        -1.9224
  19   0.0000      -0.069762        -1.8983
  20   0.0000      -0.059970        -1.6319
  21   0.0000      -0.030485        -0.8295

MULLIKEN ATOMIC CHARGES
-----------------------
   0 C :    0.676901
   1 N :   -0.599896
   2 H :    0.355915
   3 H :    0.269833
   4 H :    0.398774
   5 C :   -0.172885
   6 H :   -0.168053
   7 H :   -0.125024
   8 C :    1.003397
   9 H :   -0.113316
  10 H :   -0.119574
  11 H :   -0.158407
  12 H :   -0.085168
  13 H :   -0.162496
Sum of atomic charges:    1.0000000

LOEWDIN ATOMIC CHARGES
----------------------
   0 C :    0.066522
   1 N :    0.332137
   2 H :    0.109186
   3 H :    0.109141
   4 H :    0.104895
   5 C :   -0.057596
   6 H :    0.058768
   7 H :    0.058699
   8 C :    0.135770
   9 H :    0.041676
  10 H :    0.051783
  11 H :   -0.024035
  12 H :    0.002262
  13 H :    0.010793

  Mayer bond orders larger than 0.100000
B(  0-C ,  1-N ) :   0.8699 B(  0-C ,  5-C ) :   1.1897 B(  0-C ,  6-H ) :   0.8809
B(  0-C ,  7-H ) :   0.7895 B(  0-C ,  9-H ) :   0.1267 B(  0-C , 10-H ) :   0.1644
B(  1-N ,  2-H ) :   0.7601 B(  1-N ,  3-H ) :   0.8524 B(  1-N ,  4-H ) :   0.7601
B(  1-N ,  7-H ) :   0.1422 B(  5-C ,  7-H ) :   0.1225 B(  5-C ,  8-C ) :   1.3033
B(  5-C ,  9-H ) :   0.8878 B(  5-C , 10-H ) :   0.8863 B(  5-C , 11-H ) :   0.2097
B(  5-C , 12-H ) :   0.2158 B(  5-C , 13-H ) :   0.2525 B(  8-C , 11-H ) :   0.7607
B(  8-C , 12-H ) :   0.7444 B(  8-C , 13-H ) :   0.7266

FINAL SINGLE POINT ENERGY      -174.213769659199

DIPOLE MOMENT
-------------
                                X             Y             Z
Electronic contribution:      1.54401      -0.91296      -1.46442
Nuclear contribution   :      0.19992       0.44181       0.60618
                        -----------------------------------------
Total Dipole Moment    :      1.74392      -0.47115      -0.85823
                        -----------------------------------------
Magnitude (a.u.)       :      1.99995
Magnitude (Debye)      :      5.08347

Rotational constants in cm-1:     0.427003     0.166237     0.135950
Rotational constants in MHz : 12801.234133  4983.663157  4075.681698

                             ****ORCA TERMINATED NORMALLY****
TOTAL RUN TIME: 0 days 0 hours 0 minutes 13 seconds 972 msec
