                         Program Version 5.0.0 -  RELEASE  -
|  1> !LC-BLYP RIJCOSX def2-SVPD def2/J TightSCF
|  2> *xyz 0 1
|  3> C          1.44442        5.26658       -0.97546
|  4> F          1.56525        4.23349       -1.86489
|  5> C         -1.07389        4.84473       -0.97990
|  6> C          0.14812        5.21087       -0.13809
|  7> H          1.47425        6.26464       -1.47692
|  8> H          2.28962        5.30327       -0.26445
|  9> H          0.26183        4.45094        0.64071
| 10> H         -0.00252        6.17103        0.37148
| 11> H         -1.20745        5.57445       -1.75098
| 12> H         -1.94291        4.82190       -0.35605
| 13> H         -0.92683        3.88150       -1.42201
| 14> *
| 15> %MaxCore 64000
| 16>
| 17> %pal nprocs 4
| 18> end
| 19>
| 20> %scf
| 21>   MaxIter 150
| 22> end
| 23>
| 24>
| 25>                          ****END OF INPUT****

CARTESIAN COORDINATES (ANGSTROEM)
---------------------------------
  C      1.444420    5.266580   -0.975460
  F      1.565250    4.233490   -1.864890
  C     -1.073890    4.844730   -0.979900
  C      0.148120    5.210870   -0.138090
  H      1.474250    6.264640   -1.476920
  H      2.289620    5.303270   -0.264450
  H      0.261830    4.450940    0.640710
  H     -0.002520    6.171030    0.371480
  H     -1.207450    5.574450   -1.750980
  H     -1.942910    4.821900   -0.356050
  H     -0.926830    3.881500   -1.422010

 Total Charge           Charge          ....    0
 Multiplicity           Mult            ....    1
 Number of Electrons    NEL             ....   34
 Basis Dimension        Dim             ....  139

ORBITAL ENERGIES
----------------

  NO   OCC          E(Eh)            E(eV)
   0   2.0000     -24.465835      -665.7492
   1   2.0000     -10.164096      -276.5791
   2   2.0000     -10.092623      -274.6342
   3   2.0000     -10.071380      -274.0562
   4   2.0000      -1.267242       -34.4834
   5   2.0000      -0.892724       -24.2923
   6   2.0000      -0.794029       -21.6066
   7   2.0000      -0.699123       -19.0241
   8   2.0000      -0.616484       -16.7754
   9   2.0000      -0.602972       -16.4077
  10   2.0000      -0.580337       -15.7918
  11   2.0000      -0.540557       -14.7093
  12   2.0000      -0.498760       -13.5720
  13   2.0000      -0.475123       -12.9288
  14   2.0000      -0.455917       -12.4061
  15   2.0000      -0.426941       -11.6177
  16   2.0000      -0.420293       -11.4368
  17   0.0000       0.072778         1.9804
  18   0.0000       0.098181         2.6716
  19   0.0000       0.108208         2.9445
  20   0.0000       0.127826         3.4783
  21   0.0000       0.151064         4.1107

MULLIKEN ATOMIC CHARGES
-----------------------
   0 C :    0.749276
   1 F :   -0.363140
   2 C :    0.854562
   3 C :   -0.274580
   4 H :   -0.093154
   5 H :   -0.174216
   6 H :   -0.134403
   7 H :   -0.155666
   8 H :   -0.140426
   9 H :   -0.174638
  10 H :   -0.093615
Sum of atomic charges:    0.0000000

LOEWDIN ATOMIC CHARGES
----------------------
   0 C :    0.068292
   1 F :   -0.190158
   2 C :    0.108266
   3 C :   -0.075492
   4 H :    0.041603
   5 H :    0.032505
   6 H :    0.024101
   7 H :    0.031337
   8 H :   -0.010855
   9 H :   -0.015197
  10 H :   -0.014402

  Mayer bond orders larger than 0.100000
B(  0-C ,  1-F ) :   0.8547 B(  0-C ,  3-C ) :   1.1925 B(  0-C ,  4-H ) :   0.8637
B(  0-C ,  5-H ) :   0.8899 B(  2-C ,  3-C ) :   1.3207 B(  2-C ,  8-H ) :   0.7614
B(  2-C ,  9-H ) :   0.7561 B(  2-C , 10-H ) :   0.7720 B(  3-C ,  4-H ) :   0.1355
B(  3-C ,  5-H ) :   0.1293 B(  3-C ,  6-H ) :   0.8930 B(  3-C ,  7-H ) :   0.9307
B(  3-C ,  8-H ) :   0.2048 B(  3-C ,  9-H ) :   0.2316 B(  3-C , 10-H ) :   0.1937

FINAL SINGLE POINT ENERGY      -217.705744917872

DIPOLE MOMENT
-------------
                                X             Y             Z
Electronic contribution:      4.60245      -2.41687      -3.12124
Nuclear contribution   :     -4.76356       2.92420       3.62609
                        -----------------------------------------
Total Dipole Moment    :     -0.16111       0.50733       0.50485
                        -----------------------------------------
Magnitude (a.u.)       :      0.73363
Magnitude (Debye)      :      1.86474

Rotational constants in cm-1:     0.464485     0.177633     0.142630
Rotational constants in MHz : 13924.923489  5325.290206  4275.938589

                             ****ORCA TERMINATED NORMALLY****
TOTAL RUN TIME: 0 days 0 hours 0 minutes 8 seconds 959 msec
