                         Program Version 5.0.0 -  RELEASE  -
|  1> !LC-BLYP RIJCOSX def2-SVPD def2/J TightSCF
|  2> *xyz 0 1
|  3> C         -0.70169        4.07250       -4.00392
|  4> C          0.68053        4.61482       -4.04800
|  5> H          0.69993        5.58489       -4.38827
|  6> H          1.27804        4.05598       -4.66824
|  7> H          1.08573        4.53358       -3.10652
|  8> C         -1.70347        5.09320       -3.47740
|  9> H         -0.99590        3.74039       -5.00065
| 10> H         -0.64358        3.20191       -3.35153
| 11> C         -1.31400        5.78600       -2.16927
| 12> H         -1.87706        5.85010       -4.25115
| 13> H         -2.65326        4.56448       -3.35480
| 14> H         -0.38448        6.29945       -2.30062
| 15> H         -1.21111        5.05451       -1.39516
| 16> H         -2.07413        6.48833       -1.89758
| 17> *
| 18> %MaxCore 64000
| 19>
| 20> %pal nprocs 4
| 21> end
| 22>
| 23> %scf
| 24>   MaxIter 150
| 25> end
| 26>
| 27>
| 28>                          ****END OF INPUT****

CARTESIAN COORDINATES (ANGSTROEM)
---------------------------------
  C     -0.701690    4.072500   -4.003920
  C      0.680530    4.614820   -4.048000
  H      0.699930    5.584890   -4.388270
  H      1.278040    4.055980   -4.668240
  H      1.085730    4.533580   -3.106520
  C     -1.703470    5.093200   -3.477400
  H     -0.995900    3.740390   -5.000650
  H     -0.643580    3.201910   -3.351530
  C     -1.314000    5.786000   -2.169270
  H     -1.877060    5.850100   -4.251150
  H     -2.653260    4.564480   -3.354800
  H     -0.384480    6.299450   -2.300620
  H     -1.211110    5.054510   -1.395160
  H     -2.074130    6.488330   -1.897580

 Total Charge           Charge          ....    0
 Multiplicity           Mult            ....    1
 Number of Electrons    NEL             ....   34
 Basis Dimension        Dim             ....  160

ORBITAL ENERGIES
----------------

  NO   OCC          E(Eh)            E(eV)
   0   2.0000     -10.074253      -274.1344
   1   2.0000     -10.069821      -274.0138
   2   2.0000     -10.064510      -273.8693
   3   2.0000     -10.046627      -273.3826
   4   2.0000      -0.907500       -24.6943
   5   2.0000      -0.831111       -22.6157
   6   2.0000      -0.750132       -20.4121
   7   2.0000      -0.665964       -18.1218
   8   2.0000      -0.576532       -15.6882
   9   2.0000      -0.569584       -15.4992
  10   2.0000      -0.528891       -14.3918
  11   2.0000      -0.490035       -13.3345
  12   2.0000      -0.485106       -13.2004
  13   2.0000      -0.464013       -12.6264
  14   2.0000      -0.421074       -11.4580
  15   2.0000      -0.418275       -11.3818
  16   2.0000      -0.413608       -11.2548
  17   0.0000       0.076989         2.0950
  18   0.0000       0.102202         2.7811
  19   0.0000       0.103161         2.8072
  20   0.0000       0.117368         3.1937
  21   0.0000       0.150208         4.0874

MULLIKEN ATOMIC CHARGES
-----------------------
   0 C :   -0.085076
   1 C :    1.223515
   2 H :   -0.278639
   3 H :   -0.488361
   4 H :   -0.102689
   5 C :   -0.199126
   6 H :   -0.196486
   7 H :   -0.126897
   8 C :    0.915442
   9 H :   -0.067402
  10 H :   -0.197441
  11 H :   -0.104737
  12 H :   -0.114334
  13 H :   -0.177767
Sum of atomic charges:   -0.0000000

LOEWDIN ATOMIC CHARGES
----------------------
   0 C :   -0.092358
   1 C :    0.101491
   2 H :   -0.022951
   3 H :   -0.031078
   4 H :   -0.025480
   5 C :   -0.094120
   6 H :    0.026960
   7 H :    0.028056
   8 C :    0.112908
   9 H :    0.027121
  10 H :    0.019796
  11 H :   -0.024023
  12 H :   -0.010627
  13 H :   -0.015694

  Mayer bond orders larger than 0.100000
B(  0-C ,  1-C ) :   1.2647 B(  0-C ,  2-H ) :   0.2613 B(  0-C ,  3-H ) :   0.2711
B(  0-C ,  4-H ) :   0.3077 B(  0-C ,  5-C ) :   1.2130 B(  0-C ,  6-H ) :   0.8751
B(  0-C ,  7-H ) :   0.8058 B(  0-C ,  9-H ) :   0.1396 B(  0-C , 10-H ) :   0.1656
B(  1-C ,  2-H ) :   0.6331 B(  1-C ,  3-H ) :   0.5927 B(  1-C ,  4-H ) :   0.6145
B(  1-C ,  7-H ) :   0.1653 B(  2-H ,  3-H ) :  -0.1025 B(  5-C ,  7-H ) :   0.1437
B(  5-C ,  8-C ) :   1.3142 B(  5-C ,  9-H ) :   0.8570 B(  5-C , 10-H ) :   0.8943
B(  5-C , 11-H ) :   0.2173 B(  5-C , 12-H ) :   0.2152 B(  5-C , 13-H ) :   0.2575
B(  8-C ,  9-H ) :   0.1016 B(  8-C , 11-H ) :   0.7867 B(  8-C , 12-H ) :   0.7450
B(  8-C , 13-H ) :   0.6871

FINAL SINGLE POINT ENERGY      -157.818405139040

DIPOLE MOMENT
-------------
                                X             Y             Z
Electronic contribution:     -0.62905      -0.37654      -0.43242
Nuclear contribution   :      0.63648       0.35464       0.41252
                        -----------------------------------------
Total Dipole Moment    :      0.00743      -0.02190      -0.01990
                        -----------------------------------------
Magnitude (a.u.)       :      0.03051
Magnitude (Debye)      :      0.07754

Rotational constants in cm-1:     0.435124     0.173315     0.141457
Rotational constants in MHz : 13044.691962  5195.845291  4240.763698

                             ****ORCA TERMINATED NORMALLY****
TOTAL RUN TIME: 0 days 0 hours 0 minutes 13 seconds 404 msec
