                         Program Version 5.0.0 -  RELEASE  -
|  1> !B3LYP D3BJ RIJCOSX def2-SVPD def2/J TightSCF
|  2> *xyz -1 1
|  3> C          3.80351        1.37472       -3.26081
|  4> C          3.93993        0.32036       -4.36773
|  5> H          4.10504       -0.65508       -3.90773
|  6> H          3.02280        0.28052       -4.95712
|  7> C          5.10585        0.66802       -5.30546
|  8> O          4.80913        1.15019       -6.41436
|  9> O          6.26737        0.56500       -4.81948
| 10> H          3.64113        2.33595       -3.70189
| 11> H          4.69995        1.39701       -2.67703
| 12> H          2.97435        1.12625       -2.63180
| 13> *
| 14>
| 15> %MaxCore 64000
| 16>
| 17> %pal nprocs 4
| 18> end
| 19>
| 20> %scf
| 21>   MaxIter 150
| 22> end
| 23>
| 24>
| 25>                          ****END OF INPUT****

CARTESIAN COORDINATES (ANGSTROEM)
---------------------------------
  C      3.803510    1.374720   -3.260810
  C      3.939930    0.320360   -4.367730
  H      4.105040   -0.655080   -3.907730
  H      3.022800    0.280520   -4.957120
  C      5.105850    0.668020   -5.305460
  O      4.809130    1.150190   -6.414360
  O      6.267370    0.565000   -4.819480
  H      3.641130    2.335950   -3.701890
  H      4.699950    1.397010   -2.677030
  H      2.974350    1.126250   -2.631800

 Total Charge           Charge          ....   -1
 Multiplicity           Mult            ....    1
 Number of Electrons    NEL             ....   40
 Basis Dimension        Dim             ....  146

ORBITAL ENERGIES
----------------

  NO   OCC          E(Eh)            E(eV)
   0   2.0000     -18.880399      -513.7618
   1   2.0000     -18.876768      -513.6630
   2   2.0000     -10.068799      -273.9859
   3   2.0000     -10.022257      -272.7195
   4   2.0000     -10.008068      -272.3334
   5   2.0000      -0.812978       -22.1223
   6   2.0000      -0.721257       -19.6264
   7   2.0000      -0.597962       -16.2714
   8   2.0000      -0.466184       -12.6855
   9   2.0000      -0.318415        -8.6645
  10   2.0000      -0.291120        -7.9218
  11   2.0000      -0.257980        -7.0200
  12   2.0000      -0.230389        -6.2692
  13   2.0000      -0.214219        -5.8292
  14   2.0000      -0.210437        -5.7263
  15   2.0000      -0.179579        -4.8866
  16   2.0000      -0.166425        -4.5287
  17   2.0000      -0.052700        -1.4340
  18   2.0000      -0.042559        -1.1581
  19   2.0000      -0.031768        -0.8645
  20   0.0000       0.154984         4.2173
  21   0.0000       0.187194         5.0938
  22   0.0000       0.203449         5.5361
  23   0.0000       0.220111         5.9895
  24   0.0000       0.240053         6.5322

MULLIKEN ATOMIC CHARGES
-----------------------
   0 C :    0.722110
   1 C :   -0.098053
   2 H :   -0.103987
   3 H :   -0.115100
   4 C :    0.424376
   5 O :   -0.665947
   6 O :   -0.722327
   7 H :   -0.151858
   8 H :   -0.118601
   9 H :   -0.170613
Sum of atomic charges:   -1.0000000

LOEWDIN ATOMIC CHARGES
----------------------
   0 C :    0.110872
   1 C :   -0.033874
   2 H :   -0.001442
   3 H :   -0.005924
   4 C :   -0.310456
   5 O :   -0.322144
   6 O :   -0.334361
   7 H :   -0.025230
   8 H :   -0.029565
   9 H :   -0.047877

  Mayer bond orders larger than 0.100000
B(  0-C ,  1-C ) :   1.2952 B(  0-C ,  2-H ) :   0.1136 B(  0-C ,  3-H ) :   0.1101
B(  0-C ,  7-H ) :   0.8092 B(  0-C ,  8-H ) :   0.8037 B(  0-C ,  9-H ) :   0.8167
B(  1-C ,  2-H ) :   0.8818 B(  1-C ,  3-H ) :   0.9249 B(  1-C ,  4-C ) :   1.0220
B(  1-C ,  7-H ) :   0.1972 B(  1-C ,  8-H ) :   0.2037 B(  1-C ,  9-H ) :   0.1714
B(  3-H ,  4-C ) :   0.1635 B(  4-C ,  5-O ) :   1.4841 B(  4-C ,  6-O ) :   1.4681

Dispersion correction           -0.011022954
FINAL SINGLE POINT ENERGY      -267.525253596238

DIPOLE MOMENT
-------------
                                X             Y             Z
Electronic contribution:      3.70419      -0.49490      -4.47922
Nuclear contribution   :     -5.15232       0.33441       5.87398
                        -----------------------------------------
Total Dipole Moment    :     -1.44813      -0.16050       1.39475
                        -----------------------------------------
Magnitude (a.u.)       :      2.01697
Magnitude (Debye)      :      5.12674

Rotational constants in cm-1:     0.295355     0.137164     0.110193
Rotational constants in MHz :  8854.523706  4112.077980  3303.490503

                             ****ORCA TERMINATED NORMALLY****
TOTAL RUN TIME: 0 days 0 hours 0 minutes 17 seconds 653 msec
