                         Program Version 5.0.0 -  RELEASE  -
|  1> !B3LYP D3BJ RIJCOSX def2-SVPD def2/J TightSCF
|  2> *xyz 1 1
|  3> C          3.90595        2.81985       -3.75292
|  4> N          5.29562        3.13151       -4.10533
|  5> C          3.80351        1.37472       -3.26081
|  6> C          5.70862        3.46889       -5.32419
|  7> N          6.90470        3.03895       -5.71708
|  8> N          4.98188        4.29357       -6.09746
|  9> H          5.00055        4.10131       -7.08776
| 10> H          4.08469        4.59690       -5.73965
| 11> H          5.96336        2.52611       -3.64239
| 12> H          7.04716        2.06686       -5.47360
| 13> H          7.19815        3.30799       -6.64523
| 14> H          3.28202        2.94919       -4.64026
| 15> H          3.56525        3.51457       -2.98252
| 16> H          4.14157        0.71142       -4.02935
| 17> H          2.78528        1.15146       -3.01944
| 18> H          4.41205        1.25066       -2.38949
| 19> *
| 20>
| 21> %MaxCore 64000
| 22>
| 23> %pal nprocs 4
| 24> end
| 25>
| 26> %scf
| 27>   MaxIter 150
| 28> end
| 29>
| 30>
| 31>                          ****END OF INPUT****

CARTESIAN COORDINATES (ANGSTROEM)
---------------------------------
  C      3.905950    2.819850   -3.752920
  N      5.295620    3.131510   -4.105330
  C      3.803510    1.374720   -3.260810
  C      5.708620    3.468890   -5.324190
  N      6.904700    3.038950   -5.717080
  N      4.981880    4.293570   -6.097460
  H      5.000550    4.101310   -7.087760
  H      4.084690    4.596900   -5.739650
  H      5.963360    2.526110   -3.642390
  H      7.047160    2.066860   -5.473600
  H      7.198150    3.307990   -6.645230
  H      3.282020    2.949190   -4.640260
  H      3.565250    3.514570   -2.982520
  H      4.141570    0.711420   -4.029350
  H      2.785280    1.151460   -3.019440
  H      4.412050    1.250660   -2.389490

 Total Charge           Charge          ....    1
 Multiplicity           Mult            ....    1
 Number of Electrons    NEL             ....   48
 Basis Dimension        Dim             ....  200

ORBITAL ENERGIES
----------------

  NO   OCC          E(Eh)            E(eV)
   0   2.0000     -14.558837      -396.1661
   1   2.0000     -14.557487      -396.1294
   2   2.0000     -14.557117      -396.1193
   3   2.0000     -10.520609      -286.2803
   4   2.0000     -10.394555      -282.8502
   5   2.0000     -10.328888      -281.0633
   6   2.0000      -1.214073       -33.0366
   7   2.0000      -1.102030       -29.9878
   8   2.0000      -1.093866       -29.7656
   9   2.0000      -0.929615       -25.2961
  10   2.0000      -0.832249       -22.6467
  11   2.0000      -0.806957       -21.9584
  12   2.0000      -0.778661       -21.1884
  13   2.0000      -0.746629       -20.3168
  14   2.0000      -0.703558       -19.1448
  15   2.0000      -0.691432       -18.8148
  16   2.0000      -0.652895       -17.7662
  17   2.0000      -0.629908       -17.1407
  18   2.0000      -0.596925       -16.2432
  19   2.0000      -0.561820       -15.2879
  20   2.0000      -0.538814       -14.6619
  21   2.0000      -0.524021       -14.2593
  22   2.0000      -0.492179       -13.3929
  23   2.0000      -0.462629       -12.5888
  24   0.0000      -0.196721        -5.3530
  25   0.0000      -0.158605        -4.3159
  26   0.0000      -0.124709        -3.3935
  27   0.0000      -0.111957        -3.0465
  28   0.0000      -0.094474        -2.5708

MULLIKEN ATOMIC CHARGES
-----------------------
   0 C :    0.487158
   1 N :   -0.324354
   2 C :    0.913213
   3 C :    0.781297
   4 N :    0.125974
   5 N :    0.121149
   6 H :   -0.055157
   7 H :   -0.027536
   8 H :   -0.114072
   9 H :   -0.020403
  10 H :   -0.026769
  11 H :   -0.164659
  12 H :   -0.319653
  13 H :   -0.133284
  14 H :   -0.148991
  15 H :   -0.093913
Sum of atomic charges:    1.0000000

LOEWDIN ATOMIC CHARGES
----------------------
   0 C :    0.044933
   1 N :    0.058424
   2 C :    0.169477
   3 C :   -0.056308
   4 N :    0.277616
   5 N :    0.289545
   6 H :    0.035470
   7 H :    0.022374
   8 H :    0.043870
   9 H :    0.035293
  10 H :    0.034817
  11 H :    0.021068
  12 H :    0.035652
  13 H :   -0.009792
  14 H :    0.003064
  15 H :   -0.005504

  Mayer bond orders larger than 0.100000
B(  0-C ,  1-N ) :   0.8928 B(  0-C ,  2-C ) :   1.2996 B(  0-C , 11-H ) :   0.7802
B(  0-C , 12-H ) :   0.8415 B(  0-C , 13-H ) :   0.2475 B(  0-C , 14-H ) :   0.2603
B(  0-C , 15-H ) :   0.1712 B(  1-N ,  3-C ) :   1.1734 B(  1-N ,  4-N ) :   0.1983
B(  1-N ,  5-N ) :   0.1014 B(  1-N ,  8-H ) :   1.1327 B(  1-N , 11-H ) :   0.1280
B(  1-N , 12-H ) :   0.1780 B(  2-C , 13-H ) :   0.7528 B(  2-C , 14-H ) :   0.7548
B(  2-C , 15-H ) :   0.7843 B(  3-C ,  4-N ) :   1.0413 B(  3-C ,  5-N ) :   1.0219
B(  3-C ,  8-H ) :  -0.1764 B(  4-N ,  5-N ) :   0.1141 B(  4-N ,  9-H ) :   1.0391
B(  4-N , 10-H ) :   0.9871 B(  5-N ,  6-H ) :   1.1426 B(  5-N ,  7-H ) :   0.9701
B(  6-H ,  7-H ) :  -0.1180

Dispersion correction           -0.020056513
FINAL SINGLE POINT ENERGY      -284.045836558518

DIPOLE MOMENT
-------------
                                X             Y             Z
Electronic contribution:      3.51414       3.41345      -2.64670
Nuclear contribution   :     -3.31456      -3.64300       1.57303
                        -----------------------------------------
Total Dipole Moment    :      0.19958      -0.22955      -1.07367
                        -----------------------------------------
Magnitude (a.u.)       :      1.11592
Magnitude (Debye)      :      2.83645

Rotational constants in cm-1:     0.229487     0.071000     0.059428
Rotational constants in MHz :  6879.840828  2128.520047  1781.605314

                             ****ORCA TERMINATED NORMALLY****
TOTAL RUN TIME: 0 days 0 hours 0 minutes 30 seconds 93 msec
