                         Program Version 5.0.0 -  RELEASE  -
|  1> !B3LYP D3BJ RIJCOSX def2-SVPD def2/J TightSCF
|  2> *xyz 0 1
|  3> C          3.80351        1.37472       -3.26081
|  4> C          3.93993        0.32036       -4.36773
|  5> H          4.10504       -0.65508       -3.90773
|  6> H          3.02280        0.28052       -4.95712
|  7> C          5.10585        0.66802       -5.30546
|  8> F          4.80913        1.15019       -6.41436
|  9> O          6.26737        0.56500       -4.81948
| 10> H          3.64113        2.33595       -3.70189
| 11> H          4.69995        1.39701       -2.67703
| 12> H          2.97435        1.12625       -2.63180
| 13> *
| 14>
| 15> %MaxCore 64000
| 16>
| 17> %pal nprocs 4
| 18> end
| 19>
| 20> %scf
| 21>   MaxIter 150
| 22> end
| 23>
| 24>
| 25>                          ****END OF INPUT****

CARTESIAN COORDINATES (ANGSTROEM)
---------------------------------
  C      3.803510    1.374720   -3.260810
  C      3.939930    0.320360   -4.367730
  H      4.105040   -0.655080   -3.907730
  H      3.022800    0.280520   -4.957120
  C      5.105850    0.668020   -5.305460
  F      4.809130    1.150190   -6.414360
  O      6.267370    0.565000   -4.819480
  H      3.641130    2.335950   -3.701890
  H      4.699950    1.397010   -2.677030
  H      2.974350    1.126250   -2.631800

 Total Charge           Charge          ....    0
 Multiplicity           Mult            ....    1
 Number of Electrons    NEL             ....   40
 Basis Dimension        Dim             ....  146

ORBITAL ENERGIES
----------------

  NO   OCC          E(Eh)            E(eV)
   0   2.0000     -24.775319      -674.1707
   1   2.0000     -19.149632      -521.0880
   2   2.0000     -10.368388      -282.1382
   3   2.0000     -10.216730      -278.0113
   4   2.0000     -10.192883      -277.3625
   5   2.0000      -1.317156       -35.8416
   6   2.0000      -1.023023       -27.8379
   7   2.0000      -0.795799       -21.6548
   8   2.0000      -0.688702       -18.7405
   9   2.0000      -0.643487       -17.5102
  10   2.0000      -0.559005       -15.2113
  11   2.0000      -0.543661       -14.7938
  12   2.0000      -0.508083       -13.8256
  13   2.0000      -0.467482       -12.7208
  14   2.0000      -0.438317       -11.9272
  15   2.0000      -0.403440       -10.9782
  16   2.0000      -0.383386       -10.4325
  17   2.0000      -0.377237       -10.2651
  18   2.0000      -0.351182        -9.5562
  19   2.0000      -0.295330        -8.0363
  20   0.0000      -0.039265        -1.0685
  21   0.0000       0.011785         0.3207
  22   0.0000       0.044322         1.2061
  23   0.0000       0.055906         1.5213
  24   0.0000       0.072109         1.9622

MULLIKEN ATOMIC CHARGES
-----------------------
   0 C :    0.754716
   1 C :   -0.128655
   2 H :   -0.056431
   3 H :   -0.087050
   4 C :    0.727142
   5 F :   -0.352553
   6 O :   -0.492306
   7 H :   -0.134664
   8 H :   -0.101029
   9 H :   -0.129171
Sum of atomic charges:    0.0000000

LOEWDIN ATOMIC CHARGES
----------------------
   0 C :    0.150777
   1 C :    0.012968
   2 H :    0.033224
   3 H :    0.017802
   4 C :   -0.014529
   5 F :   -0.024414
   6 O :   -0.138060
   7 H :   -0.012384
   8 H :   -0.010118
   9 H :   -0.015268

  Mayer bond orders larger than 0.100000
B(  0-C ,  1-C ) :   1.3138 B(  0-C ,  2-H ) :   0.1073 B(  0-C ,  3-H ) :   0.1058
B(  0-C ,  7-H ) :   0.8058 B(  0-C ,  8-H ) :   0.8057 B(  0-C ,  9-H ) :   0.8226
B(  1-C ,  2-H ) :   0.8770 B(  1-C ,  3-H ) :   0.9211 B(  1-C ,  4-C ) :   1.0691
B(  1-C ,  7-H ) :   0.1775 B(  1-C ,  8-H ) :   0.1822 B(  1-C ,  9-H ) :   0.1597
B(  4-C ,  5-F ) :   0.7594 B(  4-C ,  6-O ) :   1.8028 B(  5-F ,  6-O ) :   0.1152

Dispersion correction           -0.010433496
FINAL SINGLE POINT ENERGY      -292.052618229854

DIPOLE MOMENT
-------------
                                X             Y             Z
Electronic contribution:      3.98131      -0.01558      -7.42718
Nuclear contribution   :     -5.17129      -0.01923       7.59895
                        -----------------------------------------
Total Dipole Moment    :     -1.18998      -0.03482       0.17176
                        -----------------------------------------
Magnitude (a.u.)       :      1.20282
Magnitude (Debye)      :      3.05731

Rotational constants in cm-1:     0.282073     0.131822     0.105134
Rotational constants in MHz :  8456.328792  3951.925810  3151.840112

                             ****ORCA TERMINATED NORMALLY****
TOTAL RUN TIME: 0 days 0 hours 0 minutes 15 seconds 844 msec
