                         Program Version 5.0.0 -  RELEASE  -
|  1> !B3LYP D3BJ RIJCOSX def2-SVPD def2/J TightSCF
|  2> *xyz 0 1
|  3> C          3.90595        2.81985       -3.75292
|  4> C          5.29562        3.13151       -4.10533
|  5> C          3.80351        1.37472       -3.26081
|  6> C          5.70862        3.46889       -5.32419
|  7> N          6.90470        3.03895       -5.71708
|  8> N          4.98188        4.29357       -6.09746
|  9> H          5.00055        4.10131       -7.08776
| 10> H          4.08469        4.59690       -5.73965
| 11> H          5.96336        2.52611       -3.64239
| 12> H          7.04716        2.06686       -5.47360
| 13> H          7.19815        3.30799       -6.64523
| 14> H          3.28202        2.94919       -4.64026
| 15> H          3.56525        3.51457       -2.98252
| 16> H          4.14157        0.71142       -4.02935
| 17> H          2.78528        1.15146       -3.01944
| 18> H          4.41205        1.25066       -2.38949
| 19> *
| 20>
| 21> %MaxCore 64000
| 22>
| 23> %pal nprocs 4
| 24> end
| 25>
| 26> %scf
| 27>   MaxIter 150
| 28> end
| 29>
| 30>
| 31>                          ****END OF INPUT****

CARTESIAN COORDINATES (ANGSTROEM)
---------------------------------
  C      3.905950    2.819850   -3.752920
  C      5.295620    3.131510   -4.105330
  C      3.803510    1.374720   -3.260810
  C      5.708620    3.468890   -5.324190
  N      6.904700    3.038950   -5.717080
  N      4.981880    4.293570   -6.097460
  H      5.000550    4.101310   -7.087760
  H      4.084690    4.596900   -5.739650
  H      5.963360    2.526110   -3.642390
  H      7.047160    2.066860   -5.473600
  H      7.198150    3.307990   -6.645230
  H      3.282020    2.949190   -4.640260
  H      3.565250    3.514570   -2.982520
  H      4.141570    0.711420   -4.029350
  H      2.785280    1.151460   -3.019440
  H      4.412050    1.250660   -2.389490

 Total Charge           Charge          ....    0
 Multiplicity           Mult            ....    1
 Number of Electrons    NEL             ....   48
 Basis Dimension        Dim             ....  200

ORBITAL ENERGIES
----------------

  NO   OCC          E(Eh)            E(eV)
   0   2.0000     -14.335497      -390.0887
   1   2.0000     -14.332107      -389.9965
   2   2.0000     -10.225698      -278.2554
   3   2.0000     -10.161580      -276.5107
   4   2.0000     -10.155284      -276.3393
   5   2.0000     -10.110543      -275.1219
   6   2.0000      -0.958042       -26.0697
   7   2.0000      -0.869751       -23.6671
   8   2.0000      -0.770806       -20.9747
   9   2.0000      -0.690476       -18.7888
  10   2.0000      -0.609699       -16.5908
  11   2.0000      -0.575836       -15.6693
  12   2.0000      -0.536492       -14.5987
  13   2.0000      -0.510398       -13.8886
  14   2.0000      -0.479842       -13.0572
  15   2.0000      -0.447016       -12.1639
  16   2.0000      -0.422839       -11.5060
  17   2.0000      -0.389925       -10.6104
  18   2.0000      -0.370477       -10.0812
  19   2.0000      -0.352961        -9.6046
  20   2.0000      -0.329062        -8.9542
  21   2.0000      -0.325703        -8.8628
  22   2.0000      -0.275970        -7.5095
  23   2.0000      -0.171883        -4.6772
  24   0.0000       0.008898         0.2421
  25   0.0000       0.038535         1.0486
  26   0.0000       0.041030         1.1165
  27   0.0000       0.051697         1.4067
  28   0.0000       0.067738         1.8432

MULLIKEN ATOMIC CHARGES
-----------------------
   0 C :    0.113029
   1 C :    0.001800
   2 C :    0.988137
   3 C :    0.204950
   4 N :    0.170536
   5 N :    0.129895
   6 H :   -0.134928
   7 H :   -0.038276
   8 H :   -0.324549
   9 H :   -0.024134
  10 H :   -0.150656
  11 H :   -0.250385
  12 H :   -0.243210
  13 H :   -0.117946
  14 H :   -0.216804
  15 H :   -0.107460
Sum of atomic charges:    0.0000000

LOEWDIN ATOMIC CHARGES
----------------------
   0 C :   -0.098493
   1 C :   -0.015447
   2 C :    0.121965
   3 C :   -0.242900
   4 N :    0.193613
   5 N :    0.204395
   6 H :   -0.015658
   7 H :   -0.009281
   8 H :   -0.059076
   9 H :    0.000916
  10 H :   -0.015183
  11 H :   -0.001430
  12 H :    0.005174
  13 H :   -0.020455
  14 H :   -0.028116
  15 H :   -0.020023

  Mayer bond orders larger than 0.100000
B(  0-C ,  1-C ) :   0.9733 B(  0-C ,  2-C ) :   1.2696 B(  0-C ,  3-C ) :   0.1010
B(  0-C ,  8-H ) :   0.2186 B(  0-C , 11-H ) :   0.8055 B(  0-C , 12-H ) :   0.7746
B(  0-C , 13-H ) :   0.2600 B(  0-C , 14-H ) :   0.3014 B(  0-C , 15-H ) :   0.2166
B(  1-C ,  3-C ) :   1.8535 B(  1-C ,  4-N ) :   0.3136 B(  1-C ,  5-N ) :   0.1757
B(  1-C ,  8-H ) :   0.5104 B(  1-C , 11-H ) :   0.1227 B(  1-C , 12-H ) :   0.1891
B(  2-C , 13-H ) :   0.7391 B(  2-C , 14-H ) :   0.7234 B(  2-C , 15-H ) :   0.7619
B(  3-C ,  4-N ) :   0.9916 B(  3-C ,  5-N ) :   1.0165 B(  3-C ,  8-H ) :   0.3606
B(  4-N ,  9-H ) :   1.0308 B(  4-N , 10-H ) :   0.9303 B(  5-N ,  6-H ) :   1.0936
B(  5-N ,  7-H ) :   0.9762

Dispersion correction           -0.020987934
FINAL SINGLE POINT ENERGY      -267.579947376337

DIPOLE MOMENT
-------------
                                X             Y             Z
Electronic contribution:      3.17670       3.26327      -2.81752
Nuclear contribution   :     -3.27358      -3.61654       1.70633
                        -----------------------------------------
Total Dipole Moment    :     -0.09688      -0.35327      -1.11119
                        -----------------------------------------
Magnitude (a.u.)       :      1.17001
Magnitude (Debye)      :      2.97394

Rotational constants in cm-1:     0.231961     0.071249     0.059473
Rotational constants in MHz :  6954.024434  2135.976855  1782.962814

                             ****ORCA TERMINATED NORMALLY****
TOTAL RUN TIME: 0 days 0 hours 0 minutes 27 seconds 706 msec
