                         Program Version 5.0.0 -  RELEASE  -
|  1> !B3LYP D3BJ RIJCOSX def2-SVPD def2/J TightSCF
|  2> *xyz 0 1
|  3> C          3.80351        1.37472       -3.26081
|  4> C          3.93993        0.32036       -4.36773
|  5> H          4.10504       -0.65508       -3.90773
|  6> H          3.02280        0.28052       -4.95712
|  7> C          5.10585        0.66802       -5.30546
|  8> O          4.80913        1.15019       -6.41436
|  9> F          6.26737        0.56500       -4.81948
| 10> H          3.64113        2.33595       -3.70189
| 11> H          4.69995        1.39701       -2.67703
| 12> H          2.97435        1.12625       -2.63180
| 13> *
| 14>
| 15> %MaxCore 64000
| 16>
| 17> %pal nprocs 4
| 18> end
| 19>
| 20> %scf
| 21>   MaxIter 150
| 22> end
| 23>
| 24>
| 25>                          ****END OF INPUT****

CARTESIAN COORDINATES (ANGSTROEM)
---------------------------------
  C      3.803510    1.374720   -3.260810
  C      3.939930    0.320360   -4.367730
  H      4.105040   -0.655080   -3.907730
  H      3.022800    0.280520   -4.957120
  C      5.105850    0.668020   -5.305460
  O      4.809130    1.150190   -6.414360
  F      6.267370    0.565000   -4.819480
  H      3.641130    2.335950   -3.701890
  H      4.699950    1.397010   -2.677030
  H      2.974350    1.126250   -2.631800

 Total Charge           Charge          ....    0
 Multiplicity           Mult            ....    1
 Number of Electrons    NEL             ....   40
 Basis Dimension        Dim             ....  146

ORBITAL ENERGIES
----------------

  NO   OCC          E(Eh)            E(eV)
   0   2.0000     -24.768617      -673.9883
   1   2.0000     -19.152397      -521.1632
   2   2.0000     -10.366511      -282.0871
   3   2.0000     -10.216262      -277.9986
   4   2.0000     -10.195604      -277.4365
   5   2.0000      -1.303404       -35.4674
   6   2.0000      -1.034087       -28.1389
   7   2.0000      -0.797630       -21.7046
   8   2.0000      -0.682671       -18.5764
   9   2.0000      -0.641737       -17.4625
  10   2.0000      -0.552823       -15.0431
  11   2.0000      -0.539449       -14.6792
  12   2.0000      -0.505175       -13.7465
  13   2.0000      -0.467436       -12.7196
  14   2.0000      -0.439464       -11.9584
  15   2.0000      -0.406908       -11.0725
  16   2.0000      -0.388719       -10.5776
  17   2.0000      -0.377748       -10.2791
  18   2.0000      -0.360127        -9.7996
  19   2.0000      -0.296163        -8.0590
  20   0.0000      -0.035208        -0.9581
  21   0.0000       0.010913         0.2970
  22   0.0000       0.044597         1.2135
  23   0.0000       0.055964         1.5228
  24   0.0000       0.072861         1.9827

MULLIKEN ATOMIC CHARGES
-----------------------
   0 C :    0.740117
   1 C :   -0.109343
   2 H :   -0.066037
   3 H :   -0.090281
   4 C :    0.735487
   5 O :   -0.452724
   6 F :   -0.390929
   7 H :   -0.127005
   8 H :   -0.114782
   9 H :   -0.124502
Sum of atomic charges:    0.0000000

LOEWDIN ATOMIC CHARGES
----------------------
   0 C :    0.148016
   1 C :    0.015279
   2 H :    0.025217
   3 H :    0.029658
   4 C :   -0.015919
   5 O :   -0.126493
   6 F :   -0.036363
   7 H :   -0.009011
   8 H :   -0.015573
   9 H :   -0.014811

  Mayer bond orders larger than 0.100000
B(  0-C ,  1-C ) :   1.3000 B(  0-C ,  2-H ) :   0.1081 B(  0-C ,  7-H ) :   0.8203
B(  0-C ,  8-H ) :   0.7963 B(  0-C ,  9-H ) :   0.8295 B(  1-C ,  2-H ) :   0.8763
B(  1-C ,  3-H ) :   0.9359 B(  1-C ,  4-C ) :   1.0423 B(  1-C ,  7-H ) :   0.1762
B(  1-C ,  8-H ) :   0.1772 B(  1-C ,  9-H ) :   0.1575 B(  3-H ,  4-C ) :   0.1245
B(  4-C ,  5-O ) :   1.8252 B(  4-C ,  6-F ) :   0.7156 B(  5-O ,  6-F ) :   0.1209

Dispersion correction           -0.010394963
FINAL SINGLE POINT ENERGY      -292.057948477816

DIPOLE MOMENT
-------------
                                X             Y             Z
Electronic contribution:      6.39935      -0.99285      -4.75814
Nuclear contribution   :     -6.76123       0.61881       5.86003
                        -----------------------------------------
Total Dipole Moment    :     -0.36188      -0.37404       1.10189
                        -----------------------------------------
Magnitude (a.u.)       :      1.21861
Magnitude (Debye)      :      3.09747

Rotational constants in cm-1:     0.275298     0.134631     0.105723
Rotational constants in MHz :  8253.224169  4036.137572  3169.487264

                             ****ORCA TERMINATED NORMALLY****
TOTAL RUN TIME: 0 days 0 hours 0 minutes 15 seconds 732 msec
