                         Program Version 5.0.0 -  RELEASE  -
|  1> !B3LYP D3BJ RIJCOSX def2-SVPD def2/J TightSCF
|  2> *xyz 0 1
|  3> C          3.90595        2.81985       -3.75292
|  4> N          5.29562        3.13151       -4.10533
|  5> C          3.80351        1.37472       -3.26081
|  6> C          5.70862        3.46889       -5.32419
|  7> C          6.90470        3.03895       -5.71708
|  8> N          4.98188        4.29357       -6.09746
|  9> H          5.00055        4.10131       -7.08776
| 10> H          4.08469        4.59690       -5.73965
| 11> H          5.96336        2.52611       -3.64239
| 12> H          7.04716        2.06686       -5.47360
| 13> H          7.19815        3.30799       -6.64523
| 14> H          3.28202        2.94919       -4.64026
| 15> H          3.56525        3.51457       -2.98252
| 16> H          4.14157        0.71142       -4.02935
| 17> H          2.78528        1.15146       -3.01944
| 18> H          4.41205        1.25066       -2.38949
| 19> *
| 20>
| 21> %MaxCore 64000
| 22>
| 23> %pal nprocs 4
| 24> end
| 25>
| 26> %scf
| 27>   MaxIter 150
| 28> end
| 29>
| 30>
| 31>                          ****END OF INPUT****

CARTESIAN COORDINATES (ANGSTROEM)
---------------------------------
  C      3.905950    2.819850   -3.752920
  N      5.295620    3.131510   -4.105330
  C      3.803510    1.374720   -3.260810
  C      5.708620    3.468890   -5.324190
  C      6.904700    3.038950   -5.717080
  N      4.981880    4.293570   -6.097460
  H      5.000550    4.101310   -7.087760
  H      4.084690    4.596900   -5.739650
  H      5.963360    2.526110   -3.642390
  H      7.047160    2.066860   -5.473600
  H      7.198150    3.307990   -6.645230
  H      3.282020    2.949190   -4.640260
  H      3.565250    3.514570   -2.982520
  H      4.141570    0.711420   -4.029350
  H      2.785280    1.151460   -3.019440
  H      4.412050    1.250660   -2.389490

 Total Charge           Charge          ....    0
 Multiplicity           Mult            ....    1
 Number of Electrons    NEL             ....   48
 Basis Dimension        Dim             ....  200

ORBITAL ENERGIES
----------------

  NO   OCC          E(Eh)            E(eV)
   0   2.0000     -14.334640      -390.0654
   1   2.0000     -14.331534      -389.9809
   2   2.0000     -10.230020      -278.3730
   3   2.0000     -10.223981      -278.2087
   4   2.0000     -10.184158      -277.1250
   5   2.0000     -10.096667      -274.7443
   6   2.0000      -0.962481       -26.1904
   7   2.0000      -0.880762       -23.9668
   8   2.0000      -0.768233       -20.9047
   9   2.0000      -0.701350       -19.0847
  10   2.0000      -0.626331       -17.0433
  11   2.0000      -0.595977       -16.2174
  12   2.0000      -0.535125       -14.5615
  13   2.0000      -0.496184       -13.5019
  14   2.0000      -0.484921       -13.1954
  15   2.0000      -0.454298       -12.3621
  16   2.0000      -0.423106       -11.5133
  17   2.0000      -0.402820       -10.9613
  18   2.0000      -0.382573       -10.4103
  19   2.0000      -0.377398       -10.2695
  20   2.0000      -0.373718       -10.1694
  21   2.0000      -0.338620        -9.2143
  22   2.0000      -0.262566        -7.1448
  23   2.0000      -0.174832        -4.7574
  24   0.0000       0.009744         0.2651
  25   0.0000       0.030456         0.8287
  26   0.0000       0.044277         1.2048
  27   0.0000       0.047399         1.2898
  28   0.0000       0.066432         1.8077

MULLIKEN ATOMIC CHARGES
-----------------------
   0 C :    0.483901
   1 N :   -0.343017
   2 C :    0.920754
   3 C :    0.264685
   4 C :    0.631475
   5 N :    0.146441
   6 H :   -0.073875
   7 H :   -0.133316
   8 H :   -0.083784
   9 H :   -0.339465
  10 H :   -0.452658
  11 H :   -0.175612
  12 H :   -0.381783
  13 H :   -0.150027
  14 H :   -0.204348
  15 H :   -0.109372
Sum of atomic charges:   -0.0000000

LOEWDIN ATOMIC CHARGES
----------------------
   0 C :    0.013469
   1 N :   -0.004007
   2 C :    0.140510
   3 C :   -0.246457
   4 C :    0.150586
   5 N :    0.207981
   6 H :    0.001439
   7 H :   -0.022924
   8 H :    0.016340
   9 H :   -0.108164
  10 H :   -0.109381
  11 H :    0.006934
  12 H :    0.009648
  13 H :   -0.015405
  14 H :   -0.020973
  15 H :   -0.019596

  Mayer bond orders larger than 0.100000
B(  0-C ,  1-N ) :   0.8812 B(  0-C ,  2-C ) :   1.2765 B(  0-C , 11-H ) :   0.7748
B(  0-C , 12-H ) :   0.8135 B(  0-C , 13-H ) :   0.2657 B(  0-C , 14-H ) :   0.2680
B(  0-C , 15-H ) :   0.1799 B(  1-N ,  3-C ) :   1.1654 B(  1-N ,  4-C ) :   0.2275
B(  1-N ,  8-H ) :   1.0795 B(  1-N , 11-H ) :   0.1350 B(  1-N , 12-H ) :   0.1880
B(  2-C , 13-H ) :   0.7473 B(  2-C , 14-H ) :   0.7556 B(  2-C , 15-H ) :   0.7766
B(  3-C ,  4-C ) :   1.7489 B(  3-C ,  5-N ) :   0.9519 B(  3-C ,  8-H ) :  -0.1324
B(  3-C ,  9-H ) :   0.2400 B(  3-C , 10-H ) :   0.3689 B(  4-C ,  5-N ) :   0.2264
B(  4-C ,  9-H ) :   0.8094 B(  4-C , 10-H ) :   0.4720 B(  5-N ,  6-H ) :   1.1090
B(  5-N ,  7-H ) :   0.9377 B(  6-H ,  7-H ) :  -0.1145 B(  9-H , 10-H ) :   0.1683

Dispersion correction           -0.020752750
FINAL SINGLE POINT ENERGY      -267.568537731213

DIPOLE MOMENT
-------------
                                X             Y             Z
Electronic contribution:      1.53519       3.24496      -1.26972
Nuclear contribution   :     -2.93222      -3.63618       1.36440
                        -----------------------------------------
Total Dipole Moment    :     -1.39703      -0.39122       0.09469
                        -----------------------------------------
Magnitude (a.u.)       :      1.45386
Magnitude (Debye)      :      3.69541

Rotational constants in cm-1:     0.237993     0.072843     0.061284
Rotational constants in MHz :  7134.860770  2183.763760  1837.240960

                             ****ORCA TERMINATED NORMALLY****
TOTAL RUN TIME: 0 days 0 hours 0 minutes 30 seconds 419 msec
