                         Program Version 5.0.0 -  RELEASE  -
|  1> !B3LYP D3BJ RIJCOSX def2-SVPD def2/J TightSCF
|  2> *xyz 0 1
|  3> C          3.90595        2.81985       -3.75292
|  4> N          5.29562        3.13151       -4.10533
|  5> C          3.80351        1.37472       -3.26081
|  6> C          5.70862        3.46889       -5.32419
|  7> N          6.90470        3.03895       -5.71708
|  8> C          4.98188        4.29357       -6.09746
|  9> H          5.00055        4.10131       -7.08776
| 10> H          4.08469        4.59690       -5.73965
| 11> H          5.96336        2.52611       -3.64239
| 12> H          7.04716        2.06686       -5.47360
| 13> H          7.19815        3.30799       -6.64523
| 14> H          3.28202        2.94919       -4.64026
| 15> H          3.56525        3.51457       -2.98252
| 16> H          4.14157        0.71142       -4.02935
| 17> H          2.78528        1.15146       -3.01944
| 18> H          4.41205        1.25066       -2.38949
| 19> *
| 20>
| 21> %MaxCore 64000
| 22>
| 23> %pal nprocs 4
| 24> end
| 25>
| 26> %scf
| 27>   MaxIter 150
| 28> end
| 29>
| 30>
| 31>                          ****END OF INPUT****

CARTESIAN COORDINATES (ANGSTROEM)
---------------------------------
  C      3.905950    2.819850   -3.752920
  N      5.295620    3.131510   -4.105330
  C      3.803510    1.374720   -3.260810
  C      5.708620    3.468890   -5.324190
  N      6.904700    3.038950   -5.717080
  C      4.981880    4.293570   -6.097460
  H      5.000550    4.101310   -7.087760
  H      4.084690    4.596900   -5.739650
  H      5.963360    2.526110   -3.642390
  H      7.047160    2.066860   -5.473600
  H      7.198150    3.307990   -6.645230
  H      3.282020    2.949190   -4.640260
  H      3.565250    3.514570   -2.982520
  H      4.141570    0.711420   -4.029350
  H      2.785280    1.151460   -3.019440
  H      4.412050    1.250660   -2.389490

 Total Charge           Charge          ....    0
 Multiplicity           Mult            ....    1
 Number of Electrons    NEL             ....   48
 Basis Dimension        Dim             ....  200

ORBITAL ENERGIES
----------------

  NO   OCC          E(Eh)            E(eV)
   0   2.0000     -14.334006      -390.0481
   1   2.0000     -14.333586      -390.0367
   2   2.0000     -10.229321      -278.3540
   3   2.0000     -10.218253      -278.0528
   4   2.0000     -10.182093      -277.0688
   5   2.0000     -10.102569      -274.9049
   6   2.0000      -0.967638       -26.3308
   7   2.0000      -0.882739       -24.0205
   8   2.0000      -0.757261       -20.6061
   9   2.0000      -0.703146       -19.1336
  10   2.0000      -0.640344       -17.4247
  11   2.0000      -0.565817       -15.3967
  12   2.0000      -0.538126       -14.6431
  13   2.0000      -0.517831       -14.0909
  14   2.0000      -0.472905       -12.8684
  15   2.0000      -0.458650       -12.4805
  16   2.0000      -0.406394       -11.0585
  17   2.0000      -0.404286       -11.0012
  18   2.0000      -0.394932       -10.7467
  19   2.0000      -0.375616       -10.2210
  20   2.0000      -0.365772        -9.9532
  21   2.0000      -0.340620        -9.2687
  22   2.0000      -0.260440        -7.0869
  23   2.0000      -0.178378        -4.8539
  24   0.0000       0.009188         0.2500
  25   0.0000       0.034419         0.9366
  26   0.0000       0.046507         1.2655
  27   0.0000       0.048356         1.3158
  28   0.0000       0.064829         1.7641

MULLIKEN ATOMIC CHARGES
-----------------------
   0 C :    0.501190
   1 N :   -0.231179
   2 C :    0.943517
   3 C :    0.146343
   4 N :    0.102812
   5 C :    0.580508
   6 H :   -0.515958
   7 H :   -0.191540
   8 H :   -0.224952
   9 H :   -0.075724
  10 H :   -0.021515
  11 H :   -0.129286
  12 H :   -0.407034
  13 H :   -0.160362
  14 H :   -0.182749
  15 H :   -0.134070
Sum of atomic charges:    0.0000000

LOEWDIN ATOMIC CHARGES
----------------------
   0 C :    0.024834
   1 N :   -0.002651
   2 C :    0.137701
   3 C :   -0.257441
   4 N :    0.194981
   5 C :    0.169121
   6 H :   -0.109366
   7 H :   -0.113616
   8 H :    0.005543
   9 H :   -0.013490
  10 H :    0.000283
  11 H :    0.012324
  12 H :    0.014611
  13 H :   -0.019770
  14 H :   -0.020009
  15 H :   -0.023057

  Mayer bond orders larger than 0.100000
B(  0-C ,  1-N ) :   0.9234 B(  0-C ,  2-C ) :   1.2517 B(  0-C , 11-H ) :   0.8090
B(  0-C , 12-H ) :   0.8164 B(  0-C , 13-H ) :   0.2349 B(  0-C , 14-H ) :   0.2724
B(  0-C , 15-H ) :   0.1882 B(  1-N ,  3-C ) :   1.1357 B(  1-N ,  4-N ) :   0.1719
B(  1-N ,  5-C ) :   0.2239 B(  1-N ,  8-H ) :   1.0347 B(  1-N , 11-H ) :   0.1334
B(  1-N , 12-H ) :   0.1783 B(  2-C , 13-H ) :   0.7706 B(  2-C , 14-H ) :   0.7406
B(  2-C , 15-H ) :   0.7675 B(  3-C ,  4-N ) :   1.0468 B(  3-C ,  5-C ) :   1.8421
B(  3-C ,  6-H ) :   0.2267 B(  3-C ,  7-H ) :   0.3365 B(  3-C ,  8-H ) :  -0.1106
B(  4-N ,  5-C ) :   0.1529 B(  4-N ,  9-H ) :   0.9639 B(  4-N , 10-H ) :   0.9834
B(  5-C ,  6-H ) :   0.7586 B(  5-C ,  7-H ) :   0.4703 B(  6-H ,  7-H ) :   0.2945

Dispersion correction           -0.020819231
FINAL SINGLE POINT ENERGY      -267.573036839979

DIPOLE MOMENT
-------------
                                X             Y             Z
Electronic contribution:      3.38255       2.08795      -0.98157
Nuclear contribution   :     -3.34013      -3.37002       1.28371
                        -----------------------------------------
Total Dipole Moment    :      0.04241      -1.28207       0.30214
                        -----------------------------------------
Magnitude (a.u.)       :      1.31787
Magnitude (Debye)      :      3.34977

Rotational constants in cm-1:     0.239537     0.072280     0.060961
Rotational constants in MHz :  7181.153552  2166.902802  1827.551447

                             ****ORCA TERMINATED NORMALLY****
TOTAL RUN TIME: 0 days 0 hours 0 minutes 32 seconds 175 msec
