                         Program Version 5.0.0 -  RELEASE  -
|  1> !B3LYP D3BJ RIJCOSX def2-SVPD def2/J TightSCF xyzfile
|  2>
|  3> *xyzfile 0 1 D2.xyz
|  4>
|  5> %MaxCore 64000
|  6>
|  7> %pal nprocs 4
|  8> end
|  9>
| 10> %scf
| 11>   MaxIter 150
| 12> end
| 13>
| 14>
| 15>                          ****END OF INPUT****

CARTESIAN COORDINATES (ANGSTROEM)
---------------------------------
  C      3.905947    2.819855   -3.752920
  N      5.295615    3.131515   -4.105334
  C      3.803511    1.374716   -3.260807
  C      3.939934    0.320362   -4.367729
  H      4.105043   -0.655085   -3.907733
  H      3.022801    0.280517   -4.957117
  C      5.105846    0.668022   -5.305463
  C      5.708619    3.468885   -5.324190
  C      6.904696    3.038954   -5.717084
  N      4.981884    4.293570   -6.097457
  H      5.000546    4.101311   -7.087761
  H      4.084693    4.596899   -5.739652
  H      5.963358    2.526112   -3.642391
  H      7.047164    2.066861   -5.473604
  H      7.198145    3.307994   -6.645225
  H      3.282025    2.949187   -4.640259
  H      3.565254    3.514574   -2.982523
  H      4.574833    1.215157   -2.500443
  H      2.843514    1.260845   -2.751465
  F      4.809132    1.150187   -6.414361
  O      6.267366    0.564999   -4.819481

 Total Charge           Charge          ....    0
 Multiplicity           Mult            ....    1
 Number of Electrons    NEL             ....   78
 Basis Dimension        Dim             ....  294

ORBITAL ENERGIES
----------------

  NO   OCC          E(Eh)            E(eV)
   0   2.0000     -24.779386      -674.2814
   1   2.0000     -19.151466      -521.1379
   2   2.0000     -14.331907      -389.9910
   3   2.0000     -14.330813      -389.9612
   4   2.0000     -10.374865      -282.3144
   5   2.0000     -10.232105      -278.4297
   6   2.0000     -10.224271      -278.2166
   7   2.0000     -10.220872      -278.1241
   8   2.0000     -10.214793      -277.9587
   9   2.0000     -10.080344      -274.3001
  10   2.0000      -1.321310       -35.9547
  11   2.0000      -1.032554       -28.0972
  12   2.0000      -0.962263       -26.1845
  13   2.0000      -0.881890       -23.9975
  14   2.0000      -0.814340       -22.1593
  15   2.0000      -0.739793       -20.1308
  16   2.0000      -0.696917       -18.9641
  17   2.0000      -0.665667       -18.1137
  18   2.0000      -0.620416       -16.8824
  19   2.0000      -0.595066       -16.1926
  20   2.0000      -0.566821       -15.4240
  21   2.0000      -0.550006       -14.9664
  22   2.0000      -0.537205       -14.6181
  23   2.0000      -0.512068       -13.9341
  24   2.0000      -0.499082       -13.5807
  25   2.0000      -0.484917       -13.1953
  26   2.0000      -0.471696       -12.8355
  27   2.0000      -0.444419       -12.0933
  28   2.0000      -0.422092       -11.4857
  29   2.0000      -0.408237       -11.1087
  30   2.0000      -0.398343       -10.8395
  31   2.0000      -0.394620       -10.7381
  32   2.0000      -0.372078       -10.1248
  33   2.0000      -0.370517       -10.0823
  34   2.0000      -0.348851        -9.4927
  35   2.0000      -0.338266        -9.2047
  36   2.0000      -0.287213        -7.8155
  37   2.0000      -0.260775        -7.0960
  38   2.0000      -0.167049        -4.5456
  39   0.0000      -0.047790        -1.3004
  40   0.0000       0.003971         0.1081
  41   0.0000       0.024289         0.6609
  42   0.0000       0.032265         0.8780
  43   0.0000       0.041248         1.1224

MULLIKEN ATOMIC CHARGES
-----------------------
   0 C :    0.938895
   1 N :   -0.251246
   2 C :    0.275102
   3 C :    0.410998
   4 H :   -0.158675
   5 H :   -0.079953
   6 C :    0.751270
   7 C :   -0.030973
   8 C :    0.968279
   9 N :    0.155236
  10 H :   -0.055596
  11 H :   -0.068118
  12 H :   -0.100945
  13 H :   -0.564828
  14 H :   -0.348804
  15 H :   -0.094661
  16 H :   -0.446862
  17 H :   -0.022573
  18 H :   -0.255451
  19 F :   -0.394668
  20 O :   -0.626426
Sum of atomic charges:    0.0000000

LOEWDIN ATOMIC CHARGES
----------------------
   0 C :    0.061789
   1 N :    0.015964
   2 C :    0.000557
   3 C :    0.070614
   4 H :    0.035789
   5 H :    0.022730
   6 C :    0.007028
   7 C :   -0.259406
   8 C :    0.174236
   9 N :    0.211853
  10 H :    0.000544
  11 H :   -0.024020
  12 H :    0.012270
  13 H :   -0.156327
  14 H :   -0.094386
  15 H :    0.012151
  16 H :    0.012895
  17 H :    0.029821
  18 H :    0.022115
  19 F :   -0.013201
  20 O :   -0.143016

  Mayer bond orders larger than 0.100000
B(  0-C ,  1-N ) :   0.8588 B(  0-C ,  2-C ) :   1.1638 B(  0-C , 15-H ) :   0.6909
B(  0-C , 16-H ) :   0.7651 B(  0-C , 18-H ) :   0.2035 B(  1-N ,  2-C ) :   0.1492
B(  1-N ,  7-C ) :   1.1584 B(  1-N ,  8-C ) :   0.1875 B(  1-N , 12-H ) :   1.0322
B(  1-N , 15-H ) :   0.1535 B(  1-N , 16-H ) :   0.1122 B(  2-C ,  3-C ) :   1.1994
B(  2-C ,  4-H ) :   0.1989 B(  2-C ,  5-H ) :   0.1383 B(  2-C , 17-H ) :   0.7967
B(  2-C , 18-H ) :   0.8609 B(  3-C ,  4-H ) :   0.7509 B(  3-C ,  5-H ) :   0.8305
B(  3-C ,  6-C ) :   1.0886 B(  4-H ,  6-C ) :   0.1409 B(  5-H ,  6-C ) :   0.1417
B(  6-C , 19-F ) :   0.6775 B(  6-C , 20-O ) :   1.7033 B(  7-C ,  8-C ) :   1.8176
B(  7-C ,  9-N ) :   0.9230 B(  7-C , 11-H ) :   0.1724 B(  7-C , 12-H ) :  -0.1392
B(  7-C , 13-H ) :   0.2253 B(  7-C , 14-H ) :   0.5086 B(  8-C ,  9-N ) :   0.2801
B(  8-C , 13-H ) :   0.4170 B(  8-C , 14-H ) :   0.2109 B(  9-N , 10-H ) :   1.0569
B(  9-N , 11-H ) :   0.8527 B(  9-N , 14-H ) :   0.1043 B( 10-H , 11-H ) :  -0.1321
B( 13-H , 14-H ) :   0.1953 B( 13-H , 20-O ) :   0.2192 B( 15-H , 16-H ) :  -0.1498
B( 17-H , 18-H ) :  -0.1049

Dispersion correction           -0.037581372
FINAL SINGLE POINT ENERGY      -519.152009489949

DIPOLE MOMENT
-------------
                                X             Y             Z
Electronic contribution:      2.08433      -3.76372      -5.16706
Nuclear contribution   :     -4.40347       3.21582       5.36161
                        -----------------------------------------
Total Dipole Moment    :     -2.31914      -0.54790       0.19455
                        -----------------------------------------
Magnitude (a.u.)       :      2.39091
Magnitude (Debye)      :      6.07722

Rotational constants in cm-1:     0.061226     0.043199     0.033926
Rotational constants in MHz :  1835.503528  1295.087558  1017.061512

                             ****ORCA TERMINATED NORMALLY****
TOTAL RUN TIME: 0 days 0 hours 1 minutes 17 seconds 316 msec
