                         Program Version 5.0.0 -  RELEASE  -
|  1> !B3LYP D3BJ RIJCOSX def2-SVPD def2/J TightSCF xyzfile
|  2>
|  3> *xyzfile 0 1 D6.xyz
|  4>
|  5> %MaxCore 64000
|  6>
|  7> %pal nprocs 4
|  8> end
|  9>
| 10> %scf
| 11>   MaxIter 150
| 12> end
| 13>
| 14>
| 15>                          ****END OF INPUT****

CARTESIAN COORDINATES (ANGSTROEM)
---------------------------------
  C      3.905947    2.819855   -3.752920
  N      5.295615    3.131515   -4.105334
  C      3.803511    1.374716   -3.260807
  C      3.939934    0.320362   -4.367729
  H      4.105043   -0.655085   -3.907733
  H      3.022801    0.280517   -4.957117
  C      5.105846    0.668022   -5.305463
  C      5.708619    3.468885   -5.324190
  N      6.904696    3.038954   -5.717084
  C      4.981884    4.293570   -6.097457
  H      5.000546    4.101311   -7.087761
  H      4.084693    4.596899   -5.739652
  H      5.963358    2.526112   -3.642391
  H      7.047164    2.066861   -5.473604
  H      7.198145    3.307994   -6.645225
  H      3.282025    2.949187   -4.640259
  H      3.565254    3.514574   -2.982523
  H      4.574833    1.215157   -2.500443
  H      2.843514    1.260845   -2.751465
  O      4.809132    1.150187   -6.414361
  F      6.267366    0.564999   -4.819481

 Total Charge           Charge          ....    0
 Multiplicity           Mult            ....    1
 Number of Electrons    NEL             ....   78
 Basis Dimension        Dim             ....  294

ORBITAL ENERGIES
----------------

  NO   OCC          E(Eh)            E(eV)
   0   2.0000     -24.789541      -674.5577
   1   2.0000     -19.161322      -521.4061
   2   2.0000     -14.340174      -390.2160
   3   2.0000     -14.319687      -389.6585
   4   2.0000     -10.374957      -282.3169
   5   2.0000     -10.227538      -278.3055
   6   2.0000     -10.225029      -278.2372
   7   2.0000     -10.224861      -278.2326
   8   2.0000     -10.215627      -277.9813
   9   2.0000     -10.097534      -274.7679
  10   2.0000      -1.327306       -36.1178
  11   2.0000      -1.044955       -28.4347
  12   2.0000      -0.968113       -26.3437
  13   2.0000      -0.883787       -24.0491
  14   2.0000      -0.812275       -22.1031
  15   2.0000      -0.734323       -19.9819
  16   2.0000      -0.699147       -19.0248
  17   2.0000      -0.680939       -18.5293
  18   2.0000      -0.633303       -17.2331
  19   2.0000      -0.580740       -15.8028
  20   2.0000      -0.574796       -15.6410
  21   2.0000      -0.564362       -15.3571
  22   2.0000      -0.526041       -14.3143
  23   2.0000      -0.511848       -13.9281
  24   2.0000      -0.503131       -13.6909
  25   2.0000      -0.485413       -13.2087
  26   2.0000      -0.481713       -13.1081
  27   2.0000      -0.433934       -11.8079
  28   2.0000      -0.430956       -11.7269
  29   2.0000      -0.407075       -11.0771
  30   2.0000      -0.396572       -10.7913
  31   2.0000      -0.392298       -10.6750
  32   2.0000      -0.385390       -10.4870
  33   2.0000      -0.370335       -10.0773
  34   2.0000      -0.364165        -9.9094
  35   2.0000      -0.334513        -9.1026
  36   2.0000      -0.303712        -8.2644
  37   2.0000      -0.259300        -7.0559
  38   2.0000      -0.174148        -4.7388
  39   0.0000      -0.045584        -1.2404
  40   0.0000       0.003862         0.1051
  41   0.0000       0.032661         0.8887
  42   0.0000       0.034018         0.9257
  43   0.0000       0.044312         1.2058

MULLIKEN ATOMIC CHARGES
-----------------------
   0 C :    0.978130
   1 N :   -0.172903
   2 C :    0.306236
   3 C :    0.484337
   4 H :   -0.166777
   5 H :   -0.068922
   6 C :    0.641197
   7 C :    0.112576
   8 N :    0.255572
   9 C :    0.560382
  10 H :   -0.514752
  11 H :   -0.254035
  12 H :   -0.233600
  13 H :   -0.181204
  14 H :    0.024788
  15 H :   -0.044027
  16 H :   -0.529618
  17 H :   -0.073511
  18 H :   -0.250202
  19 O :   -0.413042
  20 F :   -0.460625
Sum of atomic charges:   -0.0000000

LOEWDIN ATOMIC CHARGES
----------------------
   0 C :    0.077486
   1 N :    0.015952
   2 C :   -0.004369
   3 C :    0.072472
   4 H :    0.027452
   5 H :    0.035540
   6 C :   -0.015063
   7 C :   -0.269537
   8 N :    0.222477
   9 C :    0.176624
  10 H :   -0.097325
  11 H :   -0.110544
  12 H :    0.001425
  13 H :   -0.064979
  14 H :    0.012311
  15 H :    0.023466
  16 H :    0.018009
  17 H :    0.021240
  18 H :    0.023450
  19 O :   -0.112737
  20 F :   -0.053351

  Mayer bond orders larger than 0.100000
B(  0-C ,  1-N ) :   0.8868 B(  0-C ,  2-C ) :   1.1257 B(  0-C , 15-H ) :   0.7193
B(  0-C , 16-H ) :   0.7939 B(  0-C , 18-H ) :   0.2125 B(  1-N ,  2-C ) :   0.1852
B(  1-N ,  7-C ) :   1.2337 B(  1-N ,  9-C ) :   0.2441 B(  1-N , 12-H ) :   0.9639
B(  1-N , 15-H ) :   0.1584 B(  2-C ,  3-C ) :   1.1743 B(  2-C ,  4-H ) :   0.2033
B(  2-C ,  5-H ) :   0.1262 B(  2-C , 17-H ) :   0.7913 B(  2-C , 18-H ) :   0.8487
B(  3-C ,  4-H ) :   0.7508 B(  3-C ,  5-H ) :   0.7890 B(  3-C ,  6-C ) :   1.0873
B(  4-H ,  6-C ) :   0.1182 B(  5-H ,  6-C ) :   0.2556 B(  6-C , 19-O ) :   1.8019
B(  6-C , 20-F ) :   0.5722 B(  7-C ,  8-N ) :   1.0280 B(  7-C ,  9-C ) :   1.8471
B(  7-C , 10-H ) :   0.2294 B(  7-C , 11-H ) :   0.3459 B(  7-C , 12-H ) :  -0.1592
B(  7-C , 13-H ) :   0.1452 B(  7-C , 14-H ) :   0.1123 B(  7-C , 15-H ) :   0.1056
B(  8-N ,  9-C ) :   0.1652 B(  8-N , 13-H ) :   0.8475 B(  8-N , 14-H ) :   0.8975
B(  9-C , 10-H ) :   0.7573 B(  9-C , 11-H ) :   0.4897 B( 10-H , 11-H ) :   0.1598
B( 15-H , 16-H ) :  -0.1410 B( 19-O , 20-F ) :   0.1006

Dispersion correction           -0.037629016
FINAL SINGLE POINT ENERGY      -519.168409092100

DIPOLE MOMENT
-------------
                                X             Y             Z
Electronic contribution:      5.96162      -5.63183      -2.32441
Nuclear contribution   :     -6.29470       4.03423       3.50525
                        -----------------------------------------
Total Dipole Moment    :     -0.33309      -1.59760       1.18085
                        -----------------------------------------
Magnitude (a.u.)       :      2.01437
Magnitude (Debye)      :      5.12012

Rotational constants in cm-1:     0.061094     0.043661     0.033867
Rotational constants in MHz :  1831.559881  1308.929520  1015.295167

                             ****ORCA TERMINATED NORMALLY****
TOTAL RUN TIME: 0 days 0 hours 1 minutes 13 seconds 273 msec
