                         Program Version 5.0.0 -  RELEASE  -
|  1> !TPSS D3BJ RIJCOSX def2-SVPD def2/J TightSCF
|  2> *xyz -1 1
|  3> C          3.76678       -2.26611       -6.51175
|  4> C          2.49670       -1.84416       -5.73570
|  5> H          1.62642       -2.21743       -6.30895
|  6> H          2.48182       -2.45607       -4.79341
|  7> O          2.45973       -0.50920       -5.50576
|  8> H          3.82914       -1.70941       -7.42340
|  9> H          3.71764       -3.31144       -6.73483
| 10> H          4.63199       -2.06931       -5.91377
| 11> *
| 12>
| 13> %MaxCore 64000
| 14>
| 15> %pal nprocs 4
| 16> end
| 17>
| 18> %scf
| 19>   MaxIter 150
| 20> end
| 21>
| 22>
| 23>                          ****END OF INPUT****

CARTESIAN COORDINATES (ANGSTROEM)
---------------------------------
  C      3.766780   -2.266110   -6.511750
  C      2.496700   -1.844160   -5.735700
  H      1.626420   -2.217430   -6.308950
  H      2.481820   -2.456070   -4.793410
  O      2.459730   -0.509200   -5.505760
  H      3.829140   -1.709410   -7.423400
  H      3.717640   -3.311440   -6.734830
  H      4.631990   -2.069310   -5.913770

 Total Charge           Charge          ....   -1
 Multiplicity           Mult            ....    1
 Number of Electrons    NEL             ....   26
 Basis Dimension        Dim             ....  103

ORBITAL ENERGIES
----------------

  NO   OCC          E(Eh)            E(eV)
   0   2.0000     -18.573959      -505.4231
   1   2.0000      -9.816781      -267.1282
   2   2.0000      -9.792790      -266.4754
   3   2.0000      -0.611867       -16.6497
   4   2.0000      -0.463070       -12.6008
   5   2.0000      -0.319192        -8.6857
   6   2.0000      -0.207727        -5.6525
   7   2.0000      -0.186070        -5.0632
   8   2.0000      -0.134215        -3.6522
   9   2.0000      -0.120286        -3.2731
  10   2.0000      -0.074371        -2.0237
  11   2.0000       0.066695         1.8149
  12   2.0000       0.068509         1.8642
  13   0.0000       0.171736         4.6732
  14   0.0000       0.201079         5.4716
  15   0.0000       0.232786         6.3344
  16   0.0000       0.246056         6.6955
  17   0.0000       0.262984         7.1562

MULLIKEN ATOMIC CHARGES
-----------------------
   0 C :    0.150916
   1 C :    0.144011
   2 H :   -0.165946
   3 H :   -0.123649
   4 O :   -0.883403
   5 H :   -0.052550
   6 H :   -0.020832
   7 H :   -0.048549
Sum of atomic charges:   -1.0000000

LOEWDIN ATOMIC CHARGES
----------------------
   0 C :    0.068249
   1 C :   -0.257048
   2 H :   -0.046033
   3 H :   -0.039115
   4 O :   -0.555631
   5 H :   -0.049186
   6 H :   -0.070983
   7 H :   -0.050253

  Mayer bond orders larger than 0.100000
B(  0-C ,  1-C ) :   1.1632 B(  0-C ,  2-H ) :   0.1410 B(  0-C ,  3-H ) :   0.1370
B(  0-C ,  4-O ) :   0.2854 B(  0-C ,  5-H ) :   0.9401 B(  0-C ,  6-H ) :   0.9460
B(  0-C ,  7-H ) :   0.9324 B(  1-C ,  2-H ) :   0.9889 B(  1-C ,  3-H ) :   0.9906
B(  1-C ,  4-O ) :   1.1027 B(  1-C ,  5-H ) :   0.1694 B(  1-C ,  6-H ) :   0.1225
B(  1-C ,  7-H ) :   0.1616

Dispersion correction           -0.004556868
FINAL SINGLE POINT ENERGY      -154.348901097237

DIPOLE MOMENT
-------------
                                X             Y             Z
Electronic contribution:     -1.10472       2.60468       0.98393
Nuclear contribution   :      1.63615      -3.79938      -1.48621
                        -----------------------------------------
Total Dipole Moment    :      0.53144      -1.19470      -0.50228
                        -----------------------------------------
Magnitude (a.u.)       :      1.40072
Magnitude (Debye)      :      3.56036

Rotational constants in cm-1:     1.265582     0.329289     0.289024
Rotational constants in MHz : 37941.194363  9871.829581  8664.719106

                             ****ORCA TERMINATED NORMALLY****
TOTAL RUN TIME: 0 days 0 hours 0 minutes 8 seconds 794 msec
