                         Program Version 5.0.0 -  RELEASE  -
|  1> !TPSS D3BJ RIJCOSX def2-SVPD def2/J TightSCF
|  2> *xyz 1 1
|  3> C          4.99986       -1.59613       -5.92488
|  4> N          5.28156       -1.97413       -4.53576
|  5> C          3.76678       -2.26611       -6.51175
|  6> C          4.79250       -1.36132       -3.45730
|  7> N          3.93990       -0.37492       -3.55736
|  8> N          5.25986       -1.75422       -2.23913
|  9> H          5.92282       -2.52145       -2.18672
| 10> H          4.65468       -1.64040       -1.44202
| 11> H          5.70914       -2.87560       -4.38702
| 12> H          3.33010       -0.31764       -4.36125
| 13> H          3.69849        0.11447       -2.70833
| 14> H          4.84333       -0.51793       -5.94302
| 15> H          5.90170       -1.82250       -6.49647
| 16> H          3.63046       -1.94025       -7.52177
| 17> H          2.90710       -2.00116       -5.93240
| 18> H          3.89538       -3.32820       -6.49392
| 19> *
| 20>
| 21> %MaxCore 64000
| 22>
| 23> %pal nprocs 4
| 24> end
| 25>
| 26> %scf
| 27>   MaxIter 150
| 28> end
| 29>
| 30>
| 31>                          ****END OF INPUT****

CARTESIAN COORDINATES (ANGSTROEM)
---------------------------------
  C      4.999860   -1.596130   -5.924880
  N      5.281560   -1.974130   -4.535760
  C      3.766780   -2.266110   -6.511750
  C      4.792500   -1.361320   -3.457300
  N      3.939900   -0.374920   -3.557360
  N      5.259860   -1.754220   -2.239130
  H      5.922820   -2.521450   -2.186720
  H      4.654680   -1.640400   -1.442020
  H      5.709140   -2.875600   -4.387020
  H      3.330100   -0.317640   -4.361250
  H      3.698490    0.114470   -2.708330
  H      4.843330   -0.517930   -5.943020
  H      5.901700   -1.822500   -6.496470
  H      3.630460   -1.940250   -7.521770
  H      2.907100   -2.001160   -5.932400
  H      3.895380   -3.328200   -6.493920

 Total Charge           Charge          ....    1
 Multiplicity           Mult            ....    1
 Number of Electrons    NEL             ....   48
 Basis Dimension        Dim             ....  200

ORBITAL ENERGIES
----------------

  NO   OCC          E(Eh)            E(eV)
   0   2.0000     -14.345930      -390.3726
   1   2.0000     -14.340339      -390.2205
   2   2.0000     -14.336970      -390.1288
   3   2.0000     -10.324564      -280.9457
   4   2.0000     -10.208133      -277.7774
   5   2.0000     -10.144210      -276.0380
   6   2.0000      -1.139169       -30.9984
   7   2.0000      -1.036622       -28.2079
   8   2.0000      -1.022081       -27.8122
   9   2.0000      -0.870934       -23.6993
  10   2.0000      -0.788246       -21.4493
  11   2.0000      -0.751789       -20.4572
  12   2.0000      -0.741346       -20.1730
  13   2.0000      -0.693181       -18.8624
  14   2.0000      -0.653517       -17.7831
  15   2.0000      -0.649605       -17.6767
  16   2.0000      -0.601625       -16.3711
  17   2.0000      -0.585382       -15.9291
  18   2.0000      -0.568180       -15.4610
  19   2.0000      -0.522572       -14.2199
  20   2.0000      -0.498606       -13.5678
  21   2.0000      -0.481165       -13.0932
  22   2.0000      -0.441931       -12.0256
  23   2.0000      -0.416579       -11.3357
  24   0.0000      -0.203874        -5.5477
  25   0.0000      -0.164989        -4.4896
  26   0.0000      -0.134470        -3.6591
  27   0.0000      -0.123323        -3.3558
  28   0.0000      -0.107216        -2.9175

MULLIKEN ATOMIC CHARGES
-----------------------
   0 C :    0.307041
   1 N :   -0.411065
   2 C :    0.630677
   3 C :    1.300857
   4 N :    0.033863
   5 N :   -0.109707
   6 H :   -0.016362
   7 H :   -0.010129
   8 H :   -0.257825
   9 H :   -0.038438
  10 H :   -0.068471
  11 H :   -0.036726
  12 H :   -0.252712
  13 H :    0.064579
  14 H :   -0.116254
  15 H :   -0.019329
Sum of atomic charges:    1.0000000

LOEWDIN ATOMIC CHARGES
----------------------
   0 C :    0.052273
   1 N :    0.047122
   2 C :    0.168935
   3 C :   -0.039190
   4 N :    0.287277
   5 N :    0.264623
   6 H :    0.032540
   7 H :    0.026563
   8 H :    0.053652
   9 H :    0.027947
  10 H :    0.044355
  11 H :    0.023187
  12 H :    0.038727
  13 H :    0.003261
  14 H :   -0.024056
  15 H :   -0.007214

  Mayer bond orders larger than 0.100000
B(  0-C ,  1-N ) :   0.9012 B(  0-C ,  2-C ) :   1.2523 B(  0-C ,  8-H ) :  -0.2039
B(  0-C , 11-H ) :   0.8665 B(  0-C , 12-H ) :   0.9368 B(  0-C , 13-H ) :   0.1619
B(  0-C , 14-H ) :   0.1923 B(  0-C , 15-H ) :   0.2099 B(  1-N ,  3-C ) :   1.0056
B(  1-N ,  4-N ) :   0.2337 B(  1-N ,  5-N ) :   0.2168 B(  1-N ,  8-H ) :   1.3302
B(  1-N , 11-H ) :   0.1457 B(  1-N , 12-H ) :   0.1483 B(  2-C , 13-H ) :   0.7942
B(  2-C , 14-H ) :   0.8360 B(  2-C , 15-H ) :   0.8167 B(  3-C ,  4-N ) :   1.0469
B(  3-C ,  5-N ) :   0.7875 B(  3-C ,  6-H ) :  -0.1022 B(  3-C ,  8-H ) :  -0.2156
B(  3-C ,  9-H ) :  -0.1184 B(  3-C , 10-H ) :  -0.1078 B(  4-N ,  5-N ) :   0.1772
B(  4-N ,  9-H ) :   1.1240 B(  4-N , 10-H ) :   1.1913 B(  5-N ,  6-H ) :   1.0722
B(  5-N ,  7-H ) :   1.1498 B(  6-H ,  7-H ) :  -0.1260 B(  9-H , 10-H ) :  -0.1671

Dispersion correction           -0.015191775
FINAL SINGLE POINT ENERGY      -284.266421779949

DIPOLE MOMENT
-------------
                                X             Y             Z
Electronic contribution:      1.76047       1.09920       4.71454
Nuclear contribution   :     -1.95709      -1.20097      -3.70214
                        -----------------------------------------
Total Dipole Moment    :     -0.19662      -0.10177       1.01240
                        -----------------------------------------
Magnitude (a.u.)       :      1.03633
Magnitude (Debye)      :      2.63414

Rotational constants in cm-1:     0.241661     0.071598     0.061743
Rotational constants in MHz :  7244.800091  2146.442409  1851.001864

                             ****ORCA TERMINATED NORMALLY****
TOTAL RUN TIME: 0 days 0 hours 0 minutes 17 seconds 233 msec
