                         Program Version 5.0.0 -  RELEASE  -
|  1> !TPSS D3BJ RIJCOSX def2-SVPD def2/J TightSCF
|  2> *xyz 0 1
|  3> C          3.76678       -2.26611       -6.51175
|  4> C          2.49670       -1.84416       -5.73570
|  5> H          1.62642       -2.21743       -6.30895
|  6> H          2.48182       -2.45607       -4.79341
|  7> F          2.45973       -0.50920       -5.50576
|  8> H          3.82914       -1.70941       -7.42340
|  9> H          3.71764       -3.31144       -6.73483
| 10> H          4.63199       -2.06931       -5.91377
| 11> *
| 12>
| 13> %MaxCore 64000
| 14>
| 15> %pal nprocs 4
| 16> end
| 17>
| 18> %scf
| 19>   MaxIter 150
| 20> end
| 21>
| 22>
| 23>                          ****END OF INPUT****

CARTESIAN COORDINATES (ANGSTROEM)
---------------------------------
  C      3.766780   -2.266110   -6.511750
  C      2.496700   -1.844160   -5.735700
  H      1.626420   -2.217430   -6.308950
  H      2.481820   -2.456070   -4.793410
  F      2.459730   -0.509200   -5.505760
  H      3.829140   -1.709410   -7.423400
  H      3.717640   -3.311440   -6.734830
  H      4.631990   -2.069310   -5.913770

 Total Charge           Charge          ....    0
 Multiplicity           Mult            ....    1
 Number of Electrons    NEL             ....   26
 Basis Dimension        Dim             ....  103

ORBITAL ENERGIES
----------------

  NO   OCC          E(Eh)            E(eV)
   0   2.0000     -24.419148      -664.4788
   1   2.0000     -10.081425      -274.3295
   2   2.0000      -9.998890      -272.0836
   3   2.0000      -1.114476       -30.3264
   4   2.0000      -0.700412       -19.0592
   5   2.0000      -0.577063       -15.7027
   6   2.0000      -0.465882       -12.6773
   7   2.0000      -0.449059       -12.2195
   8   2.0000      -0.411969       -11.2103
   9   2.0000      -0.363896        -9.9021
  10   2.0000      -0.362606        -9.8670
  11   2.0000      -0.292038        -7.9468
  12   2.0000      -0.290409        -7.9024
  13   0.0000       0.012861         0.3500
  14   0.0000       0.044257         1.2043
  15   0.0000       0.060726         1.6524
  16   0.0000       0.069018         1.8781
  17   0.0000       0.094794         2.5795

MULLIKEN ATOMIC CHARGES
-----------------------
   0 C :    0.249350
   1 C :    0.384533
   2 H :   -0.058124
   3 H :   -0.018053
   4 F :   -0.447013
   5 H :   -0.047433
   6 H :   -0.021738
   7 H :   -0.041523
Sum of atomic charges:   -0.0000000

LOEWDIN ATOMIC CHARGES
----------------------
   0 C :    0.146211
   1 C :    0.063653
   2 H :    0.022202
   3 H :    0.031477
   4 F :   -0.204303
   5 H :   -0.019807
   6 H :   -0.018930
   7 H :   -0.020503

  Mayer bond orders larger than 0.100000
B(  0-C ,  1-C ) :   1.3247 B(  0-C ,  5-H ) :   0.9117 B(  0-C ,  6-H ) :   0.8777
B(  0-C ,  7-H ) :   0.9071 B(  1-C ,  2-H ) :   0.9517 B(  1-C ,  3-H ) :   0.9478
B(  1-C ,  4-F ) :   0.7334 B(  1-C ,  5-H ) :   0.1322 B(  1-C ,  6-H ) :   0.1083
B(  1-C ,  7-H ) :   0.1268

Dispersion correction           -0.004202250
FINAL SINGLE POINT ENERGY      -178.960103388093

DIPOLE MOMENT
-------------
                                X             Y             Z
Electronic contribution:     -2.07835       4.35597       1.81352
Nuclear contribution   :      2.16248      -5.01128      -1.96962
                        -----------------------------------------
Total Dipole Moment    :      0.08412      -0.65531      -0.15610
                        -----------------------------------------
Magnitude (a.u.)       :      0.67888
Magnitude (Debye)      :      1.72558

Rotational constants in cm-1:     1.244010     0.306580     0.270375
Rotational constants in MHz : 37294.476802  9191.037795  8105.639967

                             ****ORCA TERMINATED NORMALLY****
TOTAL RUN TIME: 0 days 0 hours 0 minutes 7 seconds 234 msec
