                         Program Version 5.0.0 -  RELEASE  -
|  1> !TPSS D3BJ RIJCOSX def2-SVPD def2/J TightSCF
|  2> *xyz 0 1
|  3> C          4.99986       -1.59613       -5.92488
|  4> C          5.28156       -1.97413       -4.53576
|  5> C          3.76678       -2.26611       -6.51175
|  6> C          4.79250       -1.36132       -3.45730
|  7> N          3.93990       -0.37492       -3.55736
|  8> N          5.25986       -1.75422       -2.23913
|  9> H          5.92282       -2.52145       -2.18672
| 10> H          4.65468       -1.64040       -1.44202
| 11> H          5.70914       -2.87560       -4.38702
| 12> H          3.33010       -0.31764       -4.36125
| 13> H          3.69849        0.11447       -2.70833
| 14> H          4.84333       -0.51793       -5.94302
| 15> H          5.90170       -1.82250       -6.49647
| 16> H          3.63046       -1.94025       -7.52177
| 17> H          2.90710       -2.00116       -5.93240
| 18> H          3.89538       -3.32820       -6.49392
| 19> *
| 20>
| 21> %MaxCore 64000
| 22>
| 23> %pal nprocs 4
| 24> end
| 25>
| 26> %scf
| 27>   MaxIter 150
| 28> end
| 29>
| 30>
| 31>                          ****END OF INPUT****

CARTESIAN COORDINATES (ANGSTROEM)
---------------------------------
  C      4.999860   -1.596130   -5.924880
  C      5.281560   -1.974130   -4.535760
  C      3.766780   -2.266110   -6.511750
  C      4.792500   -1.361320   -3.457300
  N      3.939900   -0.374920   -3.557360
  N      5.259860   -1.754220   -2.239130
  H      5.922820   -2.521450   -2.186720
  H      4.654680   -1.640400   -1.442020
  H      5.709140   -2.875600   -4.387020
  H      3.330100   -0.317640   -4.361250
  H      3.698490    0.114470   -2.708330
  H      4.843330   -0.517930   -5.943020
  H      5.901700   -1.822500   -6.496470
  H      3.630460   -1.940250   -7.521770
  H      2.907100   -2.001160   -5.932400
  H      3.895380   -3.328200   -6.493920

 Total Charge           Charge          ....    0
 Multiplicity           Mult            ....    1
 Number of Electrons    NEL             ....   48
 Basis Dimension        Dim             ....  200

ORBITAL ENERGIES
----------------

  NO   OCC          E(Eh)            E(eV)
   0   2.0000     -14.123675      -384.3247
   1   2.0000     -14.115506      -384.1025
   2   2.0000     -10.035562      -273.0815
   3   2.0000      -9.974825      -271.4288
   4   2.0000      -9.971873      -271.3485
   5   2.0000      -9.923884      -270.0426
   6   2.0000      -0.888664       -24.1818
   7   2.0000      -0.802928       -21.8488
   8   2.0000      -0.708610       -19.2823
   9   2.0000      -0.634251       -17.2589
  10   2.0000      -0.561543       -15.2804
  11   2.0000      -0.528047       -14.3689
  12   2.0000      -0.499851       -13.6016
  13   2.0000      -0.458572       -12.4784
  14   2.0000      -0.435968       -11.8633
  15   2.0000      -0.402065       -10.9407
  16   2.0000      -0.374650       -10.1948
  17   2.0000      -0.353195        -9.6109
  18   2.0000      -0.342462        -9.3189
  19   2.0000      -0.312876        -8.5138
  20   2.0000      -0.290312        -7.8998
  21   2.0000      -0.284214        -7.7339
  22   2.0000      -0.225963        -6.1488
  23   2.0000      -0.133400        -3.6300
  24   0.0000      -0.000041        -0.0011
  25   0.0000       0.026869         0.7312
  26   0.0000       0.040092         1.0910
  27   0.0000       0.047105         1.2818
  28   0.0000       0.064215         1.7474

MULLIKEN ATOMIC CHARGES
-----------------------
   0 C :   -0.171379
   1 C :   -0.413879
   2 C :    0.604319
   3 C :    0.885377
   4 N :    0.127056
   5 N :   -0.109705
   6 H :   -0.010895
   7 H :   -0.107571
   8 H :   -0.260356
   9 H :   -0.082251
  10 H :   -0.201016
  11 H :   -0.020677
  12 H :   -0.102007
  13 H :    0.018759
  14 H :   -0.124764
  15 H :   -0.031012
Sum of atomic charges:    0.0000000

LOEWDIN ATOMIC CHARGES
----------------------
   0 C :   -0.092230
   1 C :   -0.023999
   2 C :    0.123968
   3 C :   -0.225627
   4 N :    0.202320
   5 N :    0.181897
   6 H :   -0.001086
   7 H :   -0.026031
   8 H :   -0.056508
   9 H :   -0.002768
  10 H :   -0.004868
  11 H :   -0.000078
  12 H :    0.009261
  13 H :   -0.028284
  14 H :   -0.034022
  15 H :   -0.021945

  Mayer bond orders larger than 0.100000
B(  0-C ,  1-C ) :   1.1593 B(  0-C ,  2-C ) :   1.2030 B(  0-C ,  8-H ) :   0.2272
B(  0-C , 11-H ) :   0.8585 B(  0-C , 12-H ) :   0.8984 B(  0-C , 13-H ) :   0.1584
B(  0-C , 14-H ) :   0.1980 B(  0-C , 15-H ) :   0.2213 B(  1-C ,  3-C ) :   1.5013
B(  1-C ,  4-N ) :   0.3099 B(  1-C ,  5-N ) :   0.3532 B(  1-C ,  8-H ) :   0.9405
B(  1-C , 11-H ) :   0.2736 B(  1-C , 12-H ) :   0.1549 B(  2-C , 13-H ) :   0.8153
B(  2-C , 14-H ) :   0.8535 B(  2-C , 15-H ) :   0.8241 B(  3-C ,  4-N ) :   1.0642
B(  3-C ,  5-N ) :   0.6989 B(  3-C ,  8-H ) :   0.1146 B(  3-C , 10-H ) :  -0.1091
B(  3-C , 11-H ) :  -0.1123 B(  4-N ,  5-N ) :   0.1105 B(  4-N ,  9-H ) :   1.0919
B(  4-N , 10-H ) :   1.2544 B(  5-N ,  6-H ) :   1.0648 B(  5-N ,  7-H ) :   1.1587
B(  6-H ,  7-H ) :  -0.1109 B(  9-H , 10-H ) :  -0.1530

Dispersion correction           -0.015813573
FINAL SINGLE POINT ENERGY      -267.792275301770

DIPOLE MOMENT
-------------
                                X             Y             Z
Electronic contribution:      1.24573       1.39259       4.51225
Nuclear contribution   :     -1.82485      -1.28952      -3.74132
                        -----------------------------------------
Total Dipole Moment    :     -0.57912       0.10307       0.77093
                        -----------------------------------------
Magnitude (a.u.)       :      0.96971
Magnitude (Debye)      :      2.46481

Rotational constants in cm-1:     0.245790     0.071632     0.062004
Rotational constants in MHz :  7368.599517  2147.482078  1858.844841

                             ****ORCA TERMINATED NORMALLY****
TOTAL RUN TIME: 0 days 0 hours 0 minutes 17 seconds 793 msec
