                         Program Version 5.0.0 -  RELEASE  -
|  1> !TPSS D3BJ RIJCOSX def2-SVPD def2/J TightSCF
|  2> *xyz 0 1
|  3> C          4.99986       -1.59613       -5.92488
|  4> N          5.28156       -1.97413       -4.53576
|  5> C          3.76678       -2.26611       -6.51175
|  6> C          4.79250       -1.36132       -3.45730
|  7> C          3.93990       -0.37492       -3.55736
|  8> N          5.25986       -1.75422       -2.23913
|  9> H          5.92282       -2.52145       -2.18672
| 10> H          4.65468       -1.64040       -1.44202
| 11> H          5.70914       -2.87560       -4.38702
| 12> H          3.33010       -0.31764       -4.36125
| 13> H          3.69849        0.11447       -2.70833
| 14> H          4.84333       -0.51793       -5.94302
| 15> H          5.90170       -1.82250       -6.49647
| 16> H          3.63046       -1.94025       -7.52177
| 17> H          2.90710       -2.00116       -5.93240
| 18> H          3.89538       -3.32820       -6.49392
| 19> *
| 20>
| 21> %MaxCore 64000
| 22>
| 23> %pal nprocs 4
| 24> end
| 25>
| 26> %scf
| 27>   MaxIter 150
| 28> end
| 29>
| 30>
| 31>                          ****END OF INPUT****

CARTESIAN COORDINATES (ANGSTROEM)
---------------------------------
  C      4.999860   -1.596130   -5.924880
  N      5.281560   -1.974130   -4.535760
  C      3.766780   -2.266110   -6.511750
  C      4.792500   -1.361320   -3.457300
  C      3.939900   -0.374920   -3.557360
  N      5.259860   -1.754220   -2.239130
  H      5.922820   -2.521450   -2.186720
  H      4.654680   -1.640400   -1.442020
  H      5.709140   -2.875600   -4.387020
  H      3.330100   -0.317640   -4.361250
  H      3.698490    0.114470   -2.708330
  H      4.843330   -0.517930   -5.943020
  H      5.901700   -1.822500   -6.496470
  H      3.630460   -1.940250   -7.521770
  H      2.907100   -2.001160   -5.932400
  H      3.895380   -3.328200   -6.493920

 Total Charge           Charge          ....    0
 Multiplicity           Mult            ....    1
 Number of Electrons    NEL             ....   48
 Basis Dimension        Dim             ....  200

ORBITAL ENERGIES
----------------

  NO   OCC          E(Eh)            E(eV)
   0   2.0000     -14.118314      -384.1788
   1   2.0000     -14.116008      -384.1161
   2   2.0000     -10.036518      -273.1075
   3   2.0000     -10.032072      -272.9866
   4   2.0000      -9.988214      -271.7931
   5   2.0000      -9.915424      -269.8124
   6   2.0000      -0.887495       -24.1500
   7   2.0000      -0.809665       -22.0321
   8   2.0000      -0.694236       -18.8911
   9   2.0000      -0.654472       -17.8091
  10   2.0000      -0.583156       -15.8685
  11   2.0000      -0.514896       -14.0110
  12   2.0000      -0.496101       -13.4996
  13   2.0000      -0.467252       -12.7146
  14   2.0000      -0.415992       -11.3197
  15   2.0000      -0.404991       -11.0204
  16   2.0000      -0.381762       -10.3883
  17   2.0000      -0.357750        -9.7349
  18   2.0000      -0.345200        -9.3934
  19   2.0000      -0.334943        -9.1143
  20   2.0000      -0.317436        -8.6379
  21   2.0000      -0.307649        -8.3715
  22   2.0000      -0.211753        -5.7621
  23   2.0000      -0.142617        -3.8808
  24   0.0000       0.002323         0.0632
  25   0.0000       0.027349         0.7442
  26   0.0000       0.035841         0.9753
  27   0.0000       0.044622         1.2142
  28   0.0000       0.059752         1.6259

MULLIKEN ATOMIC CHARGES
-----------------------
   0 C :    0.254128
   1 N :   -0.374298
   2 C :    0.643989
   3 C :    0.827800
   4 C :    0.162708
   5 N :   -0.034344
   6 H :   -0.140463
   7 H :   -0.034722
   8 H :   -0.367146
   9 H :   -0.215120
  10 H :   -0.302525
  11 H :    0.044046
  12 H :   -0.302893
  13 H :    0.026021
  14 H :   -0.145925
  15 H :   -0.041254
Sum of atomic charges:    0.0000000

LOEWDIN ATOMIC CHARGES
----------------------
   0 C :    0.026072
   1 N :   -0.020737
   2 C :    0.142635
   3 C :   -0.234054
   4 C :    0.157164
   5 N :    0.187196
   6 H :   -0.017833
   7 H :   -0.007050
   8 H :    0.012554
   9 H :   -0.104446
  10 H :   -0.095080
  11 H :    0.013195
  12 H :    0.013019
  13 H :   -0.020522
  14 H :   -0.027319
  15 H :   -0.024795

  Mayer bond orders larger than 0.100000
B(  0-C ,  1-N ) :   0.8914 B(  0-C ,  2-C ) :   1.2132 B(  0-C ,  4-C ) :   0.1283
B(  0-C ,  8-H ) :  -0.1920 B(  0-C , 11-H ) :   0.8451 B(  0-C , 12-H ) :   0.9702
B(  0-C , 13-H ) :   0.1775 B(  0-C , 14-H ) :   0.1937 B(  0-C , 15-H ) :   0.2027
B(  1-N ,  3-C ) :   0.9125 B(  1-N ,  4-C ) :   0.3765 B(  1-N ,  5-N ) :   0.1493
B(  1-N ,  8-H ) :   1.3747 B(  1-N , 11-H ) :   0.1287 B(  1-N , 12-H ) :   0.1468
B(  2-C , 13-H ) :   0.7920 B(  2-C , 14-H ) :   0.8746 B(  2-C , 15-H ) :   0.8180
B(  3-C ,  4-C ) :   1.6091 B(  3-C ,  5-N ) :   0.7979 B(  3-C ,  8-H ) :  -0.2417
B(  3-C ,  9-H ) :   0.1622 B(  3-C , 10-H ) :   0.2813 B(  4-C ,  5-N ) :   0.3097
B(  4-C ,  9-H ) :   0.7190 B(  4-C , 10-H ) :   0.7835 B(  5-N ,  6-H ) :   1.0886
B(  5-N ,  7-H ) :   1.1185 B(  6-H ,  7-H ) :  -0.1141 B(  9-H , 11-H ) :   0.1128

Dispersion correction           -0.015758979
FINAL SINGLE POINT ENERGY      -267.787054213660

DIPOLE MOMENT
-------------
                                X             Y             Z
Electronic contribution:      2.40559      -0.06396       3.50208
Nuclear contribution   :     -2.10948      -0.95026      -3.53375
                        -----------------------------------------
Total Dipole Moment    :      0.29611      -1.01422      -0.03168
                        -----------------------------------------
Magnitude (a.u.)       :      1.05704
Magnitude (Debye)      :      2.68678

Rotational constants in cm-1:     0.255209     0.072067     0.062929
Rotational constants in MHz :  7650.964615  2160.525743  1886.569524

                             ****ORCA TERMINATED NORMALLY****
TOTAL RUN TIME: 0 days 0 hours 0 minutes 18 seconds 387 msec
