                         Program Version 5.0.0 -  RELEASE  -
|  1> !TPSS D3BJ RIJCOSX def2-SVPD def2/J TightSCF
|  2> *xyz 0 1
|  3> C          4.99986       -1.59613       -5.92488
|  4> N          5.28156       -1.97413       -4.53576
|  5> C          3.76678       -2.26611       -6.51175
|  6> C          4.79250       -1.36132       -3.45730
|  7> N          3.93990       -0.37492       -3.55736
|  8> C          5.25986       -1.75422       -2.23913
|  9> H          5.92282       -2.52145       -2.18672
| 10> H          4.65468       -1.64040       -1.44202
| 11> H          5.70914       -2.87560       -4.38702
| 12> H          3.33010       -0.31764       -4.36125
| 13> H          3.69849        0.11447       -2.70833
| 14> H          4.84333       -0.51793       -5.94302
| 15> H          5.90170       -1.82250       -6.49647
| 16> H          3.63046       -1.94025       -7.52177
| 17> H          2.90710       -2.00116       -5.93240
| 18> H          3.89538       -3.32820       -6.49392
| 19> *
| 20>
| 21> %MaxCore 64000
| 22>
| 23> %pal nprocs 4
| 24> end
| 25>
| 26> %scf
| 27>   MaxIter 150
| 28> end
| 29>
| 30>
| 31>                          ****END OF INPUT****

CARTESIAN COORDINATES (ANGSTROEM)
---------------------------------
  C      4.999860   -1.596130   -5.924880
  N      5.281560   -1.974130   -4.535760
  C      3.766780   -2.266110   -6.511750
  C      4.792500   -1.361320   -3.457300
  N      3.939900   -0.374920   -3.557360
  C      5.259860   -1.754220   -2.239130
  H      5.922820   -2.521450   -2.186720
  H      4.654680   -1.640400   -1.442020
  H      5.709140   -2.875600   -4.387020
  H      3.330100   -0.317640   -4.361250
  H      3.698490    0.114470   -2.708330
  H      4.843330   -0.517930   -5.943020
  H      5.901700   -1.822500   -6.496470
  H      3.630460   -1.940250   -7.521770
  H      2.907100   -2.001160   -5.932400
  H      3.895380   -3.328200   -6.493920

 Total Charge           Charge          ....    0
 Multiplicity           Mult            ....    1
 Number of Electrons    NEL             ....   48
 Basis Dimension        Dim             ....  200

ORBITAL ENERGIES
----------------

  NO   OCC          E(Eh)            E(eV)
   0   2.0000     -14.122967      -384.3055
   1   2.0000     -14.118269      -384.1776
   2   2.0000     -10.040563      -273.2176
   3   2.0000     -10.039904      -273.1997
   4   2.0000      -9.998757      -272.0800
   5   2.0000      -9.911103      -269.6948
   6   2.0000      -0.897207       -24.4142
   7   2.0000      -0.820050       -22.3147
   8   2.0000      -0.710284       -19.3278
   9   2.0000      -0.636444       -17.3185
  10   2.0000      -0.574517       -15.6334
  11   2.0000      -0.553215       -15.0537
  12   2.0000      -0.498971       -13.5777
  13   2.0000      -0.455610       -12.3978
  14   2.0000      -0.440705       -11.9922
  15   2.0000      -0.405944       -11.0463
  16   2.0000      -0.388231       -10.5643
  17   2.0000      -0.364759        -9.9256
  18   2.0000      -0.346423        -9.4267
  19   2.0000      -0.329465        -8.9652
  20   2.0000      -0.328909        -8.9501
  21   2.0000      -0.308850        -8.4042
  22   2.0000      -0.218389        -5.9427
  23   2.0000      -0.129783        -3.5316
  24   0.0000      -0.001967        -0.0535
  25   0.0000       0.029722         0.8088
  26   0.0000       0.032523         0.8850
  27   0.0000       0.039829         1.0838
  28   0.0000       0.052572         1.4306

MULLIKEN ATOMIC CHARGES
-----------------------
   0 C :    0.303622
   1 N :   -0.276515
   2 C :    0.619118
   3 C :    0.499361
   4 N :    0.133853
   5 C :    0.360730
   6 H :   -0.185730
   7 H :   -0.391021
   8 H :   -0.311738
   9 H :   -0.134767
  10 H :   -0.090692
  11 H :   -0.064912
  12 H :   -0.315923
  13 H :    0.028664
  14 H :   -0.126593
  15 H :   -0.047457
Sum of atomic charges:   -0.0000000

LOEWDIN ATOMIC CHARGES
----------------------
   0 C :    0.019077
   1 N :   -0.008139
   2 C :    0.138371
   3 C :   -0.239212
   4 N :    0.201064
   5 C :    0.146517
   6 H :   -0.110976
   7 H :   -0.117881
   8 H :    0.028596
   9 H :   -0.016691
  10 H :    0.012447
  11 H :    0.006918
  12 H :    0.013538
  13 H :   -0.020947
  14 H :   -0.031451
  15 H :   -0.021230

  Mayer bond orders larger than 0.100000
B(  0-C ,  1-N ) :   0.9047 B(  0-C ,  2-C ) :   1.2200 B(  0-C ,  8-H ) :  -0.2184
B(  0-C , 11-H ) :   0.8828 B(  0-C , 12-H ) :   0.9400 B(  0-C , 13-H ) :   0.1716
B(  0-C , 14-H ) :   0.2084 B(  0-C , 15-H ) :   0.2208 B(  1-N ,  3-C ) :   1.0388
B(  1-N ,  4-N ) :   0.1851 B(  1-N ,  5-C ) :   0.2430 B(  1-N ,  8-H ) :   1.2703
B(  1-N , 11-H ) :   0.1451 B(  1-N , 12-H ) :   0.1577 B(  2-C , 13-H ) :   0.8077
B(  2-C , 14-H ) :   0.8386 B(  2-C , 15-H ) :   0.8196 B(  3-C ,  4-N ) :   1.0932
B(  3-C ,  5-C ) :   1.5911 B(  3-C ,  6-H ) :   0.1793 B(  3-C ,  7-H ) :   0.1992
B(  3-C ,  8-H ) :  -0.1761 B(  4-N ,  5-C ) :   0.2202 B(  4-N ,  9-H ) :   1.1099
B(  4-N , 10-H ) :   1.1790 B(  5-C ,  6-H ) :   0.7918 B(  5-C ,  7-H ) :   0.8075
B(  6-H ,  7-H ) :   0.1667 B(  9-H , 10-H ) :  -0.1554

Dispersion correction           -0.015658555
FINAL SINGLE POINT ENERGY      -267.781991157176

DIPOLE MOMENT
-------------
                                X             Y             Z
Electronic contribution:      1.17497       1.25097       2.17085
Nuclear contribution   :     -1.82946      -1.24287      -3.25410
                        -----------------------------------------
Total Dipole Moment    :     -0.65448       0.00810      -1.08325
                        -----------------------------------------
Magnitude (a.u.)       :      1.26564
Magnitude (Debye)      :      3.21700

Rotational constants in cm-1:     0.244672     0.074506     0.064043
Rotational constants in MHz :  7335.067153  2233.624025  1919.970379

                             ****ORCA TERMINATED NORMALLY****
TOTAL RUN TIME: 0 days 0 hours 0 minutes 17 seconds 735 msec
