                         Program Version 5.0.0 -  RELEASE  -
|  1> !wB97X-D3 RIJCOSX def2-SVP def2/J TightSCF
|  2> *xyz -1 1
|  3> C          2.49556        1.81615       -2.13636
|  4> C          1.87218        0.42790       -2.07750
|  5> H          2.61427       -0.36583       -2.19889
|  6> H          1.38995        0.27309       -1.11236
|  7> S          0.57902        0.14047       -3.29794
|  8> O          0.22886       -1.24687       -3.12787
|  9> O         -0.43927        1.11897       -3.01455
| 10> O          1.24788        0.40347       -4.59565
| 11> H          2.96535        1.95613       -3.08747
| 12> H          3.22581        1.91242       -1.36024
| 13> H          1.73350        2.55528       -2.00274
| 14> *
| 15>
| 16> %MaxCore 64000
| 17>
| 18> %pal nprocs 4
| 19> end
| 20>
| 21> %scf
| 22>   MaxIter 150
| 23> end
| 24>
| 25>
| 26>                          ****END OF INPUT****

CARTESIAN COORDINATES (ANGSTROEM)
---------------------------------
  C      2.495560    1.816150   -2.136360
  C      1.872180    0.427900   -2.077500
  H      2.614270   -0.365830   -2.198890
  H      1.389950    0.273090   -1.112360
  S      0.579020    0.140470   -3.297940
  O      0.228860   -1.246870   -3.127870
  O     -0.439270    1.118970   -3.014550
  O      1.247880    0.403470   -4.595650
  H      2.965350    1.956130   -3.087470
  H      3.225810    1.912420   -1.360240
  H      1.733500    2.555280   -2.002740

 Total Charge           Charge          ....   -1
 Multiplicity           Mult            ....    1
 Number of Electrons    NEL             ....   58
 Basis Dimension        Dim             ....  113

ORBITAL ENERGIES
----------------

  NO   OCC          E(Eh)            E(eV)
   0   2.0000     -88.937822     -2420.1212
   1   2.0000     -18.992007      -516.7988
   2   2.0000     -18.991835      -516.7941
   3   2.0000     -18.975128      -516.3395
   4   2.0000     -10.137329      -275.8507
   5   2.0000     -10.133333      -275.7420
   6   2.0000      -8.018547      -218.1958
   7   2.0000      -5.977496      -162.6559
   8   2.0000      -5.977366      -162.6524
   9   2.0000      -5.977347      -162.6519
  10   2.0000      -1.022868       -27.8336
  11   2.0000      -0.881766       -23.9941
  12   2.0000      -0.853094       -23.2139
  13   2.0000      -0.732707       -19.9380
  14   2.0000      -0.601597       -16.3703
  15   2.0000      -0.467345       -12.7171
  16   2.0000      -0.408861       -11.1257
  17   2.0000      -0.401585       -10.9277
  18   2.0000      -0.361658        -9.8412
  19   2.0000      -0.343619        -9.3503
  20   2.0000      -0.337386        -9.1807
  21   2.0000      -0.314813        -8.5665
  22   2.0000      -0.295560        -8.0426
  23   2.0000      -0.223101        -6.0709
  24   2.0000      -0.220947        -6.0123
  25   2.0000      -0.187439        -5.1005
  26   2.0000      -0.176236        -4.7956
  27   2.0000      -0.166183        -4.5221
  28   2.0000      -0.131287        -3.5725
  29   0.0000       0.290236         7.8977
  30   0.0000       0.341859         9.3025
  31   0.0000       0.347936         9.4678
  32   0.0000       0.355678         9.6785
  33   0.0000       0.385397        10.4872

MULLIKEN ATOMIC CHARGES
-----------------------
   0 C :   -0.004938
   1 C :   -0.133456
   2 H :    0.015694
   3 H :    0.007973
   4 S :    0.879475
   5 O :   -0.579125
   6 O :   -0.580755
   7 O :   -0.627694
   8 H :    0.022368
   9 H :   -0.019917
  10 H :    0.020375
Sum of atomic charges:   -1.0000000

LOEWDIN ATOMIC CHARGES
----------------------
   0 C :   -0.076257
   1 C :   -0.191510
   2 H :    0.009314
   3 H :    0.005189
   4 S :    1.098784
   5 O :   -0.611820
   6 O :   -0.612578
   7 O :   -0.660687
   8 H :    0.018520
   9 H :    0.002513
  10 H :    0.018530

  Mayer bond orders larger than 0.100000
B(  0-C ,  1-C ) :   1.0455 B(  0-C ,  8-H ) :   0.9701 B(  0-C ,  9-H ) :   0.9683
B(  0-C , 10-H ) :   0.9703 B(  1-C ,  2-H ) :   0.9500 B(  1-C ,  3-H ) :   0.9472
B(  1-C ,  4-S ) :   0.9021 B(  4-S ,  5-O ) :   1.6452 B(  4-S ,  6-O ) :   1.6318
B(  4-S ,  7-O ) :   1.5846

Dispersion correction           -0.002932987
FINAL SINGLE POINT ENERGY      -702.638396195873

DIPOLE MOMENT
-------------
                                X             Y             Z
Electronic contribution:     -5.75750      -3.63157      -4.14028
Nuclear contribution   :      6.89220       4.11756       5.35566
                        -----------------------------------------
Total Dipole Moment    :      1.13470       0.48599       1.21538
                        -----------------------------------------
Magnitude (a.u.)       :      1.73230
Magnitude (Debye)      :      4.40317

Rotational constants in cm-1:     0.162183     0.084017     0.082390
Rotational constants in MHz :  4862.117324  2518.774315  2469.980309

                             ****ORCA TERMINATED NORMALLY****
TOTAL RUN TIME: 0 days 0 hours 0 minutes 18 seconds 88 msec
