                         Program Version 5.0.0 -  RELEASE  -
|  1> !wB97X-D3 RIJCOSX def2-SVP def2/J TightSCF
|  2> *xyz 1 1
|  3> C          3.38093        2.08304       -3.35013
|  4> N          4.53592        1.18245       -3.42852
|  5> C          2.49556        1.81615       -2.13636
|  6> C          4.67196        0.12227       -4.22060
|  7> N          5.86602       -0.50785       -4.22428
|  8> N          3.69888       -0.31284       -4.98699
|  9> H          2.73141       -0.05009       -4.84900
| 10> H          3.89005       -1.05517       -5.64373
| 11> H          5.25193        1.30346       -2.72101
| 12> H          6.69516       -0.06232       -3.85160
| 13> H          5.97538       -1.39688       -4.69141
| 14> H          2.80646        1.98651       -4.26848
| 15> H          3.77871        3.09828       -3.30738
| 16> H          2.11090        0.81901       -2.18783
| 17> H          1.68276        2.51198       -2.12786
| 18> H          3.07216        1.93031       -1.24227
| 19> *
| 20>
| 21> %MaxCore 64000
| 22>
| 23> %pal nprocs 4
| 24> end
| 25>
| 26> %scf
| 27>   MaxIter 150
| 28> end
| 29>
| 30>
| 31>                          ****END OF INPUT****

CARTESIAN COORDINATES (ANGSTROEM)
---------------------------------
  C      3.380930    2.083040   -3.350130
  N      4.535920    1.182450   -3.428520
  C      2.495560    1.816150   -2.136360
  C      4.671960    0.122270   -4.220600
  N      5.866020   -0.507850   -4.224280
  N      3.698880   -0.312840   -4.986990
  H      2.731410   -0.050090   -4.849000
  H      3.890050   -1.055170   -5.643730
  H      5.251930    1.303460   -2.721010
  H      6.695160   -0.062320   -3.851600
  H      5.975380   -1.396880   -4.691410
  H      2.806460    1.986510   -4.268480
  H      3.778710    3.098280   -3.307380
  H      2.110900    0.819010   -2.187830
  H      1.682760    2.511980   -2.127860
  H      3.072160    1.930310   -1.242270

 Total Charge           Charge          ....    1
 Multiplicity           Mult            ....    1
 Number of Electrons    NEL             ....   48
 Basis Dimension        Dim             ....  134

ORBITAL ENERGIES
----------------

  NO   OCC          E(Eh)            E(eV)
   0   2.0000     -14.662415      -398.9846
   1   2.0000     -14.656081      -398.8122
   2   2.0000     -14.654011      -398.7559
   3   2.0000     -10.627667      -289.1935
   4   2.0000     -10.493819      -285.5513
   5   2.0000     -10.422730      -283.6169
   6   2.0000      -1.323977       -36.0272
   7   2.0000      -1.211267       -32.9603
   8   2.0000      -1.195364       -32.5275
   9   2.0000      -1.038024       -28.2461
  10   2.0000      -0.945189       -25.7199
  11   2.0000      -0.906927       -24.6787
  12   2.0000      -0.890373       -24.2283
  13   2.0000      -0.843948       -22.9650
  14   2.0000      -0.796117       -21.6634
  15   2.0000      -0.791780       -21.5454
  16   2.0000      -0.741711       -20.1830
  17   2.0000      -0.732713       -19.9381
  18   2.0000      -0.701695       -19.0941
  19   2.0000      -0.654445       -17.8084
  20   2.0000      -0.623960       -16.9788
  21   2.0000      -0.606973       -16.5166
  22   2.0000      -0.571129       -15.5412
  23   2.0000      -0.537031       -14.6134
  24   0.0000      -0.073912        -2.0112
  25   0.0000      -0.046000        -1.2517
  26   0.0000      -0.012620        -0.3434
  27   0.0000      -0.002617        -0.0712
  28   0.0000       0.013215         0.3596

MULLIKEN ATOMIC CHARGES
-----------------------
   0 C :   -0.003323
   1 N :   -0.184610
   2 C :   -0.025417
   3 C :    0.120136
   4 N :   -0.103608
   5 N :   -0.060539
   6 H :    0.189998
   7 H :    0.183169
   8 H :    0.178190
   9 H :    0.186497
  10 H :    0.181362
  11 H :    0.061963
  12 H :    0.093655
  13 H :    0.039440
  14 H :    0.083527
  15 H :    0.059560
Sum of atomic charges:    1.0000000

LOEWDIN ATOMIC CHARGES
----------------------
   0 C :    0.042826
   1 N :    0.016209
   2 C :   -0.049578
   3 C :    0.159548
   4 N :    0.023265
   5 N :    0.052601
   6 H :    0.114552
   7 H :    0.114555
   8 H :    0.107902
   9 H :    0.112670
  10 H :    0.109097
  11 H :    0.032485
  12 H :    0.049782
  13 H :    0.027716
  14 H :    0.049972
  15 H :    0.036398

  Mayer bond orders larger than 0.100000
B(  0-C ,  1-N ) :   0.9086 B(  0-C ,  2-C ) :   1.0820 B(  0-C , 11-H ) :   0.9605
B(  0-C , 12-H ) :   0.9528 B(  1-N ,  3-C ) :   1.3774 B(  1-N ,  8-H ) :   0.9102
B(  2-C , 13-H ) :   0.9712 B(  2-C , 14-H ) :   0.9675 B(  2-C , 15-H ) :   0.9714
B(  3-C ,  4-N ) :   1.3667 B(  3-C ,  5-N ) :   1.4142 B(  4-N ,  9-H ) :   0.9260
B(  4-N , 10-H ) :   0.9299 B(  5-N ,  6-H ) :   0.9216 B(  5-N ,  7-H ) :   0.9238

Dispersion correction           -0.003697503
FINAL SINGLE POINT ENERGY      -284.120602204386

DIPOLE MOMENT
-------------
                                X             Y             Z
Electronic contribution:      3.61141      -2.71914      -2.86005
Nuclear contribution   :     -2.93277       1.85779       2.25966
                        -----------------------------------------
Total Dipole Moment    :      0.67864      -0.86135      -0.60039
                        -----------------------------------------
Magnitude (a.u.)       :      1.25018
Magnitude (Debye)      :      3.17770

Rotational constants in cm-1:     0.245511     0.068839     0.059711
Rotational constants in MHz :  7360.233487  2063.743353  1790.088408

                             ****ORCA TERMINATED NORMALLY****
TOTAL RUN TIME: 0 days 0 hours 0 minutes 24 seconds 672 msec
