                         Program Version 5.0.0 -  RELEASE  -
|  1> !wB97X-D3 RIJCOSX def2-SVP def2/J TightSCF
|  2> *xyz 0 1
|  3> C          2.49556        1.81615       -2.13636
|  4> C          1.87218        0.42790       -2.07750
|  5> H          2.61427       -0.36583       -2.19889
|  6> H          1.38995        0.27309       -1.11236
|  7> S          0.57902        0.14047       -3.29794
|  8> F          0.22886       -1.24687       -3.12787
|  9> O         -0.43927        1.11897       -3.01455
| 10> O          1.24788        0.40347       -4.59565
| 11> H          2.96535        1.95613       -3.08747
| 12> H          3.22581        1.91242       -1.36024
| 13> H          1.73350        2.55528       -2.00274
| 14> *
| 15>
| 16> %MaxCore 64000
| 17>
| 18> %pal nprocs 4
| 19> end
| 20>
| 21> %scf
| 22>   MaxIter 150
| 23> end
| 24>
| 25>
| 26>                          ****END OF INPUT****

CARTESIAN COORDINATES (ANGSTROEM)
---------------------------------
  C      2.495560    1.816150   -2.136360
  C      1.872180    0.427900   -2.077500
  H      2.614270   -0.365830   -2.198890
  H      1.389950    0.273090   -1.112360
  S      0.579020    0.140470   -3.297940
  F      0.228860   -1.246870   -3.127870
  O     -0.439270    1.118970   -3.014550
  O      1.247880    0.403470   -4.595650
  H      2.965350    1.956130   -3.087470
  H      3.225810    1.912420   -1.360240
  H      1.733500    2.555280   -2.002740

 Total Charge           Charge          ....    0
 Multiplicity           Mult            ....    1
 Number of Electrons    NEL             ....   58
 Basis Dimension        Dim             ....  113

ORBITAL ENERGIES
----------------

  NO   OCC          E(Eh)            E(eV)
   0   2.0000     -89.212896     -2427.6063
   1   2.0000     -24.910123      -677.8389
   2   2.0000     -19.244118      -523.6591
   3   2.0000     -19.227680      -523.2118
   4   2.0000     -10.346052      -281.5304
   5   2.0000     -10.306059      -280.4421
   6   2.0000      -8.296052      -225.7470
   7   2.0000      -6.259181      -170.3210
   8   2.0000      -6.252547      -170.1405
   9   2.0000      -6.251354      -170.1080
  10   2.0000      -1.490811       -40.5670
  11   2.0000      -1.217328       -33.1252
  12   2.0000      -1.107135       -30.1267
  13   2.0000      -0.932220       -25.3670
  14   2.0000      -0.842998       -22.9391
  15   2.0000      -0.781003       -21.2522
  16   2.0000      -0.692014       -18.8307
  17   2.0000      -0.691004       -18.8032
  18   2.0000      -0.653801       -17.7908
  19   2.0000      -0.594603       -16.1800
  20   2.0000      -0.580080       -15.7848
  21   2.0000      -0.533844       -14.5266
  22   2.0000      -0.525691       -14.3048
  23   2.0000      -0.505102       -13.7445
  24   2.0000      -0.480924       -13.0866
  25   2.0000      -0.476860       -12.9760
  26   2.0000      -0.420978       -11.4554
  27   2.0000      -0.405778       -11.0418
  28   2.0000      -0.390275       -10.6199
  29   0.0000       0.124472         3.3871
  30   0.0000       0.134506         3.6601
  31   0.0000       0.163089         4.4379
  32   0.0000       0.173643         4.7251
  33   0.0000       0.185304         5.0424

MULLIKEN ATOMIC CHARGES
-----------------------
   0 C :   -0.021710
   1 C :   -0.169390
   2 H :    0.080688
   3 H :    0.075707
   4 S :    0.955210
   5 F :   -0.172384
   6 O :   -0.442156
   7 O :   -0.488612
   8 H :    0.066136
   9 H :    0.053664
  10 H :    0.062848
Sum of atomic charges:   -0.0000000

LOEWDIN ATOMIC CHARGES
----------------------
   0 C :   -0.049955
   1 C :   -0.156201
   2 H :    0.035568
   3 H :    0.032820
   4 S :    1.157578
   5 F :   -0.115546
   6 O :   -0.483816
   7 O :   -0.531901
   8 H :    0.037246
   9 H :    0.037410
  10 H :    0.036796

  Mayer bond orders larger than 0.100000
B(  0-C ,  1-C ) :   1.0569 B(  0-C ,  8-H ) :   0.9727 B(  0-C ,  9-H ) :   0.9683
B(  0-C , 10-H ) :   0.9722 B(  1-C ,  2-H ) :   0.9359 B(  1-C ,  3-H ) :   0.9352
B(  1-C ,  4-S ) :   0.9271 B(  4-S ,  5-F ) :   1.0283 B(  4-S ,  6-O ) :   1.7833
B(  4-S ,  7-O ) :   1.7374

Dispersion correction           -0.002931511
FINAL SINGLE POINT ENERGY      -727.135369765039

DIPOLE MOMENT
-------------
                                X             Y             Z
Electronic contribution:     -6.84692      -6.44934      -4.09587
Nuclear contribution   :      7.60530       5.82028       5.38743
                        -----------------------------------------
Total Dipole Moment    :      0.75837      -0.62906       1.29156
                        -----------------------------------------
Magnitude (a.u.)       :      1.62449
Magnitude (Debye)      :      4.12913

Rotational constants in cm-1:     0.157861     0.081452     0.078859
Rotational constants in MHz :  4732.562506  2441.865430  2364.129821

                             ****ORCA TERMINATED NORMALLY****
TOTAL RUN TIME: 0 days 0 hours 0 minutes 18 seconds 398 msec
