                         Program Version 5.0.0 -  RELEASE  -
|  1> !wB97X-D3 RIJCOSX def2-SVP def2/J TightSCF
|  2> *xyz 0 1
|  3> C          3.38093        2.08304       -3.35013
|  4> C          4.53592        1.18245       -3.42852
|  5> C          2.49556        1.81615       -2.13636
|  6> C          4.67196        0.12227       -4.22060
|  7> N          5.86602       -0.50785       -4.22428
|  8> N          3.69888       -0.31284       -4.98699
|  9> H          2.73141       -0.05009       -4.84900
| 10> H          3.89005       -1.05517       -5.64373
| 11> H          5.25193        1.30346       -2.72101
| 12> H          6.69516       -0.06232       -3.85160
| 13> H          5.97538       -1.39688       -4.69141
| 14> H          2.80646        1.98651       -4.26848
| 15> H          3.77871        3.09828       -3.30738
| 16> H          2.11090        0.81901       -2.18783
| 17> H          1.68276        2.51198       -2.12786
| 18> H          3.07216        1.93031       -1.24227
| 19> *
| 20>
| 21> %MaxCore 64000
| 22>
| 23> %pal nprocs 4
| 24> end
| 25>
| 26> %scf
| 27>   MaxIter 150
| 28> end
| 29>
| 30>
| 31>                          ****END OF INPUT****

CARTESIAN COORDINATES (ANGSTROEM)
---------------------------------
  C      3.380930    2.083040   -3.350130
  C      4.535920    1.182450   -3.428520
  C      2.495560    1.816150   -2.136360
  C      4.671960    0.122270   -4.220600
  N      5.866020   -0.507850   -4.224280
  N      3.698880   -0.312840   -4.986990
  H      2.731410   -0.050090   -4.849000
  H      3.890050   -1.055170   -5.643730
  H      5.251930    1.303460   -2.721010
  H      6.695160   -0.062320   -3.851600
  H      5.975380   -1.396880   -4.691410
  H      2.806460    1.986510   -4.268480
  H      3.778710    3.098280   -3.307380
  H      2.110900    0.819010   -2.187830
  H      1.682760    2.511980   -2.127860
  H      3.072160    1.930310   -1.242270

 Total Charge           Charge          ....    0
 Multiplicity           Mult            ....    1
 Number of Electrons    NEL             ....   48
 Basis Dimension        Dim             ....  134

ORBITAL ENERGIES
----------------

  NO   OCC          E(Eh)            E(eV)
   0   2.0000     -14.431872      -392.7112
   1   2.0000     -14.423554      -392.4849
   2   2.0000     -10.326999      -281.0119
   3   2.0000     -10.255774      -279.0738
   4   2.0000     -10.249703      -278.9086
   5   2.0000     -10.198744      -277.5219
   6   2.0000      -1.062400       -28.9094
   7   2.0000      -0.967192       -26.3186
   8   2.0000      -0.873463       -23.7681
   9   2.0000      -0.794054       -21.6073
  10   2.0000      -0.714713       -19.4483
  11   2.0000      -0.674749       -18.3609
  12   2.0000      -0.639975       -17.4146
  13   2.0000      -0.600818       -16.3491
  14   2.0000      -0.572345       -15.5743
  15   2.0000      -0.535132       -14.5617
  16   2.0000      -0.508545       -13.8382
  17   2.0000      -0.486510       -13.2386
  18   2.0000      -0.467904       -12.7323
  19   2.0000      -0.440515       -11.9870
  20   2.0000      -0.413932       -11.2637
  21   2.0000      -0.406614       -11.0645
  22   2.0000      -0.351124        -9.5546
  23   2.0000      -0.233389        -6.3508
  24   0.0000       0.132292         3.5998
  25   0.0000       0.158946         4.3251
  26   0.0000       0.184253         5.0138
  27   0.0000       0.187036         5.0895
  28   0.0000       0.202617         5.5135

MULLIKEN ATOMIC CHARGES
-----------------------
   0 C :    0.010620
   1 C :   -0.236401
   2 C :    0.015714
   3 C :    0.013919
   4 N :   -0.138994
   5 N :   -0.099128
   6 H :    0.137155
   7 H :    0.112353
   8 H :   -0.073815
   9 H :    0.133626
  10 H :    0.106471
  11 H :   -0.017318
  12 H :    0.010977
  13 H :    0.001288
  14 H :    0.010207
  15 H :    0.013325
Sum of atomic charges:    0.0000000

LOEWDIN ATOMIC CHARGES
----------------------
   0 C :   -0.042941
   1 C :   -0.227260
   2 C :   -0.057406
   3 C :    0.029973
   4 N :   -0.043387
   5 N :   -0.018333
   6 H :    0.083179
   7 H :    0.067595
   8 H :   -0.010482
   9 H :    0.083141
  10 H :    0.061395
  11 H :    0.007845
  12 H :    0.021996
  13 H :    0.012962
  14 H :    0.012834
  15 H :    0.018886

  Mayer bond orders larger than 0.100000
B(  0-C ,  1-C ) :   1.0547 B(  0-C ,  2-C ) :   1.0748 B(  0-C , 11-H ) :   0.9512
B(  0-C , 12-H ) :   0.9350 B(  1-C ,  3-C ) :   1.7054 B(  1-C ,  8-H ) :   0.9593
B(  2-C , 13-H ) :   0.9740 B(  2-C , 14-H ) :   0.9712 B(  2-C , 15-H ) :   0.9743
B(  3-C ,  4-N ) :   1.2050 B(  3-C ,  5-N ) :   1.2495 B(  4-N ,  9-H ) :   0.9461
B(  4-N , 10-H ) :   0.9541 B(  5-N ,  6-H ) :   0.9398 B(  5-N ,  7-H ) :   0.9497

Dispersion correction           -0.003690831
FINAL SINGLE POINT ENERGY      -267.645894001817

DIPOLE MOMENT
-------------
                                X             Y             Z
Electronic contribution:      3.03243      -2.93714      -2.99058
Nuclear contribution   :     -2.84307       1.95814       2.32378
                        -----------------------------------------
Total Dipole Moment    :      0.18935      -0.97900      -0.66680
                        -----------------------------------------
Magnitude (a.u.)       :      1.19955
Magnitude (Debye)      :      3.04902

Rotational constants in cm-1:     0.248902     0.068887     0.059904
Rotational constants in MHz :  7461.898926  2065.183281  1795.882140

                             ****ORCA TERMINATED NORMALLY****
TOTAL RUN TIME: 0 days 0 hours 0 minutes 24 seconds 755 msec
