                         Program Version 5.0.0 -  RELEASE  -
|  1> !wB97X-D3 RIJCOSX def2-SVP def2/J TightSCF
|  2> *xyz 0 1
|  3> C          2.49556        1.81615       -2.13636
|  4> C          1.87218        0.42790       -2.07750
|  5> H          2.61427       -0.36583       -2.19889
|  6> H          1.38995        0.27309       -1.11236
|  7> S          0.57902        0.14047       -3.29794
|  8> O          0.22886       -1.24687       -3.12787
|  9> F         -0.43927        1.11897       -3.01455
| 10> O          1.24788        0.40347       -4.59565
| 11> H          2.96535        1.95613       -3.08747
| 12> H          3.22581        1.91242       -1.36024
| 13> H          1.73350        2.55528       -2.00274
| 14> *
| 15>
| 16> %MaxCore 64000
| 17>
| 18> %pal nprocs 4
| 19> end
| 20>
| 21> %scf
| 22>   MaxIter 150
| 23> end
| 24>
| 25>
| 26>                          ****END OF INPUT****

CARTESIAN COORDINATES (ANGSTROEM)
---------------------------------
  C      2.495560    1.816150   -2.136360
  C      1.872180    0.427900   -2.077500
  H      2.614270   -0.365830   -2.198890
  H      1.389950    0.273090   -1.112360
  S      0.579020    0.140470   -3.297940
  O      0.228860   -1.246870   -3.127870
  F     -0.439270    1.118970   -3.014550
  O      1.247880    0.403470   -4.595650
  H      2.965350    1.956130   -3.087470
  H      3.225810    1.912420   -1.360240
  H      1.733500    2.555280   -2.002740

 Total Charge           Charge          ....    0
 Multiplicity           Mult            ....    1
 Number of Electrons    NEL             ....   58
 Basis Dimension        Dim             ....  113

ORBITAL ENERGIES
----------------

  NO   OCC          E(Eh)            E(eV)
   0   2.0000     -89.213061     -2427.6108
   1   2.0000     -24.910161      -677.8399
   2   2.0000     -19.244450      -523.6681
   3   2.0000     -19.228795      -523.2421
   4   2.0000     -10.345873      -281.5255
   5   2.0000     -10.309492      -280.5355
   6   2.0000      -8.296190      -225.7508
   7   2.0000      -6.259418      -170.3274
   8   2.0000      -6.252614      -170.1423
   9   2.0000      -6.251482      -170.1115
  10   2.0000      -1.491015       -40.5726
  11   2.0000      -1.216992       -33.1160
  12   2.0000      -1.108491       -30.1636
  13   2.0000      -0.935449       -25.4549
  14   2.0000      -0.838783       -22.8244
  15   2.0000      -0.785689       -21.3797
  16   2.0000      -0.702306       -19.1107
  17   2.0000      -0.689969       -18.7750
  18   2.0000      -0.646232       -17.5849
  19   2.0000      -0.593685       -16.1550
  20   2.0000      -0.577978       -15.7276
  21   2.0000      -0.548208       -14.9175
  22   2.0000      -0.526481       -14.3263
  23   2.0000      -0.504135       -13.7182
  24   2.0000      -0.491700       -13.3798
  25   2.0000      -0.470642       -12.8068
  26   2.0000      -0.420707       -11.4480
  27   2.0000      -0.405972       -11.0471
  28   2.0000      -0.392635       -10.6841
  29   0.0000       0.114833         3.1248
  30   0.0000       0.144311         3.9269
  31   0.0000       0.157995         4.2993
  32   0.0000       0.179688         4.8895
  33   0.0000       0.182403         4.9634

MULLIKEN ATOMIC CHARGES
-----------------------
   0 C :   -0.034451
   1 C :   -0.173929
   2 H :    0.111493
   3 H :    0.076280
   4 S :    0.955083
   5 O :   -0.437085
   6 F :   -0.173947
   7 O :   -0.487909
   8 H :    0.068592
   9 H :    0.054883
  10 H :    0.040989
Sum of atomic charges:    0.0000000

LOEWDIN ATOMIC CHARGES
----------------------
   0 C :   -0.064354
   1 C :   -0.152491
   2 H :    0.055010
   3 H :    0.032456
   4 S :    1.157855
   5 O :   -0.481419
   6 F :   -0.116337
   7 O :   -0.530990
   8 H :    0.036283
   9 H :    0.037334
  10 H :    0.026654

  Mayer bond orders larger than 0.100000
B(  0-C ,  1-C ) :   1.0357 B(  0-C ,  8-H ) :   0.9718 B(  0-C ,  9-H ) :   0.9668
B(  0-C , 10-H ) :   0.9755 B(  1-C ,  2-H ) :   0.9402 B(  1-C ,  3-H ) :   0.9386
B(  1-C ,  4-S ) :   0.9262 B(  4-S ,  5-O ) :   1.7939 B(  4-S ,  6-F ) :   1.0216
B(  4-S ,  7-O ) :   1.7376

Dispersion correction           -0.002903666
FINAL SINGLE POINT ENERGY      -727.135535474362

DIPOLE MOMENT
-------------
                                X             Y             Z
Electronic contribution:     -7.98026      -2.41870      -3.89912
Nuclear contribution   :      8.30151       3.35500       5.26935
                        -----------------------------------------
Total Dipole Moment    :      0.32125       0.93630       1.37023
                        -----------------------------------------
Magnitude (a.u.)       :      1.69038
Magnitude (Debye)      :      4.29661

Rotational constants in cm-1:     0.152913     0.083043     0.080351
Rotational constants in MHz :  4584.227971  2489.580280  2408.872860

                             ****ORCA TERMINATED NORMALLY****
TOTAL RUN TIME: 0 days 0 hours 0 minutes 18 seconds 745 msec
