                         Program Version 5.0.0 -  RELEASE  -
|  1> !wB97X-D3 RIJCOSX def2-SVP def2/J TightSCF
|  2> *xyz 0 1
|  3> C          3.38093        2.08304       -3.35013
|  4> N          4.53592        1.18245       -3.42852
|  5> C          2.49556        1.81615       -2.13636
|  6> C          4.67196        0.12227       -4.22060
|  7> C          5.86602       -0.50785       -4.22428
|  8> N          3.69888       -0.31284       -4.98699
|  9> H          2.73141       -0.05009       -4.84900
| 10> H          3.89005       -1.05517       -5.64373
| 11> H          5.25193        1.30346       -2.72101
| 12> H          6.69516       -0.06232       -3.85160
| 13> H          5.97538       -1.39688       -4.69141
| 14> H          2.80646        1.98651       -4.26848
| 15> H          3.77871        3.09828       -3.30738
| 16> H          2.11090        0.81901       -2.18783
| 17> H          1.68276        2.51198       -2.12786
| 18> H          3.07216        1.93031       -1.24227
| 19> *
| 20>
| 21> %MaxCore 64000
| 22>
| 23> %pal nprocs 4
| 24> end
| 25>
| 26> %scf
| 27>   MaxIter 150
| 28> end
| 29>
| 30>
| 31>                          ****END OF INPUT****

CARTESIAN COORDINATES (ANGSTROEM)
---------------------------------
  C      3.380930    2.083040   -3.350130
  N      4.535920    1.182450   -3.428520
  C      2.495560    1.816150   -2.136360
  C      4.671960    0.122270   -4.220600
  C      5.866020   -0.507850   -4.224280
  N      3.698880   -0.312840   -4.986990
  H      2.731410   -0.050090   -4.849000
  H      3.890050   -1.055170   -5.643730
  H      5.251930    1.303460   -2.721010
  H      6.695160   -0.062320   -3.851600
  H      5.975380   -1.396880   -4.691410
  H      2.806460    1.986510   -4.268480
  H      3.778710    3.098280   -3.307380
  H      2.110900    0.819010   -2.187830
  H      1.682760    2.511980   -2.127860
  H      3.072160    1.930310   -1.242270

 Total Charge           Charge          ....    0
 Multiplicity           Mult            ....    1
 Number of Electrons    NEL             ....   48
 Basis Dimension        Dim             ....  134

ORBITAL ENERGIES
----------------

  NO   OCC          E(Eh)            E(eV)
   0   2.0000     -14.432380      -392.7250
   1   2.0000     -14.428012      -392.6062
   2   2.0000     -10.331374      -281.1310
   3   2.0000     -10.327169      -281.0166
   4   2.0000     -10.281432      -279.7720
   5   2.0000     -10.189199      -277.2622
   6   2.0000      -1.071432       -29.1551
   7   2.0000      -0.988559       -26.9000
   8   2.0000      -0.877463       -23.8770
   9   2.0000      -0.798222       -21.7207
  10   2.0000      -0.728656       -19.8277
  11   2.0000      -0.701374       -19.0854
  12   2.0000      -0.641200       -17.4479
  13   2.0000      -0.594268       -16.1708
  14   2.0000      -0.576993       -15.7008
  15   2.0000      -0.542204       -14.7541
  16   2.0000      -0.524810       -14.2808
  17   2.0000      -0.496085       -13.4992
  18   2.0000      -0.479713       -13.0536
  19   2.0000      -0.459758       -12.5107
  20   2.0000      -0.455348       -12.3907
  21   2.0000      -0.443323       -12.0634
  22   2.0000      -0.340398        -9.2627
  23   2.0000      -0.235208        -6.4003
  24   0.0000       0.127238         3.4623
  25   0.0000       0.162145         4.4122
  26   0.0000       0.172655         4.6982
  27   0.0000       0.188606         5.1322
  28   0.0000       0.196996         5.3605

MULLIKEN ATOMIC CHARGES
-----------------------
   0 C :    0.037469
   1 N :   -0.205571
   2 C :   -0.012578
   3 C :    0.000733
   4 C :   -0.152016
   5 N :   -0.104453
   6 H :    0.116410
   7 H :    0.136457
   8 H :    0.133913
   9 H :   -0.039651
  10 H :   -0.048529
  11 H :    0.023511
  12 H :    0.034346
  13 H :    0.023722
  14 H :    0.028192
  15 H :    0.028045
Sum of atomic charges:    0.0000000

LOEWDIN ATOMIC CHARGES
----------------------
   0 C :    0.031883
   1 N :   -0.038972
   2 C :   -0.066377
   3 C :    0.043290
   4 C :   -0.280729
   5 N :   -0.015018
   6 H :    0.066342
   7 H :    0.087490
   8 H :    0.084711
   9 H :   -0.010086
  10 H :   -0.012739
  11 H :    0.018537
  12 H :    0.022468
  13 H :    0.021338
  14 H :    0.024638
  15 H :    0.023225

  Mayer bond orders larger than 0.100000
B(  0-C ,  1-N ) :   0.9909 B(  0-C ,  2-C ) :   1.0767 B(  0-C , 11-H ) :   0.9598
B(  0-C , 12-H ) :   0.9605 B(  1-N ,  3-C ) :   1.1888 B(  1-N ,  8-H ) :   0.9315
B(  2-C , 13-H ) :   0.9715 B(  2-C , 14-H ) :   0.9685 B(  2-C , 15-H ) :   0.9724
B(  3-C ,  4-C ) :   1.7162 B(  3-C ,  5-N ) :   1.2423 B(  4-C ,  9-H ) :   0.9540
B(  4-C , 10-H ) :   0.9537 B(  5-N ,  6-H ) :   0.9493 B(  5-N ,  7-H ) :   0.9421

Dispersion correction           -0.003724561
FINAL SINGLE POINT ENERGY      -267.636490604413

DIPOLE MOMENT
-------------
                                X             Y             Z
Electronic contribution:      1.44144      -1.11700      -2.06363
Nuclear contribution   :     -2.56090       1.59955       2.15496
                        -----------------------------------------
Total Dipole Moment    :     -1.11947       0.48255       0.09133
                        -----------------------------------------
Magnitude (a.u.)       :      1.22246
Magnitude (Debye)      :      3.10724

Rotational constants in cm-1:     0.249834     0.071381     0.061833
Rotational constants in MHz :  7489.842787  2139.945635  1853.706310

                             ****ORCA TERMINATED NORMALLY****
TOTAL RUN TIME: 0 days 0 hours 0 minutes 24 seconds 758 msec
