                         Program Version 5.0.0 -  RELEASE  -
|  1> !wB97X-D3 RIJCOSX def2-SVP def2/J TightSCF
|  2> *xyz 0 1
|  3> C          2.49556        1.81615       -2.13636
|  4> C          1.87218        0.42790       -2.07750
|  5> H          2.61427       -0.36583       -2.19889
|  6> H          1.38995        0.27309       -1.11236
|  7> S          0.57902        0.14047       -3.29794
|  8> O          0.22886       -1.24687       -3.12787
|  9> O         -0.43927        1.11897       -3.01455
| 10> F          1.24788        0.40347       -4.59565
| 11> H          2.96535        1.95613       -3.08747
| 12> H          3.22581        1.91242       -1.36024
| 13> H          1.73350        2.55528       -2.00274
| 14> *
| 15>
| 16> %MaxCore 64000
| 17>
| 18> %pal nprocs 4
| 19> end
| 20>
| 21> %scf
| 22>   MaxIter 150
| 23> end
| 24>
| 25>
| 26>                          ****END OF INPUT****

CARTESIAN COORDINATES (ANGSTROEM)
---------------------------------
  C      2.495560    1.816150   -2.136360
  C      1.872180    0.427900   -2.077500
  H      2.614270   -0.365830   -2.198890
  H      1.389950    0.273090   -1.112360
  S      0.579020    0.140470   -3.297940
  O      0.228860   -1.246870   -3.127870
  O     -0.439270    1.118970   -3.014550
  F      1.247880    0.403470   -4.595650
  H      2.965350    1.956130   -3.087470
  H      3.225810    1.912420   -1.360240
  H      1.733500    2.555280   -2.002740

 Total Charge           Charge          ....    0
 Multiplicity           Mult            ....    1
 Number of Electrons    NEL             ....   58
 Basis Dimension        Dim             ....  113

ORBITAL ENERGIES
----------------

  NO   OCC          E(Eh)            E(eV)
   0   2.0000     -89.211606     -2427.5712
   1   2.0000     -24.887301      -677.2179
   2   2.0000     -19.245002      -523.6831
   3   2.0000     -19.244348      -523.6653
   4   2.0000     -10.344829      -281.4971
   5   2.0000     -10.310142      -280.5532
   6   2.0000      -8.294542      -225.7060
   7   2.0000      -6.257541      -170.2764
   8   2.0000      -6.251250      -170.1052
   9   2.0000      -6.250055      -170.0726
  10   2.0000      -1.453508       -39.5520
  11   2.0000      -1.228050       -33.4169
  12   2.0000      -1.131213       -30.7819
  13   2.0000      -0.934989       -25.4423
  14   2.0000      -0.825391       -22.4600
  15   2.0000      -0.777665       -21.1613
  16   2.0000      -0.685071       -18.6417
  17   2.0000      -0.664165       -18.0729
  18   2.0000      -0.643765       -17.5177
  19   2.0000      -0.594957       -16.1896
  20   2.0000      -0.575412       -15.6577
  21   2.0000      -0.551001       -14.9935
  22   2.0000      -0.532254       -14.4834
  23   2.0000      -0.504877       -13.7384
  24   2.0000      -0.497560       -13.5393
  25   2.0000      -0.474058       -12.8998
  26   2.0000      -0.430415       -11.7122
  27   2.0000      -0.417061       -11.3488
  28   2.0000      -0.408951       -11.1281
  29   0.0000       0.115512         3.1432
  30   0.0000       0.150069         4.0836
  31   0.0000       0.162926         4.4334
  32   0.0000       0.180586         4.9140
  33   0.0000       0.184562         5.0222

MULLIKEN ATOMIC CHARGES
-----------------------
   0 C :   -0.037388
   1 C :   -0.178430
   2 H :    0.085739
   3 H :    0.105214
   4 S :    0.965397
   5 O :   -0.442323
   6 O :   -0.447237
   7 F :   -0.216483
   8 H :    0.045810
   9 H :    0.056057
  10 H :    0.063642
Sum of atomic charges:   -0.0000000

LOEWDIN ATOMIC CHARGES
----------------------
   0 C :   -0.065166
   1 C :   -0.154762
   2 H :    0.037856
   3 H :    0.051497
   4 S :    1.164024
   5 O :   -0.485658
   6 O :   -0.487731
   7 F :   -0.160331
   8 H :    0.027557
   9 H :    0.037839
  10 H :    0.034876

  Mayer bond orders larger than 0.100000
B(  0-C ,  1-C ) :   1.0356 B(  0-C ,  8-H ) :   0.9768 B(  0-C ,  9-H ) :   0.9672
B(  0-C , 10-H ) :   0.9716 B(  1-C ,  2-H ) :   0.9400 B(  1-C ,  3-H ) :   0.9395
B(  1-C ,  4-S ) :   0.9284 B(  4-S ,  5-O ) :   1.7973 B(  4-S ,  6-O ) :   1.7873
B(  4-S ,  7-F ) :   0.9741

Dispersion correction           -0.002901460
FINAL SINGLE POINT ENERGY      -727.155745427386

DIPOLE MOMENT
-------------
                                X             Y             Z
Electronic contribution:     -5.09564      -3.62838      -6.60163
Nuclear contribution   :      6.54345       4.10057       6.91691
                        -----------------------------------------
Total Dipole Moment    :      1.44780       0.47220       0.31527
                        -----------------------------------------
Magnitude (a.u.)       :      1.55515
Magnitude (Debye)      :      3.95289

Rotational constants in cm-1:     0.152835     0.082826     0.080611
Rotational constants in MHz :  4581.878371  2483.049050  2416.647141

                             ****ORCA TERMINATED NORMALLY****
TOTAL RUN TIME: 0 days 0 hours 0 minutes 18 seconds 738 msec
