                         Program Version 5.0.0 -  RELEASE  -
|  1> !wB97X-D3 RIJCOSX def2-SVP def2/J TightSCF
|  2> *xyz 0 1
|  3> C          3.38093        2.08304       -3.35013
|  4> N          4.53592        1.18245       -3.42852
|  5> C          2.49556        1.81615       -2.13636
|  6> C          4.67196        0.12227       -4.22060
|  7> N          5.86602       -0.50785       -4.22428
|  8> C          3.69888       -0.31284       -4.98699
|  9> H          2.73141       -0.05009       -4.84900
| 10> H          3.89005       -1.05517       -5.64373
| 11> H          5.25193        1.30346       -2.72101
| 12> H          6.69516       -0.06232       -3.85160
| 13> H          5.97538       -1.39688       -4.69141
| 14> H          2.80646        1.98651       -4.26848
| 15> H          3.77871        3.09828       -3.30738
| 16> H          2.11090        0.81901       -2.18783
| 17> H          1.68276        2.51198       -2.12786
| 18> H          3.07216        1.93031       -1.24227
| 19> *
| 20>
| 21> %MaxCore 64000
| 22>
| 23> %pal nprocs 4
| 24> end
| 25>
| 26> %scf
| 27>   MaxIter 150
| 28> end
| 29>
| 30>
| 31>                          ****END OF INPUT****

CARTESIAN COORDINATES (ANGSTROEM)
---------------------------------
  C      3.380930    2.083040   -3.350130
  N      4.535920    1.182450   -3.428520
  C      2.495560    1.816150   -2.136360
  C      4.671960    0.122270   -4.220600
  N      5.866020   -0.507850   -4.224280
  C      3.698880   -0.312840   -4.986990
  H      2.731410   -0.050090   -4.849000
  H      3.890050   -1.055170   -5.643730
  H      5.251930    1.303460   -2.721010
  H      6.695160   -0.062320   -3.851600
  H      5.975380   -1.396880   -4.691410
  H      2.806460    1.986510   -4.268480
  H      3.778710    3.098280   -3.307380
  H      2.110900    0.819010   -2.187830
  H      1.682760    2.511980   -2.127860
  H      3.072160    1.930310   -1.242270

 Total Charge           Charge          ....    0
 Multiplicity           Mult            ....    1
 Number of Electrons    NEL             ....   48
 Basis Dimension        Dim             ....  134

ORBITAL ENERGIES
----------------

  NO   OCC          E(Eh)            E(eV)
   0   2.0000     -14.428028      -392.6066
   1   2.0000     -14.424798      -392.5187
   2   2.0000     -10.328729      -281.0590
   3   2.0000     -10.317657      -280.7577
   4   2.0000     -10.272796      -279.5370
   5   2.0000     -10.192892      -277.3627
   6   2.0000      -1.064503       -28.9666
   7   2.0000      -0.978947       -26.6385
   8   2.0000      -0.861224       -23.4351
   9   2.0000      -0.811672       -22.0867
  10   2.0000      -0.740426       -20.1480
  11   2.0000      -0.661843       -18.0097
  12   2.0000      -0.640720       -17.4349
  13   2.0000      -0.609532       -16.5862
  14   2.0000      -0.553002       -15.0479
  15   2.0000      -0.544973       -14.8295
  16   2.0000      -0.516131       -14.0447
  17   2.0000      -0.493404       -13.4262
  18   2.0000      -0.470160       -12.7937
  19   2.0000      -0.466881       -12.7045
  20   2.0000      -0.445325       -12.1179
  21   2.0000      -0.439331       -11.9548
  22   2.0000      -0.332570        -9.0497
  23   2.0000      -0.247250        -6.7280
  24   0.0000       0.137798         3.7497
  25   0.0000       0.160346         4.3632
  26   0.0000       0.180018         4.8985
  27   0.0000       0.188071         5.1177
  28   0.0000       0.206442         5.6176

MULLIKEN ATOMIC CHARGES
-----------------------
   0 C :    0.067680
   1 N :   -0.228265
   2 C :   -0.021173
   3 C :    0.069519
   4 N :   -0.153937
   5 C :   -0.163095
   6 H :   -0.030933
   7 H :   -0.047891
   8 H :    0.109263
   9 H :    0.111913
  10 H :    0.132799
  11 H :    0.046201
  12 H :    0.025544
  13 H :    0.037650
  14 H :    0.027536
  15 H :    0.017190
Sum of atomic charges:   -0.0000000

LOEWDIN ATOMIC CHARGES
----------------------
   0 C :    0.045314
   1 N :   -0.044910
   2 C :   -0.064221
   3 C :    0.049015
   4 N :   -0.042862
   5 C :   -0.259319
   6 H :   -0.006580
   7 H :   -0.006973
   8 H :    0.064529
   9 H :    0.064151
  10 H :    0.081462
  11 H :    0.030845
  12 H :    0.018867
  13 H :    0.027408
  14 H :    0.024937
  15 H :    0.018337

  Mayer bond orders larger than 0.100000
B(  0-C ,  1-N ) :   0.9712 B(  0-C ,  2-C ) :   1.0912 B(  0-C , 11-H ) :   0.9496
B(  0-C , 12-H ) :   0.9642 B(  1-N ,  3-C ) :   1.1585 B(  1-N ,  8-H ) :   0.9371
B(  2-C , 13-H ) :   0.9723 B(  2-C , 14-H ) :   0.9698 B(  2-C , 15-H ) :   0.9724
B(  3-C ,  4-N ) :   1.2023 B(  3-C ,  5-C ) :   1.7689 B(  4-N ,  9-H ) :   0.9540
B(  4-N , 10-H ) :   0.9483 B(  5-C ,  6-H ) :   0.9483 B(  5-C ,  7-H ) :   0.9440

Dispersion correction           -0.003700597
FINAL SINGLE POINT ENERGY      -267.640462799703

DIPOLE MOMENT
-------------
                                X             Y             Z
Electronic contribution:      3.77973      -1.33252      -1.31365
Nuclear contribution   :     -3.02065       1.64092       1.99316
                        -----------------------------------------
Total Dipole Moment    :      0.75908       0.30840       0.67951
                        -----------------------------------------
Magnitude (a.u.)       :      1.06445
Magnitude (Debye)      :      2.70561

Rotational constants in cm-1:     0.259304     0.069422     0.060943
Rotational constants in MHz :  7773.747720  2081.225169  1827.013389

                             ****ORCA TERMINATED NORMALLY****
TOTAL RUN TIME: 0 days 0 hours 0 minutes 25 seconds 294 msec
