                         Program Version 5.0.0 -  RELEASE  -
|  1> !wB97X-D3 RIJCOSX def2-SVP def2/J TightSCF xyzfile
|  2>
|  3> *xyzfile 0 1 D3.xyz
|  4>
|  5> %MaxCore 64000
|  6>
|  7> %pal nprocs 18
|  8> end
|  9>
| 10> %scf
| 11>   MaxIter 150
| 12> end
| 13>
| 14>
| 15>                          ****END OF INPUT****

CARTESIAN COORDINATES (ANGSTROEM)
---------------------------------
  C      3.380928    2.083045   -3.350127
  N      4.535924    1.182447   -3.428518
  C      2.495557    1.816150   -2.136364
  C      1.872181    0.427903   -2.077497
  H      2.614270   -0.365825   -2.198894
  H      1.389953    0.273087   -1.112360
  S      0.579024    0.140472   -3.297943
  C      4.671956    0.122273   -4.220598
  N      5.866023   -0.507849   -4.224284
  C      3.698881   -0.312844   -4.986988
  H      2.731405   -0.050091   -4.849000
  H      3.890046   -1.055172   -5.643730
  H      5.251933    1.303459   -2.721014
  H      6.695165   -0.062322   -3.851596
  H      5.975383   -1.396884   -4.691414
  F      0.228860   -1.246868   -3.127871
  O     -0.439269    1.118966   -3.014550
  O      1.247881    0.403474   -4.595647
  H      1.697003    2.561969   -2.141109
  H      3.080787    1.987436   -1.225838
  H      2.806463    1.986511   -4.268484
  H      3.778714    3.098282   -3.307383

 Total Charge           Charge          ....    0
 Multiplicity           Mult            ....    1
 Number of Electrons    NEL             ....   96
 Basis Dimension        Dim             ....  213

ORBITAL ENERGIES
----------------

  NO   OCC          E(Eh)            E(eV)
   0   2.0000     -89.217247     -2427.7247
   1   2.0000     -24.911392      -677.8734
   2   2.0000     -19.247003      -523.7376
   3   2.0000     -19.231029      -523.3029
   4   2.0000     -14.428863      -392.6293
   5   2.0000     -14.418720      -392.3533
   6   2.0000     -10.343580      -281.4631
   7   2.0000     -10.322046      -280.8771
   8   2.0000     -10.319143      -280.7982
   9   2.0000     -10.316147      -280.7166
  10   2.0000     -10.168035      -276.6863
  11   2.0000      -8.300117      -225.8577
  12   2.0000      -6.263233      -170.4312
  13   2.0000      -6.256802      -170.2562
  14   2.0000      -6.255331      -170.2162
  15   2.0000      -1.491903       -40.5967
  16   2.0000      -1.222554       -33.2674
  17   2.0000      -1.116607       -30.3844
  18   2.0000      -1.062453       -28.9108
  19   2.0000      -0.980004       -26.6673
  20   2.0000      -0.932799       -25.3827
  21   2.0000      -0.860133       -23.4054
  22   2.0000      -0.818922       -22.2840
  23   2.0000      -0.795980       -21.6597
  24   2.0000      -0.747800       -20.3487
  25   2.0000      -0.693602       -18.8739
  26   2.0000      -0.689606       -18.7651
  27   2.0000      -0.670882       -18.2556
  28   2.0000      -0.652055       -17.7433
  29   2.0000      -0.633738       -17.2449
  30   2.0000      -0.612246       -16.6601
  31   2.0000      -0.594015       -16.1640
  32   2.0000      -0.587166       -15.9776
  33   2.0000      -0.548346       -14.9213
  34   2.0000      -0.546938       -14.8829
  35   2.0000      -0.542844       -14.7715
  36   2.0000      -0.500747       -13.6260
  37   2.0000      -0.488125       -13.2825
  38   2.0000      -0.483670       -13.1613
  39   2.0000      -0.472935       -12.8692
  40   2.0000      -0.468456       -12.7473
  41   2.0000      -0.459640       -12.5074
  42   2.0000      -0.439242       -11.9524
  43   2.0000      -0.422898       -11.5076
  44   2.0000      -0.405145       -11.0246
  45   2.0000      -0.365749        -9.9525
  46   2.0000      -0.332674        -9.0525
  47   2.0000      -0.237757        -6.4697
  48   0.0000       0.120520         3.2795
  49   0.0000       0.125177         3.4063
  50   0.0000       0.149289         4.0624
  51   0.0000       0.158795         4.3210
  52   0.0000       0.171799         4.6749

MULLIKEN ATOMIC CHARGES
-----------------------
   0 C :    0.116973
   1 N :   -0.235282
   2 C :   -0.039240
   3 C :   -0.134573
   4 H :    0.094929
   5 H :    0.077560
   6 S :    0.979927
   7 C :    0.038114
   8 N :   -0.149873
   9 C :   -0.169188
  10 H :   -0.022546
  11 H :   -0.060105
  12 H :    0.103551
  13 H :    0.105931
  14 H :    0.130257
  15 F :   -0.169571
  16 O :   -0.437777
  17 O :   -0.441605
  18 H :    0.060134
  19 H :    0.043035
  20 H :    0.077301
  21 H :    0.032047
Sum of atomic charges:   -0.0000000

LOEWDIN ATOMIC CHARGES
----------------------
   0 C :    0.045495
   1 N :   -0.051420
   2 C :   -0.052333
   3 C :   -0.149585
   4 H :    0.041462
   5 H :    0.035455
   6 S :    1.172770
   7 C :    0.028409
   8 N :   -0.048307
   9 C :   -0.260266
  10 H :   -0.041498
  11 H :   -0.011933
  12 H :    0.060340
  13 H :    0.060080
  14 H :    0.079838
  15 F :   -0.110532
  16 O :   -0.481236
  17 O :   -0.452031
  18 H :    0.038070
  19 H :    0.034599
  20 H :    0.038024
  21 H :    0.024598

  Mayer bond orders larger than 0.100000
B(  0-C ,  1-N ) :   0.9742 B(  0-C ,  2-C ) :   1.0748 B(  0-C , 20-H ) :   0.9370
B(  0-C , 21-H ) :   0.9579 B(  1-N ,  7-C ) :   1.1290 B(  1-N , 12-H ) :   0.9365
B(  2-C ,  3-C ) :   1.0309 B(  2-C , 18-H ) :   0.9433 B(  2-C , 19-H ) :   0.9450
B(  3-C ,  4-H ) :   0.9230 B(  3-C ,  5-H ) :   0.9334 B(  3-C ,  6-S ) :   0.9428
B(  6-S , 15-F ) :   1.0331 B(  6-S , 16-O ) :   1.7847 B(  6-S , 17-O ) :   1.6616
B(  7-C ,  8-N ) :   1.1908 B(  7-C ,  9-C ) :   1.7889 B(  8-N , 13-H ) :   0.9541
B(  8-N , 14-H ) :   0.9483 B(  9-C , 10-H ) :   0.9076 B(  9-C , 11-H ) :   0.9395
B( 10-H , 17-O ) :   0.1563

Dispersion correction           -0.009823238
FINAL SINGLE POINT ENERGY      -954.288173585266

DIPOLE MOMENT
-------------
                                X             Y             Z
Electronic contribution:    -14.67588      -5.54087       0.13080
Nuclear contribution   :     15.84345       5.19593       1.66752
                        -----------------------------------------
Total Dipole Moment    :      1.16757      -0.34493       1.79832
                        -----------------------------------------
Magnitude (a.u.)       :      2.17167
Magnitude (Debye)      :      5.51995

Rotational constants in cm-1:     0.059060     0.020573     0.017713
Rotational constants in MHz :  1770.576058   616.749938   531.036486

                             ****ORCA TERMINATED NORMALLY****
TOTAL RUN TIME: 0 days 0 hours 0 minutes 26 seconds 644 msec
