                         Program Version 5.0.0 -  RELEASE  -
|  1> !wB97X-D3 RIJCOSX def2-SVP def2/J TightSCF xyzfile
|  2>
|  3> *xyzfile 0 1 D6.xyz
|  4>
|  5> %MaxCore 64000
|  6>
|  7> %pal nprocs 18
|  8> end
|  9>
| 10> %scf
| 11>   MaxIter 150
| 12> end
| 13>
| 14>
| 15>                          ****END OF INPUT****

CARTESIAN COORDINATES (ANGSTROEM)
---------------------------------
  C      3.380928    2.083045   -3.350127
  N      4.535924    1.182447   -3.428518
  C      2.495557    1.816150   -2.136364
  C      1.872181    0.427903   -2.077497
  H      2.614270   -0.365825   -2.198894
  H      1.389953    0.273087   -1.112360
  S      0.579024    0.140472   -3.297943
  C      4.671956    0.122273   -4.220598
  N      5.866023   -0.507849   -4.224284
  C      3.698881   -0.312844   -4.986988
  H      2.731405   -0.050091   -4.849000
  H      3.890046   -1.055172   -5.643730
  H      5.251933    1.303459   -2.721014
  H      6.695165   -0.062322   -3.851596
  H      5.975383   -1.396884   -4.691414
  O      0.228860   -1.246868   -3.127871
  F     -0.439269    1.118966   -3.014550
  O      1.247881    0.403474   -4.595647
  H      1.697003    2.561969   -2.141109
  H      3.080787    1.987436   -1.225838
  H      2.806463    1.986511   -4.268484
  H      3.778714    3.098282   -3.307383

 Total Charge           Charge          ....    0
 Multiplicity           Mult            ....    1
 Number of Electrons    NEL             ....   96
 Basis Dimension        Dim             ....  213

ORBITAL ENERGIES
----------------

  NO   OCC          E(Eh)            E(eV)
   0   2.0000     -89.215899     -2427.6880
   1   2.0000     -24.911489      -677.8761
   2   2.0000     -19.245677      -523.7015
   3   2.0000     -19.232430      -523.3410
   4   2.0000     -14.429353      -392.6427
   5   2.0000     -14.416971      -392.3057
   6   2.0000     -10.343213      -281.4531
   7   2.0000     -10.324733      -280.9503
   8   2.0000     -10.319096      -280.7969
   9   2.0000     -10.317496      -280.7533
  10   2.0000     -10.167321      -276.6669
  11   2.0000      -8.298820      -225.8224
  12   2.0000      -6.262040      -170.3988
  13   2.0000      -6.255433      -170.2190
  14   2.0000      -6.254012      -170.1803
  15   2.0000      -1.492408       -40.6105
  16   2.0000      -1.220757       -33.2185
  17   2.0000      -1.116640       -30.3853
  18   2.0000      -1.062079       -28.9006
  19   2.0000      -0.979937       -26.6654
  20   2.0000      -0.935373       -25.4528
  21   2.0000      -0.856782       -23.3142
  22   2.0000      -0.821123       -22.3439
  23   2.0000      -0.795773       -21.6541
  24   2.0000      -0.748191       -20.3593
  25   2.0000      -0.702803       -19.1243
  26   2.0000      -0.693410       -18.8686
  27   2.0000      -0.665099       -18.0983
  28   2.0000      -0.651127       -17.7181
  29   2.0000      -0.629467       -17.1287
  30   2.0000      -0.609885       -16.5958
  31   2.0000      -0.594312       -16.1720
  32   2.0000      -0.584554       -15.9065
  33   2.0000      -0.559393       -15.2219
  34   2.0000      -0.544271       -14.8104
  35   2.0000      -0.538991       -14.6667
  36   2.0000      -0.509476       -13.8635
  37   2.0000      -0.491730       -13.3806
  38   2.0000      -0.485871       -13.2212
  39   2.0000      -0.476081       -12.9548
  40   2.0000      -0.465834       -12.6760
  41   2.0000      -0.457058       -12.4372
  42   2.0000      -0.440089       -11.9754
  43   2.0000      -0.409653       -11.1472
  44   2.0000      -0.396613       -10.7924
  45   2.0000      -0.380197       -10.3457
  46   2.0000      -0.332495        -9.0477
  47   2.0000      -0.236055        -6.4234
  48   0.0000       0.115531         3.1438
  49   0.0000       0.128279         3.4907
  50   0.0000       0.149428         4.0662
  51   0.0000       0.152996         4.1632
  52   0.0000       0.172102         4.6831

MULLIKEN ATOMIC CHARGES
-----------------------
   0 C :    0.127942
   1 N :   -0.236148
   2 C :   -0.055759
   3 C :   -0.136846
   4 H :    0.123663
   5 H :    0.078327
   6 S :    0.976804
   7 C :    0.031670
   8 N :   -0.150293
   9 C :   -0.159064
  10 H :   -0.010473
  11 H :   -0.057024
  12 H :    0.103841
  13 H :    0.105234
  14 H :    0.131710
  15 O :   -0.430497
  16 F :   -0.172153
  17 O :   -0.447594
  18 H :    0.035561
  19 H :    0.042647
  20 H :    0.067881
  21 H :    0.030570
Sum of atomic charges:   -0.0000000

LOEWDIN ATOMIC CHARGES
----------------------
   0 C :    0.043946
   1 N :   -0.051832
   2 C :   -0.065696
   3 C :   -0.145451
   4 H :    0.059405
   5 H :    0.035167
   6 S :    1.168524
   7 C :    0.026851
   8 N :   -0.048137
   9 C :   -0.250117
  10 H :   -0.036263
  11 H :   -0.009866
  12 H :    0.060419
  13 H :    0.059701
  14 H :    0.080678
  15 O :   -0.473995
  16 F :   -0.115350
  17 O :   -0.455027
  18 H :    0.025986
  19 H :    0.033225
  20 H :    0.034257
  21 H :    0.023575

  Mayer bond orders larger than 0.100000
B(  0-C ,  1-N ) :   0.9802 B(  0-C ,  2-C ) :   1.0663 B(  0-C , 20-H ) :   0.9346
B(  0-C , 21-H ) :   0.9579 B(  1-N ,  7-C ) :   1.1211 B(  1-N , 12-H ) :   0.9366
B(  2-C ,  3-C ) :   1.0092 B(  2-C , 18-H ) :   0.9482 B(  2-C , 19-H ) :   0.9429
B(  3-C ,  4-H ) :   0.9274 B(  3-C ,  5-H ) :   0.9372 B(  3-C ,  6-S ) :   0.9419
B(  6-S , 15-O ) :   1.7995 B(  6-S , 16-F ) :   1.0220 B(  6-S , 17-O ) :   1.6599
B(  7-C ,  8-N ) :   1.1906 B(  7-C ,  9-C ) :   1.7951 B(  8-N , 13-H ) :   0.9544
B(  8-N , 14-H ) :   0.9479 B(  9-C , 10-H ) :   0.9156 B(  9-C , 11-H ) :   0.9402
B( 10-H , 17-O ) :   0.1360

Dispersion correction           -0.009822600
FINAL SINGLE POINT ENERGY      -954.287480365721

DIPOLE MOMENT
-------------
                                X             Y             Z
Electronic contribution:    -15.81041      -1.45530       0.30701
Nuclear contribution   :     16.57580       2.60270       1.54331
                        -----------------------------------------
Total Dipole Moment    :      0.76539       1.14740       1.85032
                        -----------------------------------------
Magnitude (a.u.)       :      2.30782
Magnitude (Debye)      :      5.86601

Rotational constants in cm-1:     0.060402     0.020377     0.017632
Rotational constants in MHz :  1810.792194   610.900365   528.582827

                             ****ORCA TERMINATED NORMALLY****
TOTAL RUN TIME: 0 days 0 hours 0 minutes 26 seconds 864 msec
