                         Program Version 5.0.0 -  RELEASE  -
|  1> !wB97X-D3 RIJCOSX def2-SVP def2/J TightSCF xyzfile
|  2>
|  3> *xyzfile 0 1 D7.xyz
|  4>
|  5> %MaxCore 64000
|  6>
|  7> %pal nprocs 18
|  8> end
|  9>
| 10> %scf
| 11>   MaxIter 150
| 12> end
| 13>
| 14>
| 15>                          ****END OF INPUT****

CARTESIAN COORDINATES (ANGSTROEM)
---------------------------------
  C      3.380928    2.083045   -3.350127
  C      4.535924    1.182447   -3.428518
  C      2.495557    1.816150   -2.136364
  C      1.872181    0.427903   -2.077497
  H      2.614270   -0.365825   -2.198894
  H      1.389953    0.273087   -1.112360
  S      0.579024    0.140472   -3.297943
  C      4.671956    0.122273   -4.220598
  N      5.866023   -0.507849   -4.224284
  N      3.698881   -0.312844   -4.986988
  H      2.731405   -0.050091   -4.849000
  H      3.890046   -1.055172   -5.643730
  H      5.251933    1.303459   -2.721014
  H      6.695165   -0.062322   -3.851596
  H      5.975383   -1.396884   -4.691414
  O      0.228860   -1.246868   -3.127871
  O     -0.439269    1.118966   -3.014550
  F      1.247881    0.403474   -4.595647
  H      1.697003    2.561969   -2.141109
  H      3.080787    1.987436   -1.225838
  H      2.806463    1.986511   -4.268484
  H      3.778714    3.098282   -3.307383

 Total Charge           Charge          ....    0
 Multiplicity           Mult            ....    1
 Number of Electrons    NEL             ....   96
 Basis Dimension        Dim             ....  213

ORBITAL ENERGIES
----------------

  NO   OCC          E(Eh)            E(eV)
   0   2.0000     -89.214430     -2427.6481
   1   2.0000     -24.907648      -677.7715
   2   2.0000     -19.248397      -523.7755
   3   2.0000     -19.247788      -523.7589
   4   2.0000     -14.434289      -392.7770
   5   2.0000     -14.433886      -392.7660
   6   2.0000     -10.341102      -281.3957
   7   2.0000     -10.333860      -281.1986
   8   2.0000     -10.297684      -280.2142
   9   2.0000     -10.277076      -279.6535
  10   2.0000     -10.213933      -277.9352
  11   2.0000      -8.297736      -225.7929
  12   2.0000      -6.261186      -170.3755
  13   2.0000      -6.254258      -170.1870
  14   2.0000      -6.252714      -170.1450
  15   2.0000      -1.476446       -40.1761
  16   2.0000      -1.233239       -33.5582
  17   2.0000      -1.134306       -30.8660
  18   2.0000      -1.073019       -29.1983
  19   2.0000      -0.978077       -26.6148
  20   2.0000      -0.938144       -25.5282
  21   2.0000      -0.872198       -23.7337
  22   2.0000      -0.835653       -22.7393
  23   2.0000      -0.792040       -21.5525
  24   2.0000      -0.747738       -20.3470
  25   2.0000      -0.700316       -19.0566
  26   2.0000      -0.689801       -18.7704
  27   2.0000      -0.673761       -18.3340
  28   2.0000      -0.651075       -17.7167
  29   2.0000      -0.644193       -17.5294
  30   2.0000      -0.610516       -16.6130
  31   2.0000      -0.591528       -16.0963
  32   2.0000      -0.574809       -15.6413
  33   2.0000      -0.570412       -15.5217
  34   2.0000      -0.556144       -15.1335
  35   2.0000      -0.546463       -14.8700
  36   2.0000      -0.506377       -13.7792
  37   2.0000      -0.501352       -13.6425
  38   2.0000      -0.501007       -13.6331
  39   2.0000      -0.479817       -13.0565
  40   2.0000      -0.455861       -12.4046
  41   2.0000      -0.441218       -12.0062
  42   2.0000      -0.431421       -11.7396
  43   2.0000      -0.426881       -11.6160
  44   2.0000      -0.414243       -11.2721
  45   2.0000      -0.407838       -11.0978
  46   2.0000      -0.360064        -9.7978
  47   2.0000      -0.249321        -6.7844
  48   0.0000       0.111726         3.0402
  49   0.0000       0.136018         3.7012
  50   0.0000       0.150229         4.0879
  51   0.0000       0.161493         4.3944
  52   0.0000       0.169569         4.6142

MULLIKEN ATOMIC CHARGES
-----------------------
   0 C :    0.034377
   1 C :   -0.247206
   2 C :   -0.016746
   3 C :   -0.135612
   4 H :    0.092062
   5 H :    0.103249
   6 S :    0.956471
   7 C :    0.017444
   8 N :   -0.132597
   9 N :   -0.109418
  10 H :    0.121218
  11 H :    0.117098
  12 H :   -0.072539
  13 H :    0.134944
  14 H :    0.111113
  15 O :   -0.436830
  16 O :   -0.432988
  17 F :   -0.214933
  18 H :    0.045386
  19 H :    0.039560
  20 H :    0.000824
  21 H :    0.025125
Sum of atomic charges:    0.0000000

LOEWDIN ATOMIC CHARGES
----------------------
   0 C :   -0.045890
   1 C :   -0.239455
   2 C :   -0.054779
   3 C :   -0.145578
   4 H :    0.038998
   5 H :    0.052976
   6 S :    1.167030
   7 C :    0.033709
   8 N :   -0.039929
   9 N :   -0.026204
  10 H :    0.026847
  11 H :    0.069717
  12 H :   -0.010031
  13 H :    0.084161
  14 H :    0.064406
  15 O :   -0.482552
  16 O :   -0.478659
  17 F :   -0.114280
  18 H :    0.025910
  19 H :    0.035020
  20 H :    0.007183
  21 H :    0.031401

  Mayer bond orders larger than 0.100000
B(  0-C ,  1-C ) :   1.0473 B(  0-C ,  2-C ) :   1.0657 B(  0-C , 20-H ) :   0.9538
B(  0-C , 21-H ) :   0.9242 B(  1-C ,  7-C ) :   1.6654 B(  1-C , 12-H ) :   0.9619
B(  2-C ,  3-C ) :   1.0065 B(  2-C , 18-H ) :   0.9472 B(  2-C , 19-H ) :   0.9412
B(  3-C ,  4-H ) :   0.9270 B(  3-C ,  5-H ) :   0.9346 B(  3-C ,  6-S ) :   0.9364
B(  6-S , 15-O ) :   1.7969 B(  6-S , 16-O ) :   1.7983 B(  6-S , 17-F ) :   0.8949
B(  7-C ,  8-N ) :   1.2210 B(  7-C ,  9-N ) :   1.2681 B(  8-N , 13-H ) :   0.9441
B(  8-N , 14-H ) :   0.9527 B(  9-N , 10-H ) :   0.9191 B(  9-N , 11-H ) :   0.9448

Dispersion correction           -0.009842883
FINAL SINGLE POINT ENERGY      -954.328641578784

DIPOLE MOMENT
-------------
                                X             Y             Z
Electronic contribution:    -13.22009      -4.01975      -3.76925
Nuclear contribution   :     14.80811       3.53278       3.42836
                        -----------------------------------------
Total Dipole Moment    :      1.58802      -0.48697      -0.34090
                        -----------------------------------------
Magnitude (a.u.)       :      1.69563
Magnitude (Debye)      :      4.30994

Rotational constants in cm-1:     0.059173     0.020923     0.018056
Rotational constants in MHz :  1773.956621   627.264018   541.303397

                             ****ORCA TERMINATED NORMALLY****
TOTAL RUN TIME: 0 days 0 hours 0 minutes 20 seconds 238 msec
