                         Program Version 5.0.0 -  RELEASE  -
|  1> !wB97X-D3 RIJCOSX def2-TZVP def2/J TightSCF
|  2> *xyz -1 1
|  3> C         -2.45380        0.05510        6.94145
|  4> C         -2.07842        1.48042        6.56410
|  5> O         -0.90125        1.85816        6.82810
|  6> O         -2.93658        2.17731        5.96415
|  7> H         -3.47026       -0.13135        6.66407
|  8> H         -2.34265       -0.07527        7.99765
|  9> H         -1.81248       -0.63046        6.42801
| 10> *
| 11> %MaxCore 64000
| 12>
| 13> %pal nprocs 18
| 14> end
| 15>
| 16> %scf
| 17>   MaxIter 150
| 18> end
| 19>
| 20>
| 21>                          ****END OF INPUT****

CARTESIAN COORDINATES (ANGSTROEM)
---------------------------------
  C     -2.453800    0.055100    6.941450
  C     -2.078420    1.480420    6.564100
  O     -0.901250    1.858160    6.828100
  O     -2.936580    2.177310    5.964150
  H     -3.470260   -0.131350    6.664070
  H     -2.342650   -0.075270    7.997650
  H     -1.812480   -0.630460    6.428010

 Total Charge           Charge          ....   -1
 Multiplicity           Mult            ....    1
 Number of Electrons    NEL             ....   32
 Basis Dimension        Dim             ....  142

ORBITAL ENERGIES
----------------

  NO   OCC          E(Eh)            E(eV)
   0   2.0000     -18.947985      -515.6009
   1   2.0000     -18.944918      -515.5174
   2   2.0000     -10.147540      -276.1286
   3   2.0000     -10.080055      -274.2922
   4   2.0000      -0.918974       -25.0065
   5   2.0000      -0.823388       -22.4055
   6   2.0000      -0.655003       -17.8235
   7   2.0000      -0.403573       -10.9818
   8   2.0000      -0.355455        -9.6724
   9   2.0000      -0.341188        -9.2842
  10   2.0000      -0.315444        -8.5837
  11   2.0000      -0.270491        -7.3604
  12   2.0000      -0.251084        -6.8324
  13   2.0000      -0.125968        -3.4278
  14   2.0000      -0.124388        -3.3848
  15   2.0000      -0.107832        -2.9342
  16   0.0000       0.285755         7.7758
  17   0.0000       0.328820         8.9476
  18   0.0000       0.356728         9.7071
  19   0.0000       0.385359        10.4862
  20   0.0000       0.392700        10.6859

MULLIKEN ATOMIC CHARGES
-----------------------
   0 C :   -0.299041
   1 C :    0.275729
   2 O :   -0.588053
   3 O :   -0.574588
   4 H :    0.060699
   5 H :    0.061115
   6 H :    0.064139
Sum of atomic charges:   -1.0000000

LOEWDIN ATOMIC CHARGES
----------------------
   0 C :   -0.323152
   1 C :   -0.707656
   2 O :   -0.144938
   3 O :   -0.131524
   4 H :    0.099638
   5 H :    0.103148
   6 H :    0.104484

  Mayer bond orders larger than 0.100000
B(  0-C ,  1-C ) :   0.9288 B(  0-C ,  4-H ) :   0.9736 B(  0-C ,  5-H ) :   0.9712
B(  0-C ,  6-H ) :   0.9712 B(  1-C ,  2-O ) :   1.8226 B(  1-C ,  3-O ) :   1.8455

Dispersion correction           -0.000905266
FINAL SINGLE POINT ENERGY      -228.546978684075

DIPOLE MOMENT
-------------
                                X             Y             Z
Electronic contribution:      0.87997       3.36531      -0.91099
Nuclear contribution   :     -1.26064      -4.68337       1.27880
                        -----------------------------------------
Total Dipole Moment    :     -0.38067      -1.31807       0.36781
                        -----------------------------------------
Magnitude (a.u.)       :      1.42038
Magnitude (Debye)      :      3.61033

Rotational constants in cm-1:     0.391994     0.333933     0.186475
Rotational constants in MHz : 11751.676689 10011.065304  5590.392476

                             ****ORCA TERMINATED NORMALLY****
TOTAL RUN TIME: 0 days 0 hours 0 minutes 7 seconds 657 msec
