                         Program Version 5.0.0 -  RELEASE  -
|  1> !wB97X-D3 RIJCOSX def2-TZVP def2/J TightSCF
|  2> *xyz 1 1
|  3> C         -0.69912        3.48945        3.75516
|  4> N         -1.08067        3.79296        5.15686
|  5> H         -0.87449        4.76274        5.42734
|  6> H         -0.68079        3.13476        5.83900
|  7> H         -2.05755        3.53169        5.34620
|  8> H         -1.14600        4.20803        3.10030
|  9> H         -1.04188        2.50941        3.49644
| 10> H          0.36562        3.53208        3.65813
| 11> *
| 12> %MaxCore 64000
| 13>
| 14> %pal nprocs 18
| 15> end
| 16>
| 17> %scf
| 18>   MaxIter 150
| 19> end
| 20>
| 21>
| 22>                          ****END OF INPUT****

CARTESIAN COORDINATES (ANGSTROEM)
---------------------------------
  C     -0.699120    3.489450    3.755160
  N     -1.080670    3.792960    5.156860
  H     -0.874490    4.762740    5.427340
  H     -0.680790    3.134760    5.839000
  H     -2.057550    3.531690    5.346200
  H     -1.146000    4.208030    3.100300
  H     -1.041880    2.509410    3.496440
  H      0.365620    3.532080    3.658130

 Total Charge           Charge          ....    1
 Multiplicity           Mult            ....    1
 Number of Electrons    NEL             ....   18
 Basis Dimension        Dim             ....   98

ORBITAL ENERGIES
----------------

  NO   OCC          E(Eh)            E(eV)
   0   2.0000     -14.771686      -401.9580
   1   2.0000     -10.530412      -286.5471
   2   2.0000      -1.344471       -36.5849
   3   2.0000      -1.055213       -28.7138
   4   2.0000      -0.926797       -25.2194
   5   2.0000      -0.888696       -24.1826
   6   2.0000      -0.816174       -22.2092
   7   2.0000      -0.725926       -19.7535
   8   2.0000      -0.719574       -19.5806
   9   0.0000      -0.119249        -3.2449
  10   0.0000      -0.050090        -1.3630
  11   0.0000      -0.046744        -1.2720
  12   0.0000      -0.029056        -0.7907
  13   0.0000       0.018431         0.5015

MULLIKEN ATOMIC CHARGES
-----------------------
   0 C :   -0.311807
   1 N :   -0.315027
   2 H :    0.350641
   3 H :    0.334318
   4 H :    0.335225
   5 H :    0.203942
   6 H :    0.199120
   7 H :    0.203587
Sum of atomic charges:    1.0000000

LOEWDIN ATOMIC CHARGES
----------------------
   0 C :   -0.244775
   1 N :    0.149478
   2 H :    0.227313
   3 H :    0.225975
   4 H :    0.227248
   5 H :    0.138649
   6 H :    0.137986
   7 H :    0.138125

  Mayer bond orders larger than 0.100000
B(  0-C ,  1-N ) :   0.8989 B(  0-C ,  5-H ) :   0.9532 B(  0-C ,  6-H ) :   0.9518
B(  0-C ,  7-H ) :   0.9544 B(  1-N ,  2-H ) :   0.8630 B(  1-N ,  3-H ) :   0.8747
B(  1-N ,  4-H ) :   0.8749

Dispersion correction           -0.000518568
FINAL SINGLE POINT ENERGY       -96.222115912684

DIPOLE MOMENT
-------------
                                X             Y             Z
Electronic contribution:     -0.25430       0.28494       1.00913
Nuclear contribution   :     -0.00699      -0.18064      -0.14199
                        -----------------------------------------
Total Dipole Moment    :     -0.26129       0.10430       0.86715
                        -----------------------------------------
Magnitude (a.u.)       :      0.91164
Magnitude (Debye)      :      2.31721

Rotational constants in cm-1:     2.906310     0.688008     0.676648
Rotational constants in MHz : 87128.982229 20625.947414 20285.402367

                             ****ORCA TERMINATED NORMALLY****
TOTAL RUN TIME: 0 days 0 hours 0 minutes 4 seconds 796 msec
