                         Program Version 5.0.0 -  RELEASE  -
|  1> !wB97X-D3 RIJCOSX def2-TZVP def2/J TightSCF
|  2> *xyz 0 1
|  3> C         -2.45380        0.05510        6.94145
|  4> C         -2.07842        1.48042        6.56410
|  5> F         -0.90125        1.85816        6.82810
|  6> O         -2.93658        2.17731        5.96415
|  7> H         -3.47026       -0.13135        6.66407
|  8> H         -2.34265       -0.07527        7.99765
|  9> H         -1.81248       -0.63046        6.42801
| 10> *
| 11> %MaxCore 64000
| 12>
| 13> %pal nprocs 18
| 14> end
| 15>
| 16> %scf
| 17>   MaxIter 150
| 18> end
| 19>
| 20>
| 21>                          ****END OF INPUT****

CARTESIAN COORDINATES (ANGSTROEM)
---------------------------------
  C     -2.453800    0.055100    6.941450
  C     -2.078420    1.480420    6.564100
  F     -0.901250    1.858160    6.828100
  O     -2.936580    2.177310    5.964150
  H     -3.470260   -0.131350    6.664070
  H     -2.342650   -0.075270    7.997650
  H     -1.812480   -0.630460    6.428010

 Total Charge           Charge          ....    0
 Multiplicity           Mult            ....    1
 Number of Electrons    NEL             ....   32
 Basis Dimension        Dim             ....  142

ORBITAL ENERGIES
----------------

  NO   OCC          E(Eh)            E(eV)
   0   2.0000     -24.853833      -676.3072
   1   2.0000     -19.236478      -523.4512
   2   2.0000     -10.459351      -284.6134
   3   2.0000     -10.300339      -280.2865
   4   2.0000      -1.431132       -38.9431
   5   2.0000      -1.148252       -31.2455
   6   2.0000      -0.890754       -24.2386
   7   2.0000      -0.764616       -20.8063
   8   2.0000      -0.650674       -17.7057
   9   2.0000      -0.647118       -17.6090
  10   2.0000      -0.608483       -16.5577
  11   2.0000      -0.545300       -14.8384
  12   2.0000      -0.533194       -14.5089
  13   2.0000      -0.500446       -13.6178
  14   2.0000      -0.450519       -12.2592
  15   2.0000      -0.390744       -10.6327
  16   0.0000       0.059414         1.6167
  17   0.0000       0.116899         3.1810
  18   0.0000       0.187916         5.1134
  19   0.0000       0.188715         5.1352
  20   0.0000       0.206821         5.6279

MULLIKEN ATOMIC CHARGES
-----------------------
   0 C :   -0.345385
   1 C :    0.388176
   2 F :   -0.111325
   3 O :   -0.360820
   4 H :    0.153056
   5 H :    0.136958
   6 H :    0.139341
Sum of atomic charges:   -0.0000000

LOEWDIN ATOMIC CHARGES
----------------------
   0 C :   -0.259451
   1 C :   -0.501885
   2 F :    0.308141
   3 O :    0.052424
   4 H :    0.136615
   5 H :    0.131352
   6 H :    0.132805

  Mayer bond orders larger than 0.100000
B(  0-C ,  1-C ) :   1.0033 B(  0-C ,  4-H ) :   0.9701 B(  0-C ,  5-H ) :   0.9502
B(  0-C ,  6-H ) :   0.9486 B(  1-C ,  2-F ) :   1.1486 B(  1-C ,  3-O ) :   2.0397

Dispersion correction           -0.000899388
FINAL SINGLE POINT ENERGY      -253.121748405485

DIPOLE MOMENT
-------------
                                X             Y             Z
Electronic contribution:      2.83664       4.13314      -0.48962
Nuclear contribution   :     -2.49112      -5.16552       1.01592
                        -----------------------------------------
Total Dipole Moment    :      0.34553      -1.03238       0.52629
                        -----------------------------------------
Magnitude (a.u.)       :      1.20921
Magnitude (Debye)      :      3.07356

Rotational constants in cm-1:     0.367635     0.321184     0.176974
Rotational constants in MHz : 11021.414238  9628.842971  5305.560130

                             ****ORCA TERMINATED NORMALLY****
TOTAL RUN TIME: 0 days 0 hours 0 minutes 7 seconds 964 msec
