                         Program Version 5.0.0 -  RELEASE  -
|  1> !wB97X-D3 RIJCOSX def2-TZVP def2/J TightSCF
|  2> *xyz 0 1
|  3> C         -0.69912        3.48945        3.75516
|  4> C         -1.08067        3.79296        5.15686
|  5> H         -0.87449        4.76274        5.42734
|  6> H         -0.68079        3.13476        5.83900
|  7> H         -2.05755        3.53169        5.34620
|  8> H         -1.14600        4.20803        3.10030
|  9> H         -1.04188        2.50941        3.49644
| 10> H          0.36562        3.53208        3.65813
| 11> *
| 12> %MaxCore 64000
| 13>
| 14> %pal nprocs 18
| 15> end
| 16>
| 17> %scf
| 18>   MaxIter 150
| 19> end
| 20>
| 21>
| 22>                          ****END OF INPUT****

CARTESIAN COORDINATES (ANGSTROEM)
---------------------------------
  C     -0.699120    3.489450    3.755160
  C     -1.080670    3.792960    5.156860
  H     -0.874490    4.762740    5.427340
  H     -0.680790    3.134760    5.839000
  H     -2.057550    3.531690    5.346200
  H     -1.146000    4.208030    3.100300
  H     -1.041880    2.509410    3.496440
  H      0.365620    3.532080    3.658130

 Total Charge           Charge          ....    0
 Multiplicity           Mult            ....    1
 Number of Electrons    NEL             ....   18
 Basis Dimension        Dim             ....   98

ORBITAL ENERGIES
----------------

  NO   OCC          E(Eh)            E(eV)
   0   2.0000     -10.249055      -278.8910
   1   2.0000     -10.233672      -278.4724
   2   2.0000      -0.885442       -24.0941
   3   2.0000      -0.736453       -20.0399
   4   2.0000      -0.558353       -15.1936
   5   2.0000      -0.536976       -14.6119
   6   2.0000      -0.468351       -12.7445
   7   2.0000      -0.448398       -12.2015
   8   2.0000      -0.425708       -11.5841
   9   0.0000       0.127600         3.4722
  10   0.0000       0.169175         4.6035
  11   0.0000       0.196275         5.3409
  12   0.0000       0.201318         5.4781
  13   0.0000       0.214142         5.8271

MULLIKEN ATOMIC CHARGES
-----------------------
   0 C :   -0.298775
   1 C :   -0.316052
   2 H :    0.106902
   3 H :    0.103480
   4 H :    0.102802
   5 H :    0.100982
   6 H :    0.099956
   7 H :    0.100704
Sum of atomic charges:    0.0000000

LOEWDIN ATOMIC CHARGES
----------------------
   0 C :   -0.329955
   1 C :   -0.333178
   2 H :    0.104774
   3 H :    0.107560
   4 H :    0.108605
   5 H :    0.114096
   6 H :    0.114591
   7 H :    0.113507

  Mayer bond orders larger than 0.100000
B(  0-C ,  1-C ) :   0.9836 B(  0-C ,  5-H ) :   0.9807 B(  0-C ,  6-H ) :   0.9826
B(  0-C ,  7-H ) :   0.9813 B(  1-C ,  2-H ) :   0.9802 B(  1-C ,  3-H ) :   0.9831
B(  1-C ,  4-H ) :   0.9833

Dispersion correction           -0.000507793
FINAL SINGLE POINT ENERGY       -79.819060875603

DIPOLE MOMENT
-------------
                                X             Y             Z
Electronic contribution:      0.05191       0.10170      -0.05966
Nuclear contribution   :     -0.07174      -0.12630       0.09844
                        -----------------------------------------
Total Dipole Moment    :     -0.01983      -0.02460       0.03878
                        -----------------------------------------
Magnitude (a.u.)       :      0.05002
Magnitude (Debye)      :      0.12715

Rotational constants in cm-1:     2.906543     0.717882     0.705537
Rotational constants in MHz : 87135.978289 21521.550473 21151.459355

                             ****ORCA TERMINATED NORMALLY****
TOTAL RUN TIME: 0 days 0 hours 0 minutes 4 seconds 529 msec
