                         Program Version 5.0.0 -  RELEASE  -
|  1> !wB97X-D3 RIJCOSX def2-TZVP def2/J TightSCF
|  2> *xyz 0 1
|  3> C         -2.45380        0.05510        6.94145
|  4> C         -2.07842        1.48042        6.56410
|  5> O         -0.90125        1.85816        6.82810
|  6> F         -2.93658        2.17731        5.96415
|  7> H         -3.47026       -0.13135        6.66407
|  8> H         -2.34265       -0.07527        7.99765
|  9> H         -1.81248       -0.63046        6.42801
| 10> *
| 11> %MaxCore 64000
| 12>
| 13> %pal nprocs 18
| 14> end
| 15>
| 16> %scf
| 17>   MaxIter 150
| 18> end
| 19>
| 20>
| 21>                          ****END OF INPUT****

CARTESIAN COORDINATES (ANGSTROEM)
---------------------------------
  C     -2.453800    0.055100    6.941450
  C     -2.078420    1.480420    6.564100
  O     -0.901250    1.858160    6.828100
  F     -2.936580    2.177310    5.964150
  H     -3.470260   -0.131350    6.664070
  H     -2.342650   -0.075270    7.997650
  H     -1.812480   -0.630460    6.428010

 Total Charge           Charge          ....    0
 Multiplicity           Mult            ....    1
 Number of Electrons    NEL             ....   32
 Basis Dimension        Dim             ....  142

ORBITAL ENERGIES
----------------

  NO   OCC          E(Eh)            E(eV)
   0   2.0000     -24.856637      -676.3835
   1   2.0000     -19.234597      -523.4000
   2   2.0000     -10.460054      -284.6325
   3   2.0000     -10.300547      -280.2921
   4   2.0000      -1.436096       -39.0782
   5   2.0000      -1.143934       -31.1280
   6   2.0000      -0.890621       -24.2350
   7   2.0000      -0.767577       -20.8868
   8   2.0000      -0.652712       -17.7612
   9   2.0000      -0.649741       -17.6804
  10   2.0000      -0.608951       -16.5704
  11   2.0000      -0.546436       -14.8693
  12   2.0000      -0.532604       -14.4929
  13   2.0000      -0.499494       -13.5919
  14   2.0000      -0.445323       -12.1179
  15   2.0000      -0.390051       -10.6138
  16   0.0000       0.054916         1.4943
  17   0.0000       0.117347         3.1932
  18   0.0000       0.181300         4.9334
  19   0.0000       0.199044         5.4163
  20   0.0000       0.207651         5.6505

MULLIKEN ATOMIC CHARGES
-----------------------
   0 C :   -0.348590
   1 C :    0.391659
   2 O :   -0.366897
   3 F :   -0.105451
   4 H :    0.125766
   5 H :    0.151088
   6 H :    0.152424
Sum of atomic charges:   -0.0000000

LOEWDIN ATOMIC CHARGES
----------------------
   0 C :   -0.260820
   1 C :   -0.502342
   2 O :    0.043000
   3 F :    0.318665
   4 H :    0.123210
   5 H :    0.138808
   6 H :    0.139479

  Mayer bond orders larger than 0.100000
B(  0-C ,  1-C ) :   0.9933 B(  0-C ,  4-H ) :   0.9666 B(  0-C ,  5-H ) :   0.9534
B(  0-C ,  6-H ) :   0.9518 B(  1-C ,  2-O ) :   2.0292 B(  1-C ,  3-F ) :   1.1590

Dispersion correction           -0.000909221
FINAL SINGLE POINT ENERGY      -253.118959046528

DIPOLE MOMENT
-------------
                                X             Y             Z
Electronic contribution:     -0.48559       4.65191      -1.89868
Nuclear contribution   :     -0.38801      -5.49530       1.90863
                        -----------------------------------------
Total Dipole Moment    :     -0.87360      -0.84338       0.00996
                        -----------------------------------------
Magnitude (a.u.)       :      1.21432
Magnitude (Debye)      :      3.08655

Rotational constants in cm-1:     0.368583     0.320435     0.176966
Rotational constants in MHz : 11049.843408  9606.394840  5305.299921

                             ****ORCA TERMINATED NORMALLY****
TOTAL RUN TIME: 0 days 0 hours 0 minutes 6 seconds 766 msec
