                         Program Version 5.0.0 -  RELEASE  -
|  1> !wB97X-D3 RIJCOSX def2-TZVP def2/J TightSCF xyzfile
|  2>
|  3> *xyzfile 0 1 D2.xyz
|  4>
|  5> %MaxCore 64000
|  6>
|  7> %pal nprocs 18
|  8> end
|  9>
| 10> %scf
| 11>   MaxIter 150
| 12> end
| 13>
| 14>
| 15>                          ****END OF INPUT****

CARTESIAN COORDINATES (ANGSTROEM)
---------------------------------
  C     -0.699123    3.489451    3.755163
  H     -0.966716    4.349013    3.140491
  C     -1.080669    3.792957    5.156857
  C      0.776956    3.138391    3.617408
  H     -1.331455    2.656510    3.446323
  H      1.371398    3.888342    4.149744
  H      1.046926    3.232057    2.561331
  C      1.118917    1.731170    4.115155
  H      2.200573    1.654226    4.254882
  C      0.659466    0.635182    3.153306
  H      0.677024    1.576674    5.103150
  H      1.312288    0.638870    2.274207
  H     -0.339563    0.868049    2.772876
  C      0.639957   -0.771175    3.755619
  C     -0.341821   -0.965537    4.915046
  H      1.648266   -1.028665    4.097015
  H      0.398568   -1.482386    2.958453
  H     -0.279892   -2.005646    5.252547
  C     -1.789164   -0.639231    4.557496
  H     -0.032380   -0.352918    5.765118
  H     -2.107151   -1.270102    3.719619
  H     -1.856352    0.391636    4.197604
  C     -2.790700   -0.785275    5.702812
  H     -2.867308   -1.835651    6.001675
  H     -3.774554   -0.486577    5.334807
  C     -2.453797    0.055101    6.941445
  C     -2.078419    1.480421    6.564098
  H     -1.625584   -0.382163    7.498914
  H     -3.325274    0.087746    7.599175
  H     -0.874488    4.762737    5.427344
  H     -0.680793    3.134762    5.839000
  H     -2.057550    3.531691    5.346197
  O     -0.901252    1.858156    6.828104
  F     -2.936582    2.177309    5.964151

 Total Charge           Charge          ....    0
 Multiplicity           Mult            ....    1
 Number of Electrons    NEL             ....  104
 Basis Dimension        Dim             ....  529

ORBITAL ENERGIES
----------------

  NO   OCC          E(Eh)            E(eV)
   0   2.0000     -24.867112      -676.6685
   1   2.0000     -19.242939      -523.6270
   2   2.0000     -10.468102      -284.8515
   3   2.0000     -10.310557      -280.5645
   4   2.0000     -10.295908      -280.1659
   5   2.0000     -10.279882      -279.7298
   6   2.0000     -10.269079      -279.4358
   7   2.0000     -10.265220      -279.3308
   8   2.0000     -10.257846      -279.1302
   9   2.0000     -10.250864      -278.9402
  10   2.0000     -10.248486      -278.8755
  11   2.0000     -10.241717      -278.6913
  12   2.0000     -10.184544      -277.1355
  13   2.0000      -1.450793       -39.4781
  14   2.0000      -1.162089       -31.6220
  15   2.0000      -0.951596       -25.8942
  16   2.0000      -0.922667       -25.1070
  17   2.0000      -0.892963       -24.2988
  18   2.0000      -0.863763       -23.5042
  19   2.0000      -0.819372       -22.2962
  20   2.0000      -0.794346       -21.6152
  21   2.0000      -0.770658       -20.9707
  22   2.0000      -0.733776       -19.9671
  23   2.0000      -0.719117       -19.5682
  24   2.0000      -0.672908       -18.3108
  25   2.0000      -0.669732       -18.2243
  26   2.0000      -0.663596       -18.0574
  27   2.0000      -0.643807       -17.5189
  28   2.0000      -0.620175       -16.8758
  29   2.0000      -0.585532       -15.9331
  30   2.0000      -0.579913       -15.7802
  31   2.0000      -0.560399       -15.2492
  32   2.0000      -0.553516       -15.0619
  33   2.0000      -0.531280       -14.4569
  34   2.0000      -0.522513       -14.2183
  35   2.0000      -0.515556       -14.0290
  36   2.0000      -0.505734       -13.7617
  37   2.0000      -0.499211       -13.5842
  38   2.0000      -0.484275       -13.1778
  39   2.0000      -0.471789       -12.8380
  40   2.0000      -0.467443       -12.7198
  41   2.0000      -0.462316       -12.5802
  42   2.0000      -0.445467       -12.1218
  43   2.0000      -0.436400       -11.8750
  44   2.0000      -0.429983       -11.7004
  45   2.0000      -0.419867       -11.4252
  46   2.0000      -0.413118       -11.2415
  47   2.0000      -0.402692       -10.9578
  48   2.0000      -0.396089       -10.7781
  49   2.0000      -0.386077       -10.5057
  50   2.0000      -0.384222       -10.4552
  51   2.0000      -0.349466        -9.5094
  52   0.0000       0.042900         1.1674
  53   0.0000       0.105894         2.8815
  54   0.0000       0.127668         3.4740
  55   0.0000       0.128049         3.4844
  56   0.0000       0.139586         3.7983

MULLIKEN ATOMIC CHARGES
-----------------------
   0 C :   -0.179764
   1 H :    0.088285
   2 C :   -0.411046
   3 C :   -0.119549
   4 H :    0.072220
   5 H :    0.097726
   6 H :    0.082896
   7 C :   -0.236446
   8 H :    0.095658
   9 C :   -0.254174
  10 H :    0.122628
  11 H :    0.106607
  12 H :    0.112538
  13 C :   -0.138685
  14 C :   -0.286925
  15 H :    0.101230
  16 H :    0.100511
  17 H :    0.104601
  18 C :   -0.194706
  19 H :    0.142703
  20 H :    0.115568
  21 H :    0.092363
  22 C :   -0.215064
  23 H :    0.118586
  24 H :    0.124043
  25 C :   -0.222395
  26 C :    0.408967
  27 H :    0.157800
  28 H :    0.141623
  29 H :    0.104818
  30 H :    0.170551
  31 H :    0.084737
  32 O :   -0.375818
  33 F :   -0.112088
Sum of atomic charges:    0.0000000

LOEWDIN ATOMIC CHARGES
----------------------
   0 C :   -0.304150
   1 H :    0.130346
   2 C :   -0.329550
   3 C :   -0.264692
   4 H :    0.124951
   5 H :    0.135534
   6 H :    0.131595
   7 C :   -0.262963
   8 H :    0.133064
   9 C :   -0.270151
  10 H :    0.138669
  11 H :    0.134872
  12 H :    0.131317
  13 C :   -0.266687
  14 C :   -0.268089
  15 H :    0.136722
  16 H :    0.134585
  17 H :    0.135374
  18 C :   -0.266631
  19 H :    0.138211
  20 H :    0.140418
  21 H :    0.135140
  22 C :   -0.260817
  23 H :    0.141561
  24 H :    0.140680
  25 C :   -0.227592
  26 C :   -0.463974
  27 H :    0.155919
  28 H :    0.151250
  29 H :    0.100133
  30 H :    0.103604
  31 H :    0.101417
  32 O :    0.071322
  33 F :    0.338613

  Mayer bond orders larger than 0.100000
B(  0-C ,  1-H ) :   0.9779 B(  0-C ,  2-C ) :   0.9376 B(  0-C ,  3-C ) :   0.9623
B(  0-C ,  4-H ) :   1.0045 B(  2-C , 29-H ) :   0.9714 B(  2-C , 30-H ) :   0.9719
B(  2-C , 31-H ) :   0.9910 B(  3-C ,  5-H ) :   0.9715 B(  3-C ,  6-H ) :   0.9756
B(  3-C ,  7-C ) :   0.9757 B(  7-C ,  8-H ) :   0.9682 B(  7-C ,  9-C ) :   0.9449
B(  7-C , 10-H ) :   0.9936 B(  9-C , 11-H ) :   0.9696 B(  9-C , 12-H ) :   0.9958
B(  9-C , 13-C ) :   0.9576 B( 13-C , 14-C ) :   0.9814 B( 13-C , 15-H ) :   0.9786
B( 13-C , 16-H ) :   0.9819 B( 14-C , 17-H ) :   0.9700 B( 14-C , 18-C ) :   0.9208
B( 14-C , 19-H ) :   0.9838 B( 18-C , 20-H ) :   0.9692 B( 18-C , 21-H ) :   0.9833
B( 18-C , 22-C ) :   0.9689 B( 22-C , 23-H ) :   0.9725 B( 22-C , 24-H ) :   0.9803
B( 22-C , 25-C ) :   0.9426 B( 25-C , 26-C ) :   0.9759 B( 25-C , 27-H ) :   0.9807
B( 25-C , 28-H ) :   0.9529 B( 26-C , 32-O ) :   1.9374 B( 26-C , 33-F ) :   1.1148

Dispersion correction           -0.017268117
FINAL SINGLE POINT ENERGY      -606.918694035496

DIPOLE MOMENT
-------------
                                X             Y             Z
Electronic contribution:     -8.96749       3.00761       9.46992
Nuclear contribution   :      8.07181      -4.09641      -9.21610
                        -----------------------------------------
Total Dipole Moment    :     -0.89569      -1.08880       0.25381
                        -----------------------------------------
Magnitude (a.u.)       :      1.43254
Magnitude (Debye)      :      3.64122

Rotational constants in cm-1:     0.028400     0.023377     0.015073
Rotational constants in MHz :   851.414727   700.831775   451.871218

                             ****ORCA TERMINATED NORMALLY****
TOTAL RUN TIME: 0 days 0 hours 1 minutes 24 seconds 406 msec
