                         Program Version 5.0.0 -  RELEASE  -
|  1> !LC-BLYP RIJCOSX def2-SVPD def2/J TightSCF
|  2> *xyz -1 1
|  3> C         -7.33044       -2.67899       -3.20681
|  4> S         -6.01966       -2.92697       -4.41913
|  5> O         -5.64583       -1.58838       -4.91931
|  6> O         -4.88196       -3.50370       -3.66724
|  7> O         -6.54927       -3.80515       -5.42507
|  8> C         -6.28692       -0.73588       -1.89353
|  9> C         -7.46900       -1.24615       -2.71383
| 10> H         -7.60191       -0.60135       -3.58533
| 11> H         -8.38979       -1.17344       -2.12692
| 12> H         -7.11825       -3.37982       -2.39805
| 13> H         -8.24184       -3.00474       -3.70651
| 14> H         -5.39124       -0.81034       -2.47415
| 15> H         -6.18709       -1.32597       -1.00655
| 16> H         -6.45393        0.28631       -1.62495
| 17> *
| 18> %MaxCore 64000
| 19>
| 20> %pal nprocs 8
| 21> end
| 22>
| 23> %scf
| 24>   MaxIter 150
| 25> end
| 26>
| 27>
| 28>                          ****END OF INPUT****

CARTESIAN COORDINATES (ANGSTROEM)
---------------------------------
  C     -7.330440   -2.678990   -3.206810
  S     -6.019660   -2.926970   -4.419130
  O     -5.645830   -1.588380   -4.919310
  O     -4.881960   -3.503700   -3.667240
  O     -6.549270   -3.805150   -5.425070
  C     -6.286920   -0.735880   -1.893530
  C     -7.469000   -1.246150   -2.713830
  H     -7.601910   -0.601350   -3.585330
  H     -8.389790   -1.173440   -2.126920
  H     -7.118250   -3.379820   -2.398050
  H     -8.241840   -3.004740   -3.706510
  H     -5.391240   -0.810340   -2.474150
  H     -6.187090   -1.325970   -1.006550
  H     -6.453930    0.286310   -1.624950

 Total Charge           Charge          ....   -1
 Multiplicity           Mult            ....    1
 Number of Electrons    NEL             ....   66
 Basis Dimension        Dim             ....  212

ORBITAL ENERGIES
----------------

  NO   OCC          E(Eh)            E(eV)
   0   2.0000     -88.312399     -2403.1025
   1   2.0000     -18.745183      -510.0824
   2   2.0000     -18.735174      -509.8100
   3   2.0000     -18.730939      -509.6948
   4   2.0000      -9.957618      -270.9606
   5   2.0000      -9.953575      -270.8506
   6   2.0000      -9.940100      -270.4839
   7   2.0000      -7.861195      -213.9140
   8   2.0000      -5.895546      -160.4260
   9   2.0000      -5.895476      -160.4241
  10   2.0000      -5.894887      -160.4080
  11   2.0000      -1.031543       -28.0697
  12   2.0000      -0.885340       -24.0913
  13   2.0000      -0.862688       -23.4749
  14   2.0000      -0.767581       -20.8869
  15   2.0000      -0.676681       -18.4134
  16   2.0000      -0.580137       -15.7863
  17   2.0000      -0.491770       -13.3817
  18   2.0000      -0.442149       -12.0315
  19   2.0000      -0.432351       -11.7649
  20   2.0000      -0.401609       -10.9283
  21   2.0000      -0.388280       -10.5656
  22   2.0000      -0.368126       -10.0172
  23   2.0000      -0.359717        -9.7884
  24   2.0000      -0.326746        -8.8912
  25   2.0000      -0.319382        -8.6908
  26   2.0000      -0.306389        -8.3373
  27   2.0000      -0.256263        -6.9733
  28   2.0000      -0.254209        -6.9174
  29   2.0000      -0.217272        -5.9123
  30   2.0000      -0.210493        -5.7278
  31   2.0000      -0.202468        -5.5094
  32   2.0000      -0.165541        -4.5046
  33   0.0000       0.185653         5.0519
  34   0.0000       0.205849         5.6014
  35   0.0000       0.209530         5.7016
  36   0.0000       0.218636         5.9494
  37   0.0000       0.237586         6.4650

MULLIKEN ATOMIC CHARGES
-----------------------
   0 C :    0.204037
   1 S :    1.080689
   2 O :   -0.781378
   3 O :   -0.742170
   4 O :   -0.707146
   5 C :    1.024342
   6 C :   -0.014043
   7 H :   -0.060100
   8 H :   -0.307129
   9 H :   -0.118366
  10 H :   -0.131695
  11 H :   -0.191373
  12 H :   -0.095705
  13 H :   -0.159962
Sum of atomic charges:   -1.0000000

LOEWDIN ATOMIC CHARGES
----------------------
   0 C :   -0.094305
   1 S :    0.817473
   2 O :   -0.564996
   3 O :   -0.582169
   4 O :   -0.555342
   5 C :    0.113544
   6 C :   -0.112288
   7 H :    0.018413
   8 H :    0.011464
   9 H :    0.011167
  10 H :    0.003133
  11 H :   -0.022381
  12 H :   -0.017781
  13 H :   -0.025932

  Mayer bond orders larger than 0.100000
B(  0-C ,  1-S ) :   0.8763 B(  0-C ,  6-C ) :   1.2123 B(  0-C ,  7-H ) :   0.1595
B(  0-C ,  8-H ) :   0.1424 B(  0-C ,  9-H ) :   0.8958 B(  0-C , 10-H ) :   0.9010
B(  1-S ,  2-O ) :   1.3162 B(  1-S ,  3-O ) :   1.3149 B(  1-S ,  4-O ) :   1.4240
B(  5-C ,  6-C ) :   1.2526 B(  5-C , 11-H ) :   0.7464 B(  5-C , 12-H ) :   0.7078
B(  5-C , 13-H ) :   0.6866 B(  6-C ,  7-H ) :   0.8333 B(  6-C ,  8-H ) :   0.8744
B(  6-C ,  9-H ) :   0.1126 B(  6-C , 10-H ) :   0.1349 B(  6-C , 11-H ) :   0.2410
B(  6-C , 12-H ) :   0.2394 B(  6-C , 13-H ) :   0.2573

FINAL SINGLE POINT ENERGY      -741.112306130875

DIPOLE MOMENT
-------------
                                X             Y             Z
Electronic contribution:      3.74000      -5.82341      -7.87199
Nuclear contribution   :     -5.28952       6.71955       9.52938
                        -----------------------------------------
Total Dipole Moment    :     -1.54952       0.89615       1.65738
                        -----------------------------------------
Magnitude (a.u.)       :      2.43947
Magnitude (Debye)      :      6.20063

Rotational constants in cm-1:     0.135789     0.055302     0.052251
Rotational constants in MHz :  4070.851802  1657.908940  1566.458563

                             ****ORCA TERMINATED NORMALLY****
TOTAL RUN TIME: 0 days 0 hours 0 minutes 17 seconds 863 msec
