                         Program Version 5.0.0 -  RELEASE  -
|  1> !LC-BLYP RIJCOSX def2-SVPD def2/J TightSCF
|  2> *xyz 1 1
|  3> C         -2.16038       -1.36949       -3.46710
|  4> N         -3.03011       -1.91086       -4.54107
|  5> C         -2.04772        0.14658       -3.51177
|  6> H         -3.47744       -2.79151       -4.25710
|  7> H         -2.53801       -2.01786       -5.43808
|  8> H         -3.89159       -1.37604       -4.71437
|  9> H         -1.18444       -1.84400       -3.56639
| 10> H         -2.59819       -1.70838       -2.52848
| 11> C         -3.32876        0.87504       -3.10367
| 12> H         -1.74003        0.45234       -4.51713
| 13> H         -1.23261        0.43494       -2.84221
| 14> H         -4.12483        0.59148       -3.76000
| 15> H         -3.17368        1.93185       -3.16688
| 16> H         -3.58415        0.61151       -2.09857
| 17> *
| 18> %MaxCore 64000
| 19>
| 20> %pal nprocs 8
| 21> end
| 22>
| 23> %scf
| 24>   MaxIter 150
| 25> end
| 26>
| 27>
| 28>                          ****END OF INPUT****

CARTESIAN COORDINATES (ANGSTROEM)
---------------------------------
  C     -2.160380   -1.369490   -3.467100
  N     -3.030110   -1.910860   -4.541070
  C     -2.047720    0.146580   -3.511770
  H     -3.477440   -2.791510   -4.257100
  H     -2.538010   -2.017860   -5.438080
  H     -3.891590   -1.376040   -4.714370
  H     -1.184440   -1.844000   -3.566390
  H     -2.598190   -1.708380   -2.528480
  C     -3.328760    0.875040   -3.103670
  H     -1.740030    0.452340   -4.517130
  H     -1.232610    0.434940   -2.842210
  H     -4.124830    0.591480   -3.760000
  H     -3.173680    1.931850   -3.166880
  H     -3.584150    0.611510   -2.098570

 Total Charge           Charge          ....    1
 Multiplicity           Mult            ....    1
 Number of Electrons    NEL             ....   34
 Basis Dimension        Dim             ....  160

ORBITAL ENERGIES
----------------

  NO   OCC          E(Eh)            E(eV)
   0   2.0000     -14.517050      -395.0290
   1   2.0000     -10.331660      -281.1388
   2   2.0000     -10.262356      -279.2529
   3   2.0000     -10.229504      -278.3590
   4   2.0000      -1.305919       -35.5359
   5   2.0000      -1.078558       -29.3490
   6   2.0000      -0.989790       -26.9335
   7   2.0000      -0.913543       -24.8588
   8   2.0000      -0.890119       -24.2214
   9   2.0000      -0.867962       -23.6184
  10   2.0000      -0.796840       -21.6831
  11   2.0000      -0.734841       -19.9961
  12   2.0000      -0.710789       -19.3415
  13   2.0000      -0.686005       -18.6671
  14   2.0000      -0.624409       -16.9910
  15   2.0000      -0.618578       -16.8324
  16   2.0000      -0.610064       -16.6007
  17   0.0000      -0.129405        -3.5213
  18   0.0000      -0.073005        -1.9866
  19   0.0000      -0.070714        -1.9242
  20   0.0000      -0.055296        -1.5047
  21   0.0000      -0.029158        -0.7934

MULLIKEN ATOMIC CHARGES
-----------------------
   0 C :    0.740994
   1 N :   -0.770059
   2 C :   -0.089204
   3 H :    0.357691
   4 H :    0.422720
   5 H :    0.293568
   6 H :   -0.191041
   7 H :   -0.091312
   8 C :    1.007799
   9 H :   -0.119930
  10 H :   -0.098697
  11 H :   -0.307648
  12 H :   -0.104777
  13 H :   -0.050104
Sum of atomic charges:    1.0000000

LOEWDIN ATOMIC CHARGES
----------------------
   0 C :    0.070472
   1 N :    0.330034
   2 C :   -0.057259
   3 H :    0.110279
   4 H :    0.117402
   5 H :    0.091167
   6 H :    0.058521
   7 H :    0.057960
   8 C :    0.139420
   9 H :    0.040388
  10 H :    0.051401
  11 H :   -0.024064
  12 H :    0.010616
  13 H :    0.003664

  Mayer bond orders larger than 0.100000
B(  0-C ,  1-N ) :   0.7476 B(  0-C ,  2-C ) :   1.2082 B(  0-C ,  6-H ) :   0.8393
B(  0-C ,  7-H ) :   0.8387 B(  0-C , 10-H ) :   0.1301 B(  1-N ,  3-H ) :   0.7363
B(  1-N ,  4-H ) :   0.6857 B(  1-N ,  5-H ) :   0.8270 B(  1-N ,  6-H ) :   0.1426
B(  2-C ,  8-C ) :   1.2834 B(  2-C ,  9-H ) :   0.8957 B(  2-C , 10-H ) :   0.8744
B(  2-C , 11-H ) :   0.2087 B(  2-C , 12-H ) :   0.2414 B(  2-C , 13-H ) :   0.2043
B(  8-C , 11-H ) :   0.7318 B(  8-C , 12-H ) :   0.7321 B(  8-C , 13-H ) :   0.7220
B( 11-H , 13-H ) :   0.1202

FINAL SINGLE POINT ENERGY      -174.211932854201

DIPOLE MOMENT
-------------
                                X             Y             Z
Electronic contribution:      0.32357      -2.14135      -1.09585
Nuclear contribution   :     -0.76147       0.35838       0.01319
                        -----------------------------------------
Total Dipole Moment    :     -0.43790      -1.78296      -1.08266
                        -----------------------------------------
Magnitude (a.u.)       :      2.13140
Magnitude (Debye)      :      5.41758

Rotational constants in cm-1:     0.457188     0.153451     0.133348
Rotational constants in MHz : 13706.154863  4600.337483  3997.673747

                             ****ORCA TERMINATED NORMALLY****
TOTAL RUN TIME: 0 days 0 hours 0 minutes 8 seconds 470 msec
