                         Program Version 5.0.0 -  RELEASE  -
|  1> !LC-BLYP RIJCOSX def2-SVPD def2/J TightSCF xyzfile
|  2>
|  3> *xyzfile 0 1 B.xyz
|  4>
|  5> %MaxCore 64000
|  6>
|  7> %pal nprocs 4
|  8> end
|  9>
| 10> %scf
| 11>   MaxIter 150
| 12> end
| 13>
| 14>
| 15>                          ****END OF INPUT****

CARTESIAN COORDINATES (ANGSTROEM)
---------------------------------
  C     -2.160376   -1.369486   -3.467104
  N     -3.030108   -1.910857   -4.541074
  C     -2.047717    0.146583   -3.511774
  C     -7.330440   -2.678991   -3.206811
  S     -6.019659   -2.926965   -4.419128
  H     -3.477443   -2.791513   -4.257096
  H     -2.538013   -2.017860   -5.438075
  H     -3.891589   -1.376039   -4.714365
  O     -5.645830   -1.588384   -4.919307
  O     -4.881961   -3.503697   -3.667235
  H     -1.184438   -1.843997   -3.566393
  H     -2.598195   -1.708376   -2.528477
  O     -6.549267   -3.805150   -5.425071
  C     -3.328755    0.875037   -3.103669
  H     -1.740034    0.452343   -4.517126
  H     -1.232611    0.434938   -2.842208
  C     -3.628487    0.771601   -1.609363
  H     -4.175106    0.490791   -3.682203
  H     -3.237812    1.928663   -3.381480
  C     -4.975718    1.361432   -1.190644
  H     -2.830700    1.276234   -1.054766
  H     -3.594312   -0.275838   -1.294603
  C     -6.184720    0.784347   -1.926464
  H     -4.956292    2.445725   -1.342200
  H     -5.097256    1.205252   -0.114136
  C     -6.286921   -0.735882   -1.893531
  H     -6.163994    1.100199   -2.974250
  H     -7.094530    1.223459   -1.504509
  C     -7.468999   -1.246153   -2.713833
  H     -6.360641   -1.090347   -0.859176
  H     -5.369848   -1.171853   -2.295982
  H     -7.601914   -0.601349   -3.585329
  H     -8.389791   -1.173436   -2.126922
  H     -7.118254   -3.379818   -2.398055
  H     -8.241838   -3.004745   -3.706513

 Total Charge           Charge          ....    0
 Multiplicity           Mult            ....    1
 Number of Electrons    NEL             ....  122
 Basis Dimension        Dim             ....  464

ORBITAL ENERGIES
----------------

  NO   OCC          E(Eh)            E(eV)
   0   2.0000     -88.478880     -2407.6327
   1   2.0000     -18.913452      -514.6612
   2   2.0000     -18.912781      -514.6429
   3   2.0000     -18.898003      -514.2408
   4   2.0000     -14.290106      -388.8535
   5   2.0000     -10.168557      -276.7005
   6   2.0000     -10.121579      -275.4222
   7   2.0000     -10.101647      -274.8798
   8   2.0000     -10.093472      -274.6573
   9   2.0000     -10.090447      -274.5750
  10   2.0000     -10.085670      -274.4450
  11   2.0000     -10.079357      -274.2732
  12   2.0000     -10.078463      -274.2489
  13   2.0000     -10.075559      -274.1699
  14   2.0000      -8.027146      -218.4297
  15   2.0000      -6.062456      -164.9678
  16   2.0000      -6.061431      -164.9399
  17   2.0000      -6.059828      -164.8963
  18   2.0000      -1.202956       -32.7341
  19   2.0000      -1.100401       -29.9434
  20   2.0000      -1.049628       -28.5618
  21   2.0000      -1.045822       -28.4583
  22   2.0000      -0.943303       -25.6686
  23   2.0000      -0.914898       -24.8956
  24   2.0000      -0.889977       -24.2175
  25   2.0000      -0.844687       -22.9851
  26   2.0000      -0.813313       -22.1314
  27   2.0000      -0.769103       -20.9284
  28   2.0000      -0.731689       -19.9103
  29   2.0000      -0.716982       -19.5101
  30   2.0000      -0.702693       -19.1212
  31   2.0000      -0.679483       -18.4897
  32   2.0000      -0.666981       -18.1495
  33   2.0000      -0.643211       -17.5027
  34   2.0000      -0.619574       -16.8595
  35   2.0000      -0.601237       -16.3605
  36   2.0000      -0.597789       -16.2667
  37   2.0000      -0.584650       -15.9091
  38   2.0000      -0.567351       -15.4384
  39   2.0000      -0.555650       -15.1200
  40   2.0000      -0.546101       -14.8602
  41   2.0000      -0.542782       -14.7699
  42   2.0000      -0.535233       -14.5644
  43   2.0000      -0.519078       -14.1248
  44   2.0000      -0.516170       -14.0457
  45   2.0000      -0.504006       -13.7147
  46   2.0000      -0.490679       -13.3521
  47   2.0000      -0.476155       -12.9568
  48   2.0000      -0.470655       -12.8072
  49   2.0000      -0.455554       -12.3962
  50   2.0000      -0.446405       -12.1473
  51   2.0000      -0.439373       -11.9559
  52   2.0000      -0.426943       -11.6177
  53   2.0000      -0.423871       -11.5341
  54   2.0000      -0.420481       -11.4419
  55   2.0000      -0.414896       -11.2899
  56   2.0000      -0.410591       -11.1727
  57   2.0000      -0.384799       -10.4709
  58   2.0000      -0.376384       -10.2419
  59   2.0000      -0.366549        -9.9743
  60   2.0000      -0.341855        -9.3023
  61   0.0000       0.039976         1.0878
  62   0.0000       0.065688         1.7874
  63   0.0000       0.071409         1.9431
  64   0.0000       0.078472         2.1353
  65   0.0000       0.087707         2.3866

MULLIKEN ATOMIC CHARGES
-----------------------
   0 C :    1.135619
   1 N :   -0.853023
   2 C :    0.620733
   3 C :    0.637967
   4 S :    1.016486
   5 H :    0.184366
   6 H :    0.512297
   7 H :    0.216590
   8 O :   -0.773622
   9 O :   -0.767257
  10 H :   -0.425021
  11 H :   -0.145335
  12 O :   -0.680488
  13 C :    0.825141
  14 H :   -0.162816
  15 H :   -0.107756
  16 C :    0.022055
  17 H :   -0.808069
  18 H :   -0.164939
  19 C :    0.873207
  20 H :   -0.468853
  21 H :    0.004344
  22 C :    0.069513
  23 H :   -0.118485
  24 H :   -0.075245
  25 C :    0.585364
  26 H :    0.122379
  27 H :   -0.516455
  28 C :    0.494734
  29 H :   -0.125328
  30 H :   -0.568721
  31 H :    0.029930
  32 H :   -0.325351
  33 H :   -0.127111
  34 H :   -0.136851
Sum of atomic charges:    0.0000000

LOEWDIN ATOMIC CHARGES
----------------------
   0 C :    0.083819
   1 N :    0.332171
   2 C :   -0.021318
   3 C :   -0.057464
   4 S :    0.913049
   5 H :   -0.049284
   6 H :    0.108207
   7 H :   -0.039132
   8 O :   -0.513089
   9 O :   -0.516956
  10 H :    0.041850
  11 H :    0.037998
  12 O :   -0.489868
  13 C :   -0.025009
  14 H :    0.032953
  15 H :    0.036634
  16 C :   -0.045439
  17 H :    0.004195
  18 H :    0.039506
  19 C :   -0.038062
  20 H :    0.030445
  21 H :    0.009953
  22 C :   -0.046075
  23 H :    0.028818
  24 H :    0.029808
  25 C :   -0.037421
  26 H :    0.024802
  27 H :    0.032908
  28 C :   -0.053445
  29 H :    0.042248
  30 H :   -0.006203
  31 H :    0.025875
  32 H :    0.034961
  33 H :    0.027048
  34 H :    0.021516

  Mayer bond orders larger than 0.100000
B(  0-C ,  1-N ) :   0.6567 B(  0-C ,  2-C ) :   1.1846 B(  0-C , 10-H ) :   0.7020
B(  0-C , 11-H ) :   0.6754 B(  0-C , 13-C ) :   0.1793 B(  0-C , 15-H ) :   0.1878
B(  0-C , 17-H ) :  -0.1144 B(  1-N ,  5-H ) :   0.8052 B(  1-N ,  6-H ) :   0.5044
B(  1-N ,  7-H ) :   0.7885 B(  1-N , 11-H ) :   0.2286 B(  1-N , 14-H ) :   0.1025
B(  2-C , 10-H ) :   0.1204 B(  2-C , 11-H ) :   0.1010 B(  2-C , 13-C ) :   1.1595
B(  2-C , 14-H ) :   0.6370 B(  2-C , 15-H ) :   0.7114 B(  2-C , 17-H ) :   0.1365
B(  2-C , 19-C ) :   0.1211 B(  3-C ,  4-S ) :   0.8771 B(  3-C , 12-O ) :   0.1040
B(  3-C , 25-C ) :   0.1687 B(  3-C , 28-C ) :   1.1889 B(  3-C , 31-H ) :   0.1016
B(  3-C , 33-H ) :   0.8287 B(  3-C , 34-H ) :   0.6741 B(  4-S ,  8-O ) :   1.1960
B(  4-S ,  9-O ) :   1.2022 B(  4-S , 12-O ) :   1.5449 B(  4-S , 33-H ) :   0.1187
B(  5-H ,  9-O ) :   0.2535 B(  7-H ,  8-O ) :   0.2509 B(  7-H , 17-H ) :   0.1164
B( 10-H , 11-H ) :  -0.1855 B( 11-H , 21-H ) :   0.1161 B( 13-C , 14-H ) :   0.2111
B( 13-C , 16-C ) :   1.1144 B( 13-C , 17-H ) :   0.3725 B( 13-C , 18-H ) :   0.7094
B( 13-C , 20-H ) :   0.2163 B( 14-H , 15-H ) :  -0.1183 B( 16-C , 17-H ) :   0.2930
B( 16-C , 18-H ) :   0.1932 B( 16-C , 19-C ) :   1.1538 B( 16-C , 20-H ) :   0.9173
B( 16-C , 21-H ) :   0.8342 B( 16-C , 22-C ) :   0.2046 B( 16-C , 23-H ) :   0.1571
B( 16-C , 24-H ) :   0.3332 B( 17-H , 26-H ) :   0.1444 B( 19-C , 22-C ) :   1.1095
B( 19-C , 23-H ) :   0.5869 B( 19-C , 24-H ) :   0.5895 B( 22-C , 23-H ) :   0.2859
B( 22-C , 24-H ) :   0.1173 B( 22-C , 25-C ) :   1.2315 B( 22-C , 26-H ) :   0.7804
B( 22-C , 27-H ) :   0.9216 B( 22-C , 28-C ) :   0.1729 B( 22-C , 29-H ) :   0.1129
B( 22-C , 30-H ) :   0.1801 B( 23-H , 24-H ) :  -0.1497 B( 25-C , 26-H ) :   0.1138
B( 25-C , 27-H ) :   0.2004 B( 25-C , 28-C ) :   1.1582 B( 25-C , 29-H ) :   0.6265
B( 25-C , 30-H ) :   0.5563 B( 25-C , 32-H ) :   0.2333 B( 27-H , 31-H ) :  -0.1057
B( 28-C , 29-H ) :   0.1534 B( 28-C , 31-H ) :   0.7921 B( 28-C , 32-H ) :   0.7206
B( 28-C , 34-H ) :   0.2650 B( 29-H , 30-H ) :   0.2593

FINAL SINGLE POINT ENERGY     -1031.858535201575

DIPOLE MOMENT
-------------
                                X             Y             Z
Electronic contribution:     -6.01165     -15.17972     -11.36031
Nuclear contribution   :      8.59301      16.99497      12.41069
                        -----------------------------------------
Total Dipole Moment    :      2.58136       1.81526       1.05038
                        -----------------------------------------
Magnitude (a.u.)       :      3.32594
Magnitude (Debye)      :      8.45386

Rotational constants in cm-1:     0.025617     0.015295     0.010641
Rotational constants in MHz :   767.991150   458.522408   319.013093

                             ****ORCA TERMINATED NORMALLY****
TOTAL RUN TIME: 0 days 0 hours 3 minutes 32 seconds 496 msec
