                         Program Version 5.0.0 -  RELEASE  -
|  1> !LC-BLYP RIJCOSX def2-SVPD def2/J TightSCF
|  2> *xyz 0 1
|  3> C         -7.33044       -2.67899       -3.20681
|  4> S         -6.01966       -2.92697       -4.41913
|  5> F         -5.64583       -1.58838       -4.91931
|  6> O         -4.88196       -3.50370       -3.66724
|  7> O         -6.54927       -3.80515       -5.42507
|  8> C         -6.28692       -0.73588       -1.89353
|  9> C         -7.46900       -1.24615       -2.71383
| 10> H         -7.60191       -0.60135       -3.58533
| 11> H         -8.38979       -1.17344       -2.12692
| 12> H         -7.11825       -3.37982       -2.39805
| 13> H         -8.24184       -3.00474       -3.70651
| 14> H         -5.39124       -0.81034       -2.47415
| 15> H         -6.18709       -1.32597       -1.00655
| 16> H         -6.45393        0.28631       -1.62495
| 17> *
| 18> %MaxCore 64000
| 19>
| 20> %pal nprocs 8
| 21> end
| 22>
| 23> %scf
| 24>   MaxIter 150
| 25> end
| 26>
| 27>
| 28>                          ****END OF INPUT****

CARTESIAN COORDINATES (ANGSTROEM)
---------------------------------
  C     -7.330440   -2.678990   -3.206810
  S     -6.019660   -2.926970   -4.419130
  F     -5.645830   -1.588380   -4.919310
  O     -4.881960   -3.503700   -3.667240
  O     -6.549270   -3.805150   -5.425070
  C     -6.286920   -0.735880   -1.893530
  C     -7.469000   -1.246150   -2.713830
  H     -7.601910   -0.601350   -3.585330
  H     -8.389790   -1.173440   -2.126920
  H     -7.118250   -3.379820   -2.398050
  H     -8.241840   -3.004740   -3.706510
  H     -5.391240   -0.810340   -2.474150
  H     -6.187090   -1.325970   -1.006550
  H     -6.453930    0.286310   -1.624950

 Total Charge           Charge          ....    0
 Multiplicity           Mult            ....    1
 Number of Electrons    NEL             ....   66
 Basis Dimension        Dim             ....  212

ORBITAL ENERGIES
----------------

  NO   OCC          E(Eh)            E(eV)
   0   2.0000     -88.564665     -2409.9671
   1   2.0000     -24.580331      -668.8648
   2   2.0000     -18.975567      -516.3514
   3   2.0000     -18.960138      -515.9316
   4   2.0000     -10.151023      -276.2234
   5   2.0000     -10.123660      -275.4788
   6   2.0000     -10.092726      -274.6370
   7   2.0000      -8.114317      -220.8018
   8   2.0000      -6.153189      -167.4368
   9   2.0000      -6.146407      -167.2522
  10   2.0000      -6.144868      -167.2104
  11   2.0000      -1.433824       -39.0163
  12   2.0000      -1.208986       -32.8982
  13   2.0000      -1.103078       -30.0163
  14   2.0000      -0.949972       -25.8500
  15   2.0000      -0.861822       -23.4514
  16   2.0000      -0.809503       -22.0277
  17   2.0000      -0.748742       -20.3743
  18   2.0000      -0.696094       -18.9417
  19   2.0000      -0.676272       -18.4023
  20   2.0000      -0.646733       -17.5985
  21   2.0000      -0.604397       -16.4465
  22   2.0000      -0.590772       -16.0757
  23   2.0000      -0.572450       -15.5771
  24   2.0000      -0.553578       -15.0636
  25   2.0000      -0.540786       -14.7155
  26   2.0000      -0.499463       -13.5911
  27   2.0000      -0.491581       -13.3766
  28   2.0000      -0.483838       -13.1659
  29   2.0000      -0.470475       -12.8023
  30   2.0000      -0.434908       -11.8344
  31   2.0000      -0.422775       -11.5043
  32   2.0000      -0.411110       -11.1869
  33   0.0000       0.045294         1.2325
  34   0.0000       0.073415         1.9977
  35   0.0000       0.077661         2.1133
  36   0.0000       0.079062         2.1514
  37   0.0000       0.099072         2.6959

MULLIKEN ATOMIC CHARGES
-----------------------
   0 C :    0.221271
   1 S :    1.216487
   2 F :   -0.381821
   3 O :   -0.601030
   4 O :   -0.561075
   5 C :    1.060426
   6 C :    0.014697
   7 H :   -0.083160
   8 H :   -0.269130
   9 H :   -0.082763
  10 H :   -0.096351
  11 H :   -0.228085
  12 H :   -0.076035
  13 H :   -0.133429
Sum of atomic charges:    0.0000000

LOEWDIN ATOMIC CHARGES
----------------------
   0 C :   -0.048615
   1 S :    1.070899
   2 F :   -0.254221
   3 O :   -0.468487
   4 O :   -0.441520
   5 C :    0.131557
   6 C :   -0.095551
   7 H :    0.028153
   8 H :    0.037008
   9 H :    0.039947
  10 H :    0.027372
  11 H :   -0.020696
  12 H :   -0.000687
  13 H :   -0.005160

  Mayer bond orders larger than 0.100000
B(  0-C ,  1-S ) :   0.9468 B(  0-C ,  6-C ) :   1.2045 B(  0-C ,  7-H ) :   0.1395
B(  0-C ,  8-H ) :   0.1363 B(  0-C ,  9-H ) :   0.8997 B(  0-C , 10-H ) :   0.9062
B(  1-S ,  2-F ) :   0.7098 B(  1-S ,  3-O ) :   1.5350 B(  1-S ,  4-O ) :   1.6308
B(  5-C ,  6-C ) :   1.2753 B(  5-C , 11-H ) :   0.7294 B(  5-C , 12-H ) :   0.7106
B(  5-C , 13-H ) :   0.6908 B(  6-C ,  7-H ) :   0.8384 B(  6-C ,  8-H ) :   0.8711
B(  6-C ,  9-H ) :   0.1079 B(  6-C , 10-H ) :   0.1301 B(  6-C , 11-H ) :   0.2327
B(  6-C , 12-H ) :   0.2359 B(  6-C , 13-H ) :   0.2506

FINAL SINGLE POINT ENERGY      -765.593121292444

DIPOLE MOMENT
-------------
                                X             Y             Z
Electronic contribution:      4.75017      -4.54596      -9.78455
Nuclear contribution   :     -5.93570       5.78812      10.65621
                        -----------------------------------------
Total Dipole Moment    :     -1.18553       1.24216       0.87165
                        -----------------------------------------
Magnitude (a.u.)       :      1.92567
Magnitude (Debye)      :      4.89466

Rotational constants in cm-1:     0.129417     0.054385     0.051980
Rotational constants in MHz :  3879.823072  1630.427453  1558.324762

                             ****ORCA TERMINATED NORMALLY****
TOTAL RUN TIME: 0 days 0 hours 0 minutes 16 seconds 488 msec
