                         Program Version 5.0.0 -  RELEASE  -
|  1> !LC-BLYP RIJCOSX def2-SVPD def2/J TightSCF
|  2> *xyz 0 1
|  3> C         -2.16038       -1.36949       -3.46710
|  4> C         -3.03011       -1.91086       -4.54107
|  5> C         -2.04772        0.14658       -3.51177
|  6> H         -3.47744       -2.79151       -4.25710
|  7> H         -2.53801       -2.01786       -5.43808
|  8> H         -3.89159       -1.37604       -4.71437
|  9> H         -1.18444       -1.84400       -3.56639
| 10> H         -2.59819       -1.70838       -2.52848
| 11> C         -3.32876        0.87504       -3.10367
| 12> H         -1.74003        0.45234       -4.51713
| 13> H         -1.23261        0.43494       -2.84221
| 14> H         -4.12483        0.59148       -3.76000
| 15> H         -3.17368        1.93185       -3.16688
| 16> H         -3.58415        0.61151       -2.09857
| 17> *
| 18> %MaxCore 64000
| 19>
| 20> %pal nprocs 8
| 21> end
| 22>
| 23> %scf
| 24>   MaxIter 150
| 25> end
| 26>
| 27>
| 28>                          ****END OF INPUT****

CARTESIAN COORDINATES (ANGSTROEM)
---------------------------------
  C     -2.160380   -1.369490   -3.467100
  C     -3.030110   -1.910860   -4.541070
  C     -2.047720    0.146580   -3.511770
  H     -3.477440   -2.791510   -4.257100
  H     -2.538010   -2.017860   -5.438080
  H     -3.891590   -1.376040   -4.714370
  H     -1.184440   -1.844000   -3.566390
  H     -2.598190   -1.708380   -2.528480
  C     -3.328760    0.875040   -3.103670
  H     -1.740030    0.452340   -4.517130
  H     -1.232610    0.434940   -2.842210
  H     -4.124830    0.591480   -3.760000
  H     -3.173680    1.931850   -3.166880
  H     -3.584150    0.611510   -2.098570

 Total Charge           Charge          ....    0
 Multiplicity           Mult            ....    1
 Number of Electrons    NEL             ....   34
 Basis Dimension        Dim             ....  160

ORBITAL ENERGIES
----------------

  NO   OCC          E(Eh)            E(eV)
   0   2.0000     -10.074035      -274.1284
   1   2.0000     -10.070466      -274.0313
   2   2.0000     -10.064433      -273.8671
   3   2.0000     -10.046856      -273.3888
   4   2.0000      -0.906659       -24.6714
   5   2.0000      -0.832864       -22.6634
   6   2.0000      -0.748982       -20.3808
   7   2.0000      -0.672506       -18.2998
   8   2.0000      -0.573694       -15.6110
   9   2.0000      -0.567504       -15.4426
  10   2.0000      -0.532365       -14.4864
  11   2.0000      -0.491104       -13.3636
  12   2.0000      -0.478322       -13.0158
  13   2.0000      -0.464200       -12.6315
  14   2.0000      -0.419929       -11.4269
  15   2.0000      -0.418610       -11.3909
  16   2.0000      -0.416645       -11.3375
  17   0.0000       0.078793         2.1441
  18   0.0000       0.103001         2.8028
  19   0.0000       0.103647         2.8204
  20   0.0000       0.111993         3.0475
  21   0.0000       0.155599         4.2341

MULLIKEN ATOMIC CHARGES
-----------------------
   0 C :   -0.007895
   1 C :    1.312997
   2 C :   -0.095351
   3 H :   -0.241965
   4 H :   -0.191238
   5 H :   -0.607086
   6 H :   -0.233537
   7 H :   -0.102615
   8 C :    0.995095
   9 H :   -0.175909
  10 H :   -0.168411
  11 H :   -0.319819
  12 H :   -0.124552
  13 H :   -0.039714
Sum of atomic charges:    0.0000000

LOEWDIN ATOMIC CHARGES
----------------------
   0 C :   -0.085939
   1 C :    0.108744
   2 C :   -0.092168
   3 H :   -0.029367
   4 H :   -0.020952
   5 H :   -0.043052
   6 H :    0.027246
   7 H :    0.027698
   8 C :    0.114043
   9 H :    0.028476
  10 H :    0.020317
  11 H :   -0.027689
  12 H :   -0.015240
  13 H :   -0.012117

  Mayer bond orders larger than 0.100000
B(  0-C ,  1-C ) :   1.2213 B(  0-C ,  2-C ) :   1.2353 B(  0-C ,  3-H ) :   0.2438
B(  0-C ,  4-H ) :   0.2428 B(  0-C ,  5-H ) :   0.2600 B(  0-C ,  6-H ) :   0.8750
B(  0-C ,  7-H ) :   0.8292 B(  0-C ,  9-H ) :   0.1451 B(  0-C , 10-H ) :   0.1277
B(  1-C ,  3-H ) :   0.4806 B(  1-C ,  4-H ) :   0.6180 B(  1-C ,  5-H ) :   0.3725
B(  1-C ,  6-H ) :   0.1158 B(  1-C ,  7-H ) :   0.1411 B(  2-C ,  6-H ) :   0.1221
B(  2-C ,  8-C ) :   1.2616 B(  2-C ,  9-H ) :   0.8823 B(  2-C , 10-H ) :   0.8732
B(  2-C , 11-H ) :   0.2311 B(  2-C , 12-H ) :   0.2448 B(  2-C , 13-H ) :   0.2394
B(  3-H ,  5-H ) :   0.3123 B(  4-H ,  5-H ) :   0.1299 B(  8-C , 11-H ) :   0.7548
B(  8-C , 12-H ) :   0.7005 B(  8-C , 13-H ) :   0.7092

FINAL SINGLE POINT ENERGY      -157.816344485301

DIPOLE MOMENT
-------------
                                X             Y             Z
Electronic contribution:      0.86675       0.03046       0.25379
Nuclear contribution   :     -0.87438      -0.05339      -0.25605
                        -----------------------------------------
Total Dipole Moment    :     -0.00763      -0.02293      -0.00226
                        -----------------------------------------
Magnitude (a.u.)       :      0.02427
Magnitude (Debye)      :      0.06169

Rotational constants in cm-1:     0.464420     0.160323     0.139078
Rotational constants in MHz : 13922.972952  4806.377145  4169.443621

                             ****ORCA TERMINATED NORMALLY****
TOTAL RUN TIME: 0 days 0 hours 0 minutes 7 seconds 613 msec
