                         Program Version 5.0.0 -  RELEASE  -
|  1> !LC-BLYP RIJCOSX def2-SVPD def2/J TightSCF
|  2> *xyz 0 1
|  3> C         -7.33044       -2.67899       -3.20681
|  4> S         -6.01966       -2.92697       -4.41913
|  5> O         -5.64583       -1.58838       -4.91931
|  6> F         -4.88196       -3.50370       -3.66724
|  7> O         -6.54927       -3.80515       -5.42507
|  8> C         -6.28692       -0.73588       -1.89353
|  9> C         -7.46900       -1.24615       -2.71383
| 10> H         -7.60191       -0.60135       -3.58533
| 11> H         -8.38979       -1.17344       -2.12692
| 12> H         -7.11825       -3.37982       -2.39805
| 13> H         -8.24184       -3.00474       -3.70651
| 14> H         -5.39124       -0.81034       -2.47415
| 15> H         -6.18709       -1.32597       -1.00655
| 16> H         -6.45393        0.28631       -1.62495
| 17> *
| 18> %MaxCore 64000
| 19>
| 20> %pal nprocs 8
| 21> end
| 22>
| 23> %scf
| 24>   MaxIter 150
| 25> end
| 26>
| 27>
| 28>                          ****END OF INPUT****

CARTESIAN COORDINATES (ANGSTROEM)
---------------------------------
  C     -7.330440   -2.678990   -3.206810
  S     -6.019660   -2.926970   -4.419130
  O     -5.645830   -1.588380   -4.919310
  F     -4.881960   -3.503700   -3.667240
  O     -6.549270   -3.805150   -5.425070
  C     -6.286920   -0.735880   -1.893530
  C     -7.469000   -1.246150   -2.713830
  H     -7.601910   -0.601350   -3.585330
  H     -8.389790   -1.173440   -2.126920
  H     -7.118250   -3.379820   -2.398050
  H     -8.241840   -3.004740   -3.706510
  H     -5.391240   -0.810340   -2.474150
  H     -6.187090   -1.325970   -1.006550
  H     -6.453930    0.286310   -1.624950

 Total Charge           Charge          ....    0
 Multiplicity           Mult            ....    1
 Number of Electrons    NEL             ....   66
 Basis Dimension        Dim             ....  212

ORBITAL ENERGIES
----------------

  NO   OCC          E(Eh)            E(eV)
   0   2.0000     -88.565285     -2409.9839
   1   2.0000     -24.577219      -668.7801
   2   2.0000     -18.976019      -516.3637
   3   2.0000     -18.964263      -516.0438
   4   2.0000     -10.151717      -276.2423
   5   2.0000     -10.115068      -275.2450
   6   2.0000     -10.086322      -274.4628
   7   2.0000      -8.114924      -220.8183
   8   2.0000      -6.153690      -167.4504
   9   2.0000      -6.147027      -167.2691
  10   2.0000      -6.145574      -167.2296
  11   2.0000      -1.430110       -38.9153
  12   2.0000      -1.210372       -32.9359
  13   2.0000      -1.107324       -30.1318
  14   2.0000      -0.944754       -25.7081
  15   2.0000      -0.861052       -23.4304
  16   2.0000      -0.806906       -21.9570
  17   2.0000      -0.743292       -20.2260
  18   2.0000      -0.680962       -18.5299
  19   2.0000      -0.672197       -18.2914
  20   2.0000      -0.658539       -17.9198
  21   2.0000      -0.606013       -16.4904
  22   2.0000      -0.595489       -16.2041
  23   2.0000      -0.560064       -15.2401
  24   2.0000      -0.551628       -15.0106
  25   2.0000      -0.541795       -14.7430
  26   2.0000      -0.499688       -13.5972
  27   2.0000      -0.486018       -13.2252
  28   2.0000      -0.472483       -12.8569
  29   2.0000      -0.465413       -12.6645
  30   2.0000      -0.433570       -11.7980
  31   2.0000      -0.430421       -11.7124
  32   2.0000      -0.414763       -11.2863
  33   0.0000       0.049694         1.3523
  34   0.0000       0.070973         1.9313
  35   0.0000       0.078605         2.1389
  36   0.0000       0.079589         2.1657
  37   0.0000       0.105047         2.8585

MULLIKEN ATOMIC CHARGES
-----------------------
   0 C :    0.181600
   1 S :    1.236048
   2 O :   -0.645394
   3 F :   -0.349396
   4 O :   -0.560460
   5 C :    1.044985
   6 C :    0.045321
   7 H :   -0.049365
   8 H :   -0.279616
   9 H :   -0.074841
  10 H :   -0.099442
  11 H :   -0.231302
  12 H :   -0.081669
  13 H :   -0.136469
Sum of atomic charges:   -0.0000000

LOEWDIN ATOMIC CHARGES
----------------------
   0 C :   -0.053461
   1 S :    1.076450
   2 O :   -0.457486
   3 F :   -0.258253
   4 O :   -0.441722
   5 C :    0.129467
   6 C :   -0.088649
   7 H :    0.032724
   8 H :    0.036959
   9 H :    0.028228
  10 H :    0.031625
  11 H :   -0.023583
  12 H :   -0.007858
  13 H :   -0.004441

  Mayer bond orders larger than 0.100000
B(  0-C ,  1-S ) :   0.9325 B(  0-C ,  6-C ) :   1.2370 B(  0-C ,  7-H ) :   0.1571
B(  0-C ,  8-H ) :   0.1520 B(  0-C ,  9-H ) :   0.8832 B(  0-C , 10-H ) :   0.9072
B(  1-S ,  2-O ) :   1.5364 B(  1-S ,  3-F ) :   0.7042 B(  1-S ,  4-O ) :   1.6360
B(  5-C ,  6-C ) :   1.2648 B(  5-C , 11-H ) :   0.7370 B(  5-C , 12-H ) :   0.7132
B(  5-C , 13-H ) :   0.6948 B(  6-C ,  7-H ) :   0.8348 B(  6-C ,  8-H ) :   0.8580
B(  6-C ,  9-H ) :   0.1158 B(  6-C , 10-H ) :   0.1181 B(  6-C , 11-H ) :   0.2282
B(  6-C , 12-H ) :   0.2337 B(  6-C , 13-H ) :   0.2493

FINAL SINGLE POINT ENERGY      -765.596788847424

DIPOLE MOMENT
-------------
                                X             Y             Z
Electronic contribution:      6.10634      -7.85871      -7.68174
Nuclear contribution   :     -6.75719       7.84793       9.30968
                        -----------------------------------------
Total Dipole Moment    :     -0.65085      -0.01078       1.62794
                        -----------------------------------------
Magnitude (a.u.)       :      1.75325
Magnitude (Debye)      :      4.45642

Rotational constants in cm-1:     0.129104     0.054499     0.051192
Rotational constants in MHz :  3870.429564  1633.827608  1534.709243

                             ****ORCA TERMINATED NORMALLY****
TOTAL RUN TIME: 0 days 0 hours 0 minutes 16 seconds 760 msec
