                         Program Version 5.0.0 -  RELEASE  -
|  1> !LC-BLYP RIJCOSX def2-SVPD def2/J TightSCF
|  2> *xyz 0 1
|  3> C         -7.33044       -2.67899       -3.20681
|  4> S         -6.01966       -2.92697       -4.41913
|  5> O         -5.64583       -1.58838       -4.91931
|  6> O         -4.88196       -3.50370       -3.66724
|  7> F         -6.54927       -3.80515       -5.42507
|  8> C         -6.28692       -0.73588       -1.89353
|  9> C         -7.46900       -1.24615       -2.71383
| 10> H         -7.60191       -0.60135       -3.58533
| 11> H         -8.38979       -1.17344       -2.12692
| 12> H         -7.11825       -3.37982       -2.39805
| 13> H         -8.24184       -3.00474       -3.70651
| 14> H         -5.39124       -0.81034       -2.47415
| 15> H         -6.18709       -1.32597       -1.00655
| 16> H         -6.45393        0.28631       -1.62495
| 17> *
| 18> %MaxCore 64000
| 19>
| 20> %pal nprocs 8
| 21> end
| 22>
| 23> %scf
| 24>   MaxIter 150
| 25> end
| 26>
| 27>
| 28>                          ****END OF INPUT****

CARTESIAN COORDINATES (ANGSTROEM)
---------------------------------
  C     -7.330440   -2.678990   -3.206810
  S     -6.019660   -2.926970   -4.419130
  O     -5.645830   -1.588380   -4.919310
  O     -4.881960   -3.503700   -3.667240
  F     -6.549270   -3.805150   -5.425070
  C     -6.286920   -0.735880   -1.893530
  C     -7.469000   -1.246150   -2.713830
  H     -7.601910   -0.601350   -3.585330
  H     -8.389790   -1.173440   -2.126920
  H     -7.118250   -3.379820   -2.398050
  H     -8.241840   -3.004740   -3.706510
  H     -5.391240   -0.810340   -2.474150
  H     -6.187090   -1.325970   -1.006550
  H     -6.453930    0.286310   -1.624950

 Total Charge           Charge          ....    0
 Multiplicity           Mult            ....    1
 Number of Electrons    NEL             ....   66
 Basis Dimension        Dim             ....  212

ORBITAL ENERGIES
----------------

  NO   OCC          E(Eh)            E(eV)
   0   2.0000     -88.567504     -2410.0443
   1   2.0000     -24.599045      -669.3741
   2   2.0000     -18.965412      -516.0751
   3   2.0000     -18.961924      -515.9802
   4   2.0000     -10.152463      -276.2626
   5   2.0000     -10.114639      -275.2333
   6   2.0000     -10.078448      -274.2485
   7   2.0000      -8.117279      -220.8824
   8   2.0000      -6.156181      -167.5182
   9   2.0000      -6.149226      -167.3289
  10   2.0000      -6.147716      -167.2879
  11   2.0000      -1.466775       -39.9130
  12   2.0000      -1.196580       -32.5606
  13   2.0000      -1.090390       -29.6710
  14   2.0000      -0.943460       -25.6728
  15   2.0000      -0.866445       -23.5772
  16   2.0000      -0.816337       -22.2137
  17   2.0000      -0.746107       -20.3026
  18   2.0000      -0.699443       -19.0328
  19   2.0000      -0.692137       -18.8340
  20   2.0000      -0.661594       -18.0029
  21   2.0000      -0.600331       -16.3358
  22   2.0000      -0.595625       -16.2078
  23   2.0000      -0.565688       -15.3932
  24   2.0000      -0.547508       -14.8984
  25   2.0000      -0.527282       -14.3481
  26   2.0000      -0.491948       -13.3866
  27   2.0000      -0.477012       -12.9802
  28   2.0000      -0.472931       -12.8691
  29   2.0000      -0.456268       -12.4157
  30   2.0000      -0.429858       -11.6970
  31   2.0000      -0.421846       -11.4790
  32   2.0000      -0.402275       -10.9465
  33   0.0000       0.045587         1.2405
  34   0.0000       0.069393         1.8883
  35   0.0000       0.076880         2.0920
  36   0.0000       0.082094         2.2339
  37   0.0000       0.100453         2.7335

MULLIKEN ATOMIC CHARGES
-----------------------
   0 C :    0.184545
   1 S :    1.279713
   2 O :   -0.638390
   3 O :   -0.593040
   4 F :   -0.359471
   5 C :    1.053840
   6 C :    0.005670
   7 H :   -0.048672
   8 H :   -0.279848
   9 H :   -0.078746
  10 H :   -0.093203
  11 H :   -0.213769
  12 H :   -0.082330
  13 H :   -0.136300
Sum of atomic charges:    0.0000000

LOEWDIN ATOMIC CHARGES
----------------------
   0 C :   -0.058792
   1 S :    1.082030
   2 O :   -0.459136
   3 O :   -0.466940
   4 F :   -0.238802
   5 C :    0.134848
   6 C :   -0.085438
   7 H :    0.030064
   8 H :    0.036939
   9 H :    0.032886
  10 H :    0.020297
  11 H :   -0.017587
  12 H :   -0.004772
  13 H :   -0.005597

  Mayer bond orders larger than 0.100000
B(  0-C ,  1-S ) :   0.9154 B(  0-C ,  6-C ) :   1.2435 B(  0-C ,  7-H ) :   0.1530
B(  0-C ,  8-H ) :   0.1434 B(  0-C ,  9-H ) :   0.9168 B(  0-C , 10-H ) :   0.8561
B(  1-S ,  2-O ) :   1.5128 B(  1-S ,  3-O ) :   1.5231 B(  1-S ,  4-F ) :   0.7724
B(  5-C ,  6-C ) :   1.2689 B(  5-C , 11-H ) :   0.7425 B(  5-C , 12-H ) :   0.7065
B(  5-C , 13-H ) :   0.6895 B(  6-C ,  7-H ) :   0.8330 B(  6-C ,  8-H ) :   0.8659
B(  6-C ,  9-H ) :   0.1081 B(  6-C , 10-H ) :   0.1423 B(  6-C , 11-H ) :   0.2304
B(  6-C , 12-H ) :   0.2361 B(  6-C , 13-H ) :   0.2514

FINAL SINGLE POINT ENERGY      -765.578204429808

DIPOLE MOMENT
-------------
                                X             Y             Z
Electronic contribution:      3.23338      -8.38992     -10.74438
Nuclear contribution   :     -4.96410       8.17213      11.20012
                        -----------------------------------------
Total Dipole Moment    :     -1.73072      -0.21779       0.45574
                        -----------------------------------------
Magnitude (a.u.)       :      1.80292
Magnitude (Debye)      :      4.58266

Rotational constants in cm-1:     0.133784     0.053405     0.050278
Rotational constants in MHz :  4010.731548  1601.045142  1507.298018

                             ****ORCA TERMINATED NORMALLY****
TOTAL RUN TIME: 0 days 0 hours 0 minutes 16 seconds 342 msec
