                         Program Version 5.0.0 -  RELEASE  -
|  1> !TPSS D3BJ RIJCOSX def2-SVPD def2/J TightSCF
|  2> *xyz -1 1
|  3> C          0.64866        1.00359       -3.64560
|  4> C          0.13297        2.38587       -4.02462
|  5> C         -1.36646        2.47911       -4.31393
|  6> C         -2.35773        2.30686       -3.13675
|  7> H         -1.63680        1.72709       -5.06399
|  8> H         -1.58235        3.44561       -4.76869
|  9> O         -3.44376        2.84652       -3.25274
| 10> O         -1.97092        1.58304       -2.15123
| 11> H          0.41484        3.10285       -3.24517
| 12> H          0.68317        2.68756       -4.91972
| 13> H          0.37534        0.30051       -4.40446
| 14> H          0.21856        0.70606       -2.71212
| 15> H          1.71431        1.03324       -3.55398
| 16> *
| 17> %MaxCore 64000
| 18>
| 19> %pal nprocs 4
| 20> end
| 21>
| 22> %scf
| 23>   MaxIter 150
| 24> end
| 25>
| 26>
| 27>                          ****END OF INPUT****

CARTESIAN COORDINATES (ANGSTROEM)
---------------------------------
  C      0.648660    1.003590   -3.645600
  C      0.132970    2.385870   -4.024620
  C     -1.366460    2.479110   -4.313930
  C     -2.357730    2.306860   -3.136750
  H     -1.636800    1.727090   -5.063990
  H     -1.582350    3.445610   -4.768690
  O     -3.443760    2.846520   -3.252740
  O     -1.970920    1.583040   -2.151230
  H      0.414840    3.102850   -3.245170
  H      0.683170    2.687560   -4.919720
  H      0.375340    0.300510   -4.404460
  H      0.218560    0.706060   -2.712120
  H      1.714310    1.033240   -3.553980

 Total Charge           Charge          ....   -1
 Multiplicity           Mult            ....    1
 Number of Electrons    NEL             ....   48
 Basis Dimension        Dim             ....  182

ORBITAL ENERGIES
----------------

  NO   OCC          E(Eh)            E(eV)
   0   2.0000     -18.646621      -507.4003
   1   2.0000     -18.637282      -507.1462
   2   2.0000      -9.880254      -268.8554
   3   2.0000      -9.850366      -268.0421
   4   2.0000      -9.839677      -267.7512
   5   2.0000      -9.827837      -267.4291
   6   2.0000      -0.750381       -20.4189
   7   2.0000      -0.654699       -17.8153
   8   2.0000      -0.569810       -15.5053
   9   2.0000      -0.479819       -13.0565
  10   2.0000      -0.390432       -10.6242
  11   2.0000      -0.280408        -7.6303
  12   2.0000      -0.253567        -6.8999
  13   2.0000      -0.242686        -6.6038
  14   2.0000      -0.219414        -5.9706
  15   2.0000      -0.181662        -4.9433
  16   2.0000      -0.175164        -4.7665
  17   2.0000      -0.165899        -4.5144
  18   2.0000      -0.154481        -4.2037
  19   2.0000      -0.136201        -3.7062
  20   2.0000      -0.125962        -3.4276
  21   2.0000      -0.017528        -0.4770
  22   2.0000      -0.003469        -0.0944
  23   2.0000       0.011047         0.3006
  24   0.0000       0.137582         3.7438
  25   0.0000       0.164978         4.4893
  26   0.0000       0.173692         4.7264
  27   0.0000       0.187851         5.1117
  28   0.0000       0.203260         5.5310

MULLIKEN ATOMIC CHARGES
-----------------------
   0 C :    0.645335
   1 C :   -0.359370
   2 C :   -0.065130
   3 C :    0.450107
   4 H :    0.070233
   5 H :    0.009186
   6 O :   -0.658018
   7 O :   -0.751897
   8 H :   -0.077964
   9 H :   -0.047505
  10 H :   -0.056376
  11 H :   -0.120468
  12 H :   -0.038132
Sum of atomic charges:   -1.0000000

LOEWDIN ATOMIC CHARGES
----------------------
   0 C :    0.108643
   1 C :   -0.088482
   2 C :    0.009329
   3 C :   -0.291991
   4 H :    0.007476
   5 H :   -0.008164
   6 O :   -0.296492
   7 O :   -0.320501
   8 H :    0.011947
   9 H :   -0.010045
  10 H :   -0.032460
  11 H :   -0.045134
  12 H :   -0.044126

  Mayer bond orders larger than 0.100000
B(  0-C ,  1-C ) :   1.2778 B(  0-C ,  8-H ) :   0.1052 B(  0-C , 10-H ) :   0.8091
B(  0-C , 11-H ) :   0.8634 B(  0-C , 12-H ) :   0.7673 B(  1-C ,  2-C ) :   1.1747
B(  1-C ,  4-H ) :   0.1208 B(  1-C ,  5-H ) :   0.1198 B(  1-C ,  8-H ) :   0.9603
B(  1-C ,  9-H ) :   0.8845 B(  1-C , 10-H ) :   0.2000 B(  1-C , 11-H ) :   0.2197
B(  1-C , 12-H ) :   0.2088 B(  2-C ,  3-C ) :   1.0436 B(  2-C ,  4-H ) :   0.8496
B(  2-C ,  5-H ) :   0.9369 B(  2-C ,  8-H ) :   0.1339 B(  2-C ,  9-H ) :   0.1154
B(  3-C ,  5-H ) :   0.1487 B(  3-C ,  6-O ) :   1.4722 B(  3-C ,  7-O ) :   1.4127

Dispersion correction           -0.011965399
FINAL SINGLE POINT ENERGY      -307.000024290709

DIPOLE MOMENT
-------------
                                X             Y             Z
Electronic contribution:     -7.27416       1.45809       3.18341
Nuclear contribution   :      9.31936      -1.53308      -4.48293
                        -----------------------------------------
Total Dipole Moment    :      2.04520      -0.07499      -1.29953
                        -----------------------------------------
Magnitude (a.u.)       :      2.42430
Magnitude (Debye)      :      6.16208

Rotational constants in cm-1:     0.250458     0.077448     0.063252
Rotational constants in MHz :  7508.538874  2321.842942  1896.252250

                             ****ORCA TERMINATED NORMALLY****
TOTAL RUN TIME: 0 days 0 hours 0 minutes 9 seconds 375 msec
