                         Program Version 5.0.0 -  RELEASE  -
|  1> !TPSS D3BJ RIJCOSX def2-SVPD def2/J TightSCF
|  2> *xyz 1 1
|  3> C          0.64866        1.00359       -3.64560
|  4> N          0.28128        0.67645       -2.24018
|  5> C          0.13297        2.38587       -4.02462
|  6> C         -1.36646        2.47911       -4.31393
|  7> H          0.39079       -0.31925       -2.02649
|  8> H         -0.69269        0.99010       -2.13812
|  9> H          0.85421        1.21221       -1.57528
| 10> H          0.19099        0.23965       -4.27575
| 11> H          1.73157        0.93173       -3.75075
| 12> H          0.41484        3.10285       -3.24517
| 13> H          0.68317        2.68756       -4.91972
| 14> H         -1.62719        1.77449       -5.07580
| 15> H         -1.60483        3.46796       -4.64597
| 16> H         -1.91603        2.26007       -3.42236
| 17> *
| 18> %MaxCore 64000
| 19>
| 20> %pal nprocs 4
| 21> end
| 22>
| 23> %scf
| 24>   MaxIter 150
| 25> end
| 26>
| 27>
| 28>                          ****END OF INPUT****

CARTESIAN COORDINATES (ANGSTROEM)
---------------------------------
  C      0.648660    1.003590   -3.645600
  N      0.281280    0.676450   -2.240180
  C      0.132970    2.385870   -4.024620
  C     -1.366460    2.479110   -4.313930
  H      0.390790   -0.319250   -2.026490
  H     -0.692690    0.990100   -2.138120
  H      0.854210    1.212210   -1.575280
  H      0.190990    0.239650   -4.275750
  H      1.731570    0.931730   -3.750750
  H      0.414840    3.102850   -3.245170
  H      0.683170    2.687560   -4.919720
  H     -1.627190    1.774490   -5.075800
  H     -1.604830    3.467960   -4.645970
  H     -1.916030    2.260070   -3.422360

 Total Charge           Charge          ....    1
 Multiplicity           Mult            ....    1
 Number of Electrons    NEL             ....   34
 Basis Dimension        Dim             ....  160

ORBITAL ENERGIES
----------------

  NO   OCC          E(Eh)            E(eV)
   0   2.0000     -14.446920      -393.1207
   1   2.0000     -10.248284      -278.8700
   2   2.0000     -10.182034      -277.0672
   3   2.0000     -10.150564      -276.2109
   4   2.0000      -1.142210       -31.0811
   5   2.0000      -0.911638       -24.8069
   6   2.0000      -0.826046       -22.4779
   7   2.0000      -0.758321       -20.6350
   8   2.0000      -0.751735       -20.4557
   9   2.0000      -0.720125       -19.5956
  10   2.0000      -0.648817       -17.6552
  11   2.0000      -0.590599       -16.0710
  12   2.0000      -0.570407       -15.5216
  13   2.0000      -0.549387       -14.9496
  14   2.0000      -0.494187       -13.4475
  15   2.0000      -0.483730       -13.1630
  16   2.0000      -0.481871       -13.1124
  17   0.0000      -0.202226        -5.5029
  18   0.0000      -0.147660        -4.0180
  19   0.0000      -0.142762        -3.8847
  20   0.0000      -0.129992        -3.5373
  21   0.0000      -0.104939        -2.8555

MULLIKEN ATOMIC CHARGES
-----------------------
   0 C :    0.591258
   1 N :   -0.826599
   2 C :   -0.384558
   3 C :    0.705101
   4 H :    0.334220
   5 H :    0.410187
   6 H :    0.413795
   7 H :   -0.002195
   8 H :   -0.073393
   9 H :   -0.018411
  10 H :   -0.004221
  11 H :    0.031480
  12 H :   -0.006113
  13 H :   -0.170551
Sum of atomic charges:    1.0000000

LOEWDIN ATOMIC CHARGES
----------------------
   0 C :    0.096160
   1 N :    0.339095
   2 C :   -0.040616
   3 C :    0.164299
   4 H :    0.105559
   5 H :    0.083186
   6 H :    0.107827
   7 H :    0.050265
   8 H :    0.048917
   9 H :    0.031020
  10 H :    0.041020
  11 H :   -0.003713
  12 H :    0.004655
  13 H :   -0.027673

  Mayer bond orders larger than 0.100000
B(  0-C ,  1-N ) :   0.7456 B(  0-C ,  2-C ) :   1.1787 B(  0-C ,  7-H ) :   0.9051
B(  0-C ,  8-H ) :   0.8973 B(  0-C , 10-H ) :   0.1076 B(  1-N ,  4-H ) :   0.7755
B(  1-N ,  5-H ) :   0.6591 B(  1-N ,  6-H ) :   0.7209 B(  1-N ,  8-H ) :   0.1177
B(  2-C ,  3-C ) :   1.2825 B(  2-C ,  9-H ) :   0.9616 B(  2-C , 10-H ) :   0.9186
B(  2-C , 11-H ) :   0.1718 B(  2-C , 12-H ) :   0.2093 B(  2-C , 13-H ) :   0.1813
B(  3-C , 11-H ) :   0.7984 B(  3-C , 12-H ) :   0.7912 B(  3-C , 13-H ) :   0.8404

Dispersion correction           -0.011381564
FINAL SINGLE POINT ENERGY      -174.772056250778

DIPOLE MOMENT
-------------
                                X             Y             Z
Electronic contribution:      1.30810      -1.45905       1.56993
Nuclear contribution   :     -0.74670       0.28200      -0.02386
                        -----------------------------------------
Total Dipole Moment    :      0.56141      -1.17705       1.54606
                        -----------------------------------------
Magnitude (a.u.)       :      2.02261
Magnitude (Debye)      :      5.14106

Rotational constants in cm-1:     0.472563     0.149855     0.132807
Rotational constants in MHz : 14167.078489  4492.544970  3981.441276

                             ****ORCA TERMINATED NORMALLY****
TOTAL RUN TIME: 0 days 0 hours 0 minutes 7 seconds 414 msec
