                         Program Version 5.0.0 -  RELEASE  -
|  1> !TPSS D3BJ RIJCOSX def2-SVPD def2/J TightSCF
|  2> *xyz 0 1
|  3> C          0.64866        1.00359       -3.64560
|  4> C          0.13297        2.38587       -4.02462
|  5> C         -1.36646        2.47911       -4.31393
|  6> C         -2.35773        2.30686       -3.13675
|  7> H         -1.63680        1.72709       -5.06399
|  8> H         -1.58235        3.44561       -4.76869
|  9> F         -3.44376        2.84652       -3.25274
| 10> O         -1.97092        1.58304       -2.15123
| 11> H          0.41484        3.10285       -3.24517
| 12> H          0.68317        2.68756       -4.91972
| 13> H          0.37534        0.30051       -4.40446
| 14> H          0.21856        0.70606       -2.71212
| 15> H          1.71431        1.03324       -3.55398
| 16> *
| 17> %MaxCore 64000
| 18>
| 19> %pal nprocs 4
| 20> end
| 21>
| 22> %scf
| 23>   MaxIter 150
| 24> end
| 25>
| 26>
| 27>                          ****END OF INPUT****

CARTESIAN COORDINATES (ANGSTROEM)
---------------------------------
  C      0.648660    1.003590   -3.645600
  C      0.132970    2.385870   -4.024620
  C     -1.366460    2.479110   -4.313930
  C     -2.357730    2.306860   -3.136750
  H     -1.636800    1.727090   -5.063990
  H     -1.582350    3.445610   -4.768690
  F     -3.443760    2.846520   -3.252740
  O     -1.970920    1.583040   -2.151230
  H      0.414840    3.102850   -3.245170
  H      0.683170    2.687560   -4.919720
  H      0.375340    0.300510   -4.404460
  H      0.218560    0.706060   -2.712120
  H      1.714310    1.033240   -3.553980

 Total Charge           Charge          ....    0
 Multiplicity           Mult            ....    1
 Number of Electrons    NEL             ....   48
 Basis Dimension        Dim             ....  182

ORBITAL ENERGIES
----------------

  NO   OCC          E(Eh)            E(eV)
   0   2.0000     -24.511575      -666.9939
   1   2.0000     -18.903355      -514.3864
   2   2.0000     -10.175533      -276.8903
   3   2.0000     -10.033495      -273.0253
   4   2.0000     -10.012026      -272.4411
   5   2.0000      -9.982895      -271.6484
   6   2.0000      -1.254796       -34.1447
   7   2.0000      -0.939797       -25.5732
   8   2.0000      -0.743815       -20.2402
   9   2.0000      -0.669812       -18.2265
  10   2.0000      -0.612886       -16.6775
  11   2.0000      -0.558943       -15.2096
  12   2.0000      -0.512180       -13.9371
  13   2.0000      -0.490882       -13.3576
  14   2.0000      -0.456366       -12.4184
  15   2.0000      -0.419904       -11.4262
  16   2.0000      -0.409774       -11.1505
  17   2.0000      -0.381777       -10.3887
  18   2.0000      -0.344831        -9.3833
  19   2.0000      -0.323250        -8.7961
  20   2.0000      -0.319128        -8.6839
  21   2.0000      -0.311102        -8.4655
  22   2.0000      -0.303943        -8.2707
  23   2.0000      -0.241667        -6.5761
  24   0.0000      -0.064985        -1.7683
  25   0.0000       0.003962         0.1078
  26   0.0000       0.028640         0.7793
  27   0.0000       0.043201         1.1756
  28   0.0000       0.044622         1.2142

MULLIKEN ATOMIC CHARGES
-----------------------
   0 C :    0.670205
   1 C :   -0.365130
   2 C :   -0.103150
   3 C :    0.790957
   4 H :    0.145888
   5 H :    0.051614
   6 F :   -0.351065
   7 O :   -0.552742
   8 H :   -0.060630
   9 H :   -0.026818
  10 H :   -0.044421
  11 H :   -0.138412
  12 H :   -0.016296
Sum of atomic charges:    0.0000000

LOEWDIN ATOMIC CHARGES
----------------------
   0 C :    0.135017
   1 C :   -0.058930
   2 C :    0.048429
   3 C :   -0.003538
   4 H :    0.037079
   5 H :    0.016369
   6 F :   -0.001999
   7 O :   -0.139849
   8 H :    0.025592
   9 H :    0.017193
  10 H :   -0.019161
  11 H :   -0.035873
  12 H :   -0.020329

  Mayer bond orders larger than 0.100000
B(  0-C ,  1-C ) :   1.3095 B(  0-C ,  8-H ) :   0.1025 B(  0-C , 10-H ) :   0.7976
B(  0-C , 11-H ) :   0.8678 B(  0-C , 12-H ) :   0.7660 B(  1-C ,  2-C ) :   1.2398
B(  1-C ,  4-H ) :   0.1187 B(  1-C ,  5-H ) :   0.1298 B(  1-C ,  8-H ) :   0.9568
B(  1-C ,  9-H ) :   0.8858 B(  1-C , 10-H ) :   0.1925 B(  1-C , 11-H ) :   0.2074
B(  1-C , 12-H ) :   0.1995 B(  2-C ,  3-C ) :   1.0867 B(  2-C ,  4-H ) :   0.8190
B(  2-C ,  5-H ) :   0.8850 B(  2-C ,  6-F ) :   0.1122 B(  2-C ,  8-H ) :   0.1191
B(  3-C ,  5-H ) :   0.1045 B(  3-C ,  6-F ) :   0.7395 B(  3-C ,  7-O ) :   1.7059

Dispersion correction           -0.011546223
FINAL SINGLE POINT ENERGY      -331.523645090455

DIPOLE MOMENT
-------------
                                X             Y             Z
Electronic contribution:    -11.47284       2.88902       3.65730
Nuclear contribution   :     11.62992      -2.38586      -4.66016
                        -----------------------------------------
Total Dipole Moment    :      0.15708       0.50316      -1.00286
                        -----------------------------------------
Magnitude (a.u.)       :      1.13295
Magnitude (Debye)      :      2.87973

Rotational constants in cm-1:     0.249088     0.072929     0.060128
Rotational constants in MHz :  7467.482637  2186.350475  1802.579568

                             ****ORCA TERMINATED NORMALLY****
TOTAL RUN TIME: 0 days 0 hours 0 minutes 9 seconds 945 msec
