                         Program Version 5.0.0 -  RELEASE  -
|  1> !TPSS D3BJ RIJCOSX def2-SVPD def2/J TightSCF
|  2> *xyz 0 1
|  3> C          0.64866        1.00359       -3.64560
|  4> C          0.28128        0.67645       -2.24018
|  5> C          0.13297        2.38587       -4.02462
|  6> C         -1.36646        2.47911       -4.31393
|  7> H          0.39079       -0.31925       -2.02649
|  8> H         -0.69269        0.99010       -2.13812
|  9> H          0.85421        1.21221       -1.57528
| 10> H          0.19099        0.23965       -4.27575
| 11> H          1.73157        0.93173       -3.75075
| 12> H          0.41484        3.10285       -3.24517
| 13> H          0.68317        2.68756       -4.91972
| 14> H         -1.62719        1.77449       -5.07580
| 15> H         -1.60483        3.46796       -4.64597
| 16> H         -1.91603        2.26007       -3.42236
| 17> *
| 18> %MaxCore 64000
| 19>
| 20> %pal nprocs 4
| 21> end
| 22>
| 23> %scf
| 24>   MaxIter 150
| 25> end
| 26>
| 27>
| 28>                          ****END OF INPUT****

CARTESIAN COORDINATES (ANGSTROEM)
---------------------------------
  C      0.648660    1.003590   -3.645600
  C      0.281280    0.676450   -2.240180
  C      0.132970    2.385870   -4.024620
  C     -1.366460    2.479110   -4.313930
  H      0.390790   -0.319250   -2.026490
  H     -0.692690    0.990100   -2.138120
  H      0.854210    1.212210   -1.575280
  H      0.190990    0.239650   -4.275750
  H      1.731570    0.931730   -3.750750
  H      0.414840    3.102850   -3.245170
  H      0.683170    2.687560   -4.919720
  H     -1.627190    1.774490   -5.075800
  H     -1.604830    3.467960   -4.645970
  H     -1.916030    2.260070   -3.422360

 Total Charge           Charge          ....    0
 Multiplicity           Mult            ....    1
 Number of Electrons    NEL             ....   34
 Basis Dimension        Dim             ....  160

ORBITAL ENERGIES
----------------

  NO   OCC          E(Eh)            E(eV)
   0   2.0000      -9.990607      -271.8582
   1   2.0000      -9.985870      -271.7293
   2   2.0000      -9.984354      -271.6881
   3   2.0000      -9.963169      -271.1116
   4   2.0000      -0.738233       -20.0883
   5   2.0000      -0.669109       -18.2074
   6   2.0000      -0.586811       -15.9679
   7   2.0000      -0.517499       -14.0819
   8   2.0000      -0.427208       -11.6249
   9   2.0000      -0.415999       -11.3199
  10   2.0000      -0.387354       -10.5405
  11   2.0000      -0.357358        -9.7242
  12   2.0000      -0.338776        -9.2186
  13   2.0000      -0.326277        -8.8785
  14   2.0000      -0.291005        -7.9187
  15   2.0000      -0.289917        -7.8890
  16   2.0000      -0.278943        -7.5904
  17   0.0000       0.016740         0.4555
  18   0.0000       0.041927         1.1409
  19   0.0000       0.044830         1.2199
  20   0.0000       0.049661         1.3513
  21   0.0000       0.087531         2.3819

MULLIKEN ATOMIC CHARGES
-----------------------
   0 C :   -0.297255
   1 C :    1.087051
   2 C :   -0.370422
   3 C :    0.672015
   4 H :   -0.204322
   5 H :   -0.407827
   6 H :   -0.059278
   7 H :   -0.007697
   8 H :   -0.129615
   9 H :   -0.031946
  10 H :   -0.077152
  11 H :    0.021660
  12 H :   -0.030571
  13 H :   -0.164642
Sum of atomic charges:    0.0000000

LOEWDIN ATOMIC CHARGES
----------------------
   0 C :   -0.071780
   1 C :    0.134962
   2 C :   -0.075289
   3 C :    0.136052
   4 H :   -0.034896
   5 H :   -0.048275
   6 H :   -0.030244
   7 H :    0.018919
   8 H :    0.016362
   9 H :    0.020121
  10 H :    0.009099
  11 H :   -0.020183
  12 H :   -0.022124
  13 H :   -0.032722

  Mayer bond orders larger than 0.100000
B(  0-C ,  1-C ) :   1.2134 B(  0-C ,  2-C ) :   1.1883 B(  0-C ,  4-H ) :   0.2121
B(  0-C ,  5-H ) :   0.3063 B(  0-C ,  6-H ) :   0.2129 B(  0-C ,  7-H ) :   0.9026
B(  0-C ,  8-H ) :   0.9577 B(  0-C ,  9-H ) :   0.1140 B(  0-C , 10-H ) :   0.1048
B(  1-C ,  4-H ) :   0.6863 B(  1-C ,  5-H ) :   0.6453 B(  1-C ,  6-H ) :   0.6682
B(  2-C ,  3-C ) :   1.2622 B(  2-C ,  8-H ) :   0.1081 B(  2-C ,  9-H ) :   0.9377
B(  2-C , 10-H ) :   0.9561 B(  2-C , 11-H ) :   0.1942 B(  2-C , 12-H ) :   0.2110
B(  2-C , 13-H ) :   0.2003 B(  3-C , 11-H ) :   0.7911 B(  3-C , 12-H ) :   0.7739
B(  3-C , 13-H ) :   0.8585 B(  5-H ,  6-H ) :   0.1671

Dispersion correction           -0.011427292
FINAL SINGLE POINT ENERGY      -158.369064633386

DIPOLE MOMENT
-------------
                                X             Y             Z
Electronic contribution:      0.64943       0.01966      -0.38560
Nuclear contribution   :     -0.63302      -0.01177       0.37643
                        -----------------------------------------
Total Dipole Moment    :      0.01641       0.00789      -0.00917
                        -----------------------------------------
Magnitude (a.u.)       :      0.02039
Magnitude (Debye)      :      0.05182

Rotational constants in cm-1:     0.480601     0.156500     0.138605
Rotational constants in MHz : 14408.061205  4691.756081  4155.280646

                             ****ORCA TERMINATED NORMALLY****
TOTAL RUN TIME: 0 days 0 hours 0 minutes 7 seconds 183 msec
