                         Program Version 5.0.0 -  RELEASE  -
|  1> !TPSS D3BJ RIJCOSX def2-SVPD def2/J TightSCF
|  2> *xyz 0 1
|  3> C          0.64866        1.00359       -3.64560
|  4> C          0.13297        2.38587       -4.02462
|  5> C         -1.36646        2.47911       -4.31393
|  6> C         -2.35773        2.30686       -3.13675
|  7> H         -1.63680        1.72709       -5.06399
|  8> H         -1.58235        3.44561       -4.76869
|  9> O         -3.44376        2.84652       -3.25274
| 10> F         -1.97092        1.58304       -2.15123
| 11> H          0.41484        3.10285       -3.24517
| 12> H          0.68317        2.68756       -4.91972
| 13> H          0.37534        0.30051       -4.40446
| 14> H          0.21856        0.70606       -2.71212
| 15> H          1.71431        1.03324       -3.55398
| 16> *
| 17> %MaxCore 64000
| 18>
| 19> %pal nprocs 4
| 20> end
| 21>
| 22> %scf
| 23>   MaxIter 150
| 24> end
| 25>
| 26>
| 27>                          ****END OF INPUT****

CARTESIAN COORDINATES (ANGSTROEM)
---------------------------------
  C      0.648660    1.003590   -3.645600
  C      0.132970    2.385870   -4.024620
  C     -1.366460    2.479110   -4.313930
  C     -2.357730    2.306860   -3.136750
  H     -1.636800    1.727090   -5.063990
  H     -1.582350    3.445610   -4.768690
  O     -3.443760    2.846520   -3.252740
  F     -1.970920    1.583040   -2.151230
  H      0.414840    3.102850   -3.245170
  H      0.683170    2.687560   -4.919720
  H      0.375340    0.300510   -4.404460
  H      0.218560    0.706060   -2.712120
  H      1.714310    1.033240   -3.553980

 Total Charge           Charge          ....    0
 Multiplicity           Mult            ....    1
 Number of Electrons    NEL             ....   48
 Basis Dimension        Dim             ....  182

ORBITAL ENERGIES
----------------

  NO   OCC          E(Eh)            E(eV)
   0   2.0000     -24.488145      -666.3563
   1   2.0000     -18.912000      -514.6217
   2   2.0000     -10.169702      -276.7317
   3   2.0000     -10.031984      -272.9842
   4   2.0000     -10.016220      -272.5552
   5   2.0000      -9.996333      -272.0140
   6   2.0000      -1.207462       -32.8567
   7   2.0000      -0.977408       -26.5966
   8   2.0000      -0.749253       -20.3882
   9   2.0000      -0.668267       -18.1845
  10   2.0000      -0.594450       -16.1758
  11   2.0000      -0.562448       -15.3050
  12   2.0000      -0.490487       -13.3468
  13   2.0000      -0.478570       -13.0226
  14   2.0000      -0.448003       -12.1908
  15   2.0000      -0.417432       -11.3589
  16   2.0000      -0.414682       -11.2841
  17   2.0000      -0.387888       -10.5550
  18   2.0000      -0.363185        -9.8828
  19   2.0000      -0.336874        -9.1668
  20   2.0000      -0.332197        -9.0395
  21   2.0000      -0.313825        -8.5396
  22   2.0000      -0.313047        -8.5184
  23   2.0000      -0.254736        -6.9317
  24   0.0000      -0.059222        -1.6115
  25   0.0000       0.001453         0.0395
  26   0.0000       0.032220         0.8768
  27   0.0000       0.036505         0.9933
  28   0.0000       0.040980         1.1151

MULLIKEN ATOMIC CHARGES
-----------------------
   0 C :    0.675611
   1 C :   -0.331159
   2 C :   -0.110907
   3 C :    0.784620
   4 H :    0.136637
   5 H :    0.048068
   6 O :   -0.475092
   7 F :   -0.427716
   8 H :   -0.067876
   9 H :   -0.022988
  10 H :   -0.039323
  11 H :   -0.154763
  12 H :   -0.015112
Sum of atomic charges:    0.0000000

LOEWDIN ATOMIC CHARGES
----------------------
   0 C :    0.131108
   1 C :   -0.069170
   2 C :    0.058959
   3 C :   -0.002997
   4 H :    0.038571
   5 H :    0.027587
   6 O :   -0.108782
   7 F :   -0.043751
   8 H :    0.022872
   9 H :    0.017510
  10 H :   -0.018045
  11 H :   -0.035341
  12 H :   -0.018520

  Mayer bond orders larger than 0.100000
B(  0-C ,  1-C ) :   1.2992 B(  0-C , 10-H ) :   0.8018 B(  0-C , 11-H ) :   0.8659
B(  0-C , 12-H ) :   0.7734 B(  1-C ,  2-C ) :   1.2129 B(  1-C ,  4-H ) :   0.1220
B(  1-C ,  5-H ) :   0.1172 B(  1-C ,  8-H ) :   0.9565 B(  1-C ,  9-H ) :   0.8753
B(  1-C , 10-H ) :   0.1935 B(  1-C , 11-H ) :   0.2026 B(  1-C , 12-H ) :   0.2001
B(  2-C ,  3-C ) :   1.0608 B(  2-C ,  4-H ) :   0.8162 B(  2-C ,  5-H ) :   0.9202
B(  2-C ,  8-H ) :   0.1220 B(  2-C ,  9-H ) :   0.1113 B(  3-C ,  5-H ) :   0.1238
B(  3-C ,  6-O ) :   1.7730 B(  3-C ,  7-F ) :   0.6769 B(  6-O ,  7-F ) :   0.1041

Dispersion correction           -0.011401798
FINAL SINGLE POINT ENERGY      -331.540360023847

DIPOLE MOMENT
-------------
                                X             Y             Z
Electronic contribution:     -8.92028       0.75637       5.46691
Nuclear contribution   :      9.96624      -0.95867      -5.90440
                        -----------------------------------------
Total Dipole Moment    :      1.04596      -0.20230      -0.43748
                        -----------------------------------------
Magnitude (a.u.)       :      1.15167
Magnitude (Debye)      :      2.92732

Rotational constants in cm-1:     0.233484     0.076940     0.061803
Rotational constants in MHz :  6999.682494  2306.588565  1852.797552

                             ****ORCA TERMINATED NORMALLY****
TOTAL RUN TIME: 0 days 0 hours 0 minutes 8 seconds 900 msec
