                         Program Version 5.0.0 -  RELEASE  -
|  1> !TPSS D3BJ RIJCOSX def2-SVPD def2/J TightSCF
|  2> *xyz -1 1
|  3> C          0.28725       -1.71177       -2.52740
|  4> O          0.71050       -0.92751       -1.48177
|  5> H          0.92384       -1.55316       -3.37267
|  6> H         -0.71828       -1.45137       -2.78433
|  7> H          0.32655       -2.74158       -2.23955
|  8> *
|  9> %MaxCore 64000
| 10>
| 11> %pal nprocs 4
| 12> end
| 13>
| 14> %scf
| 15>   MaxIter 150
| 16> end
| 17>
| 18>
| 19>                          ****END OF INPUT****

CARTESIAN COORDINATES (ANGSTROEM)
---------------------------------
  C      0.287250   -1.711770   -2.527400
  O      0.710500   -0.927510   -1.481770
  H      0.923840   -1.553160   -3.372670
  H     -0.718280   -1.451370   -2.784330
  H      0.326550   -2.741580   -2.239550

 Total Charge           Charge          ....   -1
 Multiplicity           Mult            ....    1
 Number of Electrons    NEL             ....   18
 Basis Dimension        Dim             ....   67

ORBITAL ENERGIES
----------------

  NO   OCC          E(Eh)            E(eV)
   0   2.0000     -18.548986      -504.7436
   1   2.0000      -9.788641      -266.3625
   2   2.0000      -0.581710       -15.8291
   3   2.0000      -0.341241        -9.2857
   4   2.0000      -0.155319        -4.2264
   5   2.0000      -0.155317        -4.2264
   6   2.0000      -0.054681        -1.4879
   7   2.0000       0.091511         2.4901
   8   2.0000       0.091516         2.4903
   9   0.0000       0.189311         5.1514
  10   0.0000       0.259389         7.0583
  11   0.0000       0.259390         7.0584
  12   0.0000       0.267127         7.2689
  13   0.0000       0.304066         8.2740

MULLIKEN ATOMIC CHARGES
-----------------------
   0 C :    0.807383
   1 O :   -1.048224
   2 H :   -0.253074
   3 H :   -0.253041
   4 H :   -0.253043
Sum of atomic charges:   -1.0000000

LOEWDIN ATOMIC CHARGES
----------------------
   0 C :   -0.106576
   1 O :   -0.636713
   2 H :   -0.085574
   3 H :   -0.085568
   4 H :   -0.085569

  Mayer bond orders larger than 0.100000
B(  0-C ,  1-O ) :   1.1172 B(  0-C ,  2-H ) :   0.9230 B(  0-C ,  3-H ) :   0.9230
B(  0-C ,  4-H ) :   0.9230

Dispersion correction           -0.001756093
FINAL SINGLE POINT ENERGY      -115.034433072183

DIPOLE MOMENT
-------------
                                X             Y             Z
Electronic contribution:      0.58690       1.08753       1.44992
Nuclear contribution   :     -0.89006      -1.64923      -2.19886
                        -----------------------------------------
Total Dipole Moment    :     -0.30316      -0.56171      -0.74894
                        -----------------------------------------
Magnitude (a.u.)       :      0.98404
Magnitude (Debye)      :      2.50122

Rotational constants in cm-1:     5.477712     0.934243     0.934241
Rotational constants in MHz : 164217.678885 28007.889263 28007.851448

                             ****ORCA TERMINATED NORMALLY****
TOTAL RUN TIME: 0 days 0 hours 0 minutes 2 seconds 742 msec
