                         Program Version 5.0.0 -  RELEASE  -
|  1> !TPSS D3BJ RIJCOSX def2-SVPD def2/J TightSCF
|  2> *xyz 1 1
|  3> C          3.48828        1.60092       -1.52204
|  4> N          2.81029        0.42878       -1.01420
|  5> C          3.29098       -0.41802       -0.12908
|  6> N          2.51754       -1.43202        0.23936
|  7> N          4.53549       -0.28441        0.39580
|  8> H          5.04363        0.57189        0.22290
|  9> H          4.72335       -0.73327        1.28180
| 10> H          1.93479        0.10230       -1.40379
| 11> H          1.67464       -1.50562       -0.31610
| 12> H          2.92850       -2.21850        0.72549
| 13> H          2.85802        2.09943       -2.22855
| 14> H          4.39853        1.30677       -2.00144
| 15> H          3.70992        2.26379       -0.71187
| 16> *
| 17> %MaxCore 64000
| 18>
| 19> %pal nprocs 4
| 20> end
| 21>
| 22> %scf
| 23>   MaxIter 150
| 24> end
| 25>
| 26>
| 27>                          ****END OF INPUT****

CARTESIAN COORDINATES (ANGSTROEM)
---------------------------------
  C      3.488280    1.600920   -1.522040
  N      2.810290    0.428780   -1.014200
  C      3.290980   -0.418020   -0.129080
  N      2.517540   -1.432020    0.239360
  N      4.535490   -0.284410    0.395800
  H      5.043630    0.571890    0.222900
  H      4.723350   -0.733270    1.281800
  H      1.934790    0.102300   -1.403790
  H      1.674640   -1.505620   -0.316100
  H      2.928500   -2.218500    0.725490
  H      2.858020    2.099430   -2.228550
  H      4.398530    1.306770   -2.001440
  H      3.709920    2.263790   -0.711870

 Total Charge           Charge          ....    1
 Multiplicity           Mult            ....    1
 Number of Electrons    NEL             ....   40
 Basis Dimension        Dim             ....  164

ORBITAL ENERGIES
----------------

  NO   OCC          E(Eh)            E(eV)
   0   2.0000     -14.351146      -390.5145
   1   2.0000     -14.345361      -390.3571
   2   2.0000     -14.344919      -390.3451
   3   2.0000     -10.327640      -281.0294
   4   2.0000     -10.212707      -277.9019
   5   2.0000      -1.148370       -31.2487
   6   2.0000      -1.042174       -28.3590
   7   2.0000      -1.029752       -28.0210
   8   2.0000      -0.855949       -23.2916
   9   2.0000      -0.779595       -21.2139
  10   2.0000      -0.737190       -20.0600
  11   2.0000      -0.714727       -19.4487
  12   2.0000      -0.654614       -17.8129
  13   2.0000      -0.646345       -17.5879
  14   2.0000      -0.619872       -16.8676
  15   2.0000      -0.607482       -16.5304
  16   2.0000      -0.555577       -15.1180
  17   2.0000      -0.547702       -14.9037
  18   2.0000      -0.445446       -12.1212
  19   2.0000      -0.425925       -11.5900
  20   0.0000      -0.203575        -5.5396
  21   0.0000      -0.175690        -4.7808
  22   0.0000      -0.138402        -3.7661
  23   0.0000      -0.128064        -3.4848
  24   0.0000      -0.100844        -2.7441

MULLIKEN ATOMIC CHARGES
-----------------------
   0 C :    1.036094
   1 N :   -0.596516
   2 C :    1.281679
   3 N :   -0.048535
   4 N :   -0.081979
   5 H :   -0.030529
   6 H :   -0.054230
   7 H :   -0.193746
   8 H :    0.043968
   9 H :   -0.072224
  10 H :   -0.297909
  11 H :    0.011925
  12 H :    0.002003
Sum of atomic charges:    1.0000000

LOEWDIN ATOMIC CHARGES
----------------------
   0 C :    0.267438
   1 N :    0.014344
   2 C :   -0.039367
   3 N :    0.266129
   4 N :    0.285858
   5 H :    0.015406
   6 H :    0.035151
   7 H :    0.053737
   8 H :    0.033015
   9 H :    0.045283
  10 H :    0.012747
  11 H :    0.005525
  12 H :    0.004735

  Mayer bond orders larger than 0.100000
B(  0-C ,  1-N ) :   0.9752 B(  0-C ,  7-H ) :  -0.1218 B(  0-C , 10-H ) :   0.8618
B(  0-C , 11-H ) :   0.8190 B(  0-C , 12-H ) :   0.8058 B(  1-N ,  2-C ) :   0.9936
B(  1-N ,  3-N ) :   0.2657 B(  1-N ,  4-N ) :   0.2153 B(  1-N ,  7-H ) :   1.2937
B(  1-N , 10-H ) :   0.1750 B(  1-N , 11-H ) :   0.1584 B(  1-N , 12-H ) :   0.1665
B(  2-C ,  3-N ) :   0.8997 B(  2-C ,  4-N ) :   0.9552 B(  2-C ,  5-H ) :  -0.1088
B(  2-C ,  7-H ) :  -0.2300 B(  2-C ,  9-H ) :  -0.1113 B(  3-N ,  4-N ) :   0.1622
B(  3-N ,  8-H ) :   1.0514 B(  3-N ,  9-H ) :   1.2018 B(  4-N ,  5-H ) :   1.0581
B(  4-N ,  6-H ) :   1.1755 B(  5-H ,  6-H ) :  -0.1301 B(  8-H ,  9-H ) :  -0.1339

Dispersion correction           -0.011193933
FINAL SINGLE POINT ENERGY      -244.961752744369

DIPOLE MOMENT
-------------
                                X             Y             Z
Electronic contribution:     -0.68084      -2.28674       1.33744
Nuclear contribution   :      0.56176       1.95858      -1.15445
                        -----------------------------------------
Total Dipole Moment    :     -0.11908      -0.32816       0.18299
                        -----------------------------------------
Magnitude (a.u.)       :      0.39415
Magnitude (Debye)      :      1.00185

Rotational constants in cm-1:     0.309570     0.135399     0.096056
Rotational constants in MHz :  9280.673410  4059.171112  2879.675555

                             ****ORCA TERMINATED NORMALLY****
TOTAL RUN TIME: 0 days 0 hours 0 minutes 8 seconds 553 msec
