                         Program Version 5.0.0 -  RELEASE  -
|  1> !TPSS D3BJ RIJCOSX def2-SVPD def2/J TightSCF
|  2> *xyz 0 1
|  3> C          0.28725       -1.71177       -2.52740
|  4> F          0.71050       -0.92751       -1.48177
|  5> H          0.92384       -1.55316       -3.37267
|  6> H         -0.71828       -1.45137       -2.78433
|  7> H          0.32655       -2.74158       -2.23955
|  8> *
|  9> %MaxCore 64000
| 10>
| 11> %pal nprocs 4
| 12> end
| 13>
| 14> %scf
| 15>   MaxIter 150
| 16> end
| 17>
| 18>
| 19>                          ****END OF INPUT****

CARTESIAN COORDINATES (ANGSTROEM)
---------------------------------
  C      0.287250   -1.711770   -2.527400
  F      0.710500   -0.927510   -1.481770
  H      0.923840   -1.553160   -3.372670
  H     -0.718280   -1.451370   -2.784330
  H      0.326550   -2.741580   -2.239550

 Total Charge           Charge          ....    0
 Multiplicity           Mult            ....    1
 Number of Electrons    NEL             ....   18
 Basis Dimension        Dim             ....   67

ORBITAL ENERGIES
----------------

  NO   OCC          E(Eh)            E(eV)
   0   2.0000     -24.411606      -664.2736
   1   2.0000     -10.072833      -274.0957
   2   2.0000      -1.103374       -30.0243
   3   2.0000      -0.648971       -17.6594
   4   2.0000      -0.449252       -12.2248
   5   2.0000      -0.440955       -11.9990
   6   2.0000      -0.440953       -11.9990
   7   2.0000      -0.303773        -8.2661
   8   2.0000      -0.303769        -8.2660
   9   0.0000       0.016032         0.4362
  10   0.0000       0.043002         1.1702
  11   0.0000       0.089729         2.4416
  12   0.0000       0.089729         2.4417
  13   0.0000       0.134199         3.6517

MULLIKEN ATOMIC CHARGES
-----------------------
   0 C :    0.855189
   1 F :   -0.487726
   2 H :   -0.122503
   3 H :   -0.122488
   4 H :   -0.122472
Sum of atomic charges:   -0.0000000

LOEWDIN ATOMIC CHARGES
----------------------
   0 C :    0.275605
   1 F :   -0.244549
   2 H :   -0.010358
   3 H :   -0.010348
   4 H :   -0.010349

  Mayer bond orders larger than 0.100000
B(  0-C ,  1-F ) :   0.8368 B(  0-C ,  2-H ) :   0.9460 B(  0-C ,  3-H ) :   0.9460
B(  0-C ,  4-H ) :   0.9460

Dispersion correction           -0.001538245
FINAL SINGLE POINT ENERGY      -139.660732826675

DIPOLE MOMENT
-------------
                                X             Y             Z
Electronic contribution:      0.91184       1.68960       2.25269
Nuclear contribution   :     -1.12906      -2.09208      -2.78929
                        -----------------------------------------
Total Dipole Moment    :     -0.21721      -0.40247      -0.53660
                        -----------------------------------------
Magnitude (a.u.)       :      0.70506
Magnitude (Debye)      :      1.79211

Rotational constants in cm-1:     5.477712     0.869598     0.869597
Rotational constants in MHz : 164217.678885 26069.889584 26069.856821

                             ****ORCA TERMINATED NORMALLY****
TOTAL RUN TIME: 0 days 0 hours 0 minutes 2 seconds 483 msec
