                         Program Version 5.0.0 -  RELEASE  -
|  1> !TPSS D3BJ RIJCOSX def2-SVPD def2/J TightSCF
|  2> *xyz 0 1
|  3> C          3.48828        1.60092       -1.52204
|  4> C          2.81029        0.42878       -1.01420
|  5> C          3.29098       -0.41802       -0.12908
|  6> N          2.51754       -1.43202        0.23936
|  7> N          4.53549       -0.28441        0.39580
|  8> H          5.04363        0.57189        0.22290
|  9> H          4.72335       -0.73327        1.28180
| 10> H          1.93479        0.10230       -1.40379
| 11> H          1.67464       -1.50562       -0.31610
| 12> H          2.92850       -2.21850        0.72549
| 13> H          2.85802        2.09943       -2.22855
| 14> H          4.39853        1.30677       -2.00144
| 15> H          3.70992        2.26379       -0.71187
| 16> *
| 17> %MaxCore 64000
| 18>
| 19> %pal nprocs 4
| 20> end
| 21>
| 22> %scf
| 23>   MaxIter 150
| 24> end
| 25>
| 26>
| 27>                          ****END OF INPUT****

CARTESIAN COORDINATES (ANGSTROEM)
---------------------------------
  C      3.488280    1.600920   -1.522040
  C      2.810290    0.428780   -1.014200
  C      3.290980   -0.418020   -0.129080
  N      2.517540   -1.432020    0.239360
  N      4.535490   -0.284410    0.395800
  H      5.043630    0.571890    0.222900
  H      4.723350   -0.733270    1.281800
  H      1.934790    0.102300   -1.403790
  H      1.674640   -1.505620   -0.316100
  H      2.928500   -2.218500    0.725490
  H      2.858020    2.099430   -2.228550
  H      4.398530    1.306770   -2.001440
  H      3.709920    2.263790   -0.711870

 Total Charge           Charge          ....    0
 Multiplicity           Mult            ....    1
 Number of Electrons    NEL             ....   40
 Basis Dimension        Dim             ....  164

ORBITAL ENERGIES
----------------

  NO   OCC          E(Eh)            E(eV)
   0   2.0000     -14.120120      -384.2280
   1   2.0000     -14.113218      -384.0402
   2   2.0000     -10.030157      -272.9345
   3   2.0000      -9.969379      -271.2806
   4   2.0000      -9.922924      -270.0165
   5   2.0000      -0.883826       -24.0501
   6   2.0000      -0.801720       -21.8159
   7   2.0000      -0.691567       -18.8185
   8   2.0000      -0.599398       -16.3105
   9   2.0000      -0.534337       -14.5400
  10   2.0000      -0.490421       -13.3450
  11   2.0000      -0.462969       -12.5980
  12   2.0000      -0.423031       -11.5113
  13   2.0000      -0.386732       -10.5235
  14   2.0000      -0.370444       -10.0803
  15   2.0000      -0.332574        -9.0498
  16   2.0000      -0.325094        -8.8462
  17   2.0000      -0.305484        -8.3126
  18   2.0000      -0.224745        -6.1156
  19   2.0000      -0.130786        -3.5589
  20   0.0000       0.004047         0.1101
  21   0.0000       0.030893         0.8406
  22   0.0000       0.042722         1.1625
  23   0.0000       0.054601         1.4858
  24   0.0000       0.069940         1.9032

MULLIKEN ATOMIC CHARGES
-----------------------
   0 C :    0.822612
   1 C :   -0.683075
   2 C :    0.667987
   3 N :    0.021999
   4 N :   -0.102255
   5 H :   -0.018073
   6 H :   -0.176240
   7 H :   -0.320395
   8 H :    0.054048
   9 H :   -0.178821
  10 H :   -0.073653
  11 H :   -0.013809
  12 H :   -0.000326
Sum of atomic charges:   -0.0000000

LOEWDIN ATOMIC CHARGES
----------------------
   0 C :    0.095972
   1 C :   -0.066350
   2 C :   -0.230660
   3 N :    0.172777
   4 N :    0.205241
   5 H :   -0.017165
   6 H :   -0.016659
   7 H :   -0.057664
   8 H :   -0.001289
   9 H :   -0.009740
  10 H :   -0.020968
  11 H :   -0.026091
  12 H :   -0.027405

  Mayer bond orders larger than 0.100000
B(  0-C ,  1-C ) :   1.1544 B(  0-C ,  7-H ) :   0.1388 B(  0-C , 10-H ) :   0.7863
B(  0-C , 11-H ) :   0.6924 B(  0-C , 12-H ) :   0.6677 B(  1-C ,  2-C ) :   1.5241
B(  1-C ,  3-N ) :   0.3204 B(  1-C ,  4-N ) :   0.2066 B(  1-C ,  5-H ) :  -0.1238
B(  1-C ,  7-H ) :   1.0524 B(  1-C , 10-H ) :   0.2829 B(  1-C , 11-H ) :   0.2402
B(  1-C , 12-H ) :   0.2995 B(  2-C ,  3-N ) :   0.9321 B(  2-C ,  4-N ) :   0.9139
B(  2-C ,  7-H ) :   0.1757 B(  3-N ,  4-N ) :   0.1179 B(  3-N ,  8-H ) :   1.0374
B(  3-N ,  9-H ) :   1.1709 B(  4-N ,  5-H ) :   1.0225 B(  4-N ,  6-H ) :   1.2108
B(  5-H ,  6-H ) :  -0.1079 B(  7-H , 10-H ) :  -0.1217 B(  8-H ,  9-H ) :  -0.1237

Dispersion correction           -0.011711414
FINAL SINGLE POINT ENERGY      -228.492576980332

DIPOLE MOMENT
-------------
                                X             Y             Z
Electronic contribution:     -0.24721      -2.56300       1.79543
Nuclear contribution   :      0.45569       2.05070      -1.27895
                        -----------------------------------------
Total Dipole Moment    :      0.20848      -0.51230       0.51649
                        -----------------------------------------
Magnitude (a.u.)       :      0.75676
Magnitude (Debye)      :      1.92352

Rotational constants in cm-1:     0.314404     0.136412     0.097030
Rotational constants in MHz :  9425.600285  4089.541372  2908.875289

                             ****ORCA TERMINATED NORMALLY****
TOTAL RUN TIME: 0 days 0 hours 0 minutes 9 seconds 477 msec
