                         Program Version 5.0.0 -  RELEASE  -
|  1> !TPSS D3BJ RIJCOSX def2-SVPD def2/J TightSCF
|  2> *xyz 0 1
|  3> C          3.48828        1.60092       -1.52204
|  4> N          2.81029        0.42878       -1.01420
|  5> C          3.29098       -0.41802       -0.12908
|  6> C          2.51754       -1.43202        0.23936
|  7> N          4.53549       -0.28441        0.39580
|  8> H          5.04363        0.57189        0.22290
|  9> H          4.72335       -0.73327        1.28180
| 10> H          1.93479        0.10230       -1.40379
| 11> H          1.67464       -1.50562       -0.31610
| 12> H          2.92850       -2.21850        0.72549
| 13> H          2.85802        2.09943       -2.22855
| 14> H          4.39853        1.30677       -2.00144
| 15> H          3.70992        2.26379       -0.71187
| 16> *
| 17> %MaxCore 64000
| 18>
| 19> %pal nprocs 4
| 20> end
| 21>
| 22> %scf
| 23>   MaxIter 150
| 24> end
| 25>
| 26>
| 27>                          ****END OF INPUT****

CARTESIAN COORDINATES (ANGSTROEM)
---------------------------------
  C      3.488280    1.600920   -1.522040
  N      2.810290    0.428780   -1.014200
  C      3.290980   -0.418020   -0.129080
  C      2.517540   -1.432020    0.239360
  N      4.535490   -0.284410    0.395800
  H      5.043630    0.571890    0.222900
  H      4.723350   -0.733270    1.281800
  H      1.934790    0.102300   -1.403790
  H      1.674640   -1.505620   -0.316100
  H      2.928500   -2.218500    0.725490
  H      2.858020    2.099430   -2.228550
  H      4.398530    1.306770   -2.001440
  H      3.709920    2.263790   -0.711870

 Total Charge           Charge          ....    0
 Multiplicity           Mult            ....    1
 Number of Electrons    NEL             ....   40
 Basis Dimension        Dim             ....  164

ORBITAL ENERGIES
----------------

  NO   OCC          E(Eh)            E(eV)
   0   2.0000     -14.119173      -384.2022
   1   2.0000     -14.118319      -384.1790
   2   2.0000     -10.037493      -273.1341
   3   2.0000     -10.035492      -273.0796
   4   2.0000      -9.910215      -269.6707
   5   2.0000      -0.894357       -24.3367
   6   2.0000      -0.813593       -22.1390
   7   2.0000      -0.688129       -18.7249
   8   2.0000      -0.608868       -16.5681
   9   2.0000      -0.547963       -14.9108
  10   2.0000      -0.487022       -13.2525
  11   2.0000      -0.449152       -12.2220
  12   2.0000      -0.437138       -11.8951
  13   2.0000      -0.415136       -11.2964
  14   2.0000      -0.370691       -10.0870
  15   2.0000      -0.344403        -9.3717
  16   2.0000      -0.338877        -9.2213
  17   2.0000      -0.323898        -8.8137
  18   2.0000      -0.220604        -6.0029
  19   2.0000      -0.129996        -3.5374
  20   0.0000       0.000443         0.0121
  21   0.0000       0.033040         0.8991
  22   0.0000       0.035697         0.9714
  23   0.0000       0.049689         1.3521
  24   0.0000       0.072797         1.9809

MULLIKEN ATOMIC CHARGES
-----------------------
   0 C :    1.043560
   1 N :   -0.501448
   2 C :    0.625064
   3 C :    0.328455
   4 N :   -0.022439
   5 H :   -0.162795
   6 H :   -0.056553
   7 H :   -0.226407
   8 H :   -0.194581
   9 H :   -0.382313
  10 H :   -0.341602
  11 H :   -0.047410
  12 H :   -0.061530
Sum of atomic charges:    0.0000000

LOEWDIN ATOMIC CHARGES
----------------------
   0 C :    0.211539
   1 N :   -0.050731
   2 C :   -0.232546
   3 C :    0.136343
   4 N :    0.202011
   5 H :   -0.030449
   6 H :    0.001903
   7 H :    0.026451
   8 H :   -0.106744
   9 H :   -0.099539
  10 H :   -0.014233
  11 H :   -0.021727
  12 H :   -0.022276

  Mayer bond orders larger than 0.100000
B(  0-C ,  1-N ) :   0.9732 B(  0-C ,  7-H ) :  -0.1326 B(  0-C , 10-H ) :   0.8588
B(  0-C , 11-H ) :   0.8244 B(  0-C , 12-H ) :   0.8159 B(  1-N ,  2-C ) :   1.0572
B(  1-N ,  3-C ) :   0.2500 B(  1-N ,  4-N ) :   0.1319 B(  1-N ,  7-H ) :   1.2560
B(  1-N , 10-H ) :   0.1722 B(  1-N , 11-H ) :   0.1862 B(  1-N , 12-H ) :   0.1721
B(  2-C ,  3-C ) :   1.5817 B(  2-C ,  4-N ) :   0.8959 B(  2-C ,  7-H ) :  -0.1577
B(  2-C ,  8-H ) :   0.2253 B(  2-C ,  9-H ) :   0.1905 B(  3-C ,  4-N ) :   0.2415
B(  3-C ,  8-H ) :   0.8170 B(  3-C ,  9-H ) :   0.7946 B(  4-N ,  5-H ) :   1.0842
B(  4-N ,  6-H ) :   1.1333 B(  5-H ,  6-H ) :  -0.1207

Dispersion correction           -0.011636576
FINAL SINGLE POINT ENERGY      -228.480508595822

DIPOLE MOMENT
-------------
                                X             Y             Z
Electronic contribution:      0.09218      -0.73676       0.64314
Nuclear contribution   :      0.39640       1.67380      -1.02505
                        -----------------------------------------
Total Dipole Moment    :      0.48858       0.93704      -0.38190
                        -----------------------------------------
Magnitude (a.u.)       :      1.12366
Magnitude (Debye)      :      2.85611

Rotational constants in cm-1:     0.316500     0.141146     0.099607
Rotational constants in MHz :  9488.425850  4231.454938  2986.155520

                             ****ORCA TERMINATED NORMALLY****
TOTAL RUN TIME: 0 days 0 hours 0 minutes 10 seconds 34 msec
