                         Program Version 5.0.0 -  RELEASE  -
|  1> !TPSS D3BJ RIJCOSX def2-SVPD def2/J TightSCF
|  2> *xyz 0 1
|  3> C          3.48828        1.60092       -1.52204
|  4> N          2.81029        0.42878       -1.01420
|  5> C          3.29098       -0.41802       -0.12908
|  6> N          2.51754       -1.43202        0.23936
|  7> C          4.53549       -0.28441        0.39580
|  8> H          5.04363        0.57189        0.22290
|  9> H          4.72335       -0.73327        1.28180
| 10> H          1.93479        0.10230       -1.40379
| 11> H          1.67464       -1.50562       -0.31610
| 12> H          2.92850       -2.21850        0.72549
| 13> H          2.85802        2.09943       -2.22855
| 14> H          4.39853        1.30677       -2.00144
| 15> H          3.70992        2.26379       -0.71187
| 16> *
| 17> %MaxCore 64000
| 18>
| 19> %pal nprocs 4
| 20> end
| 21>
| 22> %scf
| 23>   MaxIter 150
| 24> end
| 25>
| 26>
| 27>                          ****END OF INPUT****

CARTESIAN COORDINATES (ANGSTROEM)
---------------------------------
  C      3.488280    1.600920   -1.522040
  N      2.810290    0.428780   -1.014200
  C      3.290980   -0.418020   -0.129080
  N      2.517540   -1.432020    0.239360
  C      4.535490   -0.284410    0.395800
  H      5.043630    0.571890    0.222900
  H      4.723350   -0.733270    1.281800
  H      1.934790    0.102300   -1.403790
  H      1.674640   -1.505620   -0.316100
  H      2.928500   -2.218500    0.725490
  H      2.858020    2.099430   -2.228550
  H      4.398530    1.306770   -2.001440
  H      3.709920    2.263790   -0.711870

 Total Charge           Charge          ....    0
 Multiplicity           Mult            ....    1
 Number of Electrons    NEL             ....   40
 Basis Dimension        Dim             ....  164

ORBITAL ENERGIES
----------------

  NO   OCC          E(Eh)            E(eV)
   0   2.0000     -14.125494      -384.3742
   1   2.0000     -14.120344      -384.2341
   2   2.0000     -10.038081      -273.1501
   3   2.0000     -10.031066      -272.9592
   4   2.0000      -9.913917      -269.7714
   5   2.0000      -0.903597       -24.5881
   6   2.0000      -0.818049       -22.2602
   7   2.0000      -0.660357       -17.9692
   8   2.0000      -0.640349       -17.4248
   9   2.0000      -0.519320       -14.1314
  10   2.0000      -0.496530       -13.5113
  11   2.0000      -0.484566       -13.1857
  12   2.0000      -0.415974       -11.3192
  13   2.0000      -0.408525       -11.1165
  14   2.0000      -0.375961       -10.2304
  15   2.0000      -0.346091        -9.4176
  16   2.0000      -0.329893        -8.9768
  17   2.0000      -0.325374        -8.8539
  18   2.0000      -0.214066        -5.8250
  19   2.0000      -0.136464        -3.7134
  20   0.0000      -0.002174        -0.0592
  21   0.0000       0.025359         0.6901
  22   0.0000       0.039844         1.0842
  23   0.0000       0.051041         1.3889
  24   0.0000       0.077449         2.1075

MULLIKEN ATOMIC CHARGES
-----------------------
   0 C :    1.004658
   1 N :   -0.529655
   2 C :    0.539671
   3 N :   -0.006132
   4 C :    0.367458
   5 H :   -0.147427
   6 H :   -0.394609
   7 H :   -0.339734
   8 H :   -0.106100
   9 H :   -0.071128
  10 H :   -0.364144
  11 H :    0.026867
  12 H :    0.020275
Sum of atomic charges:   -0.0000000

LOEWDIN ATOMIC CHARGES
----------------------
   0 C :    0.219700
   1 N :   -0.052868
   2 C :   -0.245304
   3 N :    0.185236
   4 C :    0.162650
   5 H :   -0.126286
   6 H :   -0.109945
   7 H :    0.012357
   8 H :   -0.016249
   9 H :    0.012220
  10 H :   -0.015651
  11 H :   -0.013276
  12 H :   -0.012585

  Mayer bond orders larger than 0.100000
B(  0-C ,  1-N ) :   0.9872 B(  0-C ,  7-H ) :  -0.1324 B(  0-C , 10-H ) :   0.8767
B(  0-C , 11-H ) :   0.8179 B(  0-C , 12-H ) :   0.8091 B(  1-N ,  2-C ) :   1.0042
B(  1-N ,  3-N ) :   0.1830 B(  1-N ,  4-C ) :   0.3252 B(  1-N ,  7-H ) :   1.3588
B(  1-N , 10-H ) :   0.1639 B(  1-N , 11-H ) :   0.1532 B(  1-N , 12-H ) :   0.1541
B(  2-C ,  3-N ) :   0.8786 B(  2-C ,  4-C ) :   1.7211 B(  2-C ,  5-H ) :   0.2913
B(  2-C ,  6-H ) :   0.2464 B(  2-C ,  7-H ) :  -0.2244 B(  3-N ,  4-C ) :   0.2701
B(  3-N ,  8-H ) :   1.1065 B(  3-N ,  9-H ) :   1.1698 B(  4-C ,  5-H ) :   0.7155
B(  4-C ,  6-H ) :   0.8005 B(  5-H ,  6-H ) :   0.1937 B(  8-H ,  9-H ) :  -0.1200

Dispersion correction           -0.011694523
FINAL SINGLE POINT ENERGY      -228.482585121007

DIPOLE MOMENT
-------------
                                X             Y             Z
Electronic contribution:     -1.82951      -1.94828       0.41440
Nuclear contribution   :      0.80512       1.90624      -0.99336
                        -----------------------------------------
Total Dipole Moment    :     -1.02439      -0.04204      -0.57896
                        -----------------------------------------
Magnitude (a.u.)       :      1.17742
Magnitude (Debye)      :      2.99278

Rotational constants in cm-1:     0.332728     0.136065     0.098521
Rotational constants in MHz :  9974.927067  4079.126590  2953.598000

                             ****ORCA TERMINATED NORMALLY****
TOTAL RUN TIME: 0 days 0 hours 0 minutes 9 seconds 926 msec
