                         Program Version 5.0.0 -  RELEASE  -
|  1> !TPSS D3BJ RIJCOSX def2-SVPD def2/J TightSCF xyzfile
|  2>
|  3> *xyzfile 0 1 D1.xyz
|  4>
|  5> %MaxCore 64000
|  6>
|  7> %pal nprocs 4
|  8> end
|  9>
| 10> %scf
| 11>   MaxIter 150
| 12> end
| 13>
| 14>
| 15>                          ****END OF INPUT****

CARTESIAN COORDINATES (ANGSTROEM)
---------------------------------
  C      3.488276    1.600919   -1.522040
  C      4.342970    1.313419   -2.756826
  C      2.810285    0.428783   -1.014196
  H      5.132033    0.604994   -2.484466
  C      3.535896    0.749253   -3.924604
  H      4.841247    2.242136   -3.054083
  H      2.991617   -0.132199   -3.574137
  H      4.225505    0.392784   -4.695962
  C      2.564776    1.750890   -4.544523
  H      1.918749    2.171679   -3.769419
  C      1.686235    1.161657   -5.650111
  H      3.132494    2.594775   -4.951604
  C      0.839616   -0.037582   -5.220473
  H      2.323886    0.866395   -6.490796
  H      1.029518    1.951850   -6.029329
  C     -0.151019    0.254955   -4.094256
  H      1.499442   -0.857141   -4.922958
  H      0.290097   -0.410143   -6.091131
  H      0.328265    0.833022   -3.299125
  C     -0.721843   -0.999513   -3.439309
  H     -0.957367    0.884951   -4.485450
  H     -1.083403   -1.697555   -4.205656
  H     -1.581056   -0.723848   -2.820490
  C      0.287250   -1.711771   -2.527405
  H      1.131780   -2.067380   -3.159396
  H     -0.204137   -2.637326   -2.170480
  F      0.710505   -0.927506   -1.481767
  H      2.714548    2.331455   -1.760302
  H      4.090991    2.063151   -0.733382
  C      3.290978   -0.418021   -0.129083
  N      2.517536   -1.432017    0.239360
  N      4.535490   -0.284410    0.395800
  H      5.043627    0.571888    0.222899
  H      4.723346   -0.733273    1.281800
  H      1.934787    0.102305   -1.403788
  H      1.674638   -1.505616   -0.316095
  H      2.928503   -2.218502    0.725494

 Total Charge           Charge          ....    0
 Multiplicity           Mult            ....    1
 Number of Electrons    NEL             ....  112
 Basis Dimension        Dim             ....  467

ORBITAL ENERGIES
----------------

  NO   OCC          E(Eh)            E(eV)
   0   2.0000     -24.446349      -665.2190
   1   2.0000     -14.105692      -383.8354
   2   2.0000     -14.089841      -383.4041
   3   2.0000     -10.090919      -274.5879
   4   2.0000     -10.016181      -272.5542
   5   2.0000     -10.013237      -272.4740
   6   2.0000      -9.998550      -272.0744
   7   2.0000      -9.994562      -271.9659
   8   2.0000      -9.989625      -271.8315
   9   2.0000      -9.982246      -271.6307
  10   2.0000      -9.976773      -271.4818
  11   2.0000      -9.971212      -271.3305
  12   2.0000      -9.965672      -271.1797
  13   2.0000      -9.897903      -269.3356
  14   2.0000      -1.143028       -31.1034
  15   2.0000      -0.867831       -23.6149
  16   2.0000      -0.786282       -21.3958
  17   2.0000      -0.753906       -20.5148
  18   2.0000      -0.729821       -19.8594
  19   2.0000      -0.701843       -19.0981
  20   2.0000      -0.669766       -18.2252
  21   2.0000      -0.633186       -17.2299
  22   2.0000      -0.609312       -16.5802
  23   2.0000      -0.577666       -15.7191
  24   2.0000      -0.550876       -14.9901
  25   2.0000      -0.537809       -14.6345
  26   2.0000      -0.514968       -14.0130
  27   2.0000      -0.498787       -13.5727
  28   2.0000      -0.485681       -13.2161
  29   2.0000      -0.473942       -12.8966
  30   2.0000      -0.467637       -12.7250
  31   2.0000      -0.448075       -12.1928
  32   2.0000      -0.442031       -12.0283
  33   2.0000      -0.420152       -11.4329
  34   2.0000      -0.413330       -11.2473
  35   2.0000      -0.401881       -10.9357
  36   2.0000      -0.395613       -10.7652
  37   2.0000      -0.382226       -10.4009
  38   2.0000      -0.373813       -10.1720
  39   2.0000      -0.362801        -9.8723
  40   2.0000      -0.354780        -9.6540
  41   2.0000      -0.335814        -9.1380
  42   2.0000      -0.334236        -9.0950
  43   2.0000      -0.325125        -8.8471
  44   2.0000      -0.321609        -8.7514
  45   2.0000      -0.321441        -8.7469
  46   2.0000      -0.300498        -8.1770
  47   2.0000      -0.293946        -7.9987
  48   2.0000      -0.285520        -7.7694
  49   2.0000      -0.283623        -7.7178
  50   2.0000      -0.280324        -7.6280
  51   2.0000      -0.267314        -7.2740
  52   2.0000      -0.260979        -7.1016
  53   2.0000      -0.254773        -6.9327
  54   2.0000      -0.208974        -5.6865
  55   2.0000      -0.117374        -3.1939
  56   0.0000       0.005377         0.1463
  57   0.0000       0.015925         0.4334
  58   0.0000       0.019646         0.5346
  59   0.0000       0.025846         0.7033
  60   0.0000       0.037591         1.0229

MULLIKEN ATOMIC CHARGES
-----------------------
   0 C :    0.448556
   1 C :    0.424657
   2 C :    0.090319
   3 H :   -0.059377
   4 C :    0.203777
   5 H :   -0.055311
   6 H :   -0.338289
   7 H :   -0.072703
   8 C :   -0.063008
   9 H :    0.043632
  10 C :    0.577451
  11 H :   -0.216186
  12 C :   -0.038868
  13 H :   -0.003460
  14 H :   -0.107331
  15 C :    0.168792
  16 H :   -0.030784
  17 H :   -0.205615
  18 H :   -0.253118
  19 C :    0.211920
  20 H :   -0.094949
  21 H :   -0.029460
  22 H :   -0.026685
  23 C :    0.830414
  24 H :   -0.057687
  25 H :   -0.204819
  26 F :   -0.596507
  27 H :    0.002921
  28 H :   -0.207301
  29 C :    0.526876
  30 N :    0.220593
  31 N :   -0.024879
  32 H :   -0.042532
  33 H :   -0.244968
  34 H :   -0.452786
  35 H :   -0.080942
  36 H :   -0.242344
Sum of atomic charges:    0.0000000

LOEWDIN ATOMIC CHARGES
----------------------
   0 C :   -0.038963
   1 C :   -0.020673
   2 C :   -0.010318
   3 H :    0.014414
   4 C :   -0.021567
   5 H :    0.010909
   6 H :   -0.006091
   7 H :    0.020383
   8 C :   -0.024301
   9 H :   -0.003488
  10 C :   -0.022608
  11 H :    0.020942
  12 C :   -0.026219
  13 H :    0.018055
  14 H :    0.017221
  15 C :   -0.014932
  16 H :   -0.006085
  17 H :    0.018845
  18 H :    0.004707
  19 C :   -0.002787
  20 H :    0.025366
  21 H :    0.031488
  22 H :    0.023664
  23 C :    0.165705
  24 H :    0.030324
  25 H :    0.032081
  26 F :   -0.207304
  27 H :    0.000299
  28 H :   -0.000368
  29 C :   -0.195033
  30 N :    0.197149
  31 N :    0.203863
  32 H :   -0.025244
  33 H :   -0.020311
  34 H :   -0.107105
  35 H :   -0.070783
  36 H :   -0.011236

  Mayer bond orders larger than 0.100000
B(  0-C ,  1-C ) :   1.0579 B(  0-C ,  2-C ) :   0.9612 B(  0-C ,  3-H ) :   0.1479
B(  0-C ,  5-H ) :   0.1935 B(  0-C , 27-H ) :   0.8098 B(  0-C , 28-H ) :   0.6916
B(  0-C , 34-H ) :   0.5475 B(  1-C ,  3-H ) :   0.7409 B(  1-C ,  4-C ) :   1.2468
B(  1-C ,  5-H ) :   0.7987 B(  1-C ,  6-H ) :   0.1445 B(  1-C ,  7-H ) :   0.1051
B(  2-C , 27-H ) :   0.2417 B(  2-C , 28-H ) :   0.3200 B(  2-C , 29-C ) :   1.8614
B(  2-C , 30-N ) :   0.3354 B(  2-C , 31-N ) :   0.2389 B(  2-C , 32-H ) :  -0.2015
B(  3-H ,  4-C ) :   0.2156 B(  4-C ,  5-H ) :   0.1294 B(  4-C ,  6-H ) :   0.8681
B(  4-C ,  7-H ) :   0.7610 B(  4-C ,  8-C ) :   1.1858 B(  4-C , 11-H ) :   0.1573
B(  6-H ,  8-C ) :   0.1595 B(  7-H ,  8-C ) :   0.1517 B(  8-C ,  9-H ) :   0.8419
B(  8-C , 10-C ) :   1.1564 B(  8-C , 11-H ) :   0.9417 B(  8-C , 12-C ) :   0.1199
B(  8-C , 13-H ) :   0.1197 B(  8-C , 14-H ) :   0.2795 B( 10-C , 12-C ) :   1.1949
B( 10-C , 13-H ) :   0.7079 B( 10-C , 14-H ) :   0.7020 B( 12-C , 13-H ) :   0.2238
B( 12-C , 14-H ) :   0.1203 B( 12-C , 15-C ) :   1.1988 B( 12-C , 16-H ) :   0.8846
B( 12-C , 17-H ) :   0.8935 B( 12-C , 18-H ) :   0.1532 B( 12-C , 20-H ) :   0.1862
B( 13-H , 14-H ) :  -0.1134 B( 15-C , 16-H ) :   0.1037 B( 15-C , 17-H ) :   0.2234
B( 15-C , 18-H ) :   0.8787 B( 15-C , 19-C ) :   1.1809 B( 15-C , 20-H ) :   0.8215
B( 15-C , 21-H ) :   0.1158 B( 15-C , 22-H ) :   0.2053 B( 18-H , 19-C ) :   0.1552
B( 19-C , 21-H ) :   0.8026 B( 19-C , 22-H ) :   0.7501 B( 19-C , 23-C ) :   1.2035
B( 19-C , 24-H ) :   0.1189 B( 19-C , 25-H ) :   0.1400 B( 19-C , 26-F ) :   0.1259
B( 21-H , 23-C ) :   0.1547 B( 22-H , 23-C ) :   0.1435 B( 23-C , 24-H ) :   0.8334
B( 23-C , 25-H ) :   0.8986 B( 23-C , 26-F ) :   0.5984 B( 24-H , 26-F ) :   0.1189
B( 26-F , 34-H ) :  -0.1570 B( 26-F , 35-H ) :   0.1077 B( 27-H , 34-H ) :  -0.1584
B( 28-H , 34-H ) :   0.1001 B( 29-C , 30-N ) :   0.7144 B( 29-C , 31-N ) :   0.8207
B( 29-C , 34-H ) :   0.3765 B( 30-N , 31-N ) :   0.1180 B( 30-N , 35-H ) :   1.0479
B( 30-N , 36-H ) :   1.2359 B( 31-N , 32-H ) :   1.0164 B( 31-N , 33-H ) :   1.2664
B( 31-N , 34-H ) :  -0.1149 B( 32-H , 33-H ) :  -0.1327 B( 35-H , 36-H ) :  -0.1492

Dispersion correction           -0.050132530
FINAL SINGLE POINT ENERGY      -642.027147354992

DIPOLE MOMENT
-------------
                                X             Y             Z
Electronic contribution:     -1.59485      -4.84779      10.71442
Nuclear contribution   :      1.15699       3.94991     -10.89335
                        -----------------------------------------
Total Dipole Moment    :     -0.43787      -0.89788      -0.17893
                        -----------------------------------------
Magnitude (a.u.)       :      1.01486
Magnitude (Debye)      :      2.57957

Rotational constants in cm-1:     0.026548     0.016177     0.010851
Rotational constants in MHz :   795.884848   484.988695   325.313537

                             ****ORCA TERMINATED NORMALLY****
TOTAL RUN TIME: 0 days 0 hours 1 minutes 17 seconds 437 msec
