                         Program Version 5.0.0 -  RELEASE  -
|  1> !TPSS D3BJ RIJCOSX def2-SVPD def2/J TightSCF xyzfile
|  2>
|  3> *xyzfile 0 1 D3.xyz
|  4>
|  5> %MaxCore 64000
|  6>
|  7> %pal nprocs 4
|  8> end
|  9>
| 10> %scf
| 11>   MaxIter 150
| 12> end
| 13>
| 14>
| 15>                          ****END OF INPUT****

CARTESIAN COORDINATES (ANGSTROEM)
---------------------------------
  C      3.488276    1.600919   -1.522040
  C      4.342970    1.313419   -2.756826
  N      2.810285    0.428783   -1.014196
  H      5.132033    0.604994   -2.484466
  C      3.535896    0.749253   -3.924604
  H      4.841247    2.242136   -3.054083
  H      2.991617   -0.132199   -3.574137
  H      4.225505    0.392784   -4.695962
  C      2.564776    1.750890   -4.544523
  H      1.918749    2.171679   -3.769419
  C      1.686235    1.161657   -5.650111
  H      3.132494    2.594775   -4.951604
  C      0.839616   -0.037582   -5.220473
  H      2.323886    0.866395   -6.490796
  H      1.029518    1.951850   -6.029329
  C     -0.151019    0.254955   -4.094256
  H      1.499442   -0.857141   -4.922958
  H      0.290097   -0.410143   -6.091131
  H      0.328265    0.833022   -3.299125
  C     -0.721843   -0.999513   -3.439309
  H     -0.957367    0.884951   -4.485450
  H     -1.083403   -1.697555   -4.205656
  H     -1.581056   -0.723848   -2.820490
  C      0.287250   -1.711771   -2.527405
  H      1.131780   -2.067380   -3.159396
  H     -0.204137   -2.637326   -2.170480
  F      0.710505   -0.927506   -1.481767
  H      2.714548    2.331455   -1.760302
  H      4.090991    2.063151   -0.733382
  C      3.290978   -0.418021   -0.129083
  N      2.517536   -1.432017    0.239360
  C      4.535490   -0.284410    0.395800
  H      5.043627    0.571888    0.222899
  H      4.723346   -0.733273    1.281800
  H      1.934787    0.102305   -1.403788
  H      1.674638   -1.505616   -0.316095
  H      2.928503   -2.218502    0.725494

 Total Charge           Charge          ....    0
 Multiplicity           Mult            ....    1
 Number of Electrons    NEL             ....  112
 Basis Dimension        Dim             ....  467

ORBITAL ENERGIES
----------------

  NO   OCC          E(Eh)            E(eV)
   0   2.0000     -24.472999      -665.9442
   1   2.0000     -14.094691      -383.5360
   2   2.0000     -14.091146      -383.4396
   3   2.0000     -10.107650      -275.0432
   4   2.0000     -10.026943      -272.8470
   5   2.0000     -10.020230      -272.6643
   6   2.0000     -10.018515      -272.6177
   7   2.0000     -10.012764      -272.4612
   8   2.0000     -10.006867      -272.3007
   9   2.0000     -10.001488      -272.1543
  10   2.0000      -9.996238      -272.0115
  11   2.0000      -9.992375      -271.9063
  12   2.0000      -9.986197      -271.7382
  13   2.0000      -9.894391      -269.2401
  14   2.0000      -1.168519       -31.7970
  15   2.0000      -0.881977       -23.9998
  16   2.0000      -0.798858       -21.7380
  17   2.0000      -0.767717       -20.8907
  18   2.0000      -0.738865       -20.1055
  19   2.0000      -0.706699       -19.2303
  20   2.0000      -0.667104       -18.1528
  21   2.0000      -0.636852       -17.3296
  22   2.0000      -0.626910       -17.0591
  23   2.0000      -0.598470       -16.2852
  24   2.0000      -0.568186       -15.4611
  25   2.0000      -0.543200       -14.7812
  26   2.0000      -0.524899       -14.2832
  27   2.0000      -0.510841       -13.9007
  28   2.0000      -0.504329       -13.7235
  29   2.0000      -0.480469       -13.0742
  30   2.0000      -0.472814       -12.8659
  31   2.0000      -0.462427       -12.5833
  32   2.0000      -0.449303       -12.2262
  33   2.0000      -0.433568       -11.7980
  34   2.0000      -0.420485       -11.4420
  35   2.0000      -0.412542       -11.2258
  36   2.0000      -0.400388       -10.8951
  37   2.0000      -0.395850       -10.7716
  38   2.0000      -0.387249       -10.5376
  39   2.0000      -0.371987       -10.1223
  40   2.0000      -0.359984        -9.7957
  41   2.0000      -0.346354        -9.4248
  42   2.0000      -0.342544        -9.3211
  43   2.0000      -0.334513        -9.1026
  44   2.0000      -0.330812        -9.0019
  45   2.0000      -0.322740        -8.7822
  46   2.0000      -0.315556        -8.5867
  47   2.0000      -0.310861        -8.4590
  48   2.0000      -0.303201        -8.2505
  49   2.0000      -0.301015        -8.1910
  50   2.0000      -0.295175        -8.0321
  51   2.0000      -0.283283        -7.7085
  52   2.0000      -0.282051        -7.6750
  53   2.0000      -0.275260        -7.4902
  54   2.0000      -0.192789        -5.2461
  55   2.0000      -0.116782        -3.1778
  56   0.0000      -0.003181        -0.0866
  57   0.0000       0.007575         0.2061
  58   0.0000       0.017007         0.4628
  59   0.0000       0.020028         0.5450
  60   0.0000       0.029543         0.8039

MULLIKEN ATOMIC CHARGES
-----------------------
   0 C :    1.052137
   1 C :    0.255991
   2 N :    0.285770
   3 H :   -0.051524
   4 C :    0.278641
   5 H :   -0.096036
   6 H :   -0.351068
   7 H :   -0.107562
   8 C :   -0.118547
   9 H :    0.074988
  10 C :    0.564609
  11 H :   -0.193378
  12 C :   -0.046553
  13 H :   -0.000699
  14 H :   -0.108685
  15 C :    0.155330
  16 H :   -0.008030
  17 H :   -0.207236
  18 H :   -0.271926
  19 C :    0.206619
  20 H :   -0.074575
  21 H :   -0.024043
  22 H :   -0.025271
  23 C :    0.815436
  24 H :   -0.064099
  25 H :   -0.182823
  26 F :   -0.730213
  27 H :   -0.290520
  28 H :   -0.159805
  29 C :    0.652305
  30 N :    0.363651
  31 C :    0.462353
  32 H :    0.008324
  33 H :   -0.604439
  34 H :   -1.031748
  35 H :   -0.282802
  36 H :   -0.144570
Sum of atomic charges:    0.0000000

LOEWDIN ATOMIC CHARGES
----------------------
   0 C :    0.076656
   1 C :   -0.003883
   2 N :    0.007654
   3 H :    0.018197
   4 C :   -0.023561
   5 H :    0.018279
   6 H :   -0.008058
   7 H :    0.023321
   8 C :   -0.026985
   9 H :   -0.006290
  10 C :   -0.020407
  11 H :    0.022928
  12 C :   -0.025260
  13 H :    0.020070
  14 H :    0.018783
  15 C :   -0.016059
  16 H :   -0.005833
  17 H :    0.020923
  18 H :    0.001165
  19 C :   -0.000507
  20 H :    0.027404
  21 H :    0.034245
  22 H :    0.025236
  23 C :    0.168049
  24 H :    0.032237
  25 H :    0.037003
  26 F :   -0.199075
  27 H :    0.005412
  28 H :    0.013853
  29 C :   -0.218752
  30 N :    0.207420
  31 C :    0.155124
  32 H :   -0.133231
  33 H :   -0.115157
  34 H :   -0.057157
  35 H :   -0.082915
  36 H :    0.009173

  Mayer bond orders larger than 0.100000
B(  0-C ,  1-C ) :   1.0346 B(  0-C ,  2-N ) :   1.0134 B(  0-C ,  5-H ) :   0.1044
B(  0-C , 27-H ) :   0.7279 B(  0-C , 28-H ) :   0.8214 B(  0-C , 34-H ) :  -0.6061
B(  1-C ,  3-H ) :   0.7868 B(  1-C ,  4-C ) :   1.2102 B(  1-C ,  5-H ) :   0.9109
B(  1-C ,  6-H ) :   0.1381 B(  1-C , 28-H ) :   0.1047 B(  2-N , 27-H ) :   0.2000
B(  2-N , 29-C ) :   0.9604 B(  2-N , 31-C ) :   0.5047 B(  2-N , 33-H ) :   0.1362
B(  2-N , 34-H ) :   0.6139 B(  3-H ,  4-C ) :   0.1876 B(  4-C ,  6-H ) :   0.8557
B(  4-C ,  7-H ) :   0.7857 B(  4-C ,  8-C ) :   1.1852 B(  4-C , 11-H ) :   0.1618
B(  6-H ,  8-C ) :   0.1643 B(  7-H ,  8-C ) :   0.1476 B(  8-C ,  9-H ) :   0.8379
B(  8-C , 10-C ) :   1.1759 B(  8-C , 11-H ) :   0.9351 B(  8-C , 12-C ) :   0.1168
B(  8-C , 13-H ) :   0.1192 B(  8-C , 14-H ) :   0.2784 B( 10-C , 12-C ) :   1.1967
B( 10-C , 13-H ) :   0.7159 B( 10-C , 14-H ) :   0.7001 B( 10-C , 17-H ) :   0.1017
B( 12-C , 13-H ) :   0.2164 B( 12-C , 14-H ) :   0.1239 B( 12-C , 15-C ) :   1.2078
B( 12-C , 16-H ) :   0.8734 B( 12-C , 17-H ) :   0.8925 B( 12-C , 18-H ) :   0.1525
B( 12-C , 20-H ) :   0.1893 B( 13-H , 14-H ) :  -0.1135 B( 15-C , 16-H ) :   0.1044
B( 15-C , 17-H ) :   0.2285 B( 15-C , 18-H ) :   0.8803 B( 15-C , 19-C ) :   1.1799
B( 15-C , 20-H ) :   0.8297 B( 15-C , 21-H ) :   0.1041 B( 15-C , 22-H ) :   0.1976
B( 18-H , 19-C ) :   0.1502 B( 19-C , 21-H ) :   0.8112 B( 19-C , 22-H ) :   0.7473
B( 19-C , 23-C ) :   1.2123 B( 19-C , 24-H ) :   0.1171 B( 19-C , 25-H ) :   0.1387
B( 19-C , 26-F ) :   0.1240 B( 21-H , 23-C ) :   0.1529 B( 22-H , 23-C ) :   0.1439
B( 23-C , 24-H ) :   0.8467 B( 23-C , 25-H ) :   0.8944 B( 23-C , 26-F ) :   0.5567
B( 24-H , 26-F ) :   0.1139 B( 26-F , 34-H ) :   0.1420 B( 26-F , 35-H ) :   0.1971
B( 27-H , 28-H ) :  -0.1327 B( 27-H , 34-H ) :   0.1123 B( 29-C , 30-N ) :   0.8109
B( 29-C , 31-C ) :   1.5863 B( 29-C , 32-H ) :   0.3588 B( 29-C , 33-H ) :   0.3545
B( 29-C , 34-H ) :  -0.6290 B( 29-C , 36-H ) :  -0.1055 B( 30-N , 31-C ) :   0.2929
B( 30-N , 35-H ) :   0.9277 B( 30-N , 36-H ) :   1.2260 B( 31-C , 32-H ) :   0.5716
B( 31-C , 33-H ) :   0.6700 B( 31-C , 34-H ) :  -0.1037 B( 35-H , 36-H ) :  -0.1499

Dispersion correction           -0.049801955
FINAL SINGLE POINT ENERGY      -642.028575954584

DIPOLE MOMENT
-------------
                                X             Y             Z
Electronic contribution:     -3.22006      -4.29705       9.10557
Nuclear contribution   :      1.49917       3.80845     -10.61369
                        -----------------------------------------
Total Dipole Moment    :     -1.72089      -0.48860      -1.50811
                        -----------------------------------------
Magnitude (a.u.)       :      2.33979
Magnitude (Debye)      :      5.94726

Rotational constants in cm-1:     0.026547     0.016542     0.011018
Rotational constants in MHz :   795.873737   495.912559   330.323979

                             ****ORCA TERMINATED NORMALLY****
TOTAL RUN TIME: 0 days 0 hours 1 minutes 22 seconds 10 msec
