                         Program Version 5.0.0 -  RELEASE  -
|  1> !DLPNO-CCSD(T) aug-cc-pVTZ aug-cc-pVTZ/C TightSCF TightPNO RIJCOSX def2/J
|  2> *xyz -1 1
|  3> C         -7.33044       -2.67899       -3.20681
|  4> S         -6.01966       -2.92697       -4.41913
|  5> O         -5.64583       -1.58838       -4.91931
|  6> O         -4.88196       -3.50370       -3.66724
|  7> O         -6.54927       -3.80515       -5.42507
|  8> H         -8.18867       -2.26077       -3.68996
|  9> H         -6.98921       -2.01038       -2.44430
| 10> H         -7.59151       -3.61862       -2.76655
| 11> *
| 12> %MaxCore 64000
| 13>
| 14> %pal nprocs 2
| 15> end
| 16>
| 17> %scf
| 18>   MaxIter 150
| 19> end
| 20>
| 21>
| 22>                          ****END OF INPUT****

CARTESIAN COORDINATES (ANGSTROEM)
---------------------------------
  C     -7.330440   -2.678990   -3.206810
  S     -6.019660   -2.926970   -4.419130
  O     -5.645830   -1.588380   -4.919310
  O     -4.881960   -3.503700   -3.667240
  O     -6.549270   -3.805150   -5.425070
  H     -8.188670   -2.260770   -3.689960
  H     -6.989210   -2.010380   -2.444300
  H     -7.591510   -3.618620   -2.766550

 Total Charge           Charge          ....   -1
 Multiplicity           Mult            ....    1
 Number of Electrons    NEL             ....   50
 Basis Dimension        Dim             ....  303

ORBITAL ENERGIES
----------------

  NO   OCC          E(Eh)            E(eV)
   0   2.0000     -91.985751     -2503.0595
   1   2.0000     -20.335151      -553.3476
   2   2.0000     -20.323286      -553.0247
   3   2.0000     -20.320649      -552.9530
   4   2.0000     -11.088086      -301.7222
   5   2.0000      -8.948263      -243.4946
   6   2.0000      -6.634426      -180.5319
   7   2.0000      -6.633118      -180.4963
   8   2.0000      -6.633083      -180.4954
   9   2.0000      -1.267083       -34.4791
  10   2.0000      -1.123921       -30.5835
  11   2.0000      -1.098771       -29.8991
  12   2.0000      -0.848972       -23.1017
  13   2.0000      -0.606766       -16.5110
  14   2.0000      -0.484246       -13.1770
  15   2.0000      -0.468351       -12.7445
  16   2.0000      -0.467954       -12.7337
  17   2.0000      -0.422218       -11.4891
  18   2.0000      -0.419319       -11.4103
  19   2.0000      -0.319734        -8.7004
  20   2.0000      -0.316278        -8.6064
  21   2.0000      -0.275442        -7.4952
  22   2.0000      -0.261999        -7.1293
  23   2.0000      -0.255999        -6.9661
  24   2.0000      -0.225613        -6.1392
  25   0.0000       0.126482         3.4418
  26   0.0000       0.139591         3.7985
  27   0.0000       0.140693         3.8285
  28   0.0000       0.189180         5.1478
  29   0.0000       0.213183         5.8010

MULLIKEN ATOMIC CHARGES
-----------------------
   0 C :   -1.067709
   1 S :    2.169276
   2 O :   -1.002407
   3 O :   -1.002726
   4 O :   -0.998226
   5 H :    0.317403
   6 H :    0.296619
   7 H :    0.287771
Sum of atomic charges:   -1.0000000

LOEWDIN ATOMIC CHARGES
----------------------
   0 C :    0.438835
   1 S :   -0.425899
   2 O :   -0.096308
   3 O :   -0.099074
   4 O :   -0.067400
   5 H :   -0.250850
   6 H :   -0.249224
   7 H :   -0.250080

  Mayer bond orders larger than 0.100000
B(  0-C ,  1-S ) :   0.7863 B(  0-C ,  5-H ) :   0.8831 B(  0-C ,  6-H ) :   0.9118
B(  0-C ,  7-H ) :   0.9215 B(  1-S ,  2-O ) :   1.3244 B(  1-S ,  3-O ) :   1.3276
B(  1-S ,  4-O ) :   1.3914

E(0)                                       ...   -661.876127956
E(0)                                       ...   -661.876127956
E(CORR)(strong-pairs)                      ...     -1.115279536
E(CORR)(weak-pairs)                        ...     -0.000977083
E(CORR)(corrected)                         ...     -1.116256619
E(TOT)                                     ...   -662.992384575
E(CCSD(T))                                 ...   -663.040453347
FINAL SINGLE POINT ENERGY      -663.040453346781

DIPOLE MOMENT
-------------
                                X             Y             Z
Electronic contribution:      2.86848      -0.62896      -2.82266
Nuclear contribution   :     -4.26236       0.77434       3.87117
                        -----------------------------------------
Total Dipole Moment    :     -1.39388       0.14538       1.04851
                        -----------------------------------------
Magnitude (a.u.)       :      1.75026
Magnitude (Debye)      :      4.44880

Rotational constants in cm-1:     0.172427     0.155038     0.152780
Rotational constants in MHz :  5169.225473  4647.928623  4580.233540

                             ****ORCA TERMINATED NORMALLY****
TOTAL RUN TIME: 0 days 1 hours 4 minutes 25 seconds 46 msec
