                         Program Version 5.0.0 -  RELEASE  -
|  1> !DLPNO-CCSD(T) aug-cc-pVTZ aug-cc-pVTZ/C TightSCF TightPNO RIJCOSX def2/J
|  2> *xyz 1 1
|  3> C         -2.16038       -1.36949       -3.46710
|  4> N         -3.03011       -1.91086       -4.54107
|  5> H         -3.47744       -2.79151       -4.25710
|  6> H         -2.53801       -2.01786       -5.43808
|  7> H         -3.89159       -1.37604       -4.71437
|  8> H         -1.71294       -0.45536       -3.79734
|  9> H         -1.39344       -2.07939       -3.23742
| 10> H         -2.74775       -1.18344       -2.59230
| 11> *
| 12> %MaxCore 64000
| 13>
| 14> %pal nprocs 8
| 15> end
| 16>
| 17> %scf
| 18>   MaxIter 150
| 19> end
| 20>
| 21>
| 22>                          ****END OF INPUT****

CARTESIAN COORDINATES (ANGSTROEM)
---------------------------------
  C     -2.160380   -1.369490   -3.467100
  N     -3.030110   -1.910860   -4.541070
  H     -3.477440   -2.791510   -4.257100
  H     -2.538010   -2.017860   -5.438080
  H     -3.891590   -1.376040   -4.714370
  H     -1.712940   -0.455360   -3.797340
  H     -1.393440   -2.079390   -3.237420
  H     -2.747750   -1.183440   -2.592300

 Total Charge           Charge          ....    1
 Multiplicity           Mult            ....    1
 Number of Electrons    NEL             ....   18
 Basis Dimension        Dim             ....  230

ORBITAL ENERGIES
----------------

  NO   OCC          E(Eh)            E(eV)
   0   2.0000     -15.914556      -433.0571
   1   2.0000     -11.483975      -312.4948
   2   2.0000      -1.530433       -41.6452
   3   2.0000      -1.184697       -32.2372
   4   2.0000      -0.998805       -27.1789
   5   2.0000      -0.967736       -26.3334
   6   2.0000      -0.879409       -23.9299
   7   2.0000      -0.785506       -21.3747
   8   2.0000      -0.780428       -21.2365
   9   0.0000      -0.128025        -3.4837
  10   0.0000      -0.086889        -2.3644
  11   0.0000      -0.085068        -2.3148
  12   0.0000      -0.083474        -2.2714
  13   0.0000      -0.047055        -1.2804

MULLIKEN ATOMIC CHARGES
-----------------------
   0 C :   -0.798774
   1 N :    0.057377
   2 H :    0.180107
   3 H :    0.176676
   4 H :    0.186556
   5 H :    0.416719
   6 H :    0.395023
   7 H :    0.386315
Sum of atomic charges:    1.0000000

LOEWDIN ATOMIC CHARGES
----------------------
   0 C :    0.694749
   1 N :    1.094800
   2 H :   -0.130473
   3 H :   -0.116769
   4 H :   -0.126700
   5 H :   -0.139030
   6 H :   -0.138047
   7 H :   -0.138530

  Mayer bond orders larger than 0.100000
B(  0-C ,  1-N ) :   0.8009 B(  0-C ,  5-H ) :   0.8236 B(  0-C ,  6-H ) :   0.8479
B(  0-C ,  7-H ) :   0.8636 B(  1-N ,  2-H ) :   0.9779 B(  1-N ,  3-H ) :   0.9860
B(  1-N ,  4-H ) :   0.9681

E(0)                                       ...    -95.614594768
E(0)                                       ...    -95.614594768
E(CORR)(strong-pairs)                      ...     -0.429446606
E(CORR)(weak-pairs)                        ...     -0.000233405
E(CORR)(corrected)                         ...     -0.429680011
E(TOT)                                     ...    -96.044274779
E(CCSD(T))                                 ...    -96.057753253
FINAL SINGLE POINT ENERGY       -96.057753253171

DIPOLE MOMENT
-------------
                                X             Y             Z
Electronic contribution:     -0.57384      -0.37458      -0.78340
Nuclear contribution   :      0.00575       0.04584       0.17617
                        -----------------------------------------
Total Dipole Moment    :     -0.56809      -0.32874      -0.60723
                        -----------------------------------------
Magnitude (a.u.)       :      0.89416
Magnitude (Debye)      :      2.27277

Rotational constants in cm-1:     2.917716     0.684997     0.676552
Rotational constants in MHz : 87470.913131 20535.702929 20282.512120

                             ****ORCA TERMINATED NORMALLY****
TOTAL RUN TIME: 0 days 0 hours 1 minutes 1 seconds 410 msec
