                         Program Version 5.0.0 -  RELEASE  -
|  1> !DLPNO-CCSD(T) aug-cc-pVTZ aug-cc-pVTZ/C TightSCF TightPNO RIJCOSX def2/J
|  2>
|  3> *xyzfile 0 1 B.xyz
|  4>
|  5> %MaxCore 64000
|  6>
|  7> %pal nprocs 18
|  8> end
|  9>
| 10> %scf
| 11>   MaxIter 150
| 12> end
| 13>
| 14>
| 15>                          ****END OF INPUT****

CARTESIAN COORDINATES (ANGSTROEM)
---------------------------------
  C     -2.160376   -1.369486   -3.467104
  N     -3.030108   -1.910857   -4.541074
  C     -2.047717    0.146583   -3.511774
  C     -7.330440   -2.678991   -3.206811
  S     -6.019659   -2.926965   -4.419128
  H     -3.477443   -2.791513   -4.257096
  H     -2.538013   -2.017860   -5.438075
  H     -3.891589   -1.376039   -4.714365
  O     -5.645830   -1.588384   -4.919307
  O     -4.881961   -3.503697   -3.667235
  H     -1.184438   -1.843997   -3.566393
  H     -2.598195   -1.708376   -2.528477
  O     -6.549267   -3.805150   -5.425071
  C     -3.328755    0.875037   -3.103669
  H     -1.740034    0.452343   -4.517126
  H     -1.232611    0.434938   -2.842208
  C     -3.628487    0.771601   -1.609363
  H     -4.175106    0.490791   -3.682203
  H     -3.237812    1.928663   -3.381480
  C     -4.975718    1.361432   -1.190644
  H     -2.830700    1.276234   -1.054766
  H     -3.594312   -0.275838   -1.294603
  C     -6.184720    0.784347   -1.926464
  H     -4.956292    2.445725   -1.342200
  H     -5.097256    1.205252   -0.114136
  C     -6.286921   -0.735882   -1.893531
  H     -6.163994    1.100199   -2.974250
  H     -7.094530    1.223459   -1.504509
  C     -7.468999   -1.246153   -2.713833
  H     -6.360641   -1.090347   -0.859176
  H     -5.369848   -1.171853   -2.295982
  H     -7.601914   -0.601349   -3.585329
  H     -8.389791   -1.173436   -2.126922
  H     -7.118254   -3.379818   -2.398055
  H     -8.241838   -3.004745   -3.706513

 Total Charge           Charge          ....    0
 Multiplicity           Mult            ....    1
 Number of Electrons    NEL             ....  122
 Basis Dimension        Dim             .... 1131

ORBITAL ENERGIES
----------------

  NO   OCC          E(Eh)            E(eV)
   0   2.0000     -92.148330     -2507.4835
   1   2.0000     -20.502796      -557.9094
   2   2.0000     -20.502485      -557.9010
   3   2.0000     -20.487153      -557.4838
   4   2.0000     -15.669959      -426.4013
   5   2.0000     -11.312140      -307.8190
   6   2.0000     -11.260944      -306.4259
   7   2.0000     -11.240016      -305.8564
   8   2.0000     -11.231659      -305.6290
   9   2.0000     -11.230973      -305.6103
  10   2.0000     -11.223894      -305.4177
  11   2.0000     -11.217370      -305.2402
  12   2.0000     -11.216298      -305.2110
  13   2.0000     -11.213185      -305.1263
  14   2.0000      -9.112503      -247.9638
  15   2.0000      -6.798056      -184.9845
  16   2.0000      -6.797814      -184.9779
  17   2.0000      -6.796935      -184.9540
  18   2.0000      -1.442473       -39.2517
  19   2.0000      -1.316112       -35.8132
  20   2.0000      -1.289561       -35.0907
  21   2.0000      -1.287766       -35.0419
  22   2.0000      -1.117982       -30.4218
  23   2.0000      -1.085971       -29.5508
  24   2.0000      -1.052288       -28.6342
  25   2.0000      -0.996323       -27.1113
  26   2.0000      -0.952626       -25.9223
  27   2.0000      -0.896923       -24.4065
  28   2.0000      -0.848543       -23.0900
  29   2.0000      -0.820906       -22.3380
  30   2.0000      -0.789519       -21.4839
  31   2.0000      -0.770528       -20.9671
  32   2.0000      -0.753045       -20.4914
  33   2.0000      -0.748999       -20.3813
  34   2.0000      -0.682768       -18.5791
  35   2.0000      -0.665689       -18.1143
  36   2.0000      -0.658979       -17.9317
  37   2.0000      -0.649640       -17.6776
  38   2.0000      -0.629838       -17.1388
  39   2.0000      -0.625287       -17.0149
  40   2.0000      -0.615839       -16.7578
  41   2.0000      -0.599275       -16.3071
  42   2.0000      -0.588840       -16.0232
  43   2.0000      -0.577818       -15.7232
  44   2.0000      -0.570890       -15.5347
  45   2.0000      -0.555233       -15.1086
  46   2.0000      -0.538856       -14.6630
  47   2.0000      -0.522230       -14.2106
  48   2.0000      -0.516404       -14.0521
  49   2.0000      -0.501124       -13.6363
  50   2.0000      -0.494012       -13.4428
  51   2.0000      -0.490106       -13.3365
  52   2.0000      -0.485246       -13.2042
  53   2.0000      -0.473766       -12.8918
  54   2.0000      -0.459436       -12.5019
  55   2.0000      -0.455482       -12.3943
  56   2.0000      -0.450353       -12.2547
  57   2.0000      -0.443309       -12.0631
  58   2.0000      -0.431672       -11.7464
  59   2.0000      -0.408402       -11.1132
  60   2.0000      -0.404273       -11.0008
  61   0.0000       0.012291         0.3345
  62   0.0000       0.024301         0.6613
  63   0.0000       0.026200         0.7130
  64   0.0000       0.031716         0.8630
  65   0.0000       0.039959         1.0873

MULLIKEN ATOMIC CHARGES
-----------------------
   0 C :   -0.353523
   1 N :    0.103541
   2 C :   -0.637056
   3 C :   -0.794975
   4 S :    2.695031
   5 H :    0.129614
   6 H :    0.016504
   7 H :    0.258841
   8 O :   -1.136301
   9 O :   -1.121867
  10 H :    0.366448
  11 H :    0.281345
  12 O :   -1.129241
  13 C :   -0.443000
  14 H :    0.262219
  15 H :    0.174256
  16 C :   -0.135000
  17 H :    0.131251
  18 H :    0.320287
  19 C :   -0.910238
  20 H :    0.567524
  21 H :    0.013749
  22 C :   -0.295352
  23 H :    0.197592
  24 H :    0.124729
  25 C :   -0.604293
  26 H :    0.054038
  27 H :    0.553146
  28 C :   -0.474965
  29 H :    0.354261
  30 H :    0.526329
  31 H :    0.220005
  32 H :    0.315652
  33 H :    0.179656
  34 H :    0.189795
Sum of atomic charges:   -0.0000000

LOEWDIN ATOMIC CHARGES
----------------------
   0 C :    0.328804
   1 N :    1.057415
   2 C :    0.326259
   3 C :    0.193235
   4 S :   -0.155642
   5 H :   -0.478923
   6 H :   -0.114877
   7 H :   -0.435971
   8 O :    0.141241
   9 O :    0.146826
  10 H :   -0.116771
  11 H :   -0.132532
  12 O :    0.011975
  13 C :    0.300872
  14 H :   -0.134550
  15 H :   -0.136224
  16 C :    0.288515
  17 H :   -0.175514
  18 H :   -0.124796
  19 C :    0.305255
  20 H :   -0.133245
  21 H :   -0.167482
  22 C :    0.286977
  23 H :   -0.139111
  24 H :   -0.139130
  25 C :    0.265916
  26 H :   -0.152384
  27 H :   -0.131087
  28 C :    0.241191
  29 H :   -0.123520
  30 H :   -0.202626
  31 H :   -0.171656
  32 H :   -0.140160
  33 H :   -0.189488
  34 H :   -0.198792

  Mayer bond orders larger than 0.100000
B(  0-C ,  1-N ) :   0.7468 B(  0-C ,  2-C ) :   0.8829 B(  0-C , 10-H ) :   0.8921
B(  0-C , 11-H ) :   0.9664 B(  1-N ,  5-H ) :   0.9590 B(  1-N ,  6-H ) :   1.1344
B(  1-N ,  7-H ) :   0.8668 B(  1-N ,  9-O ) :  -0.1285 B(  2-C , 13-C ) :   0.9153
B(  2-C , 14-H ) :   1.0195 B(  2-C , 15-H ) :   1.0471 B(  3-C ,  4-S ) :   0.7920
B(  3-C , 12-O ) :   0.1740 B(  3-C , 25-C ) :   0.1238 B(  3-C , 28-C ) :   0.9738
B(  3-C , 33-H ) :   1.0408 B(  3-C , 34-H ) :   1.0027 B(  4-S ,  8-O ) :   1.2566
B(  4-S ,  9-O ) :   1.1812 B(  4-S , 12-O ) :   0.7294 B(  4-S , 28-C ) :   0.1018
B(  7-H ,  9-O ) :   0.1035 B(  8-O ,  9-O ) :   0.1157 B(  8-O , 30-H ) :  -0.1037
B( 13-C , 16-C ) :   0.7088 B( 13-C , 17-H ) :   1.1414 B( 13-C , 18-H ) :   0.9043
B( 16-C , 19-C ) :   0.9030 B( 16-C , 20-H ) :   0.6890 B( 16-C , 21-H ) :   1.2272
B( 19-C , 21-H ) :   0.1209 B( 19-C , 22-C ) :   0.9145 B( 19-C , 23-H ) :   1.0420
B( 19-C , 24-H ) :   1.1438 B( 22-C , 25-C ) :   0.7681 B( 22-C , 26-H ) :   1.1272
B( 22-C , 27-H ) :   0.6809 B( 23-H , 24-H ) :   0.1016 B( 25-C , 28-C ) :   0.8705
B( 25-C , 29-H ) :   0.8812 B( 25-C , 30-H ) :   0.9763 B( 28-C , 31-H ) :   0.9904
B( 28-C , 32-H ) :   0.9038

E(0)                                       ...  -1029.833436267
E(0)                                       ...  -1029.833436267
E(CORR)(strong-pairs)                      ...     -2.838885339
E(CORR)(weak-pairs)                        ...     -0.005307351
E(CORR)(corrected)                         ...     -2.844192690
E(TOT)                                     ...  -1032.677628957
E(CCSD(T))                                 ...  -1032.796608868
FINAL SINGLE POINT ENERGY     -1032.796608868254

DIPOLE MOMENT
-------------
                                X             Y             Z
Electronic contribution:     -5.91717     -15.11157     -11.30095
Nuclear contribution   :      8.59301      16.99497      12.41069
                        -----------------------------------------
Total Dipole Moment    :      2.67584       1.88341       1.10974
                        -----------------------------------------
Magnitude (a.u.)       :      3.45527
Magnitude (Debye)      :      8.78260

Rotational constants in cm-1:     0.025617     0.015295     0.010641
Rotational constants in MHz :   767.991150   458.522408   319.013093

                             ****ORCA TERMINATED NORMALLY****
TOTAL RUN TIME: 0 days 4 hours 36 minutes 22 seconds 8 msec
