                         Program Version 5.0.0 -  RELEASE  -
|  1> !DLPNO-CCSD(T) aug-cc-pVTZ aug-cc-pVTZ/C TightSCF TightPNO RIJCOSX def2/J
|  2> *xyz 0 1
|  3> C         -7.33044       -2.67899       -3.20681
|  4> S         -6.01966       -2.92697       -4.41913
|  5> F         -5.64583       -1.58838       -4.91931
|  6> O         -4.88196       -3.50370       -3.66724
|  7> O         -6.54927       -3.80515       -5.42507
|  8> H         -8.18867       -2.26077       -3.68996
|  9> H         -6.98921       -2.01038       -2.44430
| 10> H         -7.59151       -3.61862       -2.76655
| 11> *
| 12> %MaxCore 64000
| 13>
| 14> %pal nprocs 2
| 15> end
| 16>
| 17> %scf
| 18>   MaxIter 150
| 19> end
| 20>
| 21>
| 22>                          ****END OF INPUT****

CARTESIAN COORDINATES (ANGSTROEM)
---------------------------------
  C     -7.330440   -2.678990   -3.206810
  S     -6.019660   -2.926970   -4.419130
  F     -5.645830   -1.588380   -4.919310
  O     -4.881960   -3.503700   -3.667240
  O     -6.549270   -3.805150   -5.425070
  H     -8.188670   -2.260770   -3.689960
  H     -6.989210   -2.010380   -2.444300
  H     -7.591510   -3.618620   -2.766550

 Total Charge           Charge          ....    0
 Multiplicity           Mult            ....    1
 Number of Electrons    NEL             ....   50
 Basis Dimension        Dim             ....  303

ORBITAL ENERGIES
----------------

  NO   OCC          E(Eh)            E(eV)
   0   2.0000     -92.259270     -2510.5024
   1   2.0000     -26.422288      -718.9870
   2   2.0000     -20.576467      -559.9141
   3   2.0000     -20.561147      -559.4972
   4   2.0000     -11.298831      -307.4568
   5   2.0000      -9.221573      -250.9318
   6   2.0000      -6.909152      -188.0076
   7   2.0000      -6.905419      -187.9060
   8   2.0000      -6.904304      -187.8757
   9   2.0000      -1.776226       -48.3336
  10   2.0000      -1.460379       -39.7389
  11   2.0000      -1.349136       -36.7118
  12   2.0000      -1.073083       -29.2001
  13   2.0000      -0.953019       -25.9330
  14   2.0000      -0.821922       -22.3656
  15   2.0000      -0.813409       -22.1340
  16   2.0000      -0.769419       -20.9369
  17   2.0000      -0.665760       -18.1163
  18   2.0000      -0.661669       -18.0049
  19   2.0000      -0.641734       -17.4625
  20   2.0000      -0.617687       -16.8081
  21   2.0000      -0.561074       -15.2676
  22   2.0000      -0.508823       -13.8458
  23   2.0000      -0.491430       -13.3725
  24   2.0000      -0.482385       -13.1264
  25   0.0000       0.021017         0.5719
  26   0.0000       0.040736         1.1085
  27   0.0000       0.043521         1.1843
  28   0.0000       0.064571         1.7571
  29   0.0000       0.091130         2.4798

MULLIKEN ATOMIC CHARGES
-----------------------
   0 C :   -0.989134
   1 S :    2.147797
   2 F :   -0.493811
   3 O :   -0.849977
   4 O :   -0.845475
   5 H :    0.356091
   6 H :    0.333683
   7 H :    0.340826
Sum of atomic charges:    0.0000000

LOEWDIN ATOMIC CHARGES
----------------------
   0 C :    0.522403
   1 S :   -0.122686
   2 F :    0.249182
   3 O :   -0.008633
   4 O :    0.019745
   5 H :   -0.226587
   6 H :   -0.225212
   7 H :   -0.208211

  Mayer bond orders larger than 0.100000
B(  0-C ,  1-S ) :   0.8968 B(  0-C ,  5-H ) :   0.8517 B(  0-C ,  6-H ) :   0.8812
B(  0-C ,  7-H ) :   0.8841 B(  1-S ,  2-F ) :   0.5618 B(  1-S ,  3-O ) :   1.5189
B(  1-S ,  4-O ) :   1.5852

E(0)                                       ...   -686.384015494
E(0)                                       ...   -686.384015494
E(CORR)(strong-pairs)                      ...     -1.120258322
E(CORR)(weak-pairs)                        ...     -0.000961021
E(CORR)(corrected)                         ...     -1.121219342
E(TOT)                                     ...   -687.505234836
E(CCSD(T))                                 ...   -687.550853550
FINAL SINGLE POINT ENERGY      -687.550853549503

DIPOLE MOMENT
-------------
                                X             Y             Z
Electronic contribution:      3.43549       1.71827      -3.66637
Nuclear contribution   :     -4.68608      -0.54182       4.44322
                        -----------------------------------------
Total Dipole Moment    :     -1.25059       1.17644       0.77685
                        -----------------------------------------
Magnitude (a.u.)       :      1.88454
Magnitude (Debye)      :      4.79012

Rotational constants in cm-1:     0.164393     0.151201     0.145518
Rotational constants in MHz :  4928.381777  4532.884356  4362.527209

                             ****ORCA TERMINATED NORMALLY****
TOTAL RUN TIME: 0 days 0 hours 48 minutes 48 seconds 196 msec
