                         Program Version 5.0.0 -  RELEASE  -
|  1> !DLPNO-CCSD(T) aug-cc-pVTZ aug-cc-pVTZ/C TightSCF TightPNO RIJCOSX def2/J
|  2> *xyz 0 1
|  3> C         -2.16038       -1.36949       -3.46710
|  4> C         -3.03011       -1.91086       -4.54107
|  5> H         -3.47744       -2.79151       -4.25710
|  6> H         -2.53801       -2.01786       -5.43808
|  7> H         -3.89159       -1.37604       -4.71437
|  8> H         -1.71294       -0.45536       -3.79734
|  9> H         -1.39344       -2.07939       -3.23742
| 10> H         -2.74775       -1.18344       -2.59230
| 11> *
| 12> %MaxCore 64000
| 13>
| 14> %pal nprocs 8
| 15> end
| 16>
| 17> %scf
| 18>   MaxIter 150
| 19> end
| 20>
| 21>
| 22>                          ****END OF INPUT****

CARTESIAN COORDINATES (ANGSTROEM)
---------------------------------
  C     -2.160380   -1.369490   -3.467100
  C     -3.030110   -1.910860   -4.541070
  H     -3.477440   -2.791510   -4.257100
  H     -2.538010   -2.017860   -5.438080
  H     -3.891590   -1.376040   -4.714370
  H     -1.712940   -0.455360   -3.797340
  H     -1.393440   -2.079390   -3.237420
  H     -2.747750   -1.183440   -2.592300

 Total Charge           Charge          ....    0
 Multiplicity           Mult            ....    1
 Number of Electrons    NEL             ....   18
 Basis Dimension        Dim             ....  230

ORBITAL ENERGIES
----------------

  NO   OCC          E(Eh)            E(eV)
   0   2.0000     -11.198473      -304.7259
   1   2.0000     -11.180907      -304.2479
   2   2.0000      -1.038752       -28.2659
   3   2.0000      -0.856785       -23.3143
   4   2.0000      -0.621503       -16.9120
   5   2.0000      -0.602707       -16.4005
   6   2.0000      -0.520164       -14.1544
   7   2.0000      -0.500015       -13.6061
   8   2.0000      -0.480715       -13.0809
   9   0.0000       0.033002         0.8980
  10   0.0000       0.043069         1.1720
  11   0.0000       0.043809         1.1921
  12   0.0000       0.044520         1.2115
  13   0.0000       0.068228         1.8566

MULLIKEN ATOMIC CHARGES
-----------------------
   0 C :   -0.829383
   1 C :   -1.020672
   2 H :    0.332982
   3 H :    0.304863
   4 H :    0.334756
   5 H :    0.308194
   6 H :    0.281516
   7 H :    0.287745
Sum of atomic charges:   -0.0000000

LOEWDIN ATOMIC CHARGES
----------------------
   0 C :    0.590050
   1 C :    0.598335
   2 H :   -0.218986
   3 H :   -0.204639
   4 H :   -0.216906
   5 H :   -0.183554
   6 H :   -0.182130
   7 H :   -0.182171

  Mayer bond orders larger than 0.100000
B(  0-C ,  1-C ) :   0.7935 B(  0-C ,  5-H ) :   0.9121 B(  0-C ,  6-H ) :   0.9393
B(  0-C ,  7-H ) :   0.9409 B(  1-C ,  2-H ) :   0.8986 B(  1-C ,  3-H ) :   0.9258
B(  1-C ,  4-H ) :   0.8962

E(0)                                       ...    -79.248088122
E(0)                                       ...    -79.248088122
E(CORR)(strong-pairs)                      ...     -0.403899457
E(CORR)(weak-pairs)                        ...     -0.000232882
E(CORR)(corrected)                         ...     -0.404132339
E(TOT)                                     ...    -79.652220462
E(CCSD(T))                                 ...    -79.665251071
FINAL SINGLE POINT ENERGY       -79.665251070796

DIPOLE MOMENT
-------------
                                X             Y             Z
Electronic contribution:      0.10647       0.03424      -0.00260
Nuclear contribution   :     -0.14218      -0.04688      -0.00907
                        -----------------------------------------
Total Dipole Moment    :     -0.03571      -0.01264      -0.01167
                        -----------------------------------------
Magnitude (a.u.)       :      0.03964
Magnitude (Debye)      :      0.10075

Rotational constants in cm-1:     2.917838     0.714537     0.705359
Rotational constants in MHz : 87474.579540 21421.280941 21146.123231

                             ****ORCA TERMINATED NORMALLY****
TOTAL RUN TIME: 0 days 0 hours 1 minutes 14 seconds 503 msec
