                         Program Version 5.0.0 -  RELEASE  -
|  1> !DLPNO-CCSD(T) aug-cc-pVTZ aug-cc-pVTZ/C TightSCF TightPNO RIJCOSX def2/J
|  2> *xyz 0 1
|  3> C         -7.33044       -2.67899       -3.20681
|  4> S         -6.01966       -2.92697       -4.41913
|  5> O         -5.64583       -1.58838       -4.91931
|  6> F         -4.88196       -3.50370       -3.66724
|  7> O         -6.54927       -3.80515       -5.42507
|  8> H         -8.18867       -2.26077       -3.68996
|  9> H         -6.98921       -2.01038       -2.44430
| 10> H         -7.59151       -3.61862       -2.76655
| 11> *
| 12> %MaxCore 64000
| 13>
| 14> %pal nprocs 2
| 15> end
| 16>
| 17> %scf
| 18>   MaxIter 150
| 19> end
| 20>
| 21>
| 22>                          ****END OF INPUT****

CARTESIAN COORDINATES (ANGSTROEM)
---------------------------------
  C     -7.330440   -2.678990   -3.206810
  S     -6.019660   -2.926970   -4.419130
  O     -5.645830   -1.588380   -4.919310
  F     -4.881960   -3.503700   -3.667240
  O     -6.549270   -3.805150   -5.425070
  H     -8.188670   -2.260770   -3.689960
  H     -6.989210   -2.010380   -2.444300
  H     -7.591510   -3.618620   -2.766550

 Total Charge           Charge          ....    0
 Multiplicity           Mult            ....    1
 Number of Electrons    NEL             ....   50
 Basis Dimension        Dim             ....  303

ORBITAL ENERGIES
----------------

  NO   OCC          E(Eh)            E(eV)
   0   2.0000     -92.259270     -2510.5024
   1   2.0000     -26.419297      -718.9056
   2   2.0000     -20.576285      -559.9092
   3   2.0000     -20.563782      -559.5690
   4   2.0000     -11.298716      -307.4537
   5   2.0000      -9.221509      -250.9300
   6   2.0000      -6.909126      -188.0069
   7   2.0000      -6.905352      -187.9042
   8   2.0000      -6.904256      -187.8744
   9   2.0000      -1.772348       -48.2280
  10   2.0000      -1.461190       -39.7610
  11   2.0000      -1.352007       -36.7900
  12   2.0000      -1.073367       -29.2078
  13   2.0000      -0.950457       -25.8632
  14   2.0000      -0.819414       -22.2974
  15   2.0000      -0.810546       -22.0561
  16   2.0000      -0.769302       -20.9338
  17   2.0000      -0.666367       -18.1328
  18   2.0000      -0.661997       -18.0139
  19   2.0000      -0.641247       -17.4492
  20   2.0000      -0.618789       -16.8381
  21   2.0000      -0.561849       -15.2887
  22   2.0000      -0.509716       -13.8701
  23   2.0000      -0.493646       -13.4328
  24   2.0000      -0.484542       -13.1851
  25   0.0000       0.021087         0.5738
  26   0.0000       0.040792         1.1100
  27   0.0000       0.043351         1.1797
  28   0.0000       0.064912         1.7663
  29   0.0000       0.091224         2.4823

MULLIKEN ATOMIC CHARGES
-----------------------
   0 C :   -0.992442
   1 S :    2.155372
   2 O :   -0.851183
   3 F :   -0.495319
   4 O :   -0.846034
   5 H :    0.368015
   6 H :    0.335804
   7 H :    0.325787
Sum of atomic charges:    0.0000000

LOEWDIN ATOMIC CHARGES
----------------------
   0 C :    0.523160
   1 S :   -0.123290
   2 O :   -0.006015
   3 F :    0.246543
   4 O :    0.019623
   5 H :   -0.208845
   6 H :   -0.225099
   7 H :   -0.226078

  Mayer bond orders larger than 0.100000
B(  0-C ,  1-S ) :   0.8955 B(  0-C ,  5-H ) :   0.8468 B(  0-C ,  6-H ) :   0.8792
B(  0-C ,  7-H ) :   0.8909 B(  1-S ,  2-O ) :   1.5149 B(  1-S ,  3-F ) :   0.5613
B(  1-S ,  4-O ) :   1.5876

E(0)                                       ...   -686.386799967
E(0)                                       ...   -686.386799967
E(CORR)(strong-pairs)                      ...     -1.120103289
E(CORR)(weak-pairs)                        ...     -0.000963594
E(CORR)(corrected)                         ...     -1.121066883
E(TOT)                                     ...   -687.507866849
E(CCSD(T))                                 ...   -687.553449587
FINAL SINGLE POINT ENERGY      -687.553449586752

DIPOLE MOMENT
-------------
                                X             Y             Z
Electronic contribution:      4.78242      -1.64779      -1.46445
Nuclear contribution   :     -5.44924       1.37171       3.19232
                        -----------------------------------------
Total Dipole Moment    :     -0.66682      -0.27608       1.72787
                        -----------------------------------------
Magnitude (a.u.)       :      1.87254
Magnitude (Debye)      :      4.75963

Rotational constants in cm-1:     0.163884     0.151426     0.145804
Rotational constants in MHz :  4913.124213  4539.628058  4371.086672

                             ****ORCA TERMINATED NORMALLY****
TOTAL RUN TIME: 0 days 0 hours 47 minutes 49 seconds 844 msec
