                         Program Version 5.0.0 -  RELEASE  -
|  1> !DLPNO-CCSD(T) aug-cc-pVTZ aug-cc-pVTZ/C TightSCF TightPNO RIJCOSX def2/J
|  2> *xyz 0 1
|  3> C         -7.33044       -2.67899       -3.20681
|  4> S         -6.01966       -2.92697       -4.41913
|  5> O         -5.64583       -1.58838       -4.91931
|  6> O         -4.88196       -3.50370       -3.66724
|  7> F         -6.54927       -3.80515       -5.42507
|  8> H         -8.18867       -2.26077       -3.68996
|  9> H         -6.98921       -2.01038       -2.44430
| 10> H         -7.59151       -3.61862       -2.76655
| 11> *
| 12> %MaxCore 64000
| 13>
| 14> %pal nprocs 2
| 15> end
| 16>
| 17> %scf
| 18>   MaxIter 150
| 19> end
| 20>
| 21>
| 22>                          ****END OF INPUT****

CARTESIAN COORDINATES (ANGSTROEM)
---------------------------------
  C     -7.330440   -2.678990   -3.206810
  S     -6.019660   -2.926970   -4.419130
  O     -5.645830   -1.588380   -4.919310
  O     -4.881960   -3.503700   -3.667240
  F     -6.549270   -3.805150   -5.425070
  H     -8.188670   -2.260770   -3.689960
  H     -6.989210   -2.010380   -2.444300
  H     -7.591510   -3.618620   -2.766550

 Total Charge           Charge          ....    0
 Multiplicity           Mult            ....    1
 Number of Electrons    NEL             ....   50
 Basis Dimension        Dim             ....  303

ORBITAL ENERGIES
----------------

  NO   OCC          E(Eh)            E(eV)
   0   2.0000     -92.260629     -2510.5393
   1   2.0000     -26.442507      -719.5372
   2   2.0000     -20.564425      -559.5864
   3   2.0000     -20.561678      -559.5117
   4   2.0000     -11.299535      -307.4760
   5   2.0000      -9.223134      -250.9742
   6   2.0000      -6.910805      -188.0526
   7   2.0000      -6.906740      -187.9419
   8   2.0000      -6.905829      -187.9172
   9   2.0000      -1.812639       -49.3244
  10   2.0000      -1.441803       -39.2335
  11   2.0000      -1.333253       -36.2796
  12   2.0000      -1.076769       -29.3004
  13   2.0000      -0.973453       -26.4890
  14   2.0000      -0.844971       -22.9928
  15   2.0000      -0.838942       -22.8288
  16   2.0000      -0.770242       -20.9594
  17   2.0000      -0.658650       -17.9228
  18   2.0000      -0.658068       -17.9069
  19   2.0000      -0.642247       -17.4764
  20   2.0000      -0.608967       -16.5708
  21   2.0000      -0.552800       -15.0425
  22   2.0000      -0.495707       -13.4889
  23   2.0000      -0.489648       -13.3240
  24   2.0000      -0.471089       -12.8190
  25   0.0000       0.020324         0.5530
  26   0.0000       0.040026         1.0892
  27   0.0000       0.044050         1.1987
  28   0.0000       0.062960         1.7132
  29   0.0000       0.090672         2.4673

MULLIKEN ATOMIC CHARGES
-----------------------
   0 C :   -0.985161
   1 S :    2.131975
   2 O :   -0.845946
   3 O :   -0.842685
   4 F :   -0.488807
   5 H :    0.354533
   6 H :    0.349660
   7 H :    0.326430
Sum of atomic charges:    0.0000000

LOEWDIN ATOMIC CHARGES
----------------------
   0 C :    0.521824
   1 S :   -0.128141
   2 O :   -0.005982
   3 O :   -0.008643
   4 F :    0.281257
   5 H :   -0.226842
   6 H :   -0.207592
   7 H :   -0.225881

  Mayer bond orders larger than 0.100000
B(  0-C ,  1-S ) :   0.9044 B(  0-C ,  5-H ) :   0.8529 B(  0-C ,  6-H ) :   0.8734
B(  0-C ,  7-H ) :   0.8898 B(  1-S ,  2-O ) :   1.5162 B(  1-S ,  3-O ) :   1.5243
B(  1-S ,  4-F ) :   0.5767

E(0)                                       ...   -686.368341326
E(0)                                       ...   -686.368341326
E(CORR)(strong-pairs)                      ...     -1.121038147
E(CORR)(weak-pairs)                        ...     -0.000964432
E(CORR)(corrected)                         ...     -1.122002579
E(TOT)                                     ...   -687.490343905
E(CCSD(T))                                 ...   -687.536208604
FINAL SINGLE POINT ENERGY      -687.536208603682

DIPOLE MOMENT
-------------
                                X             Y             Z
Electronic contribution:      1.86749      -2.15901      -4.54118
Nuclear contribution   :     -3.78348       1.67287       4.94851
                        -----------------------------------------
Total Dipole Moment    :     -1.91600      -0.48614       0.40733
                        -----------------------------------------
Magnitude (a.u.)       :      2.01824
Magnitude (Debye)      :      5.12996

Rotational constants in cm-1:     0.163108     0.153882     0.144407
Rotational constants in MHz :  4889.859464  4613.257659  4329.207840

                             ****ORCA TERMINATED NORMALLY****
TOTAL RUN TIME: 0 days 0 hours 46 minutes 46 seconds 998 msec
