                         Program Version 5.0.0 -  RELEASE  -
|  1> !DLPNO-CCSD(T) aug-cc-pVTZ aug-cc-pVTZ/C TightSCF TightPNO RIJCOSX def2/J
|  2>
|  3> *xyzfile 0 1 D2.xyz
|  4>
|  5> %MaxCore 64000
|  6>
|  7> %pal nprocs 18
|  8> end
|  9>
| 10> %scf
| 11>   MaxIter 150
| 12> end
| 13>
| 14>
| 15>                          ****END OF INPUT****

CARTESIAN COORDINATES (ANGSTROEM)
---------------------------------
  C     -2.160376   -1.369486   -3.467104
  C     -3.030108   -1.910857   -4.541074
  C     -2.047717    0.146583   -3.511774
  C     -7.330440   -2.678991   -3.206811
  S     -6.019659   -2.926965   -4.419128
  H     -3.477443   -2.791513   -4.257096
  H     -2.538013   -2.017860   -5.438075
  H     -3.891589   -1.376039   -4.714365
  O     -5.645830   -1.588384   -4.919307
  F     -4.881961   -3.503697   -3.667235
  H     -1.184438   -1.843997   -3.566393
  H     -2.598195   -1.708376   -2.528477
  O     -6.549267   -3.805150   -5.425071
  C     -3.328755    0.875037   -3.103669
  H     -1.740034    0.452343   -4.517126
  H     -1.232611    0.434938   -2.842208
  C     -3.628487    0.771601   -1.609363
  H     -4.175106    0.490791   -3.682203
  H     -3.237812    1.928663   -3.381480
  C     -4.975718    1.361432   -1.190644
  H     -2.830700    1.276234   -1.054766
  H     -3.594312   -0.275838   -1.294603
  C     -6.184720    0.784347   -1.926464
  H     -4.956292    2.445725   -1.342200
  H     -5.097256    1.205252   -0.114136
  C     -6.286921   -0.735882   -1.893531
  H     -6.163994    1.100199   -2.974250
  H     -7.094530    1.223459   -1.504509
  C     -7.468999   -1.246153   -2.713833
  H     -6.360641   -1.090347   -0.859176
  H     -5.369848   -1.171853   -2.295982
  H     -7.601914   -0.601349   -3.585329
  H     -8.389791   -1.173436   -2.126922
  H     -7.118254   -3.379818   -2.398055
  H     -8.241838   -3.004745   -3.706513

 Total Charge           Charge          ....    0
 Multiplicity           Mult            ....    1
 Number of Electrons    NEL             ....  122
 Basis Dimension        Dim             .... 1131

ORBITAL ENERGIES
----------------

  NO   OCC          E(Eh)            E(eV)
   0   2.0000     -92.254712     -2510.3784
   1   2.0000     -26.416875      -718.8397
   2   2.0000     -20.575921      -559.8993
   3   2.0000     -20.560488      -559.4793
   4   2.0000     -11.298992      -307.4612
   5   2.0000     -11.253899      -306.2341
   6   2.0000     -11.234500      -305.7063
   7   2.0000     -11.223041      -305.3945
   8   2.0000     -11.217567      -305.2455
   9   2.0000     -11.210954      -305.0656
  10   2.0000     -11.204739      -304.8964
  11   2.0000     -11.202009      -304.8222
  12   2.0000     -11.194308      -304.6126
  13   2.0000     -11.141778      -303.1832
  14   2.0000      -9.218121      -250.8378
  15   2.0000      -6.905645      -187.9121
  16   2.0000      -6.901631      -187.8029
  17   2.0000      -6.900845      -187.7815
  18   2.0000      -1.777571       -48.3702
  19   2.0000      -1.463346       -39.8197
  20   2.0000      -1.357202       -36.9313
  21   2.0000      -1.126010       -30.6403
  22   2.0000      -1.093265       -29.7493
  23   2.0000      -1.060863       -28.8675
  24   2.0000      -1.026406       -27.9299
  25   2.0000      -0.976347       -26.5677
  26   2.0000      -0.955160       -25.9912
  27   2.0000      -0.908885       -24.7320
  28   2.0000      -0.864536       -23.5252
  29   2.0000      -0.847410       -23.0592
  30   2.0000      -0.817604       -22.2481
  31   2.0000      -0.806913       -21.9572
  32   2.0000      -0.785781       -21.3822
  33   2.0000      -0.767711       -20.8905
  34   2.0000      -0.748549       -20.3691
  35   2.0000      -0.688625       -18.7384
  36   2.0000      -0.660838       -17.9823
  37   2.0000      -0.651007       -17.7148
  38   2.0000      -0.646896       -17.6029
  39   2.0000      -0.637046       -17.3349
  40   2.0000      -0.612663       -16.6714
  41   2.0000      -0.596404       -16.2290
  42   2.0000      -0.593103       -16.1392
  43   2.0000      -0.586720       -15.9655
  44   2.0000      -0.570154       -15.5147
  45   2.0000      -0.559135       -15.2148
  46   2.0000      -0.543877       -14.7996
  47   2.0000      -0.536590       -14.6014
  48   2.0000      -0.528738       -14.3877
  49   2.0000      -0.514687       -14.0053
  50   2.0000      -0.505597       -13.7580
  51   2.0000      -0.494266       -13.4497
  52   2.0000      -0.486496       -13.2382
  53   2.0000      -0.482997       -13.1430
  54   2.0000      -0.478354       -13.0167
  55   2.0000      -0.469704       -12.7813
  56   2.0000      -0.455908       -12.4059
  57   2.0000      -0.450845       -12.2681
  58   2.0000      -0.437864       -11.9149
  59   2.0000      -0.433901       -11.8070
  60   2.0000      -0.425153       -11.5690
  61   0.0000       0.019882         0.5410
  62   0.0000       0.029909         0.8139
  63   0.0000       0.030343         0.8257
  64   0.0000       0.036042         0.9807
  65   0.0000       0.043287         1.1779

MULLIKEN ATOMIC CHARGES
-----------------------
   0 C :   -0.241758
   1 C :   -1.408914
   2 C :   -0.718445
   3 C :   -0.764993
   4 S :    2.706436
   5 H :    0.474478
   6 H :    0.235277
   7 H :    0.581734
   8 O :   -0.982562
   9 F :   -0.583200
  10 H :    0.361508
  11 H :    0.057419
  12 O :   -1.041617
  13 C :   -0.423658
  14 H :    0.195320
  15 H :    0.169648
  16 C :   -0.137608
  17 H :    0.135591
  18 H :    0.328988
  19 C :   -0.899116
  20 H :    0.587731
  21 H :   -0.007868
  22 C :   -0.293927
  23 H :    0.203578
  24 H :    0.113842
  25 C :   -0.571111
  26 H :    0.070660
  27 H :    0.558314
  28 C :   -0.484651
  29 H :    0.353968
  30 H :    0.458680
  31 H :    0.234636
  32 H :    0.327000
  33 H :    0.192105
  34 H :    0.212516
Sum of atomic charges:   -0.0000000

LOEWDIN ATOMIC CHARGES
----------------------
   0 C :    0.291838
   1 C :    0.567434
   2 C :    0.306564
   3 C :    0.220246
   4 S :    0.065282
   5 H :   -0.440261
   6 H :   -0.173295
   7 H :   -0.464364
   8 O :    0.197144
   9 F :    0.401755
  10 H :   -0.134869
  11 H :   -0.157968
  12 O :    0.058171
  13 C :    0.296074
  14 H :   -0.133372
  15 H :   -0.147104
  16 C :    0.286108
  17 H :   -0.178353
  18 H :   -0.130242
  19 C :    0.303412
  20 H :   -0.132785
  21 H :   -0.170222
  22 C :    0.290991
  23 H :   -0.138279
  24 H :   -0.141747
  25 C :    0.271169
  26 H :   -0.150727
  27 H :   -0.132033
  28 C :    0.253060
  29 H :   -0.122822
  30 H :   -0.193975
  31 H :   -0.166201
  32 H :   -0.132453
  33 H :   -0.183207
  34 H :   -0.184968

  Mayer bond orders larger than 0.100000
B(  0-C ,  1-C ) :   0.6799 B(  0-C ,  2-C ) :   0.8364 B(  0-C , 10-H ) :   0.8792
B(  0-C , 11-H ) :   1.1544 B(  1-C ,  2-C ) :   0.1419 B(  1-C ,  5-H ) :   0.8279
B(  1-C ,  6-H ) :   1.0636 B(  1-C ,  7-H ) :   0.7406 B(  2-C , 13-C ) :   0.9133
B(  2-C , 14-H ) :   1.0804 B(  2-C , 15-H ) :   1.0487 B(  3-C ,  4-S ) :   0.8058
B(  3-C , 12-O ) :   0.1407 B(  3-C , 25-C ) :   0.1240 B(  3-C , 28-C ) :   0.9773
B(  3-C , 33-H ) :   1.0332 B(  3-C , 34-H ) :   0.9875 B(  4-S ,  8-O ) :   1.4922
B(  4-S ,  9-F ) :   0.4473 B(  4-S , 12-O ) :   0.9082 B(  4-S , 28-C ) :   0.1048
B(  5-H ,  7-H ) :   0.1294 B(  5-H ,  9-F ) :  -0.2306 B(  7-H ,  8-O ) :  -0.2155
B(  7-H ,  9-F ) :   0.1338 B(  8-O , 30-H ) :  -0.1049 B( 13-C , 16-C ) :   0.7366
B( 13-C , 17-H ) :   1.1398 B( 13-C , 18-H ) :   0.8836 B( 13-C , 21-H ) :   0.1041
B( 16-C , 19-C ) :   0.8945 B( 16-C , 20-H ) :   0.6715 B( 16-C , 21-H ) :   1.2613
B( 19-C , 21-H ) :   0.1129 B( 19-C , 22-C ) :   0.9148 B( 19-C , 23-H ) :   1.0361
B( 19-C , 24-H ) :   1.1600 B( 22-C , 25-C ) :   0.7630 B( 22-C , 26-H ) :   1.1221
B( 22-C , 27-H ) :   0.6700 B( 25-C , 28-C ) :   0.8645 B( 25-C , 29-H ) :   0.8756
B( 25-C , 30-H ) :   1.0283 B( 28-C , 31-H ) :   0.9845 B( 28-C , 32-H ) :   0.8932

E(0)                                       ...  -1037.745875816
E(0)                                       ...  -1037.745875816
E(CORR)(strong-pairs)                      ...     -2.820772892
E(CORR)(weak-pairs)                        ...     -0.005122586
E(CORR)(corrected)                         ...     -2.825895478
E(TOT)                                     ...  -1040.571771294
E(CCSD(T))                                 ...  -1040.687964352
FINAL SINGLE POINT ENERGY     -1040.687964352009

DIPOLE MOMENT
-------------
                                X             Y             Z
Electronic contribution:     -9.59881     -19.51400     -10.92101
Nuclear contribution   :      8.71934      19.48829      12.54264
                        -----------------------------------------
Total Dipole Moment    :     -0.87948      -0.02571       1.62163
                        -----------------------------------------
Magnitude (a.u.)       :      1.84495
Magnitude (Debye)      :      4.68949

Rotational constants in cm-1:     0.025810     0.015137     0.010647
Rotational constants in MHz :   773.773140   453.802427   319.195213

                             ****ORCA TERMINATED NORMALLY****
TOTAL RUN TIME: 0 days 4 hours 35 minutes 16 seconds 321 msec
