                         Program Version 5.0.0 -  RELEASE  -
|  1> !wB97X-D3 RIJCOSX def2-SVP def2/J TightSCF
|  2> *xyz -1 1
|  3> C          4.12921        0.89839       -3.41895
|  4> C          5.01734        1.31521       -2.22130
|  5> O          4.73706        0.85411       -1.12283
|  6> O          5.92815        2.16811       -2.49136
|  7> H          4.48610        1.37210       -4.30953
|  8> H          3.11885        1.19903       -3.23540
|  9> H          4.16886       -0.16404       -3.53966
| 10> *
| 11> %MaxCore 64000
| 12>
| 13> %pal nprocs 18
| 14> end
| 15>
| 16> %scf
| 17>   MaxIter 150
| 18> end
| 19>
| 20>
| 21>                          ****END OF INPUT****

CARTESIAN COORDINATES (ANGSTROEM)
---------------------------------
  C      4.129210    0.898390   -3.418950
  C      5.017340    1.315210   -2.221300
  O      4.737060    0.854110   -1.122830
  O      5.928150    2.168110   -2.491360
  H      4.486100    1.372100   -4.309530
  H      3.118850    1.199030   -3.235400
  H      4.168860   -0.164040   -3.539660

 Total Charge           Charge          ....   -1
 Multiplicity           Mult            ....    1
 Number of Electrons    NEL             ....   32
 Basis Dimension        Dim             ....   71

ORBITAL ENERGIES
----------------

  NO   OCC          E(Eh)            E(eV)
   0   2.0000     -18.937948      -515.3278
   1   2.0000     -18.927037      -515.0309
   2   2.0000     -10.140337      -275.9326
   3   2.0000     -10.081208      -274.3236
   4   2.0000      -0.891553       -24.2604
   5   2.0000      -0.791129       -21.5277
   6   2.0000      -0.629339       -17.1252
   7   2.0000      -0.375975       -10.2308
   8   2.0000      -0.340264        -9.2590
   9   2.0000      -0.323512        -8.8032
  10   2.0000      -0.293173        -7.9777
  11   2.0000      -0.251010        -6.8303
  12   2.0000      -0.237403        -6.4601
  13   2.0000      -0.101405        -2.7594
  14   2.0000      -0.098532        -2.6812
  15   2.0000      -0.084306        -2.2941
  16   0.0000       0.331450         9.0192
  17   0.0000       0.360924         9.8213
  18   0.0000       0.396663        10.7937
  19   0.0000       0.426074        11.5941
  20   0.0000       0.514412        13.9979

MULLIKEN ATOMIC CHARGES
-----------------------
   0 C :   -0.028197
   1 C :    0.035086
   2 O :   -0.425969
   3 O :   -0.491768
   4 H :   -0.036048
   5 H :   -0.023933
   6 H :   -0.029172
Sum of atomic charges:   -1.0000000

LOEWDIN ATOMIC CHARGES
----------------------
   0 C :   -0.131064
   1 C :   -0.047673
   2 O :   -0.379306
   3 O :   -0.441940
   4 H :   -0.003748
   5 H :    0.003116
   6 H :    0.000615

  Mayer bond orders larger than 0.100000
B(  0-C ,  1-C ) :   0.9335 B(  0-C ,  4-H ) :   0.9688 B(  0-C ,  5-H ) :   0.9687
B(  0-C ,  6-H ) :   0.9661 B(  1-C ,  2-O ) :   1.8747 B(  1-C ,  3-O ) :   1.8233
B(  2-O ,  3-O ) :   0.1111

Dispersion correction           -0.000905406
FINAL SINGLE POINT ENERGY      -228.263974987364

DIPOLE MOMENT
-------------
                                X             Y             Z
Electronic contribution:      2.13081       0.99358       3.01327
Nuclear contribution   :     -2.87913      -1.42371      -3.86600
                        -----------------------------------------
Total Dipole Moment    :     -0.74831      -0.43014      -0.85273
                        -----------------------------------------
Magnitude (a.u.)       :      1.21332
Magnitude (Debye)      :      3.08401

Rotational constants in cm-1:     0.390018     0.334370     0.186171
Rotational constants in MHz : 11692.450907 10024.149143  5581.251544

                             ****ORCA TERMINATED NORMALLY****
TOTAL RUN TIME: 0 days 0 hours 0 minutes 4 seconds 750 msec
