                         Program Version 5.0.0 -  RELEASE  -
|  1> !wB97X-D3 RIJCOSX def2-SVP def2/J TightSCF
|  2> *xyz 1 1
|  3> C          3.34350        3.35457       -3.59200
|  4> C          4.25587        3.70385       -4.72605
|  5> N          3.73403        4.29378       -5.80077
|  6> N          5.51504        3.40725       -4.63718
|  7> H          6.14919        3.60120       -5.39905
|  8> H          5.81358        2.89950       -3.80879
|  9> H          2.74138        4.51311       -5.82470
| 10> H          4.28755        4.52126       -6.61434
| 11> H          2.34726        3.66659       -3.82664
| 12> H          3.67283        3.85124       -2.70331
| 13> H          3.35820        2.29620       -3.43538
| 14> *
| 15> %MaxCore 64000
| 16>
| 17> %pal nprocs 18
| 18> end
| 19>
| 20> %scf
| 21>   MaxIter 150
| 22> end
| 23>
| 24>
| 25>                          ****END OF INPUT****

CARTESIAN COORDINATES (ANGSTROEM)
---------------------------------
  C      3.343500    3.354570   -3.592000
  C      4.255870    3.703850   -4.726050
  N      3.734030    4.293780   -5.800770
  N      5.515040    3.407250   -4.637180
  H      6.149190    3.601200   -5.399050
  H      5.813580    2.899500   -3.808790
  H      2.741380    4.513110   -5.824700
  H      4.287550    4.521260   -6.614340
  H      2.347260    3.666590   -3.826640
  H      3.672830    3.851240   -2.703310
  H      3.358200    2.296200   -3.435380

 Total Charge           Charge          ....    1
 Multiplicity           Mult            ....    1
 Number of Electrons    NEL             ....   32
 Basis Dimension        Dim             ....   91

ORBITAL ENERGIES
----------------

  NO   OCC          E(Eh)            E(eV)
   0   2.0000     -14.690498      -399.7488
   1   2.0000     -14.686109      -399.6293
   2   2.0000     -10.623059      -289.0681
   3   2.0000     -10.488182      -285.3979
   4   2.0000      -1.321346       -35.9557
   5   2.0000      -1.222553       -33.2673
   6   2.0000      -1.065465       -28.9928
   7   2.0000      -0.947719       -25.7887
   8   2.0000      -0.888294       -24.1717
   9   2.0000      -0.874022       -23.7833
  10   2.0000      -0.807885       -21.9837
  11   2.0000      -0.766623       -20.8609
  12   2.0000      -0.715760       -19.4768
  13   2.0000      -0.700662       -19.0660
  14   2.0000      -0.675162       -18.3721
  15   2.0000      -0.592450       -16.1214
  16   0.0000      -0.123750        -3.3674
  17   0.0000      -0.059044        -1.6067
  18   0.0000      -0.013641        -0.3712
  19   0.0000      -0.005617        -0.1529
  20   0.0000       0.014743         0.4012

MULLIKEN ATOMIC CHARGES
-----------------------
   0 C :    0.030609
   1 C :   -0.073686
   2 N :   -0.049180
   3 N :    0.000993
   4 H :    0.190217
   5 H :    0.201225
   6 H :    0.201086
   7 H :    0.185276
   8 H :    0.076023
   9 H :    0.118904
  10 H :    0.118533
Sum of atomic charges:    1.0000000

LOEWDIN ATOMIC CHARGES
----------------------
   0 C :   -0.028337
   1 C :    0.158881
   2 N :    0.080023
   3 N :    0.102436
   4 H :    0.118180
   5 H :    0.129185
   6 H :    0.124719
   7 H :    0.113281
   8 H :    0.057375
   9 H :    0.072162
  10 H :    0.072096

  Mayer bond orders larger than 0.100000
B(  0-C ,  1-C ) :   1.0413 B(  0-C ,  8-H ) :   0.9487 B(  0-C ,  9-H ) :   0.9433
B(  0-C , 10-H ) :   0.9434 B(  1-C ,  2-N ) :   1.4926 B(  1-C ,  3-N ) :   1.5270
B(  2-N ,  6-H ) :   0.9179 B(  2-N ,  7-H ) :   0.9317 B(  3-N ,  4-H ) :   0.9258
B(  3-N ,  5-H ) :   0.9191

Dispersion correction           -0.001665635
FINAL SINGLE POINT ENERGY      -189.528989542854

DIPOLE MOMENT
-------------
                                X             Y             Z
Electronic contribution:      1.43085       0.49822      -1.60342
Nuclear contribution   :     -1.09951      -0.46604       1.22975
                        -----------------------------------------
Total Dipole Moment    :      0.33134       0.03219      -0.37366
                        -----------------------------------------
Magnitude (a.u.)       :      0.50045
Magnitude (Debye)      :      1.27204

Rotational constants in cm-1:     0.329035     0.303839     0.162676
Rotational constants in MHz :  9864.215808  9108.853745  4876.907929

                             ****ORCA TERMINATED NORMALLY****
TOTAL RUN TIME: 0 days 0 hours 0 minutes 5 seconds 416 msec
