                         Program Version 5.0.0 -  RELEASE  -
|  1> !wB97X-D3 RIJCOSX def2-SVP def2/J TightSCF
|  2> *xyz 0 1
|  3> C          4.12921        0.89839       -3.41895
|  4> C          5.01734        1.31521       -2.22130
|  5> F          4.73706        0.85411       -1.12283
|  6> O          5.92815        2.16811       -2.49136
|  7> H          4.48610        1.37210       -4.30953
|  8> H          3.11885        1.19903       -3.23540
|  9> H          4.16886       -0.16404       -3.53966
| 10> *
| 11> %MaxCore 64000
| 12>
| 13> %pal nprocs 18
| 14> end
| 15>
| 16> %scf
| 17>   MaxIter 150
| 18> end
| 19>
| 20>
| 21>                          ****END OF INPUT****

CARTESIAN COORDINATES (ANGSTROEM)
---------------------------------
  C      4.129210    0.898390   -3.418950
  C      5.017340    1.315210   -2.221300
  F      4.737060    0.854110   -1.122830
  O      5.928150    2.168110   -2.491360
  H      4.486100    1.372100   -4.309530
  H      3.118850    1.199030   -3.235400
  H      4.168860   -0.164040   -3.539660

 Total Charge           Charge          ....    0
 Multiplicity           Mult            ....    1
 Number of Electrons    NEL             ....   32
 Basis Dimension        Dim             ....   71

ORBITAL ENERGIES
----------------

  NO   OCC          E(Eh)            E(eV)
   0   2.0000     -24.873504      -676.8425
   1   2.0000     -19.236946      -523.4639
   2   2.0000     -10.469057      -284.8775
   3   2.0000     -10.310371      -280.5595
   4   2.0000      -1.441580       -39.2274
   5   2.0000      -1.119558       -30.4647
   6   2.0000      -0.874106       -23.7856
   7   2.0000      -0.772486       -21.0204
   8   2.0000      -0.665281       -18.1032
   9   2.0000      -0.657893       -17.9022
  10   2.0000      -0.596718       -16.2375
  11   2.0000      -0.539870       -14.6906
  12   2.0000      -0.527335       -14.3495
  13   2.0000      -0.488518       -13.2932
  14   2.0000      -0.437370       -11.9014
  15   2.0000      -0.376940       -10.2571
  16   0.0000       0.067858         1.8465
  17   0.0000       0.152422         4.1476
  18   0.0000       0.214404         5.8342
  19   0.0000       0.216272         5.8851
  20   0.0000       0.262711         7.1487

MULLIKEN ATOMIC CHARGES
-----------------------
   0 C :   -0.078066
   1 C :    0.221300
   2 F :   -0.044347
   3 O :   -0.297410
   4 H :    0.073087
   5 H :    0.064943
   6 H :    0.060494
Sum of atomic charges:    0.0000000

LOEWDIN ATOMIC CHARGES
----------------------
   0 C :   -0.083441
   1 C :    0.102748
   2 F :    0.077785
   3 O :   -0.227841
   4 H :    0.047240
   5 H :    0.042981
   6 H :    0.040528

  Mayer bond orders larger than 0.100000
B(  0-C ,  1-C ) :   1.0223 B(  0-C ,  4-H ) :   0.9731 B(  0-C ,  5-H ) :   0.9584
B(  0-C ,  6-H ) :   0.9579 B(  1-C ,  2-F ) :   1.2194 B(  1-C ,  3-O ) :   2.0496

Dispersion correction           -0.000899171
FINAL SINGLE POINT ENERGY      -252.808738788065

DIPOLE MOMENT
-------------
                                X             Y             Z
Electronic contribution:      1.75846       0.24185       4.89504
Nuclear contribution   :     -2.65749      -0.95231      -5.09883
                        -----------------------------------------
Total Dipole Moment    :     -0.89902      -0.71047      -0.20378
                        -----------------------------------------
Magnitude (a.u.)       :      1.16384
Magnitude (Debye)      :      2.95826

Rotational constants in cm-1:     0.365278     0.322469     0.176821
Rotational constants in MHz : 10950.755781  9667.377070  5300.957073

                             ****ORCA TERMINATED NORMALLY****
TOTAL RUN TIME: 0 days 0 hours 0 minutes 4 seconds 745 msec
