                         Program Version 5.0.0 -  RELEASE  -
|  1> !wB97X-D3 RIJCOSX def2-SVP def2/J TightSCF
|  2> *xyz 0 1
|  3> C          3.34350        3.35457       -3.59200
|  4> C          4.25587        3.70385       -4.72605
|  5> C          3.73403        4.29378       -5.80077
|  6> N          5.51504        3.40725       -4.63718
|  7> H          6.14919        3.60120       -5.39905
|  8> H          5.81358        2.89950       -3.80879
|  9> H          2.74138        4.51311       -5.82470
| 10> H          4.28755        4.52126       -6.61434
| 11> H          2.34726        3.66659       -3.82664
| 12> H          3.67283        3.85124       -2.70331
| 13> H          3.35820        2.29620       -3.43538
| 14> *
| 15> %MaxCore 64000
| 16>
| 17> %pal nprocs 18
| 18> end
| 19>
| 20> %scf
| 21>   MaxIter 150
| 22> end
| 23>
| 24>
| 25>                          ****END OF INPUT****

CARTESIAN COORDINATES (ANGSTROEM)
---------------------------------
  C      3.343500    3.354570   -3.592000
  C      4.255870    3.703850   -4.726050
  C      3.734030    4.293780   -5.800770
  N      5.515040    3.407250   -4.637180
  H      6.149190    3.601200   -5.399050
  H      5.813580    2.899500   -3.808790
  H      2.741380    4.513110   -5.824700
  H      4.287550    4.521260   -6.614340
  H      2.347260    3.666590   -3.826640
  H      3.672830    3.851240   -2.703310
  H      3.358200    2.296200   -3.435380

 Total Charge           Charge          ....    0
 Multiplicity           Mult            ....    1
 Number of Electrons    NEL             ....   32
 Basis Dimension        Dim             ....   91

ORBITAL ENERGIES
----------------

  NO   OCC          E(Eh)            E(eV)
   0   2.0000     -14.432685      -392.7333
   1   2.0000     -10.306150      -280.4446
   2   2.0000     -10.277355      -279.6610
   3   2.0000     -10.214371      -277.9472
   4   2.0000      -1.039321       -28.2814
   5   2.0000      -0.860290       -23.4097
   6   2.0000      -0.788747       -21.4629
   7   2.0000      -0.673053       -18.3147
   8   2.0000      -0.629319       -17.1246
   9   2.0000      -0.569382       -15.4937
  10   2.0000      -0.531778       -14.4704
  11   2.0000      -0.490836       -13.3563
  12   2.0000      -0.482640       -13.1333
  13   2.0000      -0.440935       -11.9984
  14   2.0000      -0.431493       -11.7415
  15   2.0000      -0.268032        -7.2935
  16   0.0000       0.140058         3.8112
  17   0.0000       0.152060         4.1378
  18   0.0000       0.185325         5.0429
  19   0.0000       0.201467         5.4822
  20   0.0000       0.213768         5.8169

MULLIKEN ATOMIC CHARGES
-----------------------
   0 C :    0.071806
   1 C :   -0.186358
   2 C :   -0.083786
   3 N :   -0.083779
   4 H :    0.129674
   5 H :    0.121252
   6 H :   -0.022882
   7 H :   -0.037408
   8 H :    0.028943
   9 H :    0.031162
  10 H :    0.031375
Sum of atomic charges:   -0.0000000

LOEWDIN ATOMIC CHARGES
----------------------
   0 C :   -0.043044
   1 C :    0.000689
   2 C :   -0.192720
   3 N :   -0.005575
   4 H :    0.081710
   5 H :    0.076002
   6 H :   -0.000290
   7 H :   -0.008856
   8 H :    0.037104
   9 H :    0.027364
  10 H :    0.027616

  Mayer bond orders larger than 0.100000
B(  0-C ,  1-C ) :   1.0321 B(  0-C ,  8-H ) :   0.9602 B(  0-C ,  9-H ) :   0.9579
B(  0-C , 10-H ) :   0.9584 B(  1-C ,  2-C ) :   1.8502 B(  1-C ,  3-N ) :   1.2720
B(  2-C ,  6-H ) :   0.9483 B(  2-C ,  7-H ) :   0.9668 B(  3-N ,  4-H ) :   0.9482
B(  3-N ,  5-H ) :   0.9531

Dispersion correction           -0.001676388
FINAL SINGLE POINT ENERGY      -173.071763786807

DIPOLE MOMENT
-------------
                                X             Y             Z
Electronic contribution:      1.82465      -0.08161      -0.49867
Nuclear contribution   :     -1.20871      -0.33119       0.98382
                        -----------------------------------------
Total Dipole Moment    :      0.61594      -0.41281       0.48514
                        -----------------------------------------
Magnitude (a.u.)       :      0.88609
Magnitude (Debye)      :      2.25226

Rotational constants in cm-1:     0.348453     0.308655     0.168735
Rotational constants in MHz : 10446.369928  9253.232733  5058.539653

                             ****ORCA TERMINATED NORMALLY****
TOTAL RUN TIME: 0 days 0 hours 0 minutes 5 seconds 169 msec
