                         Program Version 5.0.0 -  RELEASE  -
|  1> !wB97X-D3 RIJCOSX def2-SVP def2/J TightSCF
|  2> *xyz 0 1
|  3> C          4.12921        0.89839       -3.41895
|  4> C          5.01734        1.31521       -2.22130
|  5> O          4.73706        0.85411       -1.12283
|  6> F          5.92815        2.16811       -2.49136
|  7> H          4.48610        1.37210       -4.30953
|  8> H          3.11885        1.19903       -3.23540
|  9> H          4.16886       -0.16404       -3.53966
| 10> *
| 11> %MaxCore 64000
| 12>
| 13> %pal nprocs 18
| 14> end
| 15>
| 16> %scf
| 17>   MaxIter 150
| 18> end
| 19>
| 20>
| 21>                          ****END OF INPUT****

CARTESIAN COORDINATES (ANGSTROEM)
---------------------------------
  C      4.129210    0.898390   -3.418950
  C      5.017340    1.315210   -2.221300
  O      4.737060    0.854110   -1.122830
  F      5.928150    2.168110   -2.491360
  H      4.486100    1.372100   -4.309530
  H      3.118850    1.199030   -3.235400
  H      4.168860   -0.164040   -3.539660

 Total Charge           Charge          ....    0
 Multiplicity           Mult            ....    1
 Number of Electrons    NEL             ....   32
 Basis Dimension        Dim             ....   71

ORBITAL ENERGIES
----------------

  NO   OCC          E(Eh)            E(eV)
   0   2.0000     -24.851467      -676.2428
   1   2.0000     -19.246977      -523.7369
   2   2.0000     -10.466083      -284.7966
   3   2.0000     -10.310869      -280.5730
   4   2.0000      -1.399713       -38.0881
   5   2.0000      -1.153861       -31.3982
   6   2.0000      -0.873154       -23.7597
   7   2.0000      -0.749692       -20.4001
   8   2.0000      -0.640658       -17.4332
   9   2.0000      -0.638862       -17.3843
  10   2.0000      -0.599411       -16.3108
  11   2.0000      -0.539200       -14.6724
  12   2.0000      -0.529011       -14.3951
  13   2.0000      -0.497415       -13.5354
  14   2.0000      -0.455555       -12.3963
  15   2.0000      -0.391049       -10.6410
  16   0.0000       0.069583         1.8935
  17   0.0000       0.152919         4.1611
  18   0.0000       0.206374         5.6157
  19   0.0000       0.224849         6.1184
  20   0.0000       0.262536         7.1440

MULLIKEN ATOMIC CHARGES
-----------------------
   0 C :   -0.084054
   1 C :    0.230522
   2 O :   -0.239491
   3 F :   -0.111880
   4 H :    0.045619
   5 H :    0.080859
   6 H :    0.078424
Sum of atomic charges:   -0.0000000

LOEWDIN ATOMIC CHARGES
----------------------
   0 C :   -0.084155
   1 C :    0.111853
   2 O :   -0.172138
   3 F :    0.011009
   4 H :    0.030794
   5 H :    0.051893
   6 H :    0.050744

  Mayer bond orders larger than 0.100000
B(  0-C ,  1-C ) :   1.0169 B(  0-C ,  4-H ) :   0.9647 B(  0-C ,  5-H ) :   0.9633
B(  0-C ,  6-H ) :   0.9634 B(  1-C ,  2-O ) :   2.1045 B(  1-C ,  3-F ) :   1.1574

Dispersion correction           -0.000910782
FINAL SINGLE POINT ENERGY      -252.825160980990

DIPOLE MOMENT
-------------
                                X             Y             Z
Electronic contribution:      3.66768       2.35240       2.67175
Nuclear contribution   :     -3.88824      -2.31007      -3.68473
                        -----------------------------------------
Total Dipole Moment    :     -0.22056       0.04233      -1.01298
                        -----------------------------------------
Magnitude (a.u.)       :      1.03758
Magnitude (Debye)      :      2.63731

Rotational constants in cm-1:     0.367620     0.319924     0.176595
Rotational constants in MHz : 11020.955969  9591.092757  5294.190719

                             ****ORCA TERMINATED NORMALLY****
TOTAL RUN TIME: 0 days 0 hours 0 minutes 4 seconds 577 msec
