                         Program Version 5.0.0 -  RELEASE  -
|  1> !wB97X-D3 RIJCOSX def2-SVP def2/J TightSCF
|  2> *xyz 0 1
|  3> C          3.34350        3.35457       -3.59200
|  4> C          4.25587        3.70385       -4.72605
|  5> N          3.73403        4.29378       -5.80077
|  6> C          5.51504        3.40725       -4.63718
|  7> H          6.14919        3.60120       -5.39905
|  8> H          5.81358        2.89950       -3.80879
|  9> H          2.74138        4.51311       -5.82470
| 10> H          4.28755        4.52126       -6.61434
| 11> H          2.34726        3.66659       -3.82664
| 12> H          3.67283        3.85124       -2.70331
| 13> H          3.35820        2.29620       -3.43538
| 14> *
| 15> %MaxCore 64000
| 16>
| 17> %pal nprocs 18
| 18> end
| 19>
| 20> %scf
| 21>   MaxIter 150
| 22> end
| 23>
| 24>
| 25>                          ****END OF INPUT****

CARTESIAN COORDINATES (ANGSTROEM)
---------------------------------
  C      3.343500    3.354570   -3.592000
  C      4.255870    3.703850   -4.726050
  N      3.734030    4.293780   -5.800770
  C      5.515040    3.407250   -4.637180
  H      6.149190    3.601200   -5.399050
  H      5.813580    2.899500   -3.808790
  H      2.741380    4.513110   -5.824700
  H      4.287550    4.521260   -6.614340
  H      2.347260    3.666590   -3.826640
  H      3.672830    3.851240   -2.703310
  H      3.358200    2.296200   -3.435380

 Total Charge           Charge          ....    0
 Multiplicity           Mult            ....    1
 Number of Electrons    NEL             ....   32
 Basis Dimension        Dim             ....   91

ORBITAL ENERGIES
----------------

  NO   OCC          E(Eh)            E(eV)
   0   2.0000     -14.428228      -392.6121
   1   2.0000     -10.303333      -280.3679
   2   2.0000     -10.277002      -279.6514
   3   2.0000     -10.211176      -277.8602
   4   2.0000      -1.024319       -27.8731
   5   2.0000      -0.864597       -23.5269
   6   2.0000      -0.792784       -21.5728
   7   2.0000      -0.667090       -18.1524
   8   2.0000      -0.618163       -16.8211
   9   2.0000      -0.571046       -15.5390
  10   2.0000      -0.528069       -14.3695
  11   2.0000      -0.490992       -13.3606
  12   2.0000      -0.484274       -13.1778
  13   2.0000      -0.444886       -12.1060
  14   2.0000      -0.425586       -11.5808
  15   2.0000      -0.271517        -7.3884
  16   0.0000       0.141947         3.8626
  17   0.0000       0.148975         4.0538
  18   0.0000       0.187914         5.1134
  19   0.0000       0.195337         5.3154
  20   0.0000       0.227990         6.2039

MULLIKEN ATOMIC CHARGES
-----------------------
   0 C :    0.068065
   1 C :   -0.157540
   2 N :   -0.132738
   3 C :   -0.062100
   4 H :   -0.036388
   5 H :   -0.025138
   6 H :    0.119946
   7 H :    0.123777
   8 H :    0.000183
   9 H :    0.050979
  10 H :    0.050955
Sum of atomic charges:    0.0000000

LOEWDIN ATOMIC CHARGES
----------------------
   0 C :   -0.042670
   1 C :    0.007367
   2 N :   -0.026263
   3 C :   -0.180374
   4 H :   -0.004957
   5 H :    0.003114
   6 H :    0.070875
   7 H :    0.076191
   8 H :    0.018289
   9 H :    0.039233
  10 H :    0.039196

  Mayer bond orders larger than 0.100000
B(  0-C ,  1-C ) :   1.0103 B(  0-C ,  8-H ) :   0.9623 B(  0-C ,  9-H ) :   0.9649
B(  0-C , 10-H ) :   0.9642 B(  1-C ,  2-N ) :   1.2334 B(  1-C ,  3-C ) :   1.8934
B(  2-N ,  6-H ) :   0.9528 B(  2-N ,  7-H ) :   0.9550 B(  3-C ,  4-H ) :   0.9618
B(  3-C ,  5-H ) :   0.9483

Dispersion correction           -0.001663070
FINAL SINGLE POINT ENERGY      -173.070494765869

DIPOLE MOMENT
-------------
                                X             Y             Z
Electronic contribution:      0.12077       0.76734      -1.56925
Nuclear contribution   :     -0.80929      -0.53001       1.24477
                        -----------------------------------------
Total Dipole Moment    :     -0.68852       0.23733      -0.32448
                        -----------------------------------------
Magnitude (a.u.)       :      0.79729
Magnitude (Debye)      :      2.02654

Rotational constants in cm-1:     0.352070     0.305406     0.168593
Rotational constants in MHz : 10554.792117  9155.853997  5054.288053

                             ****ORCA TERMINATED NORMALLY****
TOTAL RUN TIME: 0 days 0 hours 0 minutes 5 seconds 634 msec
