                         Program Version 5.0.0 -  RELEASE  -
|  1> !wB97X-D3 RIJCOSX def2-SVP def2/J TightSCF xyzfile
|  2>
|  3> *xyzfile 0 1 D1.xyz
|  4>
|  5> %MaxCore 64000
|  6>
|  7> %pal nprocs 18
|  8> end
|  9>
| 10> %scf
| 11>   MaxIter 150
| 12> end
| 13>
| 14>
| 15>                          ****END OF INPUT****

CARTESIAN COORDINATES (ANGSTROEM)
---------------------------------
  C      3.343500    3.354571   -3.591998
  C      2.952633    1.863077   -3.574849
  C      4.129209    0.898394   -3.418950
  H      3.733687   -0.100605   -3.237633
  H      4.719095    0.862556   -4.339005
  C      5.017344    1.315212   -2.221305
  C      4.255868    3.703851   -4.726054
  C      3.734032    4.293783   -5.800770
  N      5.515039    3.407255   -4.637185
  H      6.149187    3.601203   -5.399053
  H      5.813584    2.899504   -3.808785
  H      2.741380    4.513109   -5.824701
  H      4.287548    4.521260   -6.614341
  H      2.278938    1.735250   -2.725496
  H      2.377466    1.625787   -4.475869
  F      4.737055    0.854112   -1.122825
  O      5.928146    2.168108   -2.491365
  H      3.861246    3.597252   -2.662979
  H      2.446493    3.973461   -3.656556

 Total Charge           Charge          ....    0
 Multiplicity           Mult            ....    1
 Number of Electrons    NEL             ....   70
 Basis Dimension        Dim             ....  176

ORBITAL ENERGIES
----------------

  NO   OCC          E(Eh)            E(eV)
   0   2.0000     -24.899116      -677.5394
   1   2.0000     -19.269236      -524.3426
   2   2.0000     -14.393574      -391.6691
   3   2.0000     -10.498673      -285.6834
   4   2.0000     -10.327769      -281.0329
   5   2.0000     -10.311969      -280.6030
   6   2.0000     -10.293897      -280.1112
   7   2.0000     -10.288904      -279.9753
   8   2.0000     -10.204038      -277.6660
   9   2.0000      -1.465975       -39.8912
  10   2.0000      -1.162324       -31.6284
  11   2.0000      -1.018321       -27.7099
  12   2.0000      -0.933509       -25.4021
  13   2.0000      -0.857405       -23.3312
  14   2.0000      -0.813394       -22.1336
  15   2.0000      -0.782855       -21.3026
  16   2.0000      -0.735978       -20.0270
  17   2.0000      -0.690213       -18.7816
  18   2.0000      -0.678932       -18.4747
  19   2.0000      -0.648624       -17.6500
  20   2.0000      -0.644811       -17.5462
  21   2.0000      -0.605219       -16.4688
  22   2.0000      -0.584547       -15.9063
  23   2.0000      -0.557678       -15.1752
  24   2.0000      -0.539928       -14.6922
  25   2.0000      -0.527748       -14.3608
  26   2.0000      -0.489552       -13.3214
  27   2.0000      -0.478639       -13.0244
  28   2.0000      -0.468955       -12.7609
  29   2.0000      -0.464860       -12.6495
  30   2.0000      -0.450519       -12.2592
  31   2.0000      -0.419745       -11.4219
  32   2.0000      -0.413998       -11.2655
  33   2.0000      -0.396650       -10.7934
  34   2.0000      -0.252454        -6.8696
  35   0.0000       0.033810         0.9200
  36   0.0000       0.134436         3.6582
  37   0.0000       0.157515         4.2862
  38   0.0000       0.178235         4.8500
  39   0.0000       0.182921         4.9775

MULLIKEN ATOMIC CHARGES
-----------------------
   0 C :    0.027307
   1 C :   -0.048429
   2 C :   -0.082412
   3 H :    0.053471
   4 H :    0.083571
   5 C :    0.295645
   6 C :   -0.138709
   7 C :   -0.090880
   8 N :   -0.084462
   9 H :    0.113386
  10 H :    0.122591
  11 H :   -0.035722
  12 H :   -0.041287
  13 H :    0.036025
  14 H :    0.052248
  15 F :   -0.027836
  16 O :   -0.300685
  17 H :    0.031928
  18 H :    0.034252
Sum of atomic charges:    0.0000000

LOEWDIN ATOMIC CHARGES
----------------------
   0 C :   -0.032514
   1 C :   -0.023232
   2 C :   -0.071788
   3 H :    0.036168
   4 H :    0.049400
   5 C :    0.144927
   6 C :    0.002350
   7 C :   -0.204948
   8 N :   -0.009050
   9 H :    0.072051
  10 H :    0.007561
  11 H :   -0.005681
  12 H :   -0.009837
  13 H :    0.024537
  14 H :    0.037176
  15 F :    0.096582
  16 O :   -0.174041
  17 H :    0.020661
  18 H :    0.039677

  Mayer bond orders larger than 0.100000
B(  0-C ,  1-C ) :   1.0726 B(  0-C ,  6-C ) :   1.0086 B(  0-C , 17-H ) :   0.9240
B(  0-C , 18-H ) :   0.9337 B(  1-C ,  2-C ) :   1.0555 B(  1-C , 13-H ) :   0.9556
B(  1-C , 14-H ) :   0.9488 B(  2-C ,  3-H ) :   0.9373 B(  2-C ,  4-H ) :   0.9302
B(  2-C ,  5-C ) :   1.0045 B(  5-C , 15-F ) :   1.2595 B(  5-C , 16-O ) :   1.8750
B(  6-C ,  7-C ) :   1.8279 B(  6-C ,  8-N ) :   1.3114 B(  7-C , 11-H ) :   0.9466
B(  7-C , 12-H ) :   0.9633 B(  8-N ,  9-H ) :   0.9467 B(  8-N , 10-H ) :   0.8831
B( 10-H , 16-O ) :   0.1497

Dispersion correction           -0.006923573
FINAL SINGLE POINT ENERGY      -463.961882674783

DIPOLE MOMENT
-------------
                                X             Y             Z
Electronic contribution:      5.59627      -5.98527      10.63113
Nuclear contribution   :     -5.86483       4.68058     -10.07545
                        -----------------------------------------
Total Dipole Moment    :     -0.26856      -1.30469       0.55568
                        -----------------------------------------
Magnitude (a.u.)       :      1.44330
Magnitude (Debye)      :      3.66858

Rotational constants in cm-1:     0.107256     0.035474     0.030113
Rotational constants in MHz :  3215.453922  1063.481574   902.777619

                             ****ORCA TERMINATED NORMALLY****
TOTAL RUN TIME: 0 days 0 hours 0 minutes 12 seconds 540 msec
