                         Program Version 5.0.0 -  RELEASE  -
|  1> !wB97X-D3 RIJCOSX def2-SVP def2/J TightSCF xyzfile
|  2>
|  3> *xyzfile 0 1 D2.xyz
|  4>
|  5> %MaxCore 64000
|  6>
|  7> %pal nprocs 18
|  8> end
|  9>
| 10> %scf
| 11>   MaxIter 150
| 12> end
| 13>
| 14>
| 15>                          ****END OF INPUT****

CARTESIAN COORDINATES (ANGSTROEM)
---------------------------------
  C      3.343500    3.354571   -3.591998
  C      2.952633    1.863077   -3.574849
  C      4.129209    0.898394   -3.418950
  H      3.733687   -0.100605   -3.237633
  H      4.719095    0.862556   -4.339005
  C      5.017344    1.315212   -2.221305
  C      4.255868    3.703851   -4.726054
  N      3.734032    4.293783   -5.800770
  C      5.515039    3.407255   -4.637185
  H      6.149187    3.601203   -5.399053
  H      5.813584    2.899504   -3.808785
  H      2.741380    4.513109   -5.824701
  H      4.287548    4.521260   -6.614341
  H      2.278938    1.735250   -2.725496
  H      2.377466    1.625787   -4.475869
  F      4.737055    0.854112   -1.122825
  O      5.928146    2.168108   -2.491365
  H      3.861246    3.597252   -2.662979
  H      2.446493    3.973461   -3.656556

 Total Charge           Charge          ....    0
 Multiplicity           Mult            ....    1
 Number of Electrons    NEL             ....   70
 Basis Dimension        Dim             ....  176

ORBITAL ENERGIES
----------------

  NO   OCC          E(Eh)            E(eV)
   0   2.0000     -24.879562      -677.0073
   1   2.0000     -19.241317      -523.5829
   2   2.0000     -14.417131      -392.3101
   3   2.0000     -10.474997      -285.0392
   4   2.0000     -10.313697      -280.6500
   5   2.0000     -10.307370      -280.4778
   6   2.0000     -10.287602      -279.9399
   7   2.0000     -10.287319      -279.9322
   8   2.0000     -10.180276      -277.0194
   9   2.0000      -1.446878       -39.3716
  10   2.0000      -1.135690       -30.9037
  11   2.0000      -1.014711       -27.6117
  12   2.0000      -0.925980       -25.1972
  13   2.0000      -0.853574       -23.2269
  14   2.0000      -0.803460       -21.8633
  15   2.0000      -0.780624       -21.2419
  16   2.0000      -0.724087       -19.7034
  17   2.0000      -0.675956       -18.3937
  18   2.0000      -0.663619       -18.0580
  19   2.0000      -0.644180       -17.5290
  20   2.0000      -0.626215       -17.0402
  21   2.0000      -0.594491       -16.1769
  22   2.0000      -0.575888       -15.6707
  23   2.0000      -0.563216       -15.3259
  24   2.0000      -0.543248       -14.7825
  25   2.0000      -0.511660       -13.9230
  26   2.0000      -0.485051       -13.1989
  27   2.0000      -0.484216       -13.1762
  28   2.0000      -0.454201       -12.3594
  29   2.0000      -0.445972       -12.1355
  30   2.0000      -0.440816       -11.9952
  31   2.0000      -0.415544       -11.3075
  32   2.0000      -0.408613       -11.1189
  33   2.0000      -0.355600        -9.6764
  34   2.0000      -0.257471        -7.0061
  35   0.0000       0.054043         1.4706
  36   0.0000       0.133615         3.6358
  37   0.0000       0.155768         4.2387
  38   0.0000       0.168551         4.5865
  39   0.0000       0.185070         5.0360

MULLIKEN ATOMIC CHARGES
-----------------------
   0 C :    0.026588
   1 C :   -0.050541
   2 C :   -0.062588
   3 H :    0.044114
   4 H :    0.082014
   5 C :    0.271316
   6 C :   -0.133538
   7 N :   -0.124722
   8 C :   -0.083810
   9 H :   -0.056091
  10 H :    0.026295
  11 H :    0.109483
  12 H :    0.120629
  13 H :    0.034409
  14 H :    0.040729
  15 F :   -0.035598
  16 O :   -0.265807
  17 H :    0.049876
  18 H :    0.007240
Sum of atomic charges:   -0.0000000

LOEWDIN ATOMIC CHARGES
----------------------
   0 C :   -0.034380
   1 C :   -0.024109
   2 C :   -0.069269
   3 H :    0.032080
   4 H :    0.050976
   5 C :    0.128469
   6 C :   -0.010823
   7 N :   -0.033502
   8 C :   -0.165698
   9 H :   -0.012828
  10 H :   -0.034943
  11 H :    0.065029
  12 H :    0.073718
  13 H :    0.023409
  14 H :    0.031454
  15 F :    0.086813
  16 O :   -0.161979
  17 H :    0.033748
  18 H :    0.021835

  Mayer bond orders larger than 0.100000
B(  0-C ,  1-C ) :   1.0757 B(  0-C ,  6-C ) :   0.9975 B(  0-C , 17-H ) :   0.9279
B(  0-C , 18-H ) :   0.9352 B(  1-C ,  2-C ) :   1.0649 B(  1-C , 13-H ) :   0.9562
B(  1-C , 14-H ) :   0.9482 B(  2-C ,  3-H ) :   0.9380 B(  2-C ,  4-H ) :   0.9252
B(  2-C ,  5-C ) :   1.0021 B(  5-C , 15-F ) :   1.2434 B(  5-C , 16-O ) :   1.9189
B(  6-C ,  7-N ) :   1.2143 B(  6-C ,  8-C ) :   1.9005 B(  7-N , 11-H ) :   0.9535
B(  7-N , 12-H ) :   0.9542 B(  8-C ,  9-H ) :   0.9565 B(  8-C , 10-H ) :   0.8874
B( 10-H , 16-O ) :   0.1636

Dispersion correction           -0.006784691
FINAL SINGLE POINT ENERGY      -463.934976938244

DIPOLE MOMENT
-------------
                                X             Y             Z
Electronic contribution:      4.28054      -5.12913       9.60405
Nuclear contribution   :     -5.64491       4.57111      -9.93176
                        -----------------------------------------
Total Dipole Moment    :     -1.36437      -0.55802      -0.32771
                        -----------------------------------------
Magnitude (a.u.)       :      1.51006
Magnitude (Debye)      :      3.83827

Rotational constants in cm-1:     0.109825     0.034347     0.029470
Rotational constants in MHz :  3292.465653  1029.684117   883.494260

                             ****ORCA TERMINATED NORMALLY****
TOTAL RUN TIME: 0 days 0 hours 0 minutes 14 seconds 750 msec
