                         Program Version 5.0.0 -  RELEASE  -
|  1> !DLPNO-CCSD(T) aug-cc-pVTZ aug-cc-pVTZ/C TightSCF TightPNO RIJCOSX def2/J
|  2> *xyz -1 1
|  3> C         -0.81136       -2.90878       -4.60763
|  4> C         -1.91658       -2.48508       -3.64367
|  5> H         -2.55452       -1.71243       -4.09199
|  6> C         -1.36353       -1.98134       -2.29361
|  7> H         -2.55345       -3.35567       -3.45881
|  8> O         -0.35039       -2.74969       -1.79601
|  9> H         -2.22622       -1.90839       -1.60204
| 10> H         -1.05135       -0.91567       -2.44333
| 11> H         -1.24783       -3.24801       -5.52377
| 12> H         -0.24047       -3.70079       -4.16978
| 13> H         -0.17107       -2.07453       -4.80501
| 14> *
| 15>
| 16> %MaxCore 64000
| 17> %pal nprocs 8
| 18> end
| 19>
| 20> %scf
| 21>   MaxIter 150
| 22> end
| 23>
| 24>
| 25>                          ****END OF INPUT****

CARTESIAN COORDINATES (ANGSTROEM)
---------------------------------
  C     -0.811360   -2.908780   -4.607630
  C     -1.916580   -2.485080   -3.643670
  H     -2.554520   -1.712430   -4.091990
  C     -1.363530   -1.981340   -2.293610
  H     -2.553450   -3.355670   -3.458810
  O     -0.350390   -2.749690   -1.796010
  H     -2.226220   -1.908390   -1.602040
  H     -1.051350   -0.915670   -2.443330
  H     -1.247830   -3.248010   -5.523770
  H     -0.240470   -3.700790   -4.169780
  H     -0.171070   -2.074530   -4.805010

 Total Charge           Charge          ....   -1
 Multiplicity           Mult            ....    1
 Number of Electrons    NEL             ....   34
 Basis Dimension        Dim             ....  345

ORBITAL ENERGIES
----------------

  NO   OCC          E(Eh)            E(eV)
   0   2.0000     -20.207407      -549.8715
   1   2.0000     -11.039585      -300.4024
   2   2.0000     -11.033815      -300.2454
   3   2.0000     -11.030226      -300.1477
   4   2.0000      -1.000822       -27.2337
   5   2.0000      -0.848852       -23.0984
   6   2.0000      -0.705067       -19.1859
   7   2.0000      -0.571222       -15.5437
   8   2.0000      -0.439986       -11.9726
   9   2.0000      -0.425017       -11.5653
  10   2.0000      -0.366139        -9.9632
  11   2.0000      -0.338065        -9.1992
  12   2.0000      -0.302609        -8.2344
  13   2.0000      -0.290827        -7.9138
  14   2.0000      -0.259583        -7.0636
  15   2.0000      -0.117441        -3.1957
  16   2.0000      -0.112683        -3.0662
  17   0.0000       0.123000         3.3470
  18   0.0000       0.134750         3.6667
  19   0.0000       0.137900         3.7524
  20   0.0000       0.148696         4.0462
  21   0.0000       0.154856         4.2139

MULLIKEN ATOMIC CHARGES
-----------------------
   0 C :   -0.929307
   1 C :   -0.489504
   2 H :    0.225874
   3 C :   -0.160669
   4 H :    0.248202
   5 O :   -1.137911
   6 H :    0.190251
   7 H :    0.188294
   8 H :    0.267249
   9 H :    0.320936
  10 H :    0.276585
Sum of atomic charges:   -1.0000000

LOEWDIN ATOMIC CHARGES
----------------------
   0 C :    0.533813
   1 C :    0.181314
   2 H :   -0.183432
   3 C :   -0.394942
   4 H :   -0.181909
   5 O :    0.129945
   6 H :   -0.234153
   7 H :   -0.221589
   8 H :   -0.217455
   9 H :   -0.213721
  10 H :   -0.197872

  Mayer bond orders larger than 0.100000
B(  0-C ,  1-C ) :   0.8021 B(  0-C ,  8-H ) :   0.9731 B(  0-C ,  9-H ) :   0.9156
B(  0-C , 10-H ) :   0.9461 B(  1-C ,  2-H ) :   0.9603 B(  1-C ,  3-C ) :   0.8516
B(  1-C ,  4-H ) :   0.9548 B(  3-C ,  5-O ) :   1.0799 B(  3-C ,  6-H ) :   1.0447
B(  3-C ,  7-H ) :   1.0058

E(0)                                       ...   -192.558444173
E(0)                                       ...   -192.558444173
E(CORR)(strong-pairs)                      ...     -0.838658224
E(CORR)(weak-pairs)                        ...     -0.000689628
E(CORR)(corrected)                         ...     -0.839347852
E(TOT)                                     ...   -193.397792025
E(CCSD(T))                                 ...   -193.431882290
FINAL SINGLE POINT ENERGY      -193.431882289687

DIPOLE MOMENT
-------------
                                X             Y             Z
Electronic contribution:      1.18992      -0.52197       2.45002
Nuclear contribution   :     -2.20255       0.75707      -4.26861
                        -----------------------------------------
Total Dipole Moment    :     -1.01264       0.23510      -1.81860
                        -----------------------------------------
Magnitude (a.u.)       :      2.09476
Magnitude (Debye)      :      5.32445

Rotational constants in cm-1:     0.480704     0.187939     0.150770
Rotational constants in MHz : 14411.155440  5634.276828  4519.982802

                             ****ORCA TERMINATED NORMALLY****
TOTAL RUN TIME: 0 days 0 hours 5 minutes 35 seconds 91 msec
