                         Program Version 5.0.0 -  RELEASE  -
|  1> !DLPNO-CCSD(T) aug-cc-pVTZ aug-cc-pVTZ/C TightSCF TightPNO RIJCOSX def2/J
|  2> *xyz 1 1
|  3> C          1.64703       -2.34528       -5.02041
|  4> C          0.21763       -1.81402       -4.92439
|  5> C          2.20996       -2.81239       -3.66571
|  6> H          2.30838       -1.58870       -5.45713
|  7> H          1.67429       -3.20348       -5.69739
|  8> C          2.48901       -1.66851       -2.73754
|  9> N          3.59631       -0.94761       -2.95225
| 10> N          1.66394       -1.41369       -1.77781
| 11> H          0.81164       -1.96318       -1.70275
| 12> H          1.84550       -0.63508       -1.15875
| 13> H          4.20535       -1.17600       -3.73383
| 14> H          3.81723       -0.12585       -2.40604
| 15> H          3.14311       -3.36280       -3.81152
| 16> H          1.48768       -3.45893       -3.16521
| 17> H         -0.11459       -1.50684       -5.89401
| 18> H          0.19193       -0.97796       -4.25713
| 19> H         -0.42543       -2.58523       -4.55479
| 20> *
| 21>
| 22> %MaxCore 64000
| 23> %pal nprocs 8
| 24> end
| 25>
| 26> %scf
| 27>   MaxIter 150
| 28> end
| 29>
| 30>
| 31>                          ****END OF INPUT****

CARTESIAN COORDINATES (ANGSTROEM)
---------------------------------
  C      1.647030   -2.345280   -5.020410
  C      0.217630   -1.814020   -4.924390
  C      2.209960   -2.812390   -3.665710
  H      2.308380   -1.588700   -5.457130
  H      1.674290   -3.203480   -5.697390
  C      2.489010   -1.668510   -2.737540
  N      3.596310   -0.947610   -2.952250
  N      1.663940   -1.413690   -1.777810
  H      0.811640   -1.963180   -1.702750
  H      1.845500   -0.635080   -1.158750
  H      4.205350   -1.176000   -3.733830
  H      3.817230   -0.125850   -2.406040
  H      3.143110   -3.362800   -3.811520
  H      1.487680   -3.458930   -3.165210
  H     -0.114590   -1.506840   -5.894010
  H      0.191930   -0.977960   -4.257130
  H     -0.425430   -2.585230   -4.554790

 Total Charge           Charge          ....    1
 Multiplicity           Mult            ....    1
 Number of Electrons    NEL             ....   48
 Basis Dimension        Dim             ....  529

ORBITAL ENERGIES
----------------

  NO   OCC          E(Eh)            E(eV)
   0   2.0000     -15.809699      -430.2038
   1   2.0000     -15.798371      -429.8955
   2   2.0000     -11.565159      -314.7040
   3   2.0000     -11.419696      -310.7457
   4   2.0000     -11.385651      -309.8193
   5   2.0000     -11.348668      -308.8130
   6   2.0000      -1.521208       -41.3942
   7   2.0000      -1.401804       -38.1450
   8   2.0000      -1.246451       -33.9177
   9   2.0000      -1.138246       -30.9733
  10   2.0000      -1.046921       -28.4882
  11   2.0000      -0.990837       -26.9621
  12   2.0000      -0.953225       -25.9386
  13   2.0000      -0.930027       -25.3073
  14   2.0000      -0.870054       -23.6754
  15   2.0000      -0.814828       -22.1726
  16   2.0000      -0.787881       -21.4393
  17   2.0000      -0.756285       -20.5796
  18   2.0000      -0.727474       -19.7956
  19   2.0000      -0.715323       -19.4649
  20   2.0000      -0.646174       -17.5833
  21   2.0000      -0.643682       -17.5155
  22   2.0000      -0.638297       -17.3689
  23   2.0000      -0.621807       -16.9202
  24   0.0000      -0.094952        -2.5838
  25   0.0000      -0.073996        -2.0135
  26   0.0000      -0.072600        -1.9755
  27   0.0000      -0.060533        -1.6472
  28   0.0000      -0.048410        -1.3173

MULLIKEN ATOMIC CHARGES
-----------------------
   0 C :   -0.436308
   1 C :   -0.975785
   2 C :    0.050433
   3 H :    0.216401
   4 H :    0.312821
   5 C :    0.788981
   6 N :   -0.511960
   7 N :   -0.392259
   8 H :    0.121368
   9 H :    0.157522
  10 H :    0.103642
  11 H :    0.149577
  12 H :    0.315562
  13 H :    0.207747
  14 H :    0.279762
  15 H :    0.324861
  16 H :    0.287635
Sum of atomic charges:    1.0000000

LOEWDIN ATOMIC CHARGES
----------------------
   0 C :    0.303384
   1 C :    0.623364
   2 C :    0.350161
   3 H :   -0.139186
   4 H :   -0.128025
   5 C :   -0.227501
   6 N :    0.948968
   7 N :    0.947656
   8 H :   -0.218623
   9 H :   -0.218120
  10 H :   -0.231368
  11 H :   -0.233468
  12 H :   -0.120309
  13 H :   -0.137747
  14 H :   -0.162055
  15 H :   -0.185441
  16 H :   -0.171691

  Mayer bond orders larger than 0.100000
B(  0-C ,  1-C ) :   0.8053 B(  0-C ,  2-C ) :   0.8547 B(  0-C ,  3-H ) :   0.9528
B(  0-C ,  4-H ) :   0.9270 B(  0-C ,  5-C ) :   0.2077 B(  1-C , 14-H ) :   1.0047
B(  1-C , 15-H ) :   0.9009 B(  1-C , 16-H ) :   0.9627 B(  2-C ,  5-C ) :   0.2944
B(  2-C ,  6-N ) :  -0.1222 B(  2-C ,  7-N ) :  -0.1060 B(  2-C , 12-H ) :   0.9494
B(  2-C , 13-H ) :   0.9854 B(  5-C ,  6-N ) :   0.8883 B(  5-C ,  7-N ) :   0.9124
B(  6-N , 10-H ) :   1.1431 B(  6-N , 11-H ) :   1.0687 B(  7-N ,  8-H ) :   1.1303
B(  7-N ,  9-H ) :   1.0743

E(0)                                       ...   -266.692555203
E(0)                                       ...   -266.692555203
E(CORR)(strong-pairs)                      ...     -1.156622879
E(CORR)(weak-pairs)                        ...     -0.001201102
E(CORR)(corrected)                         ...     -1.157823980
E(TOT)                                     ...   -267.850379184
E(CCSD(T))                                 ...   -267.896443358
FINAL SINGLE POINT ENERGY      -267.896443358423

DIPOLE MOMENT
-------------
                                X             Y             Z
Electronic contribution:      3.24251       1.22789       4.34764
Nuclear contribution   :     -2.54148      -0.64126      -3.14660
                        -----------------------------------------
Total Dipole Moment    :      0.70103       0.58663       1.20104
                        -----------------------------------------
Magnitude (a.u.)       :      1.50933
Magnitude (Debye)      :      3.83641

Rotational constants in cm-1:     0.179759     0.078784     0.067518
Rotational constants in MHz :  5389.046501  2361.884510  2024.132984

                             ****ORCA TERMINATED NORMALLY****
TOTAL RUN TIME: 0 days 0 hours 20 minutes 54 seconds 994 msec
