                         Program Version 5.0.0 -  RELEASE  -
|  1> !DLPNO-CCSD(T) aug-cc-pVTZ aug-cc-pVTZ/C TightSCF TightPNO RIJCOSX def2/J
|  2> *xyz 0 1
|  3> C         -0.81136       -2.90878       -4.60763
|  4> C         -1.91658       -2.48508       -3.64367
|  5> H         -2.55452       -1.71243       -4.09199
|  6> C         -1.36353       -1.98134       -2.29361
|  7> H         -2.55345       -3.35567       -3.45881
|  8> F         -0.35039       -2.74969       -1.79601
|  9> H         -2.22622       -1.90839       -1.60204
| 10> H         -1.05135       -0.91567       -2.44333
| 11> H         -1.24783       -3.24801       -5.52377
| 12> H         -0.24047       -3.70079       -4.16978
| 13> H         -0.17107       -2.07453       -4.80501
| 14> *
| 15>
| 16> %MaxCore 64000
| 17> %pal nprocs 8
| 18> end
| 19>
| 20> %scf
| 21>   MaxIter 150
| 22> end
| 23>
| 24>
| 25>                          ****END OF INPUT****

CARTESIAN COORDINATES (ANGSTROEM)
---------------------------------
  C     -0.811360   -2.908780   -4.607630
  C     -1.916580   -2.485080   -3.643670
  H     -2.554520   -1.712430   -4.091990
  C     -1.363530   -1.981340   -2.293610
  H     -2.553450   -3.355670   -3.458810
  F     -0.350390   -2.749690   -1.796010
  H     -2.226220   -1.908390   -1.602040
  H     -1.051350   -0.915670   -2.443330
  H     -1.247830   -3.248010   -5.523770
  H     -0.240470   -3.700790   -4.169780
  H     -0.171070   -2.074530   -4.805010

 Total Charge           Charge          ....    0
 Multiplicity           Mult            ....    1
 Number of Electrons    NEL             ....   34
 Basis Dimension        Dim             ....  345

ORBITAL ENERGIES
----------------

  NO   OCC          E(Eh)            E(eV)
   0   2.0000     -26.285454      -715.2636
   1   2.0000     -11.309375      -307.7437
   2   2.0000     -11.230067      -305.5857
   3   2.0000     -11.206855      -304.9540
   4   2.0000      -1.598818       -43.5060
   5   2.0000      -1.061272       -28.8787
   6   2.0000      -0.938220       -25.5303
   7   2.0000      -0.816341       -22.2138
   8   2.0000      -0.705267       -19.1913
   9   2.0000      -0.701782       -19.0964
  10   2.0000      -0.668198       -18.1826
  11   2.0000      -0.610342       -16.6082
  12   2.0000      -0.574003       -15.6194
  13   2.0000      -0.534452       -14.5432
  14   2.0000      -0.504949       -13.7404
  15   2.0000      -0.473765       -12.8918
  16   2.0000      -0.469801       -12.7839
  17   0.0000       0.030262         0.8235
  18   0.0000       0.038838         1.0568
  19   0.0000       0.040280         1.0961
  20   0.0000       0.045495         1.2380
  21   0.0000       0.062377         1.6974

MULLIKEN ATOMIC CHARGES
-----------------------
   0 C :   -0.925340
   1 C :   -0.507853
   2 H :    0.285377
   3 C :   -0.095324
   4 H :    0.269310
   5 F :   -0.504915
   6 H :    0.297102
   7 H :    0.284361
   8 H :    0.299429
   9 H :    0.309704
  10 H :    0.288149
Sum of atomic charges:   -0.0000000

LOEWDIN ATOMIC CHARGES
----------------------
   0 C :    0.582832
   1 C :    0.249045
   2 H :   -0.147235
   3 C :   -0.106906
   4 H :   -0.161604
   5 F :    0.471561
   6 H :   -0.169216
   7 H :   -0.155922
   8 H :   -0.186578
   9 H :   -0.190832
  10 H :   -0.185146

  Mayer bond orders larger than 0.100000
B(  0-C ,  1-C ) :   0.8265 B(  0-C ,  8-H ) :   0.9549 B(  0-C ,  9-H ) :   0.9272
B(  0-C , 10-H ) :   0.9322 B(  1-C ,  2-H ) :   0.9251 B(  1-C ,  3-C ) :   0.9156
B(  1-C ,  4-H ) :   0.9361 B(  3-C ,  5-F ) :   0.6175 B(  3-C ,  6-H ) :   0.9587
B(  3-C ,  7-H ) :   0.9401

E(0)                                       ...   -217.193118387
E(0)                                       ...   -217.193118387
E(CORR)(strong-pairs)                      ...     -0.831966336
E(CORR)(weak-pairs)                        ...     -0.000648581
E(CORR)(corrected)                         ...     -0.832614916
E(TOT)                                     ...   -218.025733303
E(CCSD(T))                                 ...   -218.054493552
FINAL SINGLE POINT ENERGY      -218.054493552271

DIPOLE MOMENT
-------------
                                X             Y             Z
Electronic contribution:      2.55343      -0.67049       5.46463
Nuclear contribution   :     -3.10989       1.02097      -5.82098
                        -----------------------------------------
Total Dipole Moment    :     -0.55646       0.35048      -0.35635
                        -----------------------------------------
Magnitude (a.u.)       :      0.74798
Magnitude (Debye)      :      1.90121

Rotational constants in cm-1:     0.466172     0.177379     0.142652
Rotational constants in MHz : 13975.492374  5317.681709  4276.599690

                             ****ORCA TERMINATED NORMALLY****
TOTAL RUN TIME: 0 days 0 hours 5 minutes 21 seconds 673 msec
