                         Program Version 5.0.0 -  RELEASE  -
|  1> !DLPNO-CCSD(T) aug-cc-pVTZ aug-cc-pVTZ/C TightSCF TightPNO RIJCOSX def2/J
|  2> *xyz 0 1
|  3> C          1.64703       -2.34528       -5.02041
|  4> C          0.21763       -1.81402       -4.92439
|  5> C          2.20996       -2.81239       -3.66571
|  6> H          2.30838       -1.58870       -5.45713
|  7> H          1.67429       -3.20348       -5.69739
|  8> C          2.48901       -1.66851       -2.73754
|  9> C          3.59631       -0.94761       -2.95225
| 10> N          1.66394       -1.41369       -1.77781
| 11> H          0.81164       -1.96318       -1.70275
| 12> H          1.84550       -0.63508       -1.15875
| 13> H          4.20535       -1.17600       -3.73383
| 14> H          3.81723       -0.12585       -2.40604
| 15> H          3.14311       -3.36280       -3.81152
| 16> H          1.48768       -3.45893       -3.16521
| 17> H         -0.11459       -1.50684       -5.89401
| 18> H          0.19193       -0.97796       -4.25713
| 19> H         -0.42543       -2.58523       -4.55479
| 20> *
| 21>
| 22> %MaxCore 64000
| 23> %pal nprocs 8
| 24> end
| 25>
| 26> %scf
| 27>   MaxIter 150
| 28> end
| 29>
| 30>
| 31>                          ****END OF INPUT****

CARTESIAN COORDINATES (ANGSTROEM)
---------------------------------
  C      1.647030   -2.345280   -5.020410
  C      0.217630   -1.814020   -4.924390
  C      2.209960   -2.812390   -3.665710
  H      2.308380   -1.588700   -5.457130
  H      1.674290   -3.203480   -5.697390
  C      2.489010   -1.668510   -2.737540
  C      3.596310   -0.947610   -2.952250
  N      1.663940   -1.413690   -1.777810
  H      0.811640   -1.963180   -1.702750
  H      1.845500   -0.635080   -1.158750
  H      4.205350   -1.176000   -3.733830
  H      3.817230   -0.125850   -2.406040
  H      3.143110   -3.362800   -3.811520
  H      1.487680   -3.458930   -3.165210
  H     -0.114590   -1.506840   -5.894010
  H      0.191930   -0.977960   -4.257130
  H     -0.425430   -2.585230   -4.554790

 Total Charge           Charge          ....    0
 Multiplicity           Mult            ....    1
 Number of Electrons    NEL             ....   48
 Basis Dimension        Dim             ....  529

ORBITAL ENERGIES
----------------

  NO   OCC          E(Eh)            E(eV)
   0   2.0000     -15.565177      -423.5500
   1   2.0000     -11.254718      -306.2565
   2   2.0000     -11.223368      -305.4034
   3   2.0000     -11.219202      -305.2900
   4   2.0000     -11.204362      -304.8862
   5   2.0000     -11.147012      -303.3256
   6   2.0000      -1.251415       -34.0527
   7   2.0000      -1.069664       -29.1070
   8   2.0000      -0.993531       -27.0354
   9   2.0000      -0.926546       -25.2126
  10   2.0000      -0.827226       -22.5100
  11   2.0000      -0.763310       -20.7707
  12   2.0000      -0.709951       -19.3188
  13   2.0000      -0.661004       -17.9868
  14   2.0000      -0.617177       -16.7942
  15   2.0000      -0.596075       -16.2200
  16   2.0000      -0.559175       -15.2159
  17   2.0000      -0.551457       -15.0059
  18   2.0000      -0.523676       -14.2499
  19   2.0000      -0.509537       -13.8652
  20   2.0000      -0.479736       -13.0543
  21   2.0000      -0.468251       -12.7417
  22   2.0000      -0.466891       -12.7047
  23   2.0000      -0.282049        -7.6749
  24   0.0000       0.027338         0.7439
  25   0.0000       0.035153         0.9566
  26   0.0000       0.038376         1.0443
  27   0.0000       0.040116         1.0916
  28   0.0000       0.053544         1.4570

MULLIKEN ATOMIC CHARGES
-----------------------
   0 C :   -0.464151
   1 C :   -1.003842
   2 C :    0.083633
   3 H :    0.198856
   4 H :    0.309323
   5 C :    0.952323
   6 C :   -1.566645
   7 N :   -0.625646
   8 H :    0.051445
   9 H :    0.027172
  10 H :    0.163241
  11 H :    0.503678
  12 H :    0.310416
  13 H :    0.171483
  14 H :    0.255139
  15 H :    0.365284
  16 H :    0.268293
Sum of atomic charges:   -0.0000000

LOEWDIN ATOMIC CHARGES
----------------------
   0 C :    0.279734
   1 C :    0.600544
   2 C :    0.290487
   3 H :   -0.147109
   4 H :   -0.148928
   5 C :   -0.324244
   6 C :    0.562085
   7 N :    0.839088
   8 H :   -0.264979
   9 H :   -0.255434
  10 H :   -0.292115
  11 H :   -0.294409
  12 H :   -0.137254
  13 H :   -0.156894
  14 H :   -0.180737
  15 H :   -0.186702
  16 H :   -0.183133

  Mayer bond orders larger than 0.100000
B(  0-C ,  1-C ) :   0.7847 B(  0-C ,  2-C ) :   0.8307 B(  0-C ,  3-H ) :   0.9731
B(  0-C ,  4-H ) :   0.9236 B(  0-C ,  5-C ) :   0.2131 B(  0-C ,  6-C ) :   0.1244
B(  1-C , 14-H ) :   1.0217 B(  1-C , 15-H ) :   0.8778 B(  1-C , 16-H ) :   0.9797
B(  2-C ,  5-C ) :   0.4250 B(  2-C ,  6-C ) :  -0.1334 B(  2-C ,  7-N ) :  -0.1136
B(  2-C , 12-H ) :   1.0288 B(  2-C , 13-H ) :   0.9868 B(  5-C ,  6-C ) :   1.0147
B(  5-C ,  7-N ) :   0.5886 B(  5-C ,  8-H ) :  -0.1280 B(  5-C , 10-H ) :  -0.1019
B(  5-C , 12-H ) :  -0.1293 B(  6-C ,  7-N ) :  -0.2193 B(  6-C , 10-H ) :   1.4486
B(  6-C , 11-H ) :   0.6381 B(  7-N ,  8-H ) :   1.2141 B(  7-N ,  9-H ) :   1.2089

E(0)                                       ...   -250.249834694
E(0)                                       ...   -250.249834694
E(CORR)(strong-pairs)                      ...     -1.138035348
E(CORR)(weak-pairs)                        ...     -0.001202093
E(CORR)(corrected)                         ...     -1.139237441
E(TOT)                                     ...   -251.389072135
E(CCSD(T))                                 ...   -251.435547810
FINAL SINGLE POINT ENERGY      -251.435547810308

DIPOLE MOMENT
-------------
                                X             Y             Z
Electronic contribution:      1.38729       0.23891       3.25700
Nuclear contribution   :     -2.15663      -0.43764      -3.01766
                        -----------------------------------------
Total Dipole Moment    :     -0.76934      -0.19873       0.23934
                        -----------------------------------------
Magnitude (a.u.)       :      0.82986
Magnitude (Debye)      :      2.10933

Rotational constants in cm-1:     0.184410     0.080989     0.069427
Rotational constants in MHz :  5528.462717  2427.993314  2081.376031

                             ****ORCA TERMINATED NORMALLY****
TOTAL RUN TIME: 0 days 0 hours 22 minutes 1 seconds 909 msec
