                         Program Version 5.0.0 -  RELEASE  -
|  1> !DLPNO-CCSD(T) aug-cc-pVTZ aug-cc-pVTZ/C TightSCF TightPNO RIJCOSX def2/J
|  2> *xyz 0 1
|  3> C          1.64703       -2.34528       -5.02041
|  4> C          0.21763       -1.81402       -4.92439
|  5> C          2.20996       -2.81239       -3.66571
|  6> H          2.30838       -1.58870       -5.45713
|  7> H          1.67429       -3.20348       -5.69739
|  8> C          2.48901       -1.66851       -2.73754
|  9> N          3.59631       -0.94761       -2.95225
| 10> C          1.66394       -1.41369       -1.77781
| 11> H          0.81164       -1.96318       -1.70275
| 12> H          1.84550       -0.63508       -1.15875
| 13> H          4.20535       -1.17600       -3.73383
| 14> H          3.81723       -0.12585       -2.40604
| 15> H          3.14311       -3.36280       -3.81152
| 16> H          1.48768       -3.45893       -3.16521
| 17> H         -0.11459       -1.50684       -5.89401
| 18> H          0.19193       -0.97796       -4.25713
| 19> H         -0.42543       -2.58523       -4.55479
| 20> *
| 21>
| 22> %MaxCore 64000
| 23> %pal nprocs 8
| 24> end
| 25>
| 26> %scf
| 27>   MaxIter 150
| 28> end
| 29>
| 30>
| 31>                          ****END OF INPUT****

CARTESIAN COORDINATES (ANGSTROEM)
---------------------------------
  C      1.647030   -2.345280   -5.020410
  C      0.217630   -1.814020   -4.924390
  C      2.209960   -2.812390   -3.665710
  H      2.308380   -1.588700   -5.457130
  H      1.674290   -3.203480   -5.697390
  C      2.489010   -1.668510   -2.737540
  N      3.596310   -0.947610   -2.952250
  C      1.663940   -1.413690   -1.777810
  H      0.811640   -1.963180   -1.702750
  H      1.845500   -0.635080   -1.158750
  H      4.205350   -1.176000   -3.733830
  H      3.817230   -0.125850   -2.406040
  H      3.143110   -3.362800   -3.811520
  H      1.487680   -3.458930   -3.165210
  H     -0.114590   -1.506840   -5.894010
  H      0.191930   -0.977960   -4.257130
  H     -0.425430   -2.585230   -4.554790

 Total Charge           Charge          ....    0
 Multiplicity           Mult            ....    1
 Number of Electrons    NEL             ....   48
 Basis Dimension        Dim             ....  529

ORBITAL ENERGIES
----------------

  NO   OCC          E(Eh)            E(eV)
   0   2.0000     -15.557000      -423.3275
   1   2.0000     -11.248594      -306.0898
   2   2.0000     -11.221280      -305.3466
   3   2.0000     -11.219823      -305.3069
   4   2.0000     -11.198359      -304.7228
   5   2.0000     -11.150794      -303.4285
   6   2.0000      -1.227747       -33.4087
   7   2.0000      -1.068378       -29.0721
   8   2.0000      -1.003760       -27.3137
   9   2.0000      -0.931454       -25.3462
  10   2.0000      -0.816433       -22.2163
  11   2.0000      -0.760949       -20.7065
  12   2.0000      -0.697710       -18.9856
  13   2.0000      -0.651479       -17.7276
  14   2.0000      -0.614141       -16.7116
  15   2.0000      -0.604310       -16.4441
  16   2.0000      -0.561387       -15.2761
  17   2.0000      -0.544548       -14.8179
  18   2.0000      -0.525154       -14.2902
  19   2.0000      -0.509969       -13.8770
  20   2.0000      -0.479160       -13.0386
  21   2.0000      -0.462217       -12.5776
  22   2.0000      -0.458859       -12.4862
  23   2.0000      -0.298525        -8.1233
  24   0.0000       0.027183         0.7397
  25   0.0000       0.035307         0.9607
  26   0.0000       0.038276         1.0415
  27   0.0000       0.041241         1.1222
  28   0.0000       0.054197         1.4748

MULLIKEN ATOMIC CHARGES
-----------------------
   0 C :   -0.485183
   1 C :   -1.013470
   2 C :   -0.043084
   3 H :    0.203383
   4 H :    0.287826
   5 C :    1.053481
   6 N :   -0.768987
   7 C :   -1.469191
   8 H :    0.119386
   9 H :    0.630865
  10 H :    0.042010
  11 H :    0.027942
  12 H :    0.283244
  13 H :    0.222164
  14 H :    0.265732
  15 H :    0.366128
  16 H :    0.277754
Sum of atomic charges:   -0.0000000

LOEWDIN ATOMIC CHARGES
----------------------
   0 C :    0.278276
   1 C :    0.601243
   2 C :    0.288939
   3 H :   -0.147804
   4 H :   -0.150217
   5 C :   -0.313649
   6 N :    0.845475
   7 C :    0.550166
   8 H :   -0.278588
   9 H :   -0.278421
  10 H :   -0.277402
  11 H :   -0.270540
  12 H :   -0.140599
  13 H :   -0.154551
  14 H :   -0.183162
  15 H :   -0.189950
  16 H :   -0.179217

  Mayer bond orders larger than 0.100000
B(  0-C ,  1-C ) :   0.7882 B(  0-C ,  2-C ) :   0.8606 B(  0-C ,  3-H ) :   0.9822
B(  0-C ,  4-H ) :   0.9466 B(  0-C ,  5-C ) :   0.1496 B(  1-C , 14-H ) :   1.0057
B(  1-C , 15-H ) :   0.8888 B(  1-C , 16-H ) :   0.9799 B(  2-C ,  5-C ) :   0.4671
B(  2-C ,  6-N ) :  -0.1164 B(  2-C , 12-H ) :   0.9638 B(  2-C , 13-H ) :   1.0380
B(  5-C ,  6-N ) :   0.6680 B(  5-C ,  7-C ) :   0.8005 B(  5-C ,  8-H ) :  -0.2016
B(  6-N ,  7-C ) :  -0.2817 B(  6-N , 10-H ) :   1.2074 B(  6-N , 11-H ) :   1.1794
B(  7-C ,  8-H ) :   1.6088 B(  7-C ,  9-H ) :   0.4050

E(0)                                       ...   -250.255433272
E(0)                                       ...   -250.255433272
E(CORR)(strong-pairs)                      ...     -1.137180611
E(CORR)(weak-pairs)                        ...     -0.001197472
E(CORR)(corrected)                         ...     -1.138378083
E(TOT)                                     ...   -251.393811355
E(CCSD(T))                                 ...   -251.439968119
FINAL SINGLE POINT ENERGY      -251.439968119476

DIPOLE MOMENT
-------------
                                X             Y             Z
Electronic contribution:      3.08668       0.67557       2.26755
Nuclear contribution   :     -2.61370      -0.54788      -2.73987
                        -----------------------------------------
Total Dipole Moment    :      0.47298       0.12769      -0.47232
                        -----------------------------------------
Magnitude (a.u.)       :      0.68051
Magnitude (Debye)      :      1.72972

Rotational constants in cm-1:     0.186678     0.079942     0.069329
Rotational constants in MHz :  5596.476267  2396.611465  2078.426257

                             ****ORCA TERMINATED NORMALLY****
TOTAL RUN TIME: 0 days 0 hours 20 minutes 17 seconds 869 msec
