                         Program Version 5.0.0 -  RELEASE  -
|  1> !LC-PBE RIJCOSX def2-SVPD def2/J TightSCF
|  2> *xyz -1 1
|  3> C          4.93020       -7.37532       -2.64962
|  4> C          3.84189       -6.95161       -3.63283
|  5> H          3.45814       -5.95442       -3.40712
|  6> H          2.98848       -7.64361       -3.56708
|  7> S          4.31812       -6.91593       -5.36869
|  8> O          5.40615       -5.89948       -5.51297
|  9> O          3.11191       -6.44508       -6.04379
| 10> O          4.76340       -8.23942       -5.69863
| 11> H          5.27901       -8.35440       -2.90385
| 12> H          4.53000       -7.38577       -1.65734
| 13> H          5.74437       -6.68276       -2.69856
| 14> *
| 15>
| 16> %MaxCore 64000
| 17>
| 18> %pal nprocs 4
| 19> end
| 20>
| 21> %scf
| 22>   MaxIter 150
| 23> end
| 24>
| 25>
| 26>                          ****END OF INPUT****

CARTESIAN COORDINATES (ANGSTROEM)
---------------------------------
  C      4.930200   -7.375320   -2.649620
  C      3.841890   -6.951610   -3.632830
  H      3.458140   -5.954420   -3.407120
  H      2.988480   -7.643610   -3.567080
  S      4.318120   -6.915930   -5.368690
  O      5.406150   -5.899480   -5.512970
  O      3.111910   -6.445080   -6.043790
  O      4.763400   -8.239420   -5.698630
  H      5.279010   -8.354400   -2.903850
  H      4.530000   -7.385770   -1.657340
  H      5.744370   -6.682760   -2.698560

 Total Charge           Charge          ....   -1
 Multiplicity           Mult            ....    1
 Number of Electrons    NEL             ....   58
 Basis Dimension        Dim             ....  176

ORBITAL ENERGIES
----------------

  NO   OCC          E(Eh)            E(eV)
   0   2.0000     -88.315745     -2403.1936
   1   2.0000     -18.779573      -511.0182
   2   2.0000     -18.770076      -510.7597
   3   2.0000     -18.761985      -510.5396
   4   2.0000      -9.999574      -272.1022
   5   2.0000      -9.989308      -271.8229
   6   2.0000      -7.937463      -215.9894
   7   2.0000      -5.959830      -162.1752
   8   2.0000      -5.959653      -162.1704
   9   2.0000      -5.959430      -162.1643
  10   2.0000      -1.108213       -30.1560
  11   2.0000      -0.955837       -26.0096
  12   2.0000      -0.925138       -25.1743
  13   2.0000      -0.812217       -22.1016
  14   2.0000      -0.674747       -18.3608
  15   2.0000      -0.538409       -14.6509
  16   2.0000      -0.470749       -12.8097
  17   2.0000      -0.469718       -12.7817
  18   2.0000      -0.427761       -11.6400
  19   2.0000      -0.413668       -11.2565
  20   2.0000      -0.402670       -10.9572
  21   2.0000      -0.372625       -10.1396
  22   2.0000      -0.349497        -9.5103
  23   2.0000      -0.295085        -8.0297
  24   2.0000      -0.291916        -7.9434
  25   2.0000      -0.254167        -6.9162
  26   2.0000      -0.239491        -6.5169
  27   2.0000      -0.235528        -6.4090
  28   2.0000      -0.197634        -5.3779
  29   0.0000       0.203891         5.5482
  30   0.0000       0.225469         6.1353
  31   0.0000       0.228083         6.2065
  32   0.0000       0.235195         6.4000
  33   0.0000       0.255982         6.9656

MULLIKEN ATOMIC CHARGES
-----------------------
   0 C :    0.509627
   1 C :   -0.522649
   2 H :    0.028028
   3 H :    0.078947
   4 S :    1.214155
   5 O :   -0.804537
   6 O :   -0.764213
   7 O :   -0.747063
   8 H :    0.014591
   9 H :   -0.018648
  10 H :    0.011763
Sum of atomic charges:   -1.0000000

LOEWDIN ATOMIC CHARGES
----------------------
   0 C :    0.072650
   1 C :   -0.163386
   2 H :    0.018065
   3 H :    0.023264
   4 S :    0.837078
   5 O :   -0.598582
   6 O :   -0.586067
   7 O :   -0.568411
   8 H :   -0.007928
   9 H :   -0.020129
  10 H :   -0.006554

  Mayer bond orders larger than 0.100000
B(  0-C ,  1-C ) :   1.2651 B(  0-C ,  8-H ) :   0.8553 B(  0-C ,  9-H ) :   0.7969
B(  0-C , 10-H ) :   0.8649 B(  1-C ,  2-H ) :   1.0165 B(  1-C ,  3-H ) :   0.9867
B(  1-C ,  4-S ) :   0.9534 B(  1-C ,  8-H ) :   0.1638 B(  1-C ,  9-H ) :   0.1696
B(  1-C , 10-H ) :   0.1580 B(  4-S ,  5-O ) :   1.2952 B(  4-S ,  6-O ) :   1.3643
B(  4-S ,  7-O ) :   1.3402

FINAL SINGLE POINT ENERGY      -701.577419360999

DIPOLE MOMENT
-------------
                                X             Y             Z
Electronic contribution:     -0.39643       0.78336      -7.63726
Nuclear contribution   :      0.07504      -1.14369       9.75001
                        -----------------------------------------
Total Dipole Moment    :     -0.32139      -0.36033       2.11275
                        -----------------------------------------
Magnitude (a.u.)       :      2.16722
Magnitude (Debye)      :      5.50863

Rotational constants in cm-1:     0.160553     0.082191     0.080550
Rotational constants in MHz :  4813.250478  2464.013016  2414.833054

                             ****ORCA TERMINATED NORMALLY****
TOTAL RUN TIME: 0 days 0 hours 0 minutes 24 seconds 273 msec
