                         Program Version 5.0.0 -  RELEASE  -
|  1> !LC-PBE RIJCOSX def2-SVPD def2/J TightSCF
|  2> *xyz 1 1
|  3> C          5.55821       -1.99291       -6.21505
|  4> C          4.18188       -2.58967       -6.29891
|  5> N          3.14587       -1.76843       -6.48675
|  6> N          4.01910       -3.86431       -6.22743
|  7> H          4.76849       -4.59115       -5.99077
|  8> H          3.12241       -4.33339       -6.31462
|  9> H          3.28164       -0.77779       -6.56655
| 10> H          2.21255       -2.13419       -6.56225
| 11> C          6.41926       -2.54294       -5.07763
| 12> H          6.03683       -2.19819       -7.17685
| 13> H          5.46761       -0.90737       -6.12797
| 14> H          6.50056       -3.60553       -5.17358
| 15> H          5.96544       -2.30329       -4.13874
| 16> H          7.39438       -2.10494       -5.12457
| 17> *
| 18>
| 19> %MaxCore 64000
| 20>
| 21> %pal nprocs 4
| 22> end
| 23>
| 24> %scf
| 25>   MaxIter 150
| 26> end
| 27>
| 28>
| 29>                          ****END OF INPUT****

CARTESIAN COORDINATES (ANGSTROEM)
---------------------------------
  C      5.558210   -1.992910   -6.215050
  C      4.181880   -2.589670   -6.298910
  N      3.145870   -1.768430   -6.486750
  N      4.019100   -3.864310   -6.227430
  H      4.768490   -4.591150   -5.990770
  H      3.122410   -4.333390   -6.314620
  H      3.281640   -0.777790   -6.566550
  H      2.212550   -2.134190   -6.562250
  C      6.419260   -2.542940   -5.077630
  H      6.036830   -2.198190   -7.176850
  H      5.467610   -0.907370   -6.127970
  H      6.500560   -3.605530   -5.173580
  H      5.965440   -2.303290   -4.138740
  H      7.394380   -2.104940   -5.124570

 Total Charge           Charge          ....    1
 Multiplicity           Mult            ....    1
 Number of Electrons    NEL             ....   40
 Basis Dimension        Dim             ....  172

ORBITAL ENERGIES
----------------

  NO   OCC          E(Eh)            E(eV)
   0   2.0000     -14.482842      -394.0982
   1   2.0000     -14.470611      -393.7653
   2   2.0000     -10.461779      -284.6795
   3   2.0000     -10.327532      -281.0264
   4   2.0000     -10.282360      -279.7973
   5   2.0000      -1.375542       -37.4304
   6   2.0000      -1.267444       -34.4889
   7   2.0000      -1.141183       -31.0532
   8   2.0000      -1.025032       -27.8925
   9   2.0000      -0.973072       -26.4786
  10   2.0000      -0.925884       -25.1946
  11   2.0000      -0.896008       -24.3816
  12   2.0000      -0.839219       -22.8363
  13   2.0000      -0.806813       -21.9545
  14   2.0000      -0.764093       -20.7920
  15   2.0000      -0.747324       -20.3357
  16   2.0000      -0.684964       -18.6388
  17   2.0000      -0.672200       -18.2915
  18   2.0000      -0.653939       -17.7946
  19   2.0000      -0.623722       -16.9723
  20   0.0000      -0.116259        -3.1636
  21   0.0000      -0.076832        -2.0907
  22   0.0000      -0.041827        -1.1382
  23   0.0000      -0.033743        -0.9182
  24   0.0000      -0.008730        -0.2376

MULLIKEN ATOMIC CHARGES
-----------------------
   0 C :   -0.531803
   1 C :    0.813302
   2 N :   -0.058689
   3 N :    0.002405
   4 H :    0.113651
   5 H :   -0.102853
   6 H :    0.060280
   7 H :   -0.084316
   8 C :    0.483392
   9 H :    0.108881
  10 H :    0.144262
  11 H :   -0.068561
  12 H :    0.026437
  13 H :    0.093611
Sum of atomic charges:    1.0000000

LOEWDIN ATOMIC CHARGES
----------------------
   0 C :   -0.012240
   1 C :   -0.042564
   2 N :    0.268091
   3 N :    0.248105
   4 H :    0.106816
   5 H :    0.060020
   6 H :    0.048315
   7 H :    0.048290
   8 C :    0.131655
   9 H :    0.068738
  10 H :    0.050458
  11 H :   -0.011254
  12 H :    0.015124
  13 H :    0.020447

  Mayer bond orders larger than 0.100000
B(  0-C ,  1-C ) :   1.0704 B(  0-C ,  8-C ) :   1.3206 B(  0-C ,  9-H ) :   0.9156
B(  0-C , 10-H ) :   0.9047 B(  0-C , 11-H ) :   0.1467 B(  0-C , 12-H ) :   0.1656
B(  0-C , 13-H ) :   0.1356 B(  1-C ,  2-N ) :   1.0025 B(  1-C ,  3-N ) :   1.1134
B(  1-C ,  5-H ) :  -0.2279 B(  1-C ,  7-H ) :  -0.2103 B(  2-N ,  3-N ) :   0.1427
B(  2-N ,  6-H ) :   1.0989 B(  2-N ,  7-H ) :   1.3228 B(  3-N ,  4-H ) :   1.0930
B(  3-N ,  5-H ) :   1.3029 B(  4-H ,  5-H ) :  -0.1685 B(  6-H ,  7-H ) :  -0.1744
B(  8-C , 11-H ) :   0.8749 B(  8-C , 12-H ) :   0.8116 B(  8-C , 13-H ) :   0.8458

FINAL SINGLE POINT ENERGY      -228.133176255745

DIPOLE MOMENT
-------------
                                X             Y             Z
Electronic contribution:     -3.78105      -0.49024      -1.57303
Nuclear contribution   :      2.76041       0.12669       1.26265
                        -----------------------------------------
Total Dipole Moment    :     -1.02064      -0.36355      -0.31038
                        -----------------------------------------
Magnitude (a.u.)       :      1.12703
Magnitude (Debye)      :      2.86469

Rotational constants in cm-1:     0.280918     0.124524     0.094121
Rotational constants in MHz :  8421.697738  3733.133254  2821.684112

                             ****ORCA TERMINATED NORMALLY****
TOTAL RUN TIME: 0 days 0 hours 0 minutes 24 seconds 90 msec
