                         Program Version 5.0.0 -  RELEASE  -
|  1> !LC-PBE RIJCOSX def2-SVPD def2/J TightSCF xyzfile
|  2>
|  3> *xyzfile 0 1 B.xyz
|  4>
|  5> %MaxCore 64000
|  6>
|  7> %pal nprocs 4
|  8> end
|  9>
| 10> %scf
| 11>   MaxIter 150
| 12> end
| 13>
| 14>
| 15>                          ****END OF INPUT****

CARTESIAN COORDINATES (ANGSTROEM)
---------------------------------
  C      5.558206   -1.992914   -6.215054
  C      4.930199   -7.375319   -2.649623
  C      3.841892   -6.951611   -3.632829
  H      3.458144   -5.954425   -3.407121
  H      2.988484   -7.643606   -3.567078
  S      4.318115   -6.915930   -5.368692
  C      4.181880   -2.589671   -6.298911
  N      3.145873   -1.768431   -6.486753
  N      4.019102   -3.864307   -6.227427
  H      4.768490   -4.591153   -5.990773
  H      3.122405   -4.333392   -6.314620
  H      3.281635   -0.777786   -6.566549
  H      2.212549   -2.134193   -6.562246
  O      5.406154   -5.899480   -5.512972
  O      3.111910   -6.445079   -6.043792
  C      6.419260   -2.542944   -5.077630
  C      5.872267   -5.002756   -2.427819
  C      6.173994   -6.485522   -2.606315
  H      6.734852   -6.613767   -3.534015
  H      6.821463   -6.831018   -1.793617
  H      4.469612   -7.406168   -1.655876
  H      5.230134   -8.398678   -2.885906
  C      5.896512   -2.169314   -3.694552
  H      7.428880   -2.143665   -5.208078
  H      6.505894   -3.627541   -5.175502
  C      6.807804   -2.623428   -2.551019
  H      4.894708   -2.589732   -3.557501
  H      5.778823   -1.081255   -3.635790
  C      7.111544   -4.122463   -2.520363
  H      7.751615   -2.071393   -2.614406
  H      6.345837   -2.326401   -1.604086
  H      5.362882   -4.828697   -1.471335
  H      5.174429   -4.702577   -3.211298
  H      7.778329   -4.329347   -1.677651
  H      7.673189   -4.402845   -3.417586
  O      4.763396   -8.239424   -5.698629
  H      6.036826   -2.198189   -7.176852
  H      5.467610   -0.907371   -6.127968

 Total Charge           Charge          ....    0
 Multiplicity           Mult            ....    1
 Number of Electrons    NEL             ....  136
 Basis Dimension        Dim             ....  512

ORBITAL ENERGIES
----------------

  NO   OCC          E(Eh)            E(eV)
   0   2.0000     -88.472327     -2407.4544
   1   2.0000     -18.940430      -515.3953
   2   2.0000     -18.929159      -515.0886
   3   2.0000     -18.921356      -514.8763
   4   2.0000     -14.321964      -389.7205
   5   2.0000     -14.283134      -388.6638
   6   2.0000     -10.296974      -280.1949
   7   2.0000     -10.187911      -277.2272
   8   2.0000     -10.154643      -276.3219
   9   2.0000     -10.142441      -275.9899
  10   2.0000     -10.130653      -275.6691
  11   2.0000     -10.127959      -275.5958
  12   2.0000     -10.118316      -275.3334
  13   2.0000     -10.113606      -275.2052
  14   2.0000     -10.110517      -275.1211
  15   2.0000     -10.103201      -274.9221
  16   2.0000      -8.092783      -220.2158
  17   2.0000      -6.116149      -166.4289
  18   2.0000      -6.114839      -166.3932
  19   2.0000      -6.114004      -166.3705
  20   2.0000      -1.267042       -34.4780
  21   2.0000      -1.211572       -32.9686
  22   2.0000      -1.113050       -30.2876
  23   2.0000      -1.102904       -30.0115
  24   2.0000      -1.094622       -29.7862
  25   2.0000      -1.018717       -27.7207
  26   2.0000      -0.983155       -26.7530
  27   2.0000      -0.958494       -26.0819
  28   2.0000      -0.913574       -24.8596
  29   2.0000      -0.874254       -23.7897
  30   2.0000      -0.837708       -22.7952
  31   2.0000      -0.816443       -22.2165
  32   2.0000      -0.787925       -21.4405
  33   2.0000      -0.761793       -20.7294
  34   2.0000      -0.750705       -20.4277
  35   2.0000      -0.733295       -19.9540
  36   2.0000      -0.715272       -19.4635
  37   2.0000      -0.692114       -18.8334
  38   2.0000      -0.664164       -18.0728
  39   2.0000      -0.656181       -17.8556
  40   2.0000      -0.638953       -17.3868
  41   2.0000      -0.622203       -16.9310
  42   2.0000      -0.619928       -16.8691
  43   2.0000      -0.602626       -16.3983
  44   2.0000      -0.593807       -16.1583
  45   2.0000      -0.586598       -15.9622
  46   2.0000      -0.576475       -15.6867
  47   2.0000      -0.572166       -15.5694
  48   2.0000      -0.557690       -15.1755
  49   2.0000      -0.539156       -14.6712
  50   2.0000      -0.536288       -14.5932
  51   2.0000      -0.532535       -14.4910
  52   2.0000      -0.509767       -13.8715
  53   2.0000      -0.501869       -13.6565
  54   2.0000      -0.496275       -13.5043
  55   2.0000      -0.474031       -12.8990
  56   2.0000      -0.468200       -12.7404
  57   2.0000      -0.461544       -12.5593
  58   2.0000      -0.460193       -12.5225
  59   2.0000      -0.449873       -12.2417
  60   2.0000      -0.449007       -12.2181
  61   2.0000      -0.441014       -12.0006
  62   2.0000      -0.431490       -11.7414
  63   2.0000      -0.429071       -11.6756
  64   2.0000      -0.402483       -10.9521
  65   2.0000      -0.400568       -10.9000
  66   2.0000      -0.381361       -10.3774
  67   2.0000      -0.365303        -9.9404
  68   0.0000       0.038764         1.0548
  69   0.0000       0.050216         1.3665
  70   0.0000       0.080983         2.2037
  71   0.0000       0.090280         2.4566
  72   0.0000       0.095784         2.6064

MULLIKEN ATOMIC CHARGES
-----------------------
   0 C :    0.255074
   1 C :    0.309528
   2 C :   -0.159908
   3 H :    0.256841
   4 H :   -0.110743
   5 S :    1.235521
   6 C :    0.632680
   7 N :    0.015336
   8 N :    0.470793
   9 H :   -0.040183
  10 H :   -0.195660
  11 H :   -0.025869
  12 H :   -0.104447
  13 O :   -0.942307
  14 O :   -0.799168
  15 C :    0.219964
  16 C :   -0.131975
  17 C :    0.061592
  18 H :    0.154532
  19 H :   -0.227512
  20 H :    0.130321
  21 H :    0.083471
  22 C :   -0.224073
  23 H :   -0.036198
  24 H :   -0.493038
  25 C :    0.423447
  26 H :    0.192643
  27 H :   -0.222888
  28 C :   -0.048863
  29 H :    0.108736
  30 H :    0.036997
  31 H :    0.075138
  32 H :   -0.280406
  33 H :   -0.197422
  34 H :    0.160610
  35 O :   -0.774575
  36 H :    0.025384
  37 H :    0.166625
Sum of atomic charges:    0.0000000

LOEWDIN ATOMIC CHARGES
----------------------
   0 C :    0.021406
   1 C :   -0.052906
   2 C :   -0.092664
   3 H :    0.015425
   4 H :    0.039776
   5 S :    0.930497
   6 C :   -0.050240
   7 N :    0.235328
   8 N :    0.290674
   9 H :   -0.086681
  10 H :    0.009037
  11 H :    0.025217
  12 H :    0.033746
  13 O :   -0.514195
  14 O :   -0.537976
  15 C :   -0.029945
  16 C :   -0.058952
  17 C :   -0.051777
  18 H :    0.025750
  19 H :    0.037420
  20 H :    0.037463
  21 H :    0.040335
  22 C :   -0.057294
  23 H :    0.049741
  24 H :    0.011996
  25 C :   -0.052591
  26 H :    0.025097
  27 H :    0.033353
  28 C :   -0.053716
  29 H :    0.034443
  30 H :    0.035730
  31 H :    0.047359
  32 H :   -0.010095
  33 H :    0.037502
  34 H :    0.032912
  35 O :   -0.499037
  36 H :    0.060710
  37 H :    0.037151

  Mayer bond orders larger than 0.100000
B(  0-C ,  6-C ) :   1.0130 B(  0-C , 15-C ) :   1.2502 B(  0-C , 24-H ) :   0.1007
B(  0-C , 36-H ) :   0.7154 B(  0-C , 37-H ) :   0.7756 B(  1-C ,  2-C ) :   1.2444
B(  1-C ,  4-H ) :   0.1335 B(  1-C , 17-C ) :   1.2368 B(  1-C , 20-H ) :   0.7614
B(  1-C , 21-H ) :   0.7251 B(  2-C ,  3-H ) :   0.8086 B(  2-C ,  4-H ) :   0.9378
B(  2-C ,  5-S ) :   0.9926 B(  2-C , 20-H ) :   0.1428 B(  2-C , 21-H ) :   0.1032
B(  2-C , 35-O ) :   0.1174 B(  4-H ,  5-S ) :   0.1144 B(  5-S , 13-O ) :   1.0396
B(  5-S , 14-O ) :   1.3008 B(  5-S , 35-O ) :   1.4285 B(  6-C ,  7-N ) :   0.9540
B(  6-C ,  8-N ) :   1.3384 B(  6-C ,  9-H ) :  -0.2320 B(  6-C , 10-H ) :  -0.3214
B(  6-C , 12-H ) :  -0.1740 B(  6-C , 36-H ) :   0.1738 B(  6-C , 37-H ) :   0.1113
B(  7-N ,  8-N ) :   0.1394 B(  7-N , 11-H ) :   1.1697 B(  7-N , 12-H ) :   1.3057
B(  8-N ,  9-H ) :   0.9612 B(  8-N , 10-H ) :   1.1774 B(  8-N , 24-H ) :   0.1021
B(  9-H , 10-H ) :  -0.2289 B(  9-H , 13-O ) :   0.2268 B( 10-H , 14-O ) :   0.1660
B( 11-H , 12-H ) :  -0.1713 B( 13-O , 14-O ) :   0.1349 B( 13-O , 24-H ) :   0.1796
B( 15-C , 22-C ) :   1.2402 B( 15-C , 23-H ) :   0.8338 B( 15-C , 24-H ) :   0.7513
B( 15-C , 26-H ) :   0.1018 B( 15-C , 27-H ) :   0.1614 B( 15-C , 36-H ) :   0.2304
B( 15-C , 37-H ) :   0.1510 B( 16-C , 17-C ) :   1.2329 B( 16-C , 19-H ) :   0.1597
B( 16-C , 28-C ) :   1.2491 B( 16-C , 31-H ) :   0.8091 B( 16-C , 32-H ) :   1.0054
B( 16-C , 33-H ) :   0.1897 B( 16-C , 34-H ) :   0.1029 B( 17-C , 18-H ) :   0.8531
B( 17-C , 19-H ) :   0.9486 B( 17-C , 21-H ) :   0.2083 B( 17-C , 28-C ) :   0.1183
B( 22-C , 23-H ) :   0.1313 B( 22-C , 24-H ) :   0.1742 B( 22-C , 25-C ) :   1.1124
B( 22-C , 26-H ) :   0.8356 B( 22-C , 27-H ) :   1.0867 B( 22-C , 29-H ) :   0.1184
B( 22-C , 30-H ) :   0.1952 B( 25-C , 28-C ) :   1.1428 B( 25-C , 29-H ) :   0.7300
B( 25-C , 30-H ) :   0.7726 B( 26-H , 32-H ) :   0.1387 B( 28-C , 29-H ) :   0.1771
B( 28-C , 30-H ) :   0.1121 B( 28-C , 33-H ) :   1.0233 B( 28-C , 34-H ) :   0.8420
B( 31-H , 32-H ) :   0.1412

FINAL SINGLE POINT ENERGY     -1124.447554103081

DIPOLE MOMENT
-------------
                                X             Y             Z
Electronic contribution:     -9.21455     -11.35090     -14.08006
Nuclear contribution   :      8.53517      16.50844      14.36520
                        -----------------------------------------
Total Dipole Moment    :     -0.67938       5.15754       0.28513
                        -----------------------------------------
Magnitude (a.u.)       :      5.20990
Magnitude (Debye)      :     13.24252

Rotational constants in cm-1:     0.017951     0.012436     0.008288
Rotational constants in MHz :   538.163255   372.824050   248.467077

                             ****ORCA TERMINATED NORMALLY****
TOTAL RUN TIME: 0 days 0 hours 5 minutes 6 seconds 309 msec
