                         Program Version 5.0.0 -  RELEASE  -
|  1> !LC-PBE RIJCOSX def2-SVPD def2/J TightSCF
|  2> *xyz 0 1
|  3> C          4.93020       -7.37532       -2.64962
|  4> C          3.84189       -6.95161       -3.63283
|  5> H          3.45814       -5.95442       -3.40712
|  6> H          2.98848       -7.64361       -3.56708
|  7> S          4.31812       -6.91593       -5.36869
|  8> F          5.40615       -5.89948       -5.51297
|  9> O          3.11191       -6.44508       -6.04379
| 10> O          4.76340       -8.23942       -5.69863
| 11> H          5.27901       -8.35440       -2.90385
| 12> H          4.53000       -7.38577       -1.65734
| 13> H          5.74437       -6.68276       -2.69856
| 14> *
| 15>
| 16> %MaxCore 64000
| 17>
| 18> %pal nprocs 4
| 19> end
| 20>
| 21> %scf
| 22>   MaxIter 150
| 23> end
| 24>
| 25>
| 26>                          ****END OF INPUT****

CARTESIAN COORDINATES (ANGSTROEM)
---------------------------------
  C      4.930200   -7.375320   -2.649620
  C      3.841890   -6.951610   -3.632830
  H      3.458140   -5.954420   -3.407120
  H      2.988480   -7.643610   -3.567080
  S      4.318120   -6.915930   -5.368690
  F      5.406150   -5.899480   -5.512970
  O      3.111910   -6.445080   -6.043790
  O      4.763400   -8.239420   -5.698630
  H      5.279010   -8.354400   -2.903850
  H      4.530000   -7.385770   -1.657340
  H      5.744370   -6.682760   -2.698560

 Total Charge           Charge          ....    0
 Multiplicity           Mult            ....    1
 Number of Electrons    NEL             ....   58
 Basis Dimension        Dim             ....  176

ORBITAL ENERGIES
----------------

  NO   OCC          E(Eh)            E(eV)
   0   2.0000     -88.575173     -2410.2530
   1   2.0000     -24.609838      -669.6677
   2   2.0000     -19.015079      -517.4266
   3   2.0000     -19.005065      -517.1541
   4   2.0000     -10.201257      -277.5903
   5   2.0000     -10.153907      -276.3019
   6   2.0000      -8.197613      -223.0684
   7   2.0000      -6.224533      -169.3782
   8   2.0000      -6.217594      -169.1893
   9   2.0000      -6.216459      -169.1585
  10   2.0000      -1.502309       -40.8799
  11   2.0000      -1.291090       -35.1323
  12   2.0000      -1.186838       -32.2955
  13   2.0000      -1.004555       -27.3353
  14   2.0000      -0.886171       -24.1139
  15   2.0000      -0.837912       -22.8008
  16   2.0000      -0.740277       -20.1440
  17   2.0000      -0.719307       -19.5733
  18   2.0000      -0.701161       -19.0796
  19   2.0000      -0.646869       -17.6022
  20   2.0000      -0.631150       -17.1745
  21   2.0000      -0.605657       -16.4808
  22   2.0000      -0.582368       -15.8470
  23   2.0000      -0.552007       -15.0209
  24   2.0000      -0.546205       -14.8630
  25   2.0000      -0.519416       -14.1340
  26   2.0000      -0.482178       -13.1207
  27   2.0000      -0.465795       -12.6749
  28   2.0000      -0.458652       -12.4806
  29   0.0000       0.061466         1.6726
  30   0.0000       0.089096         2.4244
  31   0.0000       0.092979         2.5301
  32   0.0000       0.094421         2.5693
  33   0.0000       0.118610         3.2275

MULLIKEN ATOMIC CHARGES
-----------------------
   0 C :    0.507732
   1 C :   -0.564668
   2 H :    0.081979
   3 H :    0.143724
   4 S :    1.383721
   5 F :   -0.387662
   6 O :   -0.631822
   7 O :   -0.621350
   8 H :    0.045540
   9 H :    0.026670
  10 H :    0.016135
Sum of atomic charges:   -0.0000000

LOEWDIN ATOMIC CHARGES
----------------------
   0 C :    0.101141
   1 C :   -0.114852
   2 H :    0.035953
   3 H :    0.054555
   4 S :    1.098308
   5 F :   -0.262660
   6 O :   -0.472833
   7 O :   -0.455790
   8 H :    0.006133
   9 H :    0.006929
  10 H :    0.003116

  Mayer bond orders larger than 0.100000
B(  0-C ,  1-C ) :   1.2843 B(  0-C ,  8-H ) :   0.8599 B(  0-C ,  9-H ) :   0.8023
B(  0-C , 10-H ) :   0.8608 B(  1-C ,  2-H ) :   1.0053 B(  1-C ,  3-H ) :   0.9672
B(  1-C ,  4-S ) :   1.0160 B(  1-C ,  8-H ) :   0.1576 B(  1-C ,  9-H ) :   0.1605
B(  1-C , 10-H ) :   0.1486 B(  4-S ,  5-F ) :   0.6544 B(  4-S ,  6-O ) :   1.5773
B(  4-S ,  7-O ) :   1.5629

FINAL SINGLE POINT ENERGY      -726.050445440191

DIPOLE MOMENT
-------------
                                X             Y             Z
Electronic contribution:      1.30532       2.64162      -8.63903
Nuclear contribution   :     -0.98922      -2.24849      10.35711
                        -----------------------------------------
Total Dipole Moment    :      0.31610       0.39312       1.71808
                        -----------------------------------------
Magnitude (a.u.)       :      1.79060
Magnitude (Debye)      :      4.55134

Rotational constants in cm-1:     0.151436     0.080885     0.078670
Rotational constants in MHz :  4539.936009  2424.868817  2358.476812

                             ****ORCA TERMINATED NORMALLY****
TOTAL RUN TIME: 0 days 0 hours 0 minutes 23 seconds 12 msec
