                         Program Version 5.0.0 -  RELEASE  -
|  1> !LC-PBE RIJCOSX def2-SVPD def2/J TightSCF
|  2> *xyz 0 1
|  3> C          5.55821       -1.99291       -6.21505
|  4> C          4.18188       -2.58967       -6.29891
|  5> C          3.14587       -1.76843       -6.48675
|  6> N          4.01910       -3.86431       -6.22743
|  7> H          4.76849       -4.59115       -5.99077
|  8> H          3.12241       -4.33339       -6.31462
|  9> H          3.28164       -0.77779       -6.56655
| 10> H          2.21255       -2.13419       -6.56225
| 11> C          6.41926       -2.54294       -5.07763
| 12> H          6.03683       -2.19819       -7.17685
| 13> H          5.46761       -0.90737       -6.12797
| 14> H          6.50056       -3.60553       -5.17358
| 15> H          5.96544       -2.30329       -4.13874
| 16> H          7.39438       -2.10494       -5.12457
| 17> *
| 18>
| 19> %MaxCore 64000
| 20>
| 21> %pal nprocs 4
| 22> end
| 23>
| 24> %scf
| 25>   MaxIter 150
| 26> end
| 27>
| 28>
| 29>                          ****END OF INPUT****

CARTESIAN COORDINATES (ANGSTROEM)
---------------------------------
  C      5.558210   -1.992910   -6.215050
  C      4.181880   -2.589670   -6.298910
  C      3.145870   -1.768430   -6.486750
  N      4.019100   -3.864310   -6.227430
  H      4.768490   -4.591150   -5.990770
  H      3.122410   -4.333390   -6.314620
  H      3.281640   -0.777790   -6.566550
  H      2.212550   -2.134190   -6.562250
  C      6.419260   -2.542940   -5.077630
  H      6.036830   -2.198190   -7.176850
  H      5.467610   -0.907370   -6.127970
  H      6.500560   -3.605530   -5.173580
  H      5.965440   -2.303290   -4.138740
  H      7.394380   -2.104940   -5.124570

 Total Charge           Charge          ....    0
 Multiplicity           Mult            ....    1
 Number of Electrons    NEL             ....   40
 Basis Dimension        Dim             ....  172

ORBITAL ENERGIES
----------------

  NO   OCC          E(Eh)            E(eV)
   0   2.0000     -14.236528      -387.3956
   1   2.0000     -10.154934      -276.3298
   2   2.0000     -10.127198      -275.5751
   3   2.0000     -10.115962      -275.2693
   4   2.0000     -10.054286      -273.5910
   5   2.0000      -1.101695       -29.9786
   6   2.0000      -0.948593       -25.8125
   7   2.0000      -0.882948       -24.0262
   8   2.0000      -0.789750       -21.4902
   9   2.0000      -0.733903       -19.9705
  10   2.0000      -0.665682       -18.1141
  11   2.0000      -0.619928       -16.8691
  12   2.0000      -0.586957       -15.9719
  13   2.0000      -0.563108       -15.3229
  14   2.0000      -0.530032       -14.4229
  15   2.0000      -0.520099       -14.1526
  16   2.0000      -0.489935       -13.3318
  17   2.0000      -0.468860       -12.7583
  18   2.0000      -0.458286       -12.4706
  19   2.0000      -0.303851        -8.2682
  20   0.0000       0.087572         2.3829
  21   0.0000       0.116582         3.1724
  22   0.0000       0.119520         3.2523
  23   0.0000       0.133287         3.6269
  24   0.0000       0.146377         3.9831

MULLIKEN ATOMIC CHARGES
-----------------------
   0 C :   -0.276524
   1 C :   -0.089964
   2 C :    0.366408
   3 N :    0.124135
   4 H :   -0.039627
   5 H :   -0.188506
   6 H :   -0.160285
   7 H :   -0.375225
   8 C :    0.484611
   9 H :    0.016398
  10 H :    0.189246
  11 H :   -0.101086
  12 H :    0.008430
  13 H :    0.041989
Sum of atomic charges:   -0.0000000

LOEWDIN ATOMIC CHARGES
----------------------
   0 C :   -0.052899
   1 C :   -0.275139
   2 C :    0.147873
   3 N :    0.130995
   4 H :    0.051611
   5 H :    0.019831
   6 H :   -0.081926
   7 H :   -0.080365
   8 C :    0.094003
   9 H :    0.040943
  10 H :    0.035946
  11 H :   -0.026787
  12 H :    0.001321
  13 H :   -0.005405

  Mayer bond orders larger than 0.100000
B(  0-C ,  1-C ) :   1.1376 B(  0-C ,  8-C ) :   1.2810 B(  0-C ,  9-H ) :   0.8739
B(  0-C , 10-H ) :   0.8789 B(  0-C , 11-H ) :   0.1603 B(  0-C , 12-H ) :   0.1619
B(  0-C , 13-H ) :   0.1574 B(  1-C ,  2-C ) :   1.7554 B(  1-C ,  3-N ) :   1.2070
B(  1-C ,  5-H ) :  -0.1212 B(  1-C ,  7-H ) :   0.1982 B(  1-C ,  9-H ) :   0.1742
B(  2-C ,  3-N ) :   0.2339 B(  2-C ,  6-H ) :   1.0668 B(  2-C ,  7-H ) :   0.7070
B(  3-N ,  4-H ) :   1.1752 B(  3-N ,  5-H ) :   1.2549 B(  4-H ,  5-H ) :  -0.1546
B(  8-C , 11-H ) :   0.8669 B(  8-C , 12-H ) :   0.8220 B(  8-C , 13-H ) :   0.8274

FINAL SINGLE POINT ENERGY      -211.688266878031

DIPOLE MOMENT
-------------
                                X             Y             Z
Electronic contribution:     -2.01745      -1.06543      -1.02387
Nuclear contribution   :      2.41345       0.31141       1.16343
                        -----------------------------------------
Total Dipole Moment    :      0.39600      -0.75402       0.13956
                        -----------------------------------------
Magnitude (a.u.)       :      0.86304
Magnitude (Debye)      :      2.19367

Rotational constants in cm-1:     0.287957     0.129204     0.097498
Rotational constants in MHz :  8632.737925  3873.424745  2922.919500

                             ****ORCA TERMINATED NORMALLY****
TOTAL RUN TIME: 0 days 0 hours 0 minutes 24 seconds 245 msec
