                         Program Version 5.0.0 -  RELEASE  -
|  1> !LC-PBE RIJCOSX def2-SVPD def2/J TightSCF
|  2> *xyz 0 1
|  3> C          4.93020       -7.37532       -2.64962
|  4> C          3.84189       -6.95161       -3.63283
|  5> H          3.45814       -5.95442       -3.40712
|  6> H          2.98848       -7.64361       -3.56708
|  7> S          4.31812       -6.91593       -5.36869
|  8> O          5.40615       -5.89948       -5.51297
|  9> F          3.11191       -6.44508       -6.04379
| 10> O          4.76340       -8.23942       -5.69863
| 11> H          5.27901       -8.35440       -2.90385
| 12> H          4.53000       -7.38577       -1.65734
| 13> H          5.74437       -6.68276       -2.69856
| 14> *
| 15>
| 16> %MaxCore 64000
| 17>
| 18> %pal nprocs 4
| 19> end
| 20>
| 21> %scf
| 22>   MaxIter 150
| 23> end
| 24>
| 25>
| 26>                          ****END OF INPUT****

CARTESIAN COORDINATES (ANGSTROEM)
---------------------------------
  C      4.930200   -7.375320   -2.649620
  C      3.841890   -6.951610   -3.632830
  H      3.458140   -5.954420   -3.407120
  H      2.988480   -7.643610   -3.567080
  S      4.318120   -6.915930   -5.368690
  O      5.406150   -5.899480   -5.512970
  F      3.111910   -6.445080   -6.043790
  O      4.763400   -8.239420   -5.698630
  H      5.279010   -8.354400   -2.903850
  H      4.530000   -7.385770   -1.657340
  H      5.744370   -6.682760   -2.698560

 Total Charge           Charge          ....    0
 Multiplicity           Mult            ....    1
 Number of Electrons    NEL             ....   58
 Basis Dimension        Dim             ....  176

ORBITAL ENERGIES
----------------

  NO   OCC          E(Eh)            E(eV)
   0   2.0000     -88.576945     -2410.3012
   1   2.0000     -24.625221      -670.0863
   2   2.0000     -19.014668      -517.4154
   3   2.0000     -18.996646      -516.9250
   4   2.0000     -10.202531      -277.6250
   5   2.0000     -10.151830      -276.2453
   6   2.0000      -8.199478      -223.1191
   7   2.0000      -6.226513      -169.4320
   8   2.0000      -6.219385      -169.2381
   9   2.0000      -6.218106      -169.2033
  10   2.0000      -1.529756       -41.6268
  11   2.0000      -1.285316       -34.9752
  12   2.0000      -1.168044       -31.7841
  13   2.0000      -1.004292       -27.3282
  14   2.0000      -0.901083       -24.5197
  15   2.0000      -0.837865       -22.7995
  16   2.0000      -0.742812       -20.2129
  17   2.0000      -0.739632       -20.1264
  18   2.0000      -0.711180       -19.3522
  19   2.0000      -0.648138       -17.6367
  20   2.0000      -0.636513       -17.3204
  21   2.0000      -0.591203       -16.0874
  22   2.0000      -0.576693       -15.6926
  23   2.0000      -0.553419       -15.0593
  24   2.0000      -0.532705       -14.4956
  25   2.0000      -0.525950       -14.3118
  26   2.0000      -0.476327       -12.9615
  27   2.0000      -0.460260       -12.5243
  28   2.0000      -0.445234       -12.1154
  29   0.0000       0.062629         1.7042
  30   0.0000       0.085777         2.3341
  31   0.0000       0.092289         2.5113
  32   0.0000       0.095001         2.5851
  33   0.0000       0.121615         3.3093

MULLIKEN ATOMIC CHARGES
-----------------------
   0 C :    0.481546
   1 C :   -0.580930
   2 H :    0.090595
   3 H :    0.143888
   4 S :    1.403620
   5 O :   -0.666804
   6 F :   -0.372051
   7 O :   -0.609337
   8 H :    0.041838
   9 H :    0.028502
  10 H :    0.039133
Sum of atomic charges:   -0.0000000

LOEWDIN ATOMIC CHARGES
----------------------
   0 C :    0.116346
   1 C :   -0.126237
   2 H :    0.034930
   3 H :    0.040851
   4 S :    1.101086
   5 O :   -0.485074
   6 F :   -0.252535
   7 O :   -0.457451
   8 H :    0.008895
   9 H :    0.008885
  10 H :    0.010305

  Mayer bond orders larger than 0.100000
B(  0-C ,  1-C ) :   1.3295 B(  0-C ,  8-H ) :   0.8520 B(  0-C ,  9-H ) :   0.8080
B(  0-C , 10-H ) :   0.8630 B(  1-C ,  2-H ) :   0.9890 B(  1-C ,  3-H ) :   0.9541
B(  1-C ,  4-S ) :   0.9862 B(  1-C ,  8-H ) :   0.1568 B(  1-C ,  9-H ) :   0.1598
B(  1-C , 10-H ) :   0.1531 B(  4-S ,  5-O ) :   1.5094 B(  4-S ,  6-F ) :   0.7157
B(  4-S ,  7-O ) :   1.5595

FINAL SINGLE POINT ENERGY      -726.038194770874

DIPOLE MOMENT
-------------
                                X             Y             Z
Electronic contribution:     -2.65246       1.69417      -9.56714
Nuclear contribution   :      1.40145      -1.67996      10.91024
                        -----------------------------------------
Total Dipole Moment    :     -1.25101       0.01421       1.34310
                        -----------------------------------------
Magnitude (a.u.)       :      1.83553
Magnitude (Debye)      :      4.66554

Rotational constants in cm-1:     0.155875     0.079864     0.077188
Rotational constants in MHz :  4673.017506  2394.277415  2314.027118

                             ****ORCA TERMINATED NORMALLY****
TOTAL RUN TIME: 0 days 0 hours 0 minutes 24 seconds 663 msec
