                         Program Version 5.0.0 -  RELEASE  -
|  1> !LC-PBE RIJCOSX def2-SVPD def2/J TightSCF
|  2> *xyz 0 1
|  3> C          5.55821       -1.99291       -6.21505
|  4> C          4.18188       -2.58967       -6.29891
|  5> N          3.14587       -1.76843       -6.48675
|  6> C          4.01910       -3.86431       -6.22743
|  7> H          4.76849       -4.59115       -5.99077
|  8> H          3.12241       -4.33339       -6.31462
|  9> H          3.28164       -0.77779       -6.56655
| 10> H          2.21255       -2.13419       -6.56225
| 11> C          6.41926       -2.54294       -5.07763
| 12> H          6.03683       -2.19819       -7.17685
| 13> H          5.46761       -0.90737       -6.12797
| 14> H          6.50056       -3.60553       -5.17358
| 15> H          5.96544       -2.30329       -4.13874
| 16> H          7.39438       -2.10494       -5.12457
| 17> *
| 18>
| 19> %MaxCore 64000
| 20>
| 21> %pal nprocs 4
| 22> end
| 23>
| 24> %scf
| 25>   MaxIter 150
| 26> end
| 27>
| 28>
| 29>                          ****END OF INPUT****

CARTESIAN COORDINATES (ANGSTROEM)
---------------------------------
  C      5.558210   -1.992910   -6.215050
  C      4.181880   -2.589670   -6.298910
  N      3.145870   -1.768430   -6.486750
  C      4.019100   -3.864310   -6.227430
  H      4.768490   -4.591150   -5.990770
  H      3.122410   -4.333390   -6.314620
  H      3.281640   -0.777790   -6.566550
  H      2.212550   -2.134190   -6.562250
  C      6.419260   -2.542940   -5.077630
  H      6.036830   -2.198190   -7.176850
  H      5.467610   -0.907370   -6.127970
  H      6.500560   -3.605530   -5.173580
  H      5.965440   -2.303290   -4.138740
  H      7.394380   -2.104940   -5.124570

 Total Charge           Charge          ....    0
 Multiplicity           Mult            ....    1
 Number of Electrons    NEL             ....   40
 Basis Dimension        Dim             ....  172

ORBITAL ENERGIES
----------------

  NO   OCC          E(Eh)            E(eV)
   0   2.0000     -14.225404      -387.0929
   1   2.0000     -10.152160      -276.2543
   2   2.0000     -10.128142      -275.6007
   3   2.0000     -10.109585      -275.0958
   4   2.0000     -10.062710      -273.8203
   5   2.0000      -1.091568       -29.7031
   6   2.0000      -0.952269       -25.9126
   7   2.0000      -0.877454       -23.8767
   8   2.0000      -0.801497       -21.8098
   9   2.0000      -0.707622       -19.2554
  10   2.0000      -0.669303       -18.2127
  11   2.0000      -0.634638       -17.2694
  12   2.0000      -0.593559       -16.1516
  13   2.0000      -0.558155       -15.1882
  14   2.0000      -0.525266       -14.2932
  15   2.0000      -0.506908       -13.7937
  16   2.0000      -0.482860       -13.1393
  17   2.0000      -0.466390       -12.6911
  18   2.0000      -0.459467       -12.5027
  19   2.0000      -0.313912        -8.5420
  20   0.0000       0.093262         2.5378
  21   0.0000       0.114638         3.1195
  22   0.0000       0.121749         3.3130
  23   0.0000       0.132320         3.6006
  24   0.0000       0.148507         4.0411

MULLIKEN ATOMIC CHARGES
-----------------------
   0 C :   -0.241226
   1 C :    0.344207
   2 N :    0.093960
   3 C :   -0.033797
   4 H :   -0.012300
   5 H :   -0.423802
   6 H :   -0.105742
   7 H :   -0.143536
   8 C :    0.517857
   9 H :    0.012018
  10 H :    0.018975
  11 H :   -0.075376
  12 H :    0.002724
  13 H :    0.046039
Sum of atomic charges:   -0.0000000

LOEWDIN ATOMIC CHARGES
----------------------
   0 C :   -0.056542
   1 C :   -0.262498
   2 N :    0.155357
   3 C :    0.125525
   4 H :   -0.033605
   5 H :   -0.071967
   6 H :   -0.004810
   7 H :    0.009482
   8 C :    0.099064
   9 H :    0.042454
  10 H :    0.023827
  11 H :   -0.020264
  12 H :    0.000892
  13 H :   -0.006916

  Mayer bond orders larger than 0.100000
B(  0-C ,  1-C ) :   1.0215 B(  0-C ,  2-N ) :   0.1046 B(  0-C ,  8-C ) :   1.3060
B(  0-C ,  9-H ) :   0.9177 B(  0-C , 10-H ) :   0.8638 B(  0-C , 11-H ) :   0.1505
B(  0-C , 12-H ) :   0.1701 B(  0-C , 13-H ) :   0.1422 B(  1-C ,  2-N ) :   1.0234
B(  1-C ,  3-C ) :   1.6330 B(  1-C ,  7-H ) :  -0.1350 B(  1-C ,  9-H ) :   0.1175
B(  1-C , 10-H ) :   0.1049 B(  2-N ,  3-C ) :   0.2853 B(  2-N ,  6-H ) :   1.1319
B(  2-N ,  7-H ) :   1.2809 B(  3-C ,  4-H ) :   0.9423 B(  3-C ,  5-H ) :   0.8994
B(  4-H ,  5-H ) :  -0.1016 B(  6-H ,  7-H ) :  -0.1571 B(  8-C , 11-H ) :   0.8679
B(  8-C , 12-H ) :   0.8281 B(  8-C , 13-H ) :   0.8281

FINAL SINGLE POINT ENERGY      -211.698974106507

DIPOLE MOMENT
-------------
                                X             Y             Z
Electronic contribution:     -2.78761       0.78778      -1.28543
Nuclear contribution   :      2.61570      -0.17401       1.22349
                        -----------------------------------------
Total Dipole Moment    :     -0.17191       0.61377      -0.06194
                        -----------------------------------------
Magnitude (a.u.)       :      0.64039
Magnitude (Debye)      :      1.62775

Rotational constants in cm-1:     0.298189     0.125314     0.096441
Rotational constants in MHz :  8939.495008  3756.825352  2891.223400

                             ****ORCA TERMINATED NORMALLY****
TOTAL RUN TIME: 0 days 0 hours 0 minutes 23 seconds 762 msec
