                         Program Version 5.0.0 -  RELEASE  -
|  1> !LC-PBE RIJCOSX def2-SVPD def2/J TightSCF
|  2> *xyz 0 1
|  3> C          4.93020       -7.37532       -2.64962
|  4> C          3.84189       -6.95161       -3.63283
|  5> H          3.45814       -5.95442       -3.40712
|  6> H          2.98848       -7.64361       -3.56708
|  7> S          4.31812       -6.91593       -5.36869
|  8> O          5.40615       -5.89948       -5.51297
|  9> O          3.11191       -6.44508       -6.04379
| 10> F          4.76340       -8.23942       -5.69863
| 11> H          5.27901       -8.35440       -2.90385
| 12> H          4.53000       -7.38577       -1.65734
| 13> H          5.74437       -6.68276       -2.69856
| 14> *
| 15>
| 16> %MaxCore 64000
| 17>
| 18> %pal nprocs 4
| 19> end
| 20>
| 21> %scf
| 22>   MaxIter 150
| 23> end
| 24>
| 25>
| 26>                          ****END OF INPUT****

CARTESIAN COORDINATES (ANGSTROEM)
---------------------------------
  C      4.930200   -7.375320   -2.649620
  C      3.841890   -6.951610   -3.632830
  H      3.458140   -5.954420   -3.407120
  H      2.988480   -7.643610   -3.567080
  S      4.318120   -6.915930   -5.368690
  O      5.406150   -5.899480   -5.512970
  O      3.111910   -6.445080   -6.043790
  F      4.763400   -8.239420   -5.698630
  H      5.279010   -8.354400   -2.903850
  H      4.530000   -7.385770   -1.657340
  H      5.744370   -6.682760   -2.698560

 Total Charge           Charge          ....    0
 Multiplicity           Mult            ....    1
 Number of Electrons    NEL             ....   58
 Basis Dimension        Dim             ....  176

ORBITAL ENERGIES
----------------

  NO   OCC          E(Eh)            E(eV)
   0   2.0000     -88.578177     -2410.3347
   1   2.0000     -24.638481      -670.4472
   2   2.0000     -19.005421      -517.1638
   3   2.0000     -18.997435      -516.9465
   4   2.0000     -10.202753      -277.6310
   5   2.0000     -10.155150      -276.3357
   6   2.0000      -8.200755      -223.1539
   7   2.0000      -6.228026      -169.4732
   8   2.0000      -6.220435      -169.2666
   9   2.0000      -6.219242      -169.2342
  10   2.0000      -1.551588       -42.2208
  11   2.0000      -1.274979       -34.6939
  12   2.0000      -1.160144       -31.5691
  13   2.0000      -1.007166       -27.4064
  14   2.0000      -0.903169       -24.5765
  15   2.0000      -0.849861       -23.1259
  16   2.0000      -0.764769       -20.8104
  17   2.0000      -0.753805       -20.5121
  18   2.0000      -0.703948       -19.1554
  19   2.0000      -0.646269       -17.5859
  20   2.0000      -0.630666       -17.1613
  21   2.0000      -0.600960       -16.3530
  22   2.0000      -0.577289       -15.7088
  23   2.0000      -0.551208       -14.9991
  24   2.0000      -0.539149       -14.6710
  25   2.0000      -0.517034       -14.0692
  26   2.0000      -0.467670       -12.7260
  27   2.0000      -0.459757       -12.5106
  28   2.0000      -0.439393       -11.9565
  29   0.0000       0.059547         1.6203
  30   0.0000       0.086753         2.3607
  31   0.0000       0.091470         2.4890
  32   0.0000       0.095683         2.6037
  33   0.0000       0.122127         3.3232

MULLIKEN ATOMIC CHARGES
-----------------------
   0 C :    0.505953
   1 C :   -0.563181
   2 H :    0.090846
   3 H :    0.135836
   4 S :    1.373251
   5 O :   -0.661742
   6 O :   -0.614792
   7 F :   -0.355535
   8 H :    0.019345
   9 H :    0.027424
  10 H :    0.042594
Sum of atomic charges:   -0.0000000

LOEWDIN ATOMIC CHARGES
----------------------
   0 C :    0.101059
   1 C :   -0.115180
   2 H :    0.048685
   3 H :    0.041940
   4 S :    1.101115
   5 O :   -0.483234
   6 O :   -0.472581
   7 F :   -0.238386
   8 H :    0.001661
   9 H :    0.007169
  10 H :    0.007754

  Mayer bond orders larger than 0.100000
B(  0-C ,  1-C ) :   1.2817 B(  0-C ,  8-H ) :   0.8506 B(  0-C ,  9-H ) :   0.8030
B(  0-C , 10-H ) :   0.8706 B(  1-C ,  2-H ) :   1.0046 B(  1-C ,  3-H ) :   0.9698
B(  1-C ,  4-S ) :   1.0119 B(  1-C ,  8-H ) :   0.1522 B(  1-C ,  9-H ) :   0.1609
B(  1-C , 10-H ) :   0.1529 B(  4-S ,  5-O ) :   1.5204 B(  4-S ,  6-O ) :   1.5819
B(  4-S ,  7-F ) :   0.7180

FINAL SINGLE POINT ENERGY      -726.026324782388

DIPOLE MOMENT
-------------
                                X             Y             Z
Electronic contribution:      0.18479      -1.37137      -8.95769
Nuclear contribution   :     -0.31946       0.18980      10.55057
                        -----------------------------------------
Total Dipole Moment    :     -0.13467      -1.18157       1.59288
                        -----------------------------------------
Magnitude (a.u.)       :      1.98784
Magnitude (Debye)      :      5.05269

Rotational constants in cm-1:     0.151421     0.081183     0.078684
Rotational constants in MHz :  4539.489207  2433.790160  2358.892966

                             ****ORCA TERMINATED NORMALLY****
TOTAL RUN TIME: 0 days 0 hours 0 minutes 24 seconds 813 msec
