                         Program Version 5.0.0 -  RELEASE  -
|  1> !LC-PBE RIJCOSX def2-SVPD def2/J TightSCF xyzfile
|  2>
|  3> *xyzfile 0 1 D4.xyz
|  4>
|  5> %MaxCore 64000
|  6>
|  7> %pal nprocs 4
|  8> end
|  9>
| 10> %scf
| 11>   MaxIter 150
| 12> end
| 13>
| 14>
| 15>                          ****END OF INPUT****

CARTESIAN COORDINATES (ANGSTROEM)
---------------------------------
  C      5.558206   -1.992914   -6.215054
  C      4.930199   -7.375319   -2.649623
  C      3.841892   -6.951611   -3.632829
  H      3.458144   -5.954425   -3.407121
  H      2.988484   -7.643606   -3.567078
  S      4.318115   -6.915930   -5.368692
  C      4.181880   -2.589671   -6.298911
  N      3.145873   -1.768431   -6.486753
  C      4.019102   -3.864307   -6.227427
  H      4.768490   -4.591153   -5.990773
  H      3.122405   -4.333392   -6.314620
  H      3.281635   -0.777786   -6.566549
  H      2.212549   -2.134193   -6.562246
  O      5.406154   -5.899480   -5.512972
  F      3.111910   -6.445079   -6.043792
  C      6.419260   -2.542944   -5.077630
  C      5.872267   -5.002756   -2.427819
  C      6.173994   -6.485522   -2.606315
  H      6.734852   -6.613767   -3.534015
  H      6.821463   -6.831018   -1.793617
  H      4.469612   -7.406168   -1.655876
  H      5.230134   -8.398678   -2.885906
  C      5.896512   -2.169314   -3.694552
  H      7.428880   -2.143665   -5.208078
  H      6.505894   -3.627541   -5.175502
  C      6.807804   -2.623428   -2.551019
  H      4.894708   -2.589732   -3.557501
  H      5.778823   -1.081255   -3.635790
  C      7.111544   -4.122463   -2.520363
  H      7.751615   -2.071393   -2.614406
  H      6.345837   -2.326401   -1.604086
  H      5.362882   -4.828697   -1.471335
  H      5.174429   -4.702577   -3.211298
  H      7.778329   -4.329347   -1.677651
  H      7.673189   -4.402845   -3.417586
  O      4.763396   -8.239424   -5.698629
  H      6.036826   -2.198189   -7.176852
  H      5.467610   -0.907371   -6.127968

 Total Charge           Charge          ....    0
 Multiplicity           Mult            ....    1
 Number of Electrons    NEL             ....  136
 Basis Dimension        Dim             ....  512

ORBITAL ENERGIES
----------------

  NO   OCC          E(Eh)            E(eV)
   0   2.0000     -88.582284     -2410.4465
   1   2.0000     -24.624776      -670.0742
   2   2.0000     -19.016818      -517.4739
   3   2.0000     -18.999721      -517.0087
   4   2.0000     -14.214698      -386.8016
   5   2.0000     -10.197630      -277.4916
   6   2.0000     -10.157878      -276.4099
   7   2.0000     -10.136367      -275.8246
   8   2.0000     -10.127471      -275.5825
   9   2.0000     -10.119274      -275.3595
  10   2.0000     -10.115523      -275.2574
  11   2.0000     -10.115013      -275.2435
  12   2.0000     -10.114479      -275.2290
  13   2.0000     -10.109789      -275.1014
  14   2.0000     -10.109549      -275.0948
  15   2.0000     -10.029978      -272.9296
  16   2.0000      -8.202841      -223.2106
  17   2.0000      -6.229837      -169.5225
  18   2.0000      -6.223108      -169.3394
  19   2.0000      -6.221517      -169.2961
  20   2.0000      -1.529845       -41.6292
  21   2.0000      -1.288686       -35.0669
  22   2.0000      -1.178257       -32.0620
  23   2.0000      -1.079624       -29.3781
  24   2.0000      -1.017741       -27.6941
  25   2.0000      -0.984829       -26.7986
  26   2.0000      -0.953732       -25.9524
  27   2.0000      -0.926396       -25.2085
  28   2.0000      -0.888869       -24.1874
  29   2.0000      -0.870052       -23.6753
  30   2.0000      -0.844201       -22.9719
  31   2.0000      -0.814720       -22.1696
  32   2.0000      -0.778812       -21.1925
  33   2.0000      -0.759630       -20.6706
  34   2.0000      -0.745981       -20.2992
  35   2.0000      -0.725459       -19.7407
  36   2.0000      -0.719835       -19.5877
  37   2.0000      -0.704646       -19.1744
  38   2.0000      -0.688790       -18.7429
  39   2.0000      -0.662933       -18.0393
  40   2.0000      -0.647690       -17.6245
  41   2.0000      -0.643594       -17.5131
  42   2.0000      -0.627818       -17.0838
  43   2.0000      -0.616659       -16.7802
  44   2.0000      -0.603293       -16.4164
  45   2.0000      -0.594344       -16.1729
  46   2.0000      -0.590297       -16.0628
  47   2.0000      -0.569810       -15.5053
  48   2.0000      -0.555406       -15.1134
  49   2.0000      -0.551194       -14.9988
  50   2.0000      -0.548166       -14.9164
  51   2.0000      -0.531349       -14.4587
  52   2.0000      -0.526512       -14.3271
  53   2.0000      -0.508653       -13.8412
  54   2.0000      -0.501102       -13.6357
  55   2.0000      -0.491055       -13.3623
  56   2.0000      -0.483040       -13.1442
  57   2.0000      -0.477791       -13.0014
  58   2.0000      -0.474697       -12.9172
  59   2.0000      -0.466772       -12.7015
  60   2.0000      -0.453512       -12.3407
  61   2.0000      -0.451446       -12.2845
  62   2.0000      -0.448427       -12.2023
  63   2.0000      -0.433446       -11.7947
  64   2.0000      -0.427430       -11.6310
  65   2.0000      -0.424870       -11.5613
  66   2.0000      -0.398663       -10.8482
  67   2.0000      -0.298257        -8.1160
  68   0.0000       0.065455         1.7811
  69   0.0000       0.085645         2.3305
  70   0.0000       0.089225         2.4279
  71   0.0000       0.096646         2.6299
  72   0.0000       0.108711         2.9582

MULLIKEN ATOMIC CHARGES
-----------------------
   0 C :    0.600908
   1 C :    0.289416
   2 C :   -0.266443
   3 H :    0.324286
   4 H :   -0.050258
   5 S :    1.461689
   6 C :    0.158694
   7 N :    0.071094
   8 C :    0.971067
   9 H :   -0.239739
  10 H :   -0.993744
  11 H :   -0.091565
  12 H :   -0.146392
  13 O :   -0.794879
  14 F :   -0.436896
  15 C :    0.178289
  16 C :   -0.152417
  17 C :    0.080448
  18 H :    0.140732
  19 H :   -0.210434
  20 H :    0.148908
  21 H :    0.092746
  22 C :   -0.233942
  23 H :   -0.030339
  24 H :   -0.532159
  25 C :    0.446010
  26 H :    0.224337
  27 H :   -0.214843
  28 C :   -0.052160
  29 H :    0.108059
  30 H :    0.032101
  31 H :    0.080113
  32 H :   -0.269905
  33 H :   -0.200933
  34 H :    0.154761
  35 O :   -0.709487
  36 H :   -0.030409
  37 H :    0.093287
Sum of atomic charges:    0.0000000

LOEWDIN ATOMIC CHARGES
----------------------
   0 C :   -0.006272
   1 C :   -0.038403
   2 C :   -0.066604
   3 H :    0.030762
   4 H :    0.043706
   5 S :    1.148150
   6 C :   -0.242020
   7 N :    0.155814
   8 C :    0.146450
   9 H :   -0.159995
  10 H :   -0.083559
  11 H :   -0.008045
  12 H :    0.006472
  13 O :   -0.455342
  14 F :   -0.241302
  15 C :   -0.039418
  16 C :   -0.055552
  17 C :   -0.048945
  18 H :    0.027379
  19 H :    0.042313
  20 H :    0.049809
  21 H :    0.043731
  22 C :   -0.055130
  23 H :    0.040180
  24 H :    0.007506
  25 C :   -0.056374
  26 H :    0.024810
  27 H :    0.033609
  28 C :   -0.053864
  29 H :    0.033304
  30 H :    0.032206
  31 H :    0.048430
  32 H :   -0.004550
  33 H :    0.035293
  34 H :    0.032474
  35 O :   -0.437300
  36 H :    0.045352
  37 H :    0.024925

  Mayer bond orders larger than 0.100000
B(  0-C ,  6-C ) :   0.9911 B(  0-C ,  8-C ) :   0.1510 B(  0-C ,  9-H ) :  -0.1360
B(  0-C , 15-C ) :   1.2399 B(  0-C , 36-H ) :   0.6519 B(  0-C , 37-H ) :   0.7423
B(  1-C ,  2-C ) :   1.2964 B(  1-C ,  4-H ) :   0.1460 B(  1-C , 17-C ) :   1.2194
B(  1-C , 20-H ) :   0.7604 B(  1-C , 21-H ) :   0.7218 B(  2-C ,  3-H ) :   0.7749
B(  2-C ,  4-H ) :   0.9177 B(  2-C ,  5-S ) :   1.0167 B(  2-C , 20-H ) :   0.1477
B(  2-C , 35-O ) :   0.1031 B(  5-S , 13-O ) :   1.3348 B(  5-S , 14-F ) :   0.6763
B(  5-S , 35-O ) :   1.5674 B(  6-C ,  7-N ) :   0.8431 B(  6-C ,  8-C ) :   2.1278
B(  6-C ,  9-H ) :  -0.1612 B(  6-C , 10-H ) :   0.1272 B(  6-C , 12-H ) :  -0.1531
B(  6-C , 36-H ) :   0.2408 B(  7-N ,  8-C ) :   0.4626 B(  7-N ,  9-H ) :   0.1094
B(  7-N , 10-H ) :  -0.1069 B(  7-N , 11-H ) :   1.1375 B(  7-N , 12-H ) :   1.2950
B(  8-C ,  9-H ) :   0.5018 B(  8-C , 14-F ) :  -0.1632 B(  8-C , 24-H ) :   0.1519
B(  9-H , 10-H ) :  -0.2675 B(  9-H , 24-H ) :   0.1461 B( 10-H , 14-F ) :   0.2493
B( 10-H , 24-H ) :  -0.1255 B( 11-H , 12-H ) :  -0.1559 B( 13-O , 24-H ) :   0.1723
B( 13-O , 35-O ) :   0.1052 B( 15-C , 22-C ) :   1.2399 B( 15-C , 23-H ) :   0.8091
B( 15-C , 24-H ) :   0.7463 B( 15-C , 26-H ) :   0.1105 B( 15-C , 27-H ) :   0.1761
B( 15-C , 36-H ) :   0.2565 B( 15-C , 37-H ) :   0.1513 B( 16-C , 17-C ) :   1.2143
B( 16-C , 19-H ) :   0.1593 B( 16-C , 28-C ) :   1.2604 B( 16-C , 31-H ) :   0.8048
B( 16-C , 32-H ) :   1.0163 B( 16-C , 33-H ) :   0.1898 B( 16-C , 34-H ) :   0.1137
B( 17-C , 18-H ) :   0.8676 B( 17-C , 19-H ) :   0.9490 B( 17-C , 21-H ) :   0.2171
B( 17-C , 28-C ) :   0.1218 B( 22-C , 23-H ) :   0.1385 B( 22-C , 24-H ) :   0.1651
B( 22-C , 25-C ) :   1.1097 B( 22-C , 26-H ) :   0.8281 B( 22-C , 27-H ) :   1.1106
B( 22-C , 29-H ) :   0.1355 B( 22-C , 30-H ) :   0.2013 B( 25-C , 28-C ) :   1.1406
B( 25-C , 29-H ) :   0.7161 B( 25-C , 30-H ) :   0.7605 B( 26-H , 32-H ) :   0.1471
B( 28-C , 29-H ) :   0.1812 B( 28-C , 30-H ) :   0.1055 B( 28-C , 31-H ) :   0.1005
B( 28-C , 33-H ) :   1.0235 B( 28-C , 34-H ) :   0.8414 B( 31-H , 32-H ) :   0.1362

FINAL SINGLE POINT ENERGY     -1132.277918421673

DIPOLE MOMENT
-------------
                                X             Y             Z
Electronic contribution:    -11.74300     -18.15915     -14.55247
Nuclear contribution   :     10.61624      18.49702      15.75668
                        -----------------------------------------
Total Dipole Moment    :     -1.12676       0.33787       1.20420
                        -----------------------------------------
Magnitude (a.u.)       :      1.68340
Magnitude (Debye)      :      4.27887

Rotational constants in cm-1:     0.017796     0.012372     0.008231
Rotational constants in MHz :   533.524905   370.895973   246.762347

                             ****ORCA TERMINATED NORMALLY****
TOTAL RUN TIME: 0 days 0 hours 5 minutes 16 seconds 881 msec
