                         Program Version 5.0.0 -  RELEASE  -
|  1> !wB97X-D3 RIJCOSX def2-SVPD def2/J TightSCF
|  2> *xyz -1 1
|  3> C          4.90646       -3.10282       -5.95484
|  4> C          3.51177       -2.80621       -6.49228
|  5> H          2.73604       -3.37345       -5.97374
|  6> H          3.44490       -3.04083       -7.55528
|  7> S          3.00462       -1.09621       -6.38926
|  8> O          4.12886       -0.32965       -6.95372
|  9> O          1.78128       -1.00078       -7.13640
| 10> O          2.85155       -0.78368       -4.95679
| 11> H          5.62703       -2.52424       -6.49422
| 12> H          5.12164       -4.14387       -6.07654
| 13> H          4.95004       -2.84862       -4.91639
| 14> *
| 15>
| 16> %MaxCore 64000
| 17>
| 18> %pal nprocs 18
| 19> end
| 20>
| 21> %scf
| 22>   MaxIter 150
| 23> end
| 24>
| 25>
| 26>                          ****END OF INPUT****

CARTESIAN COORDINATES (ANGSTROEM)
---------------------------------
  C      4.906460   -3.102820   -5.954840
  C      3.511770   -2.806210   -6.492280
  H      2.736040   -3.373450   -5.973740
  H      3.444900   -3.040830   -7.555280
  S      3.004620   -1.096210   -6.389260
  O      4.128860   -0.329650   -6.953720
  O      1.781280   -1.000780   -7.136400
  O      2.851550   -0.783680   -4.956790
  H      5.627030   -2.524240   -6.494220
  H      5.121640   -4.143870   -6.076540
  H      4.950040   -2.848620   -4.916390

 Total Charge           Charge          ....   -1
 Multiplicity           Mult            ....    1
 Number of Electrons    NEL             ....   58
 Basis Dimension        Dim             ....  176

ORBITAL ENERGIES
----------------

  NO   OCC          E(Eh)            E(eV)
   0   2.0000     -88.975711     -2421.1522
   1   2.0000     -19.029113      -517.8085
   2   2.0000     -19.017143      -517.4828
   3   2.0000     -19.016812      -517.4738
   4   2.0000     -10.157095      -276.3886
   5   2.0000     -10.149189      -276.1735
   6   2.0000      -8.049492      -219.0378
   7   2.0000      -6.009013      -163.5136
   8   2.0000      -6.008977      -163.5126
   9   2.0000      -6.008478      -163.4990
  10   2.0000      -1.046373       -28.4732
  11   2.0000      -0.902402       -24.5556
  12   2.0000      -0.881293       -23.9812
  13   2.0000      -0.749591       -20.3974
  14   2.0000      -0.621900       -16.9227
  15   2.0000      -0.489287       -13.3142
  16   2.0000      -0.425766       -11.5857
  17   2.0000      -0.421709       -11.4753
  18   2.0000      -0.382224       -10.4008
  19   2.0000      -0.367378        -9.9969
  20   2.0000      -0.357874        -9.7383
  21   2.0000      -0.331130        -9.0105
  22   2.0000      -0.312977        -8.5165
  23   2.0000      -0.249710        -6.7949
  24   2.0000      -0.249075        -6.7777
  25   2.0000      -0.210908        -5.7391
  26   2.0000      -0.200470        -5.4551
  27   2.0000      -0.198136        -5.3915
  28   2.0000      -0.158706        -4.3186
  29   0.0000       0.207381         5.6431
  30   0.0000       0.228587         6.2202
  31   0.0000       0.232397         6.3238
  32   0.0000       0.238630         6.4935
  33   0.0000       0.260410         7.0861

MULLIKEN ATOMIC CHARGES
-----------------------
   0 C :    0.693393
   1 C :   -0.379272
   2 H :   -0.046904
   3 H :   -0.016573
   4 S :    1.344211
   5 O :   -0.832668
   6 O :   -0.790735
   7 O :   -0.831680
   8 H :   -0.028700
   9 H :   -0.080124
  10 H :   -0.030947
Sum of atomic charges:   -1.0000000

LOEWDIN ATOMIC CHARGES
----------------------
   0 C :    0.102485
   1 C :   -0.142363
   2 H :    0.007604
   3 H :    0.004588
   4 S :    0.859530
   5 O :   -0.592862
   6 O :   -0.576680
   7 O :   -0.596609
   8 H :   -0.020105
   9 H :   -0.031226
  10 H :   -0.014363

  Mayer bond orders larger than 0.100000
B(  0-C ,  1-C ) :   1.2428 B(  0-C ,  8-H ) :   0.8370 B(  0-C ,  9-H ) :   0.7671
B(  0-C , 10-H ) :   0.8259 B(  1-C ,  2-H ) :   0.9960 B(  1-C ,  3-H ) :   0.9931
B(  1-C ,  4-S ) :   0.9412 B(  1-C ,  8-H ) :   0.1881 B(  1-C ,  9-H ) :   0.1973
B(  1-C , 10-H ) :   0.1807 B(  4-S ,  5-O ) :   1.2899 B(  4-S ,  6-O ) :   1.3531
B(  4-S ,  7-O ) :   1.2845

Dispersion correction           -0.002914523
FINAL SINGLE POINT ENERGY      -702.694374372160

DIPOLE MOMENT
-------------
                                X             Y             Z
Electronic contribution:     -4.31992       6.28966      -0.66428
Nuclear contribution   :      5.05690      -8.21735       0.57889
                        -----------------------------------------
Total Dipole Moment    :      0.73698      -1.92770      -0.08539
                        -----------------------------------------
Magnitude (a.u.)       :      2.06554
Magnitude (Debye)      :      5.25018

Rotational constants in cm-1:     0.162547     0.083494     0.081672
Rotational constants in MHz :  4873.033504  2503.090885  2448.458543

                             ****ORCA TERMINATED NORMALLY****
TOTAL RUN TIME: 0 days 0 hours 0 minutes 10 seconds 193 msec
