                         Program Version 5.0.0 -  RELEASE  -
|  1> !wB97X-D3 RIJCOSX def2-SVPD def2/J TightSCF
|  2> *xyz 1 1
|  3> C          4.49059        1.15590       -2.46929
|  4> N          4.30539        1.22276       -3.90832
|  5> C          4.63192        2.24637       -4.67096
|  6> N          4.54169        2.14399       -5.98714
|  7> N          5.08409        3.39358       -4.11855
|  8> H          4.92067        3.57050       -3.13587
|  9> H          5.25465        4.19739       -4.70696
| 10> H          3.82453        0.44911       -4.35093
| 11> H          4.34337        1.24932       -6.41665
| 12> H          4.67671        2.95662       -6.57411
| 13> C          5.94213        0.93950       -2.03689
| 14> H          3.86431        0.32853       -2.13661
| 15> H          4.07623        2.04999       -1.98901
| 16> H          6.32982        0.06401       -2.51451
| 17> H          5.98308        0.81426       -0.97504
| 18> H          6.52865        1.78889       -2.31873
| 19> *
| 20>
| 21> %MaxCore 64000
| 22>
| 23> %pal nprocs 18
| 24> end
| 25>
| 26> %scf
| 27>   MaxIter 150
| 28> end
| 29>
| 30>
| 31>                          ****END OF INPUT****

CARTESIAN COORDINATES (ANGSTROEM)
---------------------------------
  C      4.490590    1.155900   -2.469290
  N      4.305390    1.222760   -3.908320
  C      4.631920    2.246370   -4.670960
  N      4.541690    2.143990   -5.987140
  N      5.084090    3.393580   -4.118550
  H      4.920670    3.570500   -3.135870
  H      5.254650    4.197390   -4.706960
  H      3.824530    0.449110   -4.350930
  H      4.343370    1.249320   -6.416650
  H      4.676710    2.956620   -6.574110
  C      5.942130    0.939500   -2.036890
  H      3.864310    0.328530   -2.136610
  H      4.076230    2.049990   -1.989010
  H      6.329820    0.064010   -2.514510
  H      5.983080    0.814260   -0.975040
  H      6.528650    1.788890   -2.318730

 Total Charge           Charge          ....    1
 Multiplicity           Mult            ....    1
 Number of Electrons    NEL             ....   48
 Basis Dimension        Dim             ....  200

ORBITAL ENERGIES
----------------

  NO   OCC          E(Eh)            E(eV)
   0   2.0000     -14.662836      -398.9960
   1   2.0000     -14.662522      -398.9875
   2   2.0000     -14.659789      -398.9131
   3   2.0000     -10.629922      -289.2549
   4   2.0000     -10.497779      -285.6591
   5   2.0000     -10.423873      -283.6480
   6   2.0000      -1.328495       -36.1502
   7   2.0000      -1.215973       -33.0883
   8   2.0000      -1.199438       -32.6384
   9   2.0000      -1.040558       -28.3150
  10   2.0000      -0.951880       -25.9020
  11   2.0000      -0.908118       -24.7112
  12   2.0000      -0.893228       -24.3060
  13   2.0000      -0.847134       -23.0517
  14   2.0000      -0.794425       -21.6174
  15   2.0000      -0.791093       -21.5267
  16   2.0000      -0.763370       -20.7724
  17   2.0000      -0.728573       -19.8255
  18   2.0000      -0.704168       -19.1614
  19   2.0000      -0.656942       -17.8763
  20   2.0000      -0.627404       -17.0725
  21   2.0000      -0.606589       -16.5061
  22   2.0000      -0.572286       -15.5727
  23   2.0000      -0.543934       -14.8012
  24   0.0000      -0.088424        -2.4061
  25   0.0000      -0.076026        -2.0688
  26   0.0000      -0.041032        -1.1165
  27   0.0000      -0.036774        -1.0007
  28   0.0000      -0.010265        -0.2793

MULLIKEN ATOMIC CHARGES
-----------------------
   0 C :    0.210745
   1 N :   -0.424559
   2 C :    1.434736
   3 N :   -0.126592
   4 N :   -0.080658
   5 H :   -0.003839
   6 H :   -0.128150
   7 H :   -0.188342
   8 H :   -0.019722
   9 H :   -0.012116
  10 C :    0.564479
  11 H :   -0.247262
  12 H :    0.010114
  13 H :   -0.021991
  14 H :    0.053637
  15 H :   -0.020479
Sum of atomic charges:    1.0000000

LOEWDIN ATOMIC CHARGES
----------------------
   0 C :    0.037527
   1 N :    0.032983
   2 C :   -0.020236
   3 N :    0.253797
   4 N :    0.275341
   5 H :    0.019096
   6 H :    0.038285
   7 H :    0.064204
   8 H :    0.044947
   9 H :    0.044179
  10 C :    0.157063
  11 H :    0.042110
  12 H :    0.029873
  13 H :   -0.002639
  14 H :    0.004423
  15 H :   -0.020953

  Mayer bond orders larger than 0.100000
B(  0-C ,  1-N ) :   0.8686 B(  0-C ,  7-H ) :  -0.1372 B(  0-C , 10-C ) :   1.2565
B(  0-C , 11-H ) :   0.9540 B(  0-C , 12-H ) :   0.8934 B(  0-C , 13-H ) :   0.2125
B(  0-C , 14-H ) :   0.1311 B(  0-C , 15-H ) :   0.1739 B(  1-N ,  2-C ) :   1.0155
B(  1-N ,  3-N ) :   0.2478 B(  1-N ,  4-N ) :   0.2110 B(  1-N ,  7-H ) :   1.3027
B(  1-N , 11-H ) :   0.1570 B(  2-C ,  3-N ) :   0.8300 B(  2-C ,  4-N ) :   0.8957
B(  2-C ,  5-H ) :  -0.1075 B(  2-C ,  6-H ) :  -0.1579 B(  2-C ,  7-H ) :  -0.2367
B(  2-C ,  8-H ) :  -0.1518 B(  2-C ,  9-H ) :  -0.1278 B(  3-N ,  4-N ) :   0.1502
B(  3-N ,  8-H ) :   1.1796 B(  3-N ,  9-H ) :   1.2090 B(  4-N ,  5-H ) :   1.0706
B(  4-N ,  6-H ) :   1.2727 B(  5-H ,  6-H ) :  -0.1929 B(  8-H ,  9-H ) :  -0.1678
B( 10-C , 13-H ) :   0.8369 B( 10-C , 14-H ) :   0.8476 B( 10-C , 15-H ) :   0.8351

Dispersion correction           -0.003828055
FINAL SINGLE POINT ENERGY      -284.140220561524

DIPOLE MOMENT
-------------
                                X             Y             Z
Electronic contribution:     -1.81257       1.58137      -4.46940
Nuclear contribution   :      1.34333      -1.11039       3.43667
                        -----------------------------------------
Total Dipole Moment    :     -0.46925       0.47098      -1.03273
                        -----------------------------------------
Magnitude (a.u.)       :      1.22823
Magnitude (Debye)      :      3.12191

Rotational constants in cm-1:     0.227161     0.075356     0.065003
Rotational constants in MHz :  6810.114531  2259.122204  1948.738523

                             ****ORCA TERMINATED NORMALLY****
TOTAL RUN TIME: 0 days 0 hours 0 minutes 12 seconds 12 msec
