                         Program Version 5.0.0 -  RELEASE  -
|  1> !wB97X-D3 RIJCOSX def2-SVPD def2/J TightSCF
|  2> *xyz 0 1
|  3> C          4.90646       -3.10282       -5.95484
|  4> C          3.51177       -2.80621       -6.49228
|  5> H          2.73604       -3.37345       -5.97374
|  6> H          3.44490       -3.04083       -7.55528
|  7> S          3.00462       -1.09621       -6.38926
|  8> F          4.12886       -0.32965       -6.95372
|  9> O          1.78128       -1.00078       -7.13640
| 10> O          2.85155       -0.78368       -4.95679
| 11> H          5.62703       -2.52424       -6.49422
| 12> H          5.12164       -4.14387       -6.07654
| 13> H          4.95004       -2.84862       -4.91639
| 14> *
| 15>
| 16> %MaxCore 64000
| 17>
| 18> %pal nprocs 18
| 19> end
| 20>
| 21> %scf
| 22>   MaxIter 150
| 23> end
| 24>
| 25>
| 26>                          ****END OF INPUT****

CARTESIAN COORDINATES (ANGSTROEM)
---------------------------------
  C      4.906460   -3.102820   -5.954840
  C      3.511770   -2.806210   -6.492280
  H      2.736040   -3.373450   -5.973740
  H      3.444900   -3.040830   -7.555280
  S      3.004620   -1.096210   -6.389260
  F      4.128860   -0.329650   -6.953720
  O      1.781280   -1.000780   -7.136400
  O      2.851550   -0.783680   -4.956790
  H      5.627030   -2.524240   -6.494220
  H      5.121640   -4.143870   -6.076540
  H      4.950040   -2.848620   -4.916390

 Total Charge           Charge          ....    0
 Multiplicity           Mult            ....    1
 Number of Electrons    NEL             ....   58
 Basis Dimension        Dim             ....  176

ORBITAL ENERGIES
----------------

  NO   OCC          E(Eh)            E(eV)
   0   2.0000     -89.234960     -2428.2067
   1   2.0000     -24.909188      -677.8135
   2   2.0000     -19.263395      -524.1836
   3   2.0000     -19.251015      -523.8467
   4   2.0000     -10.359197      -281.8881
   5   2.0000     -10.317382      -280.7502
   6   2.0000      -8.309481      -226.1125
   7   2.0000      -6.273181      -170.7019
   8   2.0000      -6.266784      -170.5279
   9   2.0000      -6.265454      -170.4917
  10   2.0000      -1.471028       -40.0287
  11   2.0000      -1.230868       -33.4936
  12   2.0000      -1.126294       -30.6480
  13   2.0000      -0.946277       -25.7495
  14   2.0000      -0.839656       -22.8482
  15   2.0000      -0.790177       -21.5018
  16   2.0000      -0.697187       -18.9714
  17   2.0000      -0.680078       -18.5059
  18   2.0000      -0.654522       -17.8104
  19   2.0000      -0.603409       -16.4196
  20   2.0000      -0.583960       -15.8904
  21   2.0000      -0.560197       -15.2437
  22   2.0000      -0.541442       -14.7334
  23   2.0000      -0.513799       -13.9812
  24   2.0000      -0.501166       -13.6374
  25   2.0000      -0.483007       -13.1433
  26   2.0000      -0.436695       -11.8831
  27   2.0000      -0.424699       -11.5566
  28   2.0000      -0.410280       -11.1643
  29   0.0000       0.063064         1.7161
  30   0.0000       0.092012         2.5038
  31   0.0000       0.095938         2.6106
  32   0.0000       0.098733         2.6867
  33   0.0000       0.120197         3.2707

MULLIKEN ATOMIC CHARGES
-----------------------
   0 C :    0.664477
   1 C :   -0.430792
   2 H :    0.027071
   3 H :    0.045879
   4 S :    1.512679
   5 F :   -0.417695
   6 O :   -0.656755
   7 O :   -0.703059
   8 H :   -0.015689
   9 H :   -0.028932
  10 H :    0.002817
Sum of atomic charges:    0.0000000

LOEWDIN ATOMIC CHARGES
----------------------
   0 C :    0.130871
   1 C :   -0.093575
   2 H :    0.039555
   3 H :    0.024050
   4 S :    1.125405
   5 F :   -0.268542
   6 O :   -0.464084
   7 O :   -0.482456
   8 H :   -0.008441
   9 H :   -0.002453
  10 H :   -0.000331

  Mayer bond orders larger than 0.100000
B(  0-C ,  1-C ) :   1.2580 B(  0-C ,  8-H ) :   0.8372 B(  0-C ,  9-H ) :   0.7842
B(  0-C , 10-H ) :   0.8391 B(  1-C ,  2-H ) :   0.9933 B(  1-C ,  3-H ) :   0.9937
B(  1-C ,  4-S ) :   1.0077 B(  1-C ,  8-H ) :   0.1710 B(  1-C ,  9-H ) :   0.1857
B(  1-C , 10-H ) :   0.1721 B(  4-S ,  5-F ) :   0.6341 B(  4-S ,  6-O ) :   1.5648
B(  4-S ,  7-O ) :   1.5025

Dispersion correction           -0.002892604
FINAL SINGLE POINT ENERGY      -727.189973149206

DIPOLE MOMENT
-------------
                                X             Y             Z
Electronic contribution:     -2.94692       8.12473      -1.75902
Nuclear contribution   :      4.18919      -9.36357       1.23251
                        -----------------------------------------
Total Dipole Moment    :      1.24228      -1.23883      -0.52651
                        -----------------------------------------
Magnitude (a.u.)       :      1.83171
Magnitude (Debye)      :      4.65584

Rotational constants in cm-1:     0.153152     0.082513     0.079874
Rotational constants in MHz :  4591.373714  2473.673397  2394.575279

                             ****ORCA TERMINATED NORMALLY****
TOTAL RUN TIME: 0 days 0 hours 0 minutes 10 seconds 302 msec
