                         Program Version 5.0.0 -  RELEASE  -
|  1> !wB97X-D3 RIJCOSX def2-SVPD def2/J TightSCF
|  2> *xyz 0 1
|  3> C          4.49059        1.15590       -2.46929
|  4> C          4.30539        1.22276       -3.90832
|  5> C          4.63192        2.24637       -4.67096
|  6> N          4.54169        2.14399       -5.98714
|  7> N          5.08409        3.39358       -4.11855
|  8> H          4.92067        3.57050       -3.13587
|  9> H          5.25465        4.19739       -4.70696
| 10> H          3.82453        0.44911       -4.35093
| 11> H          4.34337        1.24932       -6.41665
| 12> H          4.67671        2.95662       -6.57411
| 13> C          5.94213        0.93950       -2.03689
| 14> H          3.86431        0.32853       -2.13661
| 15> H          4.07623        2.04999       -1.98901
| 16> H          6.32982        0.06401       -2.51451
| 17> H          5.98308        0.81426       -0.97504
| 18> H          6.52865        1.78889       -2.31873
| 19> *
| 20>
| 21> %MaxCore 64000
| 22>
| 23> %pal nprocs 18
| 24> end
| 25>
| 26> %scf
| 27>   MaxIter 150
| 28> end
| 29>
| 30>
| 31>                          ****END OF INPUT****

CARTESIAN COORDINATES (ANGSTROEM)
---------------------------------
  C      4.490590    1.155900   -2.469290
  C      4.305390    1.222760   -3.908320
  C      4.631920    2.246370   -4.670960
  N      4.541690    2.143990   -5.987140
  N      5.084090    3.393580   -4.118550
  H      4.920670    3.570500   -3.135870
  H      5.254650    4.197390   -4.706960
  H      3.824530    0.449110   -4.350930
  H      4.343370    1.249320   -6.416650
  H      4.676710    2.956620   -6.574110
  C      5.942130    0.939500   -2.036890
  H      3.864310    0.328530   -2.136610
  H      4.076230    2.049990   -1.989010
  H      6.329820    0.064010   -2.514510
  H      5.983080    0.814260   -0.975040
  H      6.528650    1.788890   -2.318730

 Total Charge           Charge          ....    0
 Multiplicity           Mult            ....    1
 Number of Electrons    NEL             ....   48
 Basis Dimension        Dim             ....  200

ORBITAL ENERGIES
----------------

  NO   OCC          E(Eh)            E(eV)
   0   2.0000     -14.438613      -392.8946
   1   2.0000     -14.436294      -392.8315
   2   2.0000     -10.333335      -281.1843
   3   2.0000     -10.263274      -279.2779
   4   2.0000     -10.252103      -278.9739
   5   2.0000     -10.208097      -277.7764
   6   2.0000      -1.069738       -29.1091
   7   2.0000      -0.976763       -26.5791
   8   2.0000      -0.882367       -24.0104
   9   2.0000      -0.801904       -21.8209
  10   2.0000      -0.723269       -19.6811
  11   2.0000      -0.682186       -18.5632
  12   2.0000      -0.645602       -17.5677
  13   2.0000      -0.610361       -16.6088
  14   2.0000      -0.574637       -15.6367
  15   2.0000      -0.536987       -14.6122
  16   2.0000      -0.522358       -14.2141
  17   2.0000      -0.488744       -13.2994
  18   2.0000      -0.484540       -13.1850
  19   2.0000      -0.446353       -12.1459
  20   2.0000      -0.422527       -11.4976
  21   2.0000      -0.409867       -11.1530
  22   2.0000      -0.360499        -9.8097
  23   2.0000      -0.246631        -6.7112
  24   0.0000       0.088684         2.4132
  25   0.0000       0.112343         3.0570
  26   0.0000       0.123745         3.3673
  27   0.0000       0.131381         3.5751
  28   0.0000       0.154477         4.2035

MULLIKEN ATOMIC CHARGES
-----------------------
   0 C :   -0.229490
   1 C :   -0.309431
   2 C :    1.079781
   3 N :   -0.057300
   4 N :   -0.056005
   5 H :   -0.034314
   6 H :   -0.239934
   7 H :   -0.425591
   8 H :   -0.027684
   9 H :   -0.144808
  10 C :    0.599990
  11 H :   -0.005785
  12 H :   -0.046794
  13 H :   -0.040702
  14 H :   -0.004470
  15 H :   -0.057462
Sum of atomic charges:   -0.0000000

LOEWDIN ATOMIC CHARGES
----------------------
   0 C :   -0.106625
   1 C :   -0.045186
   2 C :   -0.214569
   3 N :    0.168370
   4 N :    0.197943
   5 H :   -0.010853
   6 H :   -0.009481
   7 H :   -0.049666
   8 H :    0.011539
   9 H :   -0.005399
  10 C :    0.116011
  11 H :    0.015572
  12 H :    0.006056
  13 H :   -0.017213
  14 H :   -0.025508
  15 H :   -0.030991

  Mayer bond orders larger than 0.100000
B(  0-C ,  1-C ) :   1.2415 B(  0-C ,  7-H ) :   0.2617 B(  0-C , 10-C ) :   1.2323
B(  0-C , 11-H ) :   0.8400 B(  0-C , 12-H ) :   0.8855 B(  0-C , 13-H ) :   0.1718
B(  0-C , 14-H ) :   0.1523 B(  0-C , 15-H ) :   0.2013 B(  1-C ,  2-C ) :   1.5582
B(  1-C ,  3-N ) :   0.3898 B(  1-C ,  4-N ) :   0.2071 B(  1-C ,  7-H ) :   0.9539
B(  1-C , 11-H ) :   0.2851 B(  1-C , 12-H ) :   0.1515 B(  2-C ,  3-N ) :   0.7990
B(  2-C ,  4-N ) :   0.8952 B(  2-C ,  6-H ) :  -0.1635 B(  3-N ,  4-N ) :   0.1046
B(  3-N ,  8-H ) :   1.1624 B(  3-N ,  9-H ) :   1.2269 B(  4-N ,  5-H ) :   1.0574
B(  4-N ,  6-H ) :   1.3180 B(  5-H ,  6-H ) :  -0.1809 B(  7-H , 11-H ) :  -0.1001
B(  8-H ,  9-H ) :  -0.1597 B( 10-C , 13-H ) :   0.8618 B( 10-C , 14-H ) :   0.8340
B( 10-C , 15-H ) :   0.8265

Dispersion correction           -0.003822244
FINAL SINGLE POINT ENERGY      -267.669533121269

DIPOLE MOMENT
-------------
                                X             Y             Z
Electronic contribution:     -1.26219       1.96798      -4.10879
Nuclear contribution   :      1.23062      -1.24683       3.43056
                        -----------------------------------------
Total Dipole Moment    :     -0.03157       0.72115      -0.67823
                        -----------------------------------------
Magnitude (a.u.)       :      0.99048
Magnitude (Debye)      :      2.51759

Rotational constants in cm-1:     0.231477     0.075416     0.065327
Rotational constants in MHz :  6939.497385  2260.912204  1958.442932

                             ****ORCA TERMINATED NORMALLY****
TOTAL RUN TIME: 0 days 0 hours 0 minutes 13 seconds 429 msec
