                         Program Version 5.0.0 -  RELEASE  -
|  1> !wB97X-D3 RIJCOSX def2-SVPD def2/J TightSCF
|  2> *xyz 0 1
|  3> C          4.90646       -3.10282       -5.95484
|  4> C          3.51177       -2.80621       -6.49228
|  5> H          2.73604       -3.37345       -5.97374
|  6> H          3.44490       -3.04083       -7.55528
|  7> S          3.00462       -1.09621       -6.38926
|  8> O          4.12886       -0.32965       -6.95372
|  9> F          1.78128       -1.00078       -7.13640
| 10> O          2.85155       -0.78368       -4.95679
| 11> H          5.62703       -2.52424       -6.49422
| 12> H          5.12164       -4.14387       -6.07654
| 13> H          4.95004       -2.84862       -4.91639
| 14> *
| 15>
| 16> %MaxCore 64000
| 17>
| 18> %pal nprocs 18
| 19> end
| 20>
| 21> %scf
| 22>   MaxIter 150
| 23> end
| 24>
| 25>
| 26>                          ****END OF INPUT****

CARTESIAN COORDINATES (ANGSTROEM)
---------------------------------
  C      4.906460   -3.102820   -5.954840
  C      3.511770   -2.806210   -6.492280
  H      2.736040   -3.373450   -5.973740
  H      3.444900   -3.040830   -7.555280
  S      3.004620   -1.096210   -6.389260
  O      4.128860   -0.329650   -6.953720
  F      1.781280   -1.000780   -7.136400
  O      2.851550   -0.783680   -4.956790
  H      5.627030   -2.524240   -6.494220
  H      5.121640   -4.143870   -6.076540
  H      4.950040   -2.848620   -4.916390

 Total Charge           Charge          ....    0
 Multiplicity           Mult            ....    1
 Number of Electrons    NEL             ....   58
 Basis Dimension        Dim             ....  176

ORBITAL ENERGIES
----------------

  NO   OCC          E(Eh)            E(eV)
   0   2.0000     -89.236917     -2428.2600
   1   2.0000     -24.927926      -678.3233
   2   2.0000     -19.251283      -523.8540
   3   2.0000     -19.251217      -523.8523
   4   2.0000     -10.360128      -281.9134
   5   2.0000     -10.312542      -280.6185
   6   2.0000      -8.311512      -226.1678
   7   2.0000      -6.275275      -170.7589
   8   2.0000      -6.268663      -170.5790
   9   2.0000      -6.267367      -170.5437
  10   2.0000      -1.502577       -40.8872
  11   2.0000      -1.217440       -33.1282
  12   2.0000      -1.112370       -30.2691
  13   2.0000      -0.943314       -25.6689
  14   2.0000      -0.854831       -23.2611
  15   2.0000      -0.791573       -21.5398
  16   2.0000      -0.703027       -19.1303
  17   2.0000      -0.700641       -19.0654
  18   2.0000      -0.665542       -18.1103
  19   2.0000      -0.604262       -16.4428
  20   2.0000      -0.587194       -15.9784
  21   2.0000      -0.543341       -14.7851
  22   2.0000      -0.535007       -14.5583
  23   2.0000      -0.511332       -13.9140
  24   2.0000      -0.489236       -13.3128
  25   2.0000      -0.481491       -13.1020
  26   2.0000      -0.425494       -11.5783
  27   2.0000      -0.422473       -11.4961
  28   2.0000      -0.398966       -10.8564
  29   0.0000       0.063760         1.7350
  30   0.0000       0.087489         2.3807
  31   0.0000       0.095934         2.6105
  32   0.0000       0.098341         2.6760
  33   0.0000       0.119639         3.2555

MULLIKEN ATOMIC CHARGES
-----------------------
   0 C :    0.642856
   1 C :   -0.449910
   2 H :    0.027258
   3 H :    0.056215
   4 S :    1.537744
   5 O :   -0.692043
   6 F :   -0.407141
   7 O :   -0.692249
   8 H :    0.003729
   9 H :   -0.026743
  10 H :    0.000284
Sum of atomic charges:   -0.0000000

LOEWDIN ATOMIC CHARGES
----------------------
   0 C :    0.145980
   1 C :   -0.105778
   2 H :    0.025874
   3 H :    0.021737
   4 S :    1.130644
   5 O :   -0.482072
   6 F :   -0.253159
   7 O :   -0.483215
   8 H :   -0.002396
   9 H :   -0.000699
  10 H :    0.003084

  Mayer bond orders larger than 0.100000
B(  0-C ,  1-C ) :   1.3077 B(  0-C ,  8-H ) :   0.8390 B(  0-C ,  9-H ) :   0.7882
B(  0-C , 10-H ) :   0.8306 B(  1-C ,  2-H ) :   0.9809 B(  1-C ,  3-H ) :   0.9662
B(  1-C ,  4-S ) :   0.9780 B(  1-C ,  8-H ) :   0.1797 B(  1-C ,  9-H ) :   0.1836
B(  1-C , 10-H ) :   0.1719 B(  4-S ,  5-O ) :   1.5040 B(  4-S ,  6-F ) :   0.6792
B(  4-S ,  7-O ) :   1.4933

Dispersion correction           -0.002915770
FINAL SINGLE POINT ENERGY      -727.174073292473

DIPOLE MOMENT
-------------
                                X             Y             Z
Electronic contribution:     -6.94862       6.99769      -2.06720
Nuclear contribution   :      6.63544      -8.66423       1.42287
                        -----------------------------------------
Total Dipole Moment    :     -0.31318      -1.66654      -0.64433
                        -----------------------------------------
Magnitude (a.u.)       :      1.81400
Magnitude (Debye)      :      4.61083

Rotational constants in cm-1:     0.158118     0.080978     0.078216
Rotational constants in MHz :  4740.271775  2427.649826  2344.849020

                             ****ORCA TERMINATED NORMALLY****
TOTAL RUN TIME: 0 days 0 hours 0 minutes 10 seconds 238 msec
