                         Program Version 5.0.0 -  RELEASE  -
|  1> !wB97X-D3 RIJCOSX def2-SVPD def2/J TightSCF
|  2> *xyz 0 1
|  3> C          4.49059        1.15590       -2.46929
|  4> N          4.30539        1.22276       -3.90832
|  5> C          4.63192        2.24637       -4.67096
|  6> C          4.54169        2.14399       -5.98714
|  7> N          5.08409        3.39358       -4.11855
|  8> H          4.92067        3.57050       -3.13587
|  9> H          5.25465        4.19739       -4.70696
| 10> H          3.82453        0.44911       -4.35093
| 11> H          4.34337        1.24932       -6.41665
| 12> H          4.67671        2.95662       -6.57411
| 13> C          5.94213        0.93950       -2.03689
| 14> H          3.86431        0.32853       -2.13661
| 15> H          4.07623        2.04999       -1.98901
| 16> H          6.32982        0.06401       -2.51451
| 17> H          5.98308        0.81426       -0.97504
| 18> H          6.52865        1.78889       -2.31873
| 19> *
| 20>
| 21> %MaxCore 64000
| 22>
| 23> %pal nprocs 18
| 24> end
| 25>
| 26> %scf
| 27>   MaxIter 150
| 28> end
| 29>
| 30>
| 31>                          ****END OF INPUT****

CARTESIAN COORDINATES (ANGSTROEM)
---------------------------------
  C      4.490590    1.155900   -2.469290
  N      4.305390    1.222760   -3.908320
  C      4.631920    2.246370   -4.670960
  C      4.541690    2.143990   -5.987140
  N      5.084090    3.393580   -4.118550
  H      4.920670    3.570500   -3.135870
  H      5.254650    4.197390   -4.706960
  H      3.824530    0.449110   -4.350930
  H      4.343370    1.249320   -6.416650
  H      4.676710    2.956620   -6.574110
  C      5.942130    0.939500   -2.036890
  H      3.864310    0.328530   -2.136610
  H      4.076230    2.049990   -1.989010
  H      6.329820    0.064010   -2.514510
  H      5.983080    0.814260   -0.975040
  H      6.528650    1.788890   -2.318730

 Total Charge           Charge          ....    0
 Multiplicity           Mult            ....    1
 Number of Electrons    NEL             ....   48
 Basis Dimension        Dim             ....  200

ORBITAL ENERGIES
----------------

  NO   OCC          E(Eh)            E(eV)
   0   2.0000     -14.437075      -392.8528
   1   2.0000     -14.436427      -392.8352
   2   2.0000     -10.335701      -281.2487
   3   2.0000     -10.331256      -281.1278
   4   2.0000     -10.277728      -279.6712
   5   2.0000     -10.197697      -277.4935
   6   2.0000      -1.078461       -29.3464
   7   2.0000      -0.989053       -26.9135
   8   2.0000      -0.880872       -23.9698
   9   2.0000      -0.809678       -22.0325
  10   2.0000      -0.737161       -20.0592
  11   2.0000      -0.702433       -19.1142
  12   2.0000      -0.639187       -17.3931
  13   2.0000      -0.600338       -16.3360
  14   2.0000      -0.580467       -15.7953
  15   2.0000      -0.548801       -14.9336
  16   2.0000      -0.524256       -14.2657
  17   2.0000      -0.501527       -13.6472
  18   2.0000      -0.478659       -13.0250
  19   2.0000      -0.471248       -12.8233
  20   2.0000      -0.456443       -12.4204
  21   2.0000      -0.448608       -12.2072
  22   2.0000      -0.348967        -9.4959
  23   2.0000      -0.249394        -6.7864
  24   0.0000       0.084461         2.2983
  25   0.0000       0.113076         3.0769
  26   0.0000       0.118464         3.2236
  27   0.0000       0.122717         3.3393
  28   0.0000       0.152397         4.1469

MULLIKEN ATOMIC CHARGES
-----------------------
   0 C :    0.240728
   1 N :   -0.346928
   2 C :    0.769047
   3 C :    0.290616
   4 N :    0.079152
   5 H :   -0.110447
   6 H :   -0.165694
   7 H :   -0.251017
   8 H :   -0.278537
   9 H :   -0.360637
  10 C :    0.587820
  11 H :   -0.315610
  12 H :   -0.043289
  13 H :   -0.047362
  14 H :   -0.015591
  15 H :   -0.032250
Sum of atomic charges:    0.0000000

LOEWDIN ATOMIC CHARGES
----------------------
   0 C :    0.006615
   1 N :   -0.027534
   2 C :   -0.231285
   3 C :    0.131709
   4 N :    0.194948
   5 H :   -0.023915
   6 H :    0.006793
   7 H :    0.038265
   8 H :   -0.096856
   9 H :   -0.099098
  10 C :    0.129972
  11 H :    0.020934
  12 H :    0.010354
  13 H :   -0.014243
  14 H :   -0.018702
  15 H :   -0.027958

  Mayer bond orders larger than 0.100000
B(  0-C ,  1-N ) :   0.8902 B(  0-C ,  7-H ) :  -0.1517 B(  0-C , 10-C ) :   1.2421
B(  0-C , 11-H ) :   0.9506 B(  0-C , 12-H ) :   0.8953 B(  0-C , 13-H ) :   0.2227
B(  0-C , 14-H ) :   0.1442 B(  0-C , 15-H ) :   0.1868 B(  1-N ,  2-C ) :   1.0385
B(  1-N ,  3-C ) :   0.2251 B(  1-N ,  4-N ) :   0.1608 B(  1-N ,  7-H ) :   1.2708
B(  1-N , 11-H ) :   0.1605 B(  1-N , 12-H ) :   0.1131 B(  2-C ,  3-C ) :   1.4732
B(  2-C ,  4-N ) :   0.9162 B(  2-C ,  6-H ) :  -0.1083 B(  2-C ,  7-H ) :  -0.1995
B(  2-C ,  9-H ) :   0.1235 B(  3-C ,  4-N ) :   0.1925 B(  3-C ,  8-H ) :   0.8666
B(  3-C ,  9-H ) :   0.8305 B(  4-N ,  5-H ) :   1.0555 B(  4-N ,  6-H ) :   1.2154
B(  5-H ,  6-H ) :  -0.1817 B( 10-C , 13-H ) :   0.8310 B( 10-C , 14-H ) :   0.8556
B( 10-C , 15-H ) :   0.8335

Dispersion correction           -0.003854416
FINAL SINGLE POINT ENERGY      -267.661233309780

DIPOLE MOMENT
-------------
                                X             Y             Z
Electronic contribution:     -1.41624       1.07618      -1.92934
Nuclear contribution   :      1.28075      -1.05140       2.98955
                        -----------------------------------------
Total Dipole Moment    :     -0.13549       0.02479       1.06021
                        -----------------------------------------
Magnitude (a.u.)       :      1.06912
Magnitude (Debye)      :      2.71749

Rotational constants in cm-1:     0.229858     0.078444     0.067377
Rotational constants in MHz :  6890.979812  2351.691803  2019.910665

                             ****ORCA TERMINATED NORMALLY****
TOTAL RUN TIME: 0 days 0 hours 0 minutes 13 seconds 390 msec
