                         Program Version 5.0.0 -  RELEASE  -
|  1> !wB97X-D3 RIJCOSX def2-SVPD def2/J TightSCF
|  2> *xyz 0 1
|  3> C          4.90646       -3.10282       -5.95484
|  4> C          3.51177       -2.80621       -6.49228
|  5> H          2.73604       -3.37345       -5.97374
|  6> H          3.44490       -3.04083       -7.55528
|  7> S          3.00462       -1.09621       -6.38926
|  8> O          4.12886       -0.32965       -6.95372
|  9> O          1.78128       -1.00078       -7.13640
| 10> F          2.85155       -0.78368       -4.95679
| 11> H          5.62703       -2.52424       -6.49422
| 12> H          5.12164       -4.14387       -6.07654
| 13> H          4.95004       -2.84862       -4.91639
| 14> *
| 15>
| 16> %MaxCore 64000
| 17>
| 18> %pal nprocs 18
| 19> end
| 20>
| 21> %scf
| 22>   MaxIter 150
| 23> end
| 24>
| 25>
| 26>                          ****END OF INPUT****

CARTESIAN COORDINATES (ANGSTROEM)
---------------------------------
  C      4.906460   -3.102820   -5.954840
  C      3.511770   -2.806210   -6.492280
  H      2.736040   -3.373450   -5.973740
  H      3.444900   -3.040830   -7.555280
  S      3.004620   -1.096210   -6.389260
  O      4.128860   -0.329650   -6.953720
  O      1.781280   -1.000780   -7.136400
  F      2.851550   -0.783680   -4.956790
  H      5.627030   -2.524240   -6.494220
  H      5.121640   -4.143870   -6.076540
  H      4.950040   -2.848620   -4.916390

 Total Charge           Charge          ....    0
 Multiplicity           Mult            ....    1
 Number of Electrons    NEL             ....   58
 Basis Dimension        Dim             ....  176

ORBITAL ENERGIES
----------------

  NO   OCC          E(Eh)            E(eV)
   0   2.0000     -89.235043     -2428.2090
   1   2.0000     -24.908841      -677.8040
   2   2.0000     -19.263581      -524.1887
   3   2.0000     -19.251375      -523.8565
   4   2.0000     -10.359079      -281.8849
   5   2.0000     -10.314301      -280.6664
   6   2.0000      -8.309551      -226.1144
   7   2.0000      -6.273204      -170.7026
   8   2.0000      -6.266849      -170.5296
   9   2.0000      -6.265579      -170.4951
  10   2.0000      -1.470100       -40.0034
  11   2.0000      -1.230976       -33.4966
  12   2.0000      -1.127991       -30.6942
  13   2.0000      -0.943909       -25.6851
  14   2.0000      -0.839097       -22.8330
  15   2.0000      -0.789006       -21.4700
  16   2.0000      -0.694316       -18.8933
  17   2.0000      -0.678992       -18.4763
  18   2.0000      -0.656480       -17.8637
  19   2.0000      -0.601958       -16.3801
  20   2.0000      -0.586459       -15.9584
  21   2.0000      -0.561484       -15.2788
  22   2.0000      -0.537222       -14.6185
  23   2.0000      -0.509910       -13.8754
  24   2.0000      -0.501642       -13.6504
  25   2.0000      -0.480261       -13.0686
  26   2.0000      -0.437122       -11.8947
  27   2.0000      -0.425099       -11.5675
  28   2.0000      -0.411801       -11.2057
  29   0.0000       0.062952         1.7130
  30   0.0000       0.092180         2.5084
  31   0.0000       0.095783         2.6064
  32   0.0000       0.097844         2.6625
  33   0.0000       0.117472         3.1966

MULLIKEN ATOMIC CHARGES
-----------------------
   0 C :    0.677887
   1 C :   -0.441638
   2 H :    0.018330
   3 H :    0.056743
   4 S :    1.516262
   5 O :   -0.704153
   6 O :   -0.659408
   7 F :   -0.418170
   8 H :    0.005615
   9 H :   -0.026965
  10 H :   -0.024505
Sum of atomic charges:    0.0000000

LOEWDIN ATOMIC CHARGES
----------------------
   0 C :    0.131612
   1 C :   -0.095099
   2 H :    0.025683
   3 H :    0.036096
   4 S :    1.127035
   5 O :   -0.480401
   6 O :   -0.464446
   7 F :   -0.268737
   8 H :   -0.004459
   9 H :   -0.002882
  10 H :   -0.004402

  Mayer bond orders larger than 0.100000
B(  0-C ,  1-C ) :   1.2662 B(  0-C ,  8-H ) :   0.8461 B(  0-C ,  9-H ) :   0.7818
B(  0-C , 10-H ) :   0.8239 B(  1-C ,  2-H ) :   0.9888 B(  1-C ,  3-H ) :   0.9891
B(  1-C ,  4-S ) :   1.0095 B(  1-C ,  8-H ) :   0.1809 B(  1-C ,  9-H ) :   0.1832
B(  1-C , 10-H ) :   0.1716 B(  4-S ,  5-O ) :   1.5110 B(  4-S ,  6-O ) :   1.5617
B(  4-S ,  7-F ) :   0.6236

Dispersion correction           -0.002874431
FINAL SINGLE POINT ENERGY      -727.190347164585

DIPOLE MOMENT
-------------
                                X             Y             Z
Electronic contribution:     -5.13225       7.36080       1.65740
Nuclear contribution   :      5.52019      -8.89046      -0.84835
                        -----------------------------------------
Total Dipole Moment    :      0.38794      -1.52965       0.80905
                        -----------------------------------------
Magnitude (a.u.)       :      1.77338
Magnitude (Debye)      :      4.50759

Rotational constants in cm-1:     0.153332     0.082132     0.079755
Rotational constants in MHz :  4596.775407  2462.251277  2391.008596

                             ****ORCA TERMINATED NORMALLY****
TOTAL RUN TIME: 0 days 0 hours 0 minutes 9 seconds 590 msec
