                         Program Version 5.0.0 -  RELEASE  -
|  1> !wB97X-D3 RIJCOSX def2-SVPD def2/J TightSCF
|  2> *xyz 0 1
|  3> C          4.49059        1.15590       -2.46929
|  4> N          4.30539        1.22276       -3.90832
|  5> C          4.63192        2.24637       -4.67096
|  6> N          4.54169        2.14399       -5.98714
|  7> C          5.08409        3.39358       -4.11855
|  8> H          4.92067        3.57050       -3.13587
|  9> H          5.25465        4.19739       -4.70696
| 10> H          3.82453        0.44911       -4.35093
| 11> H          4.34337        1.24932       -6.41665
| 12> H          4.67671        2.95662       -6.57411
| 13> C          5.94213        0.93950       -2.03689
| 14> H          3.86431        0.32853       -2.13661
| 15> H          4.07623        2.04999       -1.98901
| 16> H          6.32982        0.06401       -2.51451
| 17> H          5.98308        0.81426       -0.97504
| 18> H          6.52865        1.78889       -2.31873
| 19> *
| 20>
| 21> %MaxCore 64000
| 22>
| 23> %pal nprocs 18
| 24> end
| 25>
| 26> %scf
| 27>   MaxIter 150
| 28> end
| 29>
| 30>
| 31>                          ****END OF INPUT****

CARTESIAN COORDINATES (ANGSTROEM)
---------------------------------
  C      4.490590    1.155900   -2.469290
  N      4.305390    1.222760   -3.908320
  C      4.631920    2.246370   -4.670960
  N      4.541690    2.143990   -5.987140
  C      5.084090    3.393580   -4.118550
  H      4.920670    3.570500   -3.135870
  H      5.254650    4.197390   -4.706960
  H      3.824530    0.449110   -4.350930
  H      4.343370    1.249320   -6.416650
  H      4.676710    2.956620   -6.574110
  C      5.942130    0.939500   -2.036890
  H      3.864310    0.328530   -2.136610
  H      4.076230    2.049990   -1.989010
  H      6.329820    0.064010   -2.514510
  H      5.983080    0.814260   -0.975040
  H      6.528650    1.788890   -2.318730

 Total Charge           Charge          ....    0
 Multiplicity           Mult            ....    1
 Number of Electrons    NEL             ....   48
 Basis Dimension        Dim             ....  200

ORBITAL ENERGIES
----------------

  NO   OCC          E(Eh)            E(eV)
   0   2.0000     -14.441419      -392.9710
   1   2.0000     -14.439149      -392.9092
   2   2.0000     -10.338998      -281.3384
   3   2.0000     -10.322918      -280.9009
   4   2.0000     -10.267465      -279.3919
   5   2.0000     -10.199024      -277.5296
   6   2.0000      -1.082558       -29.4579
   7   2.0000      -0.996590       -27.1186
   8   2.0000      -0.861270       -23.4364
   9   2.0000      -0.815405       -22.1883
  10   2.0000      -0.746885       -20.3238
  11   2.0000      -0.665428       -18.1072
  12   2.0000      -0.657667       -17.8960
  13   2.0000      -0.623981       -16.9794
  14   2.0000      -0.572215       -15.5708
  15   2.0000      -0.539520       -14.6811
  16   2.0000      -0.513731       -13.9793
  17   2.0000      -0.495040       -13.4707
  18   2.0000      -0.477462       -12.9924
  19   2.0000      -0.460435       -12.5291
  20   2.0000      -0.459455       -12.5024
  21   2.0000      -0.439590       -11.9618
  22   2.0000      -0.344305        -9.3690
  23   2.0000      -0.250863        -6.8263
  24   0.0000       0.088302         2.4028
  25   0.0000       0.109329         2.9750
  26   0.0000       0.116823         3.1789
  27   0.0000       0.128604         3.4995
  28   0.0000       0.156363         4.2548

MULLIKEN ATOMIC CHARGES
-----------------------
   0 C :    0.228066
   1 N :   -0.390896
   2 C :    0.661351
   3 N :    0.014392
   4 C :    0.378057
   5 H :   -0.122094
   6 H :   -0.495685
   7 H :   -0.316082
   8 H :   -0.147504
   9 H :   -0.046818
  10 C :    0.605971
  11 H :   -0.310091
  12 H :    0.065103
  13 H :   -0.069460
  14 H :   -0.001738
  15 H :   -0.052570
Sum of atomic charges:    0.0000000

LOEWDIN ATOMIC CHARGES
----------------------
   0 C :    0.013189
   1 N :   -0.032500
   2 C :   -0.230280
   3 N :    0.174517
   4 C :    0.151919
   5 H :   -0.113887
   6 H :   -0.104679
   7 H :    0.024596
   8 H :   -0.003183
   9 H :    0.012617
  10 C :    0.133685
  11 H :    0.019582
  12 H :    0.018073
  13 H :   -0.017838
  14 H :   -0.017976
  15 H :   -0.027835

  Mayer bond orders larger than 0.100000
B(  0-C ,  1-N ) :   0.8879 B(  0-C ,  5-H ) :   0.1054 B(  0-C ,  7-H ) :  -0.1444
B(  0-C , 10-C ) :   1.2163 B(  0-C , 11-H ) :   0.9850 B(  0-C , 12-H ) :   0.8676
B(  0-C , 13-H ) :   0.2106 B(  0-C , 14-H ) :   0.1391 B(  0-C , 15-H ) :   0.1850
B(  1-N ,  2-C ) :   0.9593 B(  1-N ,  3-N ) :   0.1683 B(  1-N ,  4-C ) :   0.3402
B(  1-N ,  7-H ) :   1.3899 B(  1-N , 11-H ) :   0.1388 B(  2-C ,  3-N ) :   0.9080
B(  2-C ,  4-C ) :   1.7489 B(  2-C ,  5-H ) :   0.2602 B(  2-C ,  6-H ) :   0.1573
B(  2-C ,  7-H ) :  -0.2815 B(  3-N ,  4-C ) :   0.2347 B(  3-N ,  8-H ) :   1.1925
B(  3-N ,  9-H ) :   1.1872 B(  4-C ,  5-H ) :   0.6710 B(  4-C ,  6-H ) :   0.8769
B(  5-H ,  6-H ) :   0.1151 B(  8-H ,  9-H ) :  -0.1624 B( 10-C , 13-H ) :   0.8292
B( 10-C , 14-H ) :   0.8488 B( 10-C , 15-H ) :   0.8498

Dispersion correction           -0.003801789
FINAL SINGLE POINT ENERGY      -267.660736606509

DIPOLE MOMENT
-------------
                                X             Y             Z
Electronic contribution:     -1.89675      -0.13268      -3.82640
Nuclear contribution   :      1.39581      -0.78630       3.38596
                        -----------------------------------------
Total Dipole Moment    :     -0.50093      -0.91899      -0.44043
                        -----------------------------------------
Magnitude (a.u.)       :      1.13554
Magnitude (Debye)      :      2.88631

Rotational constants in cm-1:     0.239249     0.075811     0.066261
Rotational constants in MHz :  7172.504830  2272.756282  1986.457543

                             ****ORCA TERMINATED NORMALLY****
TOTAL RUN TIME: 0 days 0 hours 0 minutes 12 seconds 196 msec
