                         Program Version 5.0.0 -  RELEASE  -
|  1> !wB97X-D3 RIJCOSX def2-SVPD def2/J TightSCF xyzfile
|  2>
|  3> *xyzfile 0 1 D4.xyz
|  4>
|  5> %MaxCore 64000
|  6>
|  7> %pal nprocs 18
|  8> end
|  9>
| 10> %scf
| 11>   MaxIter 150
| 12> end
| 13>
| 14>
| 15>                          ****END OF INPUT****

CARTESIAN COORDINATES (ANGSTROEM)
---------------------------------
  C      4.490588    1.155899   -2.469290
  C      4.305394    1.222762   -3.908317
  C      4.906458   -3.102816   -5.954844
  C      3.511771   -2.806215   -6.492283
  H      2.736044   -3.373445   -5.973736
  H      3.444904   -3.040831   -7.555281
  S      3.004618   -1.096206   -6.389259
  C      4.631918    2.246365   -4.670958
  N      4.541686    2.143990   -5.987139
  N      5.084086    3.393584   -4.118545
  H      4.920675    3.570501   -3.135870
  H      5.254652    4.197390   -4.706956
  H      3.824530    0.449113   -4.350926
  H      4.343373    1.249318   -6.416646
  H      4.676712    2.956624   -6.574113
  O      4.128856   -0.329647   -6.953717
  F      1.781285   -1.000779   -7.136399
  C      5.942129    0.939500   -2.036893
  H      3.864305    0.328532   -2.136611
  H      4.076233    2.049994   -1.989010
  C      6.462677   -3.117775   -3.944671
  C      5.024977   -3.025679   -4.437625
  H      4.423321   -3.818693   -3.977648
  H      4.579350   -2.087131   -4.108727
  H      5.201533   -4.100207   -6.296905
  H      5.605922   -2.397822   -6.413368
  C      6.559957   -0.356290   -2.559086
  H      5.967976    0.952567   -0.942444
  H      6.547184    1.788331   -2.368849
  C      6.006283   -1.615917   -1.899301
  H      7.642360   -0.318000   -2.402059
  H      6.414855   -0.403433   -3.642587
  C      6.608718   -2.917014   -2.435655
  H      6.190324   -1.561115   -0.820948
  H      4.919250   -1.651245   -2.016586
  H      7.066975   -2.374258   -4.475514
  H      6.887808   -4.089747   -4.215332
  H      6.135197   -3.755573   -1.915159
  H      7.671142   -2.955503   -2.172291
  O      2.851546   -0.783683   -4.956789

 Total Charge           Charge          ....    0
 Multiplicity           Mult            ....    1
 Number of Electrons    NEL             ....  144
 Basis Dimension        Dim             ....  540

ORBITAL ENERGIES
----------------

  NO   OCC          E(Eh)            E(eV)
   0   2.0000     -89.253883     -2428.7216
   1   2.0000     -24.939459      -678.6372
   2   2.0000     -19.272112      -524.4208
   3   2.0000     -19.263027      -524.1736
   4   2.0000     -14.414636      -392.2422
   5   2.0000     -14.393982      -391.6802
   6   2.0000     -10.363834      -282.0143
   7   2.0000     -10.319936      -280.8197
   8   2.0000     -10.302974      -280.3582
   9   2.0000     -10.287188      -279.9286
  10   2.0000     -10.281297      -279.7683
  11   2.0000     -10.274700      -279.5888
  12   2.0000     -10.264700      -279.3167
  13   2.0000     -10.255474      -279.0656
  14   2.0000     -10.249778      -278.9106
  15   2.0000     -10.242047      -278.7003
  16   2.0000     -10.168532      -276.6998
  17   2.0000      -8.327022      -226.5898
  18   2.0000      -6.290821      -171.1819
  19   2.0000      -6.284513      -171.0103
  20   2.0000      -6.282830      -170.9645
  21   2.0000      -1.513267       -41.1781
  22   2.0000      -1.237025       -33.6612
  23   2.0000      -1.132804       -30.8252
  24   2.0000      -1.039674       -28.2910
  25   2.0000      -0.959718       -26.1152
  26   2.0000      -0.946477       -25.7549
  27   2.0000      -0.916610       -24.9422
  28   2.0000      -0.886869       -24.1329
  29   2.0000      -0.866439       -23.5770
  30   2.0000      -0.836075       -22.7508
  31   2.0000      -0.808561       -22.0021
  32   2.0000      -0.774370       -21.0717
  33   2.0000      -0.745178       -20.2773
  34   2.0000      -0.721928       -19.6447
  35   2.0000      -0.716035       -19.4843
  36   2.0000      -0.699157       -19.0250
  37   2.0000      -0.692790       -18.8518
  38   2.0000      -0.676115       -18.3980
  39   2.0000      -0.655918       -17.8484
  40   2.0000      -0.639755       -17.4086
  41   2.0000      -0.622648       -16.9431
  42   2.0000      -0.609252       -16.5786
  43   2.0000      -0.601344       -16.3634
  44   2.0000      -0.581813       -15.8319
  45   2.0000      -0.572805       -15.5868
  46   2.0000      -0.568361       -15.4659
  47   2.0000      -0.554944       -15.1008
  48   2.0000      -0.548011       -14.9121
  49   2.0000      -0.532123       -14.4798
  50   2.0000      -0.524671       -14.2770
  51   2.0000      -0.512649       -13.9499
  52   2.0000      -0.511539       -13.9197
  53   2.0000      -0.505945       -13.7675
  54   2.0000      -0.481647       -13.1063
  55   2.0000      -0.476601       -12.9690
  56   2.0000      -0.472181       -12.8487
  57   2.0000      -0.463361       -12.6087
  58   2.0000      -0.453166       -12.3313
  59   2.0000      -0.446293       -12.1442
  60   2.0000      -0.440849       -11.9961
  61   2.0000      -0.431047       -11.7294
  62   2.0000      -0.424970       -11.5640
  63   2.0000      -0.416478       -11.3329
  64   2.0000      -0.412752       -11.2316
  65   2.0000      -0.409408       -11.1406
  66   2.0000      -0.395645       -10.7661
  67   2.0000      -0.386724       -10.5233
  68   2.0000      -0.378230       -10.2922
  69   2.0000      -0.363029        -9.8785
  70   2.0000      -0.331090        -9.0094
  71   2.0000      -0.217241        -5.9114
  72   0.0000       0.057445         1.5632
  73   0.0000       0.081720         2.2237
  74   0.0000       0.084871         2.3095
  75   0.0000       0.096950         2.6381
  76   0.0000       0.108018         2.9393

MULLIKEN ATOMIC CHARGES
-----------------------
   0 C :    0.076645
   1 C :    0.285526
   2 C :    0.138371
   3 C :    0.185928
   4 H :    0.078836
   5 H :    0.056969
   6 S :    1.678900
   7 C :    0.946155
   8 N :    0.215491
   9 N :   -0.047634
  10 H :   -0.035378
  11 H :   -0.248120
  12 H :   -0.682144
  13 H :   -0.296802
  14 H :   -0.204755
  15 O :   -0.677844
  16 F :   -0.525303
  17 C :    0.402272
  18 H :    0.134966
  19 H :   -0.199337
  20 C :   -0.002707
  21 C :    0.261329
  22 H :    0.041550
  23 H :   -0.536975
  24 H :   -0.067003
  25 H :    0.062805
  26 C :    0.050941
  27 H :   -0.065978
  28 H :   -0.119474
  29 C :   -0.100732
  30 H :   -0.116968
  31 H :   -0.062324
  32 C :    0.623770
  33 H :   -0.321424
  34 H :    0.107622
  35 H :    0.124037
  36 H :   -0.319538
  37 H :   -0.030781
  38 H :    0.018638
  39 O :   -0.829529
Sum of atomic charges:    0.0000000

LOEWDIN ATOMIC CHARGES
----------------------
   0 C :   -0.045557
   1 C :   -0.019150
   2 C :   -0.019809
   3 C :   -0.047839
   4 H :    0.033137
   5 H :    0.024689
   6 S :    1.205408
   7 C :   -0.189281
   8 N :    0.198560
   9 N :    0.193808
  10 H :   -0.015669
  11 H :   -0.014550
  12 H :   -0.142622
  13 H :   -0.117573
  14 H :   -0.006789
  15 O :   -0.445387
  16 F :   -0.238989
  17 C :   -0.032078
  18 H :    0.010560
  19 H :    0.005649
  20 C :   -0.036337
  21 C :   -0.024679
  22 H :    0.041257
  23 H :   -0.010500
  24 H :    0.040615
  25 H :    0.033165
  26 C :   -0.032215
  27 H :    0.014977
  28 H :    0.010539
  29 C :   -0.037506
  30 H :    0.023903
  31 H :    0.008614
  32 C :   -0.033359
  33 H :    0.023678
  34 H :    0.007751
  35 H :    0.020315
  36 H :    0.022694
  37 H :    0.020777
  38 H :    0.022820
  39 O :   -0.453027

  Mayer bond orders larger than 0.100000
B(  0-C ,  1-C ) :   1.1789 B(  0-C , 12-H ) :   0.7791 B(  0-C , 17-C ) :   1.1255
B(  0-C , 18-H ) :   0.7009 B(  0-C , 19-H ) :   0.9233 B(  0-C , 27-H ) :   0.1764
B(  0-C , 28-H ) :   0.1401 B(  1-C ,  7-C ) :   1.7072 B(  1-C ,  8-N ) :   0.3155
B(  1-C ,  9-N ) :   0.2922 B(  1-C , 12-H ) :  -0.3253 B(  1-C , 18-H ) :   0.3521
B(  1-C , 19-H ) :   0.1579 B(  2-C ,  3-C ) :   1.2626 B(  2-C ,  5-H ) :   0.2635
B(  2-C , 21-C ) :   1.1185 B(  2-C , 24-H ) :   0.8396 B(  2-C , 25-H ) :   0.8651
B(  3-C ,  4-H ) :   0.9109 B(  3-C ,  5-H ) :   0.6976 B(  3-C ,  6-S ) :   1.0071
B(  3-C , 16-F ) :   0.1024 B(  3-C , 25-H ) :   0.1013 B(  6-S , 15-O ) :   1.3617
B(  6-S , 16-F ) :   0.4598 B(  6-S , 39-O ) :   1.4516 B(  7-C ,  8-N ) :   0.8094
B(  7-C ,  9-N ) :   0.7791 B(  7-C , 11-H ) :  -0.1603 B(  7-C , 12-H ) :  -0.1020
B(  7-C , 13-H ) :  -0.2189 B(  7-C , 14-H ) :  -0.1492 B(  8-N , 13-H ) :   1.1937
B(  8-N , 14-H ) :   1.3238 B(  9-N , 10-H ) :   1.0585 B(  9-N , 11-H ) :   1.3225
B( 10-H , 11-H ) :  -0.1854 B( 11-H , 12-H ) :  -0.1002 B( 12-H , 18-H ) :  -0.1797
B( 12-H , 39-O ) :   0.1786 B( 13-H , 14-H ) :  -0.2401 B( 13-H , 15-O ) :   0.1397
B( 16-F , 39-O ) :   0.1034 B( 17-C , 18-H ) :   0.1083 B( 17-C , 26-C ) :   1.2770
B( 17-C , 27-H ) :   0.8029 B( 17-C , 28-H ) :   0.7298 B( 17-C , 31-H ) :   0.1376
B( 18-H , 19-H ) :  -0.1019 B( 20-C , 21-C ) :   1.2161 B( 20-C , 22-H ) :   0.1107
B( 20-C , 23-H ) :   0.1036 B( 20-C , 32-C ) :   1.1326 B( 20-C , 35-H ) :   0.8559
B( 20-C , 36-H ) :   0.9719 B( 20-C , 37-H ) :   0.1047 B( 20-C , 38-H ) :   0.2098
B( 21-C , 22-H ) :   0.7148 B( 21-C , 23-H ) :   0.8087 B( 21-C , 24-H ) :   0.1785
B( 21-C , 36-H ) :   0.1896 B( 22-H , 23-H ) :   0.2399 B( 23-H , 34-H ) :   0.1182
B( 26-C , 27-H ) :   0.1246 B( 26-C , 28-H ) :   0.2193 B( 26-C , 29-C ) :   1.1907
B( 26-C , 30-H ) :   0.8425 B( 26-C , 31-H ) :   0.9063 B( 26-C , 33-H ) :   0.1324
B( 27-H , 28-H ) :  -0.1064 B( 29-C , 30-H ) :   0.1323 B( 29-C , 31-H ) :   0.1008
B( 29-C , 32-C ) :   1.1257 B( 29-C , 33-H ) :   1.0385 B( 29-C , 34-H ) :   0.8539
B( 29-C , 37-H ) :   0.2711 B( 29-C , 38-H ) :   0.1348 B( 32-C , 37-H ) :   0.6973
B( 32-C , 38-H ) :   0.7105

Dispersion correction           -0.021960216
FINAL SINGLE POINT ENERGY     -1190.035824622277

DIPOLE MOMENT
-------------
                                X             Y             Z
Electronic contribution:    -20.58006       3.44797     -21.98237
Nuclear contribution   :     19.99734      -4.67125      20.55522
                        -----------------------------------------
Total Dipole Moment    :     -0.58272      -1.22328      -1.42715
                        -----------------------------------------
Magnitude (a.u.)       :      1.96792
Magnitude (Debye)      :      5.00206

Rotational constants in cm-1:     0.014213     0.012058     0.007367
Rotational constants in MHz :   426.102180   361.491761   220.844824

                             ****ORCA TERMINATED NORMALLY****
TOTAL RUN TIME: 0 days 0 hours 2 minutes 27 seconds 464 msec
