                         Program Version 5.0.0 -  RELEASE  -
|  1> !wB97X-D3 RIJCOSX def2-SVPD def2/J TightSCF xyzfile
|  2>
|  3> *xyzfile 0 1 D6.xyz
|  4>
|  5> %MaxCore 64000
|  6>
|  7> %pal nprocs 18
|  8> end
|  9>
| 10> %scf
| 11>   MaxIter 150
| 12> end
| 13>
| 14>
| 15>                          ****END OF INPUT****

CARTESIAN COORDINATES (ANGSTROEM)
---------------------------------
  C      4.490588    1.155899   -2.469290
  N      4.305394    1.222762   -3.908317
  C      4.906458   -3.102816   -5.954844
  C      3.511771   -2.806215   -6.492283
  H      2.736044   -3.373445   -5.973736
  H      3.444904   -3.040831   -7.555281
  S      3.004618   -1.096206   -6.389259
  C      4.631918    2.246365   -4.670958
  N      4.541686    2.143990   -5.987139
  C      5.084086    3.393584   -4.118545
  H      4.920675    3.570501   -3.135870
  H      5.254652    4.197390   -4.706956
  H      3.824530    0.449113   -4.350926
  H      4.343373    1.249318   -6.416646
  H      4.676712    2.956624   -6.574113
  O      4.128856   -0.329647   -6.953717
  F      1.781285   -1.000779   -7.136399
  C      5.942129    0.939500   -2.036893
  H      3.864305    0.328532   -2.136611
  H      4.076233    2.049994   -1.989010
  C      6.462677   -3.117775   -3.944671
  C      5.024977   -3.025679   -4.437625
  H      4.423321   -3.818693   -3.977648
  H      4.579350   -2.087131   -4.108727
  H      5.201533   -4.100207   -6.296905
  H      5.605922   -2.397822   -6.413368
  C      6.559957   -0.356290   -2.559086
  H      5.967976    0.952567   -0.942444
  H      6.547184    1.788331   -2.368849
  C      6.006283   -1.615917   -1.899301
  H      7.642360   -0.318000   -2.402059
  H      6.414855   -0.403433   -3.642587
  C      6.608718   -2.917014   -2.435655
  H      6.190324   -1.561115   -0.820948
  H      4.919250   -1.651245   -2.016586
  H      7.066975   -2.374258   -4.475514
  H      6.887808   -4.089747   -4.215332
  H      6.135197   -3.755573   -1.915159
  H      7.671142   -2.955503   -2.172291
  O      2.851546   -0.783683   -4.956789

 Total Charge           Charge          ....    0
 Multiplicity           Mult            ....    1
 Number of Electrons    NEL             ....  144
 Basis Dimension        Dim             ....  540

ORBITAL ENERGIES
----------------

  NO   OCC          E(Eh)            E(eV)
   0   2.0000     -89.272594     -2429.2308
   1   2.0000     -24.955338      -679.0693
   2   2.0000     -19.287615      -524.8427
   3   2.0000     -19.287471      -524.8388
   4   2.0000     -14.397968      -391.7886
   5   2.0000     -14.394288      -391.6885
   6   2.0000     -10.378108      -282.4027
   7   2.0000     -10.332111      -281.1510
   8   2.0000     -10.306767      -280.4614
   9   2.0000     -10.300073      -280.2792
  10   2.0000     -10.297205      -280.2012
  11   2.0000     -10.291680      -280.0509
  12   2.0000     -10.284652      -279.8596
  13   2.0000     -10.276486      -279.6374
  14   2.0000     -10.268114      -279.4096
  15   2.0000     -10.261324      -279.2248
  16   2.0000     -10.169420      -276.7240
  17   2.0000      -8.345874      -227.1028
  18   2.0000      -6.309613      -171.6933
  19   2.0000      -6.303536      -171.5279
  20   2.0000      -6.301546      -171.4738
  21   2.0000      -1.529152       -41.6103
  22   2.0000      -1.256629       -34.1946
  23   2.0000      -1.152977       -31.3741
  24   2.0000      -1.047300       -28.4985
  25   2.0000      -0.973422       -26.4881
  26   2.0000      -0.962327       -26.1863
  27   2.0000      -0.927391       -25.2356
  28   2.0000      -0.895798       -24.3759
  29   2.0000      -0.868611       -23.6361
  30   2.0000      -0.839556       -22.8455
  31   2.0000      -0.802076       -21.8256
  32   2.0000      -0.786604       -21.4046
  33   2.0000      -0.764996       -20.8166
  34   2.0000      -0.738305       -20.0903
  35   2.0000      -0.732565       -19.9341
  36   2.0000      -0.713501       -19.4154
  37   2.0000      -0.700727       -19.0678
  38   2.0000      -0.693136       -18.8612
  39   2.0000      -0.660879       -17.9834
  40   2.0000      -0.641778       -17.4637
  41   2.0000      -0.627225       -17.0677
  42   2.0000      -0.623664       -16.9708
  43   2.0000      -0.607386       -16.5278
  44   2.0000      -0.599098       -16.3023
  45   2.0000      -0.582663       -15.8551
  46   2.0000      -0.577066       -15.7028
  47   2.0000      -0.564015       -15.3476
  48   2.0000      -0.553737       -15.0680
  49   2.0000      -0.539311       -14.6754
  50   2.0000      -0.531691       -14.4680
  51   2.0000      -0.528967       -14.3939
  52   2.0000      -0.519848       -14.1458
  53   2.0000      -0.504249       -13.7213
  54   2.0000      -0.489577       -13.3221
  55   2.0000      -0.483724       -13.1628
  56   2.0000      -0.480806       -13.0834
  57   2.0000      -0.469397       -12.7729
  58   2.0000      -0.462466       -12.5844
  59   2.0000      -0.455633       -12.3984
  60   2.0000      -0.449132       -12.2215
  61   2.0000      -0.443722       -12.0743
  62   2.0000      -0.437481       -11.9045
  63   2.0000      -0.432707       -11.7746
  64   2.0000      -0.427658       -11.6372
  65   2.0000      -0.424415       -11.5489
  66   2.0000      -0.416137       -11.3237
  67   2.0000      -0.401264       -10.9189
  68   2.0000      -0.398914       -10.8550
  69   2.0000      -0.390030       -10.6133
  70   2.0000      -0.308870        -8.4048
  71   2.0000      -0.220991        -6.0135
  72   0.0000       0.047679         1.2974
  73   0.0000       0.071835         1.9547
  74   0.0000       0.077081         2.0975
  75   0.0000       0.089860         2.4452
  76   0.0000       0.098180         2.6716

MULLIKEN ATOMIC CHARGES
-----------------------
   0 C :    0.962442
   1 N :    0.331646
   2 C :    0.124290
   3 C :    0.192074
   4 H :    0.080357
   5 H :    0.073957
   6 S :    1.643305
   7 C :    0.591017
   8 N :    0.567808
   9 C :    0.497783
  10 H :    0.090426
  11 H :   -0.681813
  12 H :   -1.255944
  13 H :   -0.461347
  14 H :   -0.182497
  15 O :   -0.704406
  16 F :   -0.527760
  17 C :    0.308678
  18 H :   -0.304941
  19 H :   -0.086775
  20 C :   -0.018495
  21 C :    0.219203
  22 H :    0.046057
  23 H :   -0.495290
  24 H :   -0.060661
  25 H :    0.069829
  26 C :    0.087691
  27 H :   -0.117246
  28 H :   -0.034737
  29 C :   -0.166213
  30 H :   -0.152876
  31 H :   -0.126137
  32 C :    0.629676
  33 H :   -0.320987
  34 H :    0.141387
  35 H :    0.128829
  36 H :   -0.315751
  37 H :   -0.029132
  38 H :    0.025176
  39 O :   -0.768627
Sum of atomic charges:   -0.0000000

LOEWDIN ATOMIC CHARGES
----------------------
   0 C :    0.067466
   1 N :    0.007818
   2 C :   -0.018213
   3 C :   -0.044525
   4 H :    0.034474
   5 H :    0.027609
   6 S :    1.210363
   7 C :   -0.210596
   8 N :    0.207597
   9 C :    0.141756
  10 H :   -0.120930
  11 H :   -0.112851
  12 H :   -0.097005
  13 H :   -0.126581
  14 H :    0.011598
  15 O :   -0.443914
  16 F :   -0.232135
  17 C :   -0.015766
  18 H :    0.015213
  19 H :    0.017355
  20 C :   -0.035052
  21 C :   -0.026224
  22 H :    0.042214
  23 H :   -0.013957
  24 H :    0.042917
  25 H :    0.034242
  26 C :   -0.032913
  27 H :    0.021829
  28 H :    0.012202
  29 C :   -0.040213
  30 H :    0.026730
  31 H :    0.007840
  32 C :   -0.031512
  33 H :    0.025109
  34 H :    0.005195
  35 H :    0.021049
  36 H :    0.024383
  37 H :    0.021884
  38 H :    0.024654
  39 O :   -0.449107

  Mayer bond orders larger than 0.100000
B(  0-C ,  1-N ) :   0.9762 B(  0-C , 10-H ) :   0.1207 B(  0-C , 12-H ) :  -0.5439
B(  0-C , 17-C ) :   1.0842 B(  0-C , 18-H ) :   0.7387 B(  0-C , 19-H ) :   0.8674
B(  1-N ,  7-C ) :   1.0107 B(  1-N ,  9-C ) :   0.2819 B(  1-N , 11-H ) :   0.1334
B(  1-N , 12-H ) :   0.7549 B(  1-N , 13-H ) :   0.1604 B(  1-N , 14-H ) :  -0.1064
B(  1-N , 18-H ) :   0.2712 B(  2-C ,  3-C ) :   1.2652 B(  2-C ,  5-H ) :   0.2652
B(  2-C , 20-C ) :   0.1002 B(  2-C , 21-C ) :   1.1233 B(  2-C , 24-H ) :   0.8463
B(  2-C , 25-H ) :   0.8650 B(  3-C ,  4-H ) :   0.9096 B(  3-C ,  5-H ) :   0.6919
B(  3-C ,  6-S ) :   1.0243 B(  3-C , 16-F ) :   0.1032 B(  3-C , 25-H ) :   0.1046
B(  6-S , 15-O ) :   1.3615 B(  6-S , 16-F ) :   0.4829 B(  6-S , 39-O ) :   1.3544
B(  7-C ,  8-N ) :   0.9633 B(  7-C ,  9-C ) :   1.7346 B(  7-C , 10-H ) :   0.3766
B(  7-C , 11-H ) :   0.3429 B(  7-C , 12-H ) :  -0.7110 B(  7-C , 13-H ) :  -0.1677
B(  7-C , 18-H ) :   0.1197 B(  8-N ,  9-C ) :   0.1991 B(  8-N , 13-H ) :   0.9121
B(  8-N , 14-H ) :   1.2440 B(  9-C , 10-H ) :   0.5308 B(  9-C , 11-H ) :   0.6742
B( 10-H , 13-H ) :   0.1537 B( 10-H , 18-H ) :  -0.1058 B( 10-H , 19-H ) :   0.1183
B( 11-H , 12-H ) :  -0.1091 B( 12-H , 39-O ) :   0.1933 B( 13-H , 14-H ) :  -0.2528
B( 13-H , 15-O ) :   0.1662 B( 17-C , 18-H ) :   0.1191 B( 17-C , 26-C ) :   1.1877
B( 17-C , 27-H ) :   0.9132 B( 17-C , 28-H ) :   0.7865 B( 17-C , 31-H ) :   0.1119
B( 18-H , 19-H ) :  -0.1995 B( 20-C , 21-C ) :   1.2276 B( 20-C , 22-H ) :   0.1107
B( 20-C , 32-C ) :   1.1356 B( 20-C , 35-H ) :   0.8579 B( 20-C , 36-H ) :   0.9742
B( 20-C , 37-H ) :   0.1091 B( 20-C , 38-H ) :   0.2070 B( 21-C , 22-H ) :   0.7216
B( 21-C , 23-H ) :   0.8450 B( 21-C , 24-H ) :   0.1787 B( 21-C , 36-H ) :   0.1896
B( 22-H , 23-H ) :   0.2287 B( 23-H , 34-H ) :   0.1176 B( 26-C , 28-H ) :   0.2036
B( 26-C , 29-C ) :   1.1978 B( 26-C , 30-H ) :   0.8899 B( 26-C , 31-H ) :   0.9303
B( 26-C , 33-H ) :   0.1397 B( 27-H , 28-H ) :  -0.1134 B( 29-C , 30-H ) :   0.1513
B( 29-C , 31-H ) :   0.1179 B( 29-C , 32-C ) :   1.1358 B( 29-C , 33-H ) :   1.0501
B( 29-C , 34-H ) :   0.8480 B( 29-C , 37-H ) :   0.2733 B( 29-C , 38-H ) :   0.1343
B( 32-C , 37-H ) :   0.6910 B( 32-C , 38-H ) :   0.7151

Dispersion correction           -0.021911189
FINAL SINGLE POINT ENERGY     -1190.041780606307

DIPOLE MOMENT
-------------
                                X             Y             Z
Electronic contribution:    -21.14320       1.23815     -21.88357
Nuclear contribution   :     20.11362      -4.34709      20.52383
                        -----------------------------------------
Total Dipole Moment    :     -1.02958      -3.10894      -1.35974
                        -----------------------------------------
Magnitude (a.u.)       :      3.54604
Magnitude (Debye)      :      9.01333

Rotational constants in cm-1:     0.014449     0.012108     0.007447
Rotational constants in MHz :   433.168496   362.988632   223.260798

                             ****ORCA TERMINATED NORMALLY****
TOTAL RUN TIME: 0 days 0 hours 2 minutes 57 seconds 43 msec
