                         Program Version 5.0.0 -  RELEASE  -
|  1> !wB97X-D3 RIJCOSX def2-SVPD def2/J TightSCF xyzfile
|  2>
|  3> *xyzfile 0 1 D7.xyz
|  4>
|  5> %MaxCore 64000
|  6>
|  7> %pal nprocs 18
|  8> end
|  9>
| 10> %scf
| 11>   MaxIter 150
| 12> end
| 13>
| 14>
| 15>                          ****END OF INPUT****

CARTESIAN COORDINATES (ANGSTROEM)
---------------------------------
  C      4.490588    1.155899   -2.469290
  C      4.305394    1.222762   -3.908317
  C      4.906458   -3.102816   -5.954844
  C      3.511771   -2.806215   -6.492283
  H      2.736044   -3.373445   -5.973736
  H      3.444904   -3.040831   -7.555281
  S      3.004618   -1.096206   -6.389259
  C      4.631918    2.246365   -4.670958
  N      4.541686    2.143990   -5.987139
  N      5.084086    3.393584   -4.118545
  H      4.920675    3.570501   -3.135870
  H      5.254652    4.197390   -4.706956
  H      3.824530    0.449113   -4.350926
  H      4.343373    1.249318   -6.416646
  H      4.676712    2.956624   -6.574113
  O      4.128856   -0.329647   -6.953717
  O      1.781285   -1.000779   -7.136399
  C      5.942129    0.939500   -2.036893
  H      3.864305    0.328532   -2.136611
  H      4.076233    2.049994   -1.989010
  C      6.462677   -3.117775   -3.944671
  C      5.024977   -3.025679   -4.437625
  H      4.423321   -3.818693   -3.977648
  H      4.579350   -2.087131   -4.108727
  H      5.201533   -4.100207   -6.296905
  H      5.605922   -2.397822   -6.413368
  C      6.559957   -0.356290   -2.559086
  H      5.967976    0.952567   -0.942444
  H      6.547184    1.788331   -2.368849
  C      6.006283   -1.615917   -1.899301
  H      7.642360   -0.318000   -2.402059
  H      6.414855   -0.403433   -3.642587
  C      6.608718   -2.917014   -2.435655
  H      6.190324   -1.561115   -0.820948
  H      4.919250   -1.651245   -2.016586
  H      7.066975   -2.374258   -4.475514
  H      6.887808   -4.089747   -4.215332
  H      6.135197   -3.755573   -1.915159
  H      7.671142   -2.955503   -2.172291
  F      2.851546   -0.783683   -4.956789

 Total Charge           Charge          ....    0
 Multiplicity           Mult            ....    1
 Number of Electrons    NEL             ....  144
 Basis Dimension        Dim             ....  540

ORBITAL ENERGIES
----------------

  NO   OCC          E(Eh)            E(eV)
   0   2.0000     -89.248258     -2428.5686
   1   2.0000     -24.914941      -677.9700
   2   2.0000     -19.272744      -524.4380
   3   2.0000     -19.268085      -524.3112
   4   2.0000     -14.427889      -392.6028
   5   2.0000     -14.404477      -391.9657
   6   2.0000     -10.360146      -281.9139
   7   2.0000     -10.320739      -280.8416
   8   2.0000     -10.319165      -280.7988
   9   2.0000     -10.299883      -280.2741
  10   2.0000     -10.289684      -279.9965
  11   2.0000     -10.283159      -279.8190
  12   2.0000     -10.275286      -279.6047
  13   2.0000     -10.266200      -279.3575
  14   2.0000     -10.261444      -279.2281
  15   2.0000     -10.257823      -279.1296
  16   2.0000     -10.191811      -277.3333
  17   2.0000      -8.321273      -226.4334
  18   2.0000      -6.284986      -171.0232
  19   2.0000      -6.278911      -170.8579
  20   2.0000      -6.277202      -170.8114
  21   2.0000      -1.479212       -40.2514
  22   2.0000      -1.243137       -33.8275
  23   2.0000      -1.144328       -31.1388
  24   2.0000      -1.053051       -28.6550
  25   2.0000      -0.961999       -26.1773
  26   2.0000      -0.957615       -26.0580
  27   2.0000      -0.923328       -25.1250
  28   2.0000      -0.893991       -24.3267
  29   2.0000      -0.868507       -23.6333
  30   2.0000      -0.832736       -22.6599
  31   2.0000      -0.818388       -22.2695
  32   2.0000      -0.780475       -21.2378
  33   2.0000      -0.753067       -20.4920
  34   2.0000      -0.731665       -19.9096
  35   2.0000      -0.702198       -19.1078
  36   2.0000      -0.697607       -18.9829
  37   2.0000      -0.686995       -18.6941
  38   2.0000      -0.682117       -18.5613
  39   2.0000      -0.659780       -17.9535
  40   2.0000      -0.650686       -17.7061
  41   2.0000      -0.629580       -17.1317
  42   2.0000      -0.606221       -16.4961
  43   2.0000      -0.592470       -16.1219
  44   2.0000      -0.589154       -16.0317
  45   2.0000      -0.582491       -15.8504
  46   2.0000      -0.580394       -15.7933
  47   2.0000      -0.561705       -15.2848
  48   2.0000      -0.552420       -15.0321
  49   2.0000      -0.543369       -14.7858
  50   2.0000      -0.530724       -14.4417
  51   2.0000      -0.524741       -14.2789
  52   2.0000      -0.522506       -14.2181
  53   2.0000      -0.505654       -13.7595
  54   2.0000      -0.495224       -13.4757
  55   2.0000      -0.483099       -13.1458
  56   2.0000      -0.475068       -12.9273
  57   2.0000      -0.469615       -12.7789
  58   2.0000      -0.465114       -12.6564
  59   2.0000      -0.452548       -12.3144
  60   2.0000      -0.445243       -12.1157
  61   2.0000      -0.439177       -11.9506
  62   2.0000      -0.433652       -11.8003
  63   2.0000      -0.427784       -11.6406
  64   2.0000      -0.423190       -11.5156
  65   2.0000      -0.421369       -11.4660
  66   2.0000      -0.414307       -11.2739
  67   2.0000      -0.398014       -10.8305
  68   2.0000      -0.391733       -10.6596
  69   2.0000      -0.386449       -10.5158
  70   2.0000      -0.342468        -9.3190
  71   2.0000      -0.234545        -6.3823
  72   0.0000       0.066348         1.8054
  73   0.0000       0.085089         2.3154
  74   0.0000       0.090544         2.4638
  75   0.0000       0.094768         2.5788
  76   0.0000       0.106583         2.9003

MULLIKEN ATOMIC CHARGES
-----------------------
   0 C :    0.095143
   1 C :    0.377542
   2 C :    0.202328
   3 C :    0.196042
   4 H :    0.055496
   5 H :    0.061988
   6 S :    1.574837
   7 C :    0.955210
   8 N :    0.205275
   9 N :   -0.037740
  10 H :   -0.030569
  11 H :   -0.244901
  12 H :   -0.796996
  13 H :   -0.288876
  14 H :   -0.192304
  15 O :   -0.690651
  16 O :   -0.715553
  17 C :    0.393817
  18 H :    0.127137
  19 H :   -0.198213
  20 C :   -0.018850
  21 C :    0.274774
  22 H :    0.039980
  23 H :   -0.579957
  24 H :   -0.061201
  25 H :    0.073097
  26 C :    0.052879
  27 H :   -0.061628
  28 H :   -0.112744
  29 C :   -0.097305
  30 H :   -0.111160
  31 H :   -0.059354
  32 C :    0.616004
  33 H :   -0.313633
  34 H :    0.092754
  35 H :    0.124718
  36 H :   -0.315516
  37 H :   -0.029242
  38 H :    0.022709
  39 F :   -0.585337
Sum of atomic charges:   -0.0000000

LOEWDIN ATOMIC CHARGES
----------------------
   0 C :   -0.048854
   1 C :   -0.026533
   2 C :   -0.033032
   3 C :   -0.038411
   4 H :    0.033307
   5 H :    0.038857
   6 S :    1.170657
   7 C :   -0.184563
   8 N :    0.202786
   9 N :    0.199390
  10 H :   -0.012909
  11 H :   -0.009569
  12 H :   -0.118483
  13 H :   -0.116149
  14 H :   -0.000972
  15 O :   -0.444265
  16 O :   -0.443182
  17 C :   -0.030862
  18 H :    0.008369
  19 H :    0.007628
  20 C :   -0.034193
  21 C :   -0.030690
  22 H :    0.041073
  23 H :   -0.011272
  24 H :    0.039218
  25 H :    0.031250
  26 C :   -0.032065
  27 H :    0.016751
  28 H :    0.012000
  29 C :   -0.038725
  30 H :    0.025733
  31 H :    0.008007
  32 C :   -0.032482
  33 H :    0.024806
  34 H :    0.004562
  35 H :    0.021350
  36 H :    0.025502
  37 H :    0.021636
  38 H :    0.024132
  39 F :   -0.269805

  Mayer bond orders larger than 0.100000
B(  0-C ,  1-C ) :   1.1132 B(  0-C , 12-H ) :   0.7757 B(  0-C , 17-C ) :   1.1239
B(  0-C , 18-H ) :   0.7008 B(  0-C , 19-H ) :   0.9239 B(  0-C , 27-H ) :   0.1785
B(  0-C , 28-H ) :   0.1506 B(  1-C ,  7-C ) :   1.6837 B(  1-C ,  8-N ) :   0.3098
B(  1-C ,  9-N ) :   0.2811 B(  1-C , 12-H ) :  -0.4977 B(  1-C , 18-H ) :   0.3611
B(  1-C , 19-H ) :   0.1539 B(  2-C ,  3-C ) :   1.2310 B(  2-C ,  5-H ) :   0.2353
B(  2-C , 21-C ) :   1.1284 B(  2-C , 24-H ) :   0.8341 B(  2-C , 25-H ) :   0.8745
B(  3-C ,  4-H ) :   0.9283 B(  3-C ,  5-H ) :   0.7395 B(  3-C ,  6-S ) :   0.9992
B(  3-C , 25-H ) :   0.1052 B(  6-S , 15-O ) :   1.3844 B(  6-S , 16-O ) :   1.4525
B(  6-S , 39-F ) :   0.6441 B(  7-C ,  8-N ) :   0.8018 B(  7-C ,  9-N ) :   0.8114
B(  7-C , 11-H ) :  -0.1593 B(  7-C , 13-H ) :  -0.2173 B(  7-C , 14-H ) :  -0.1439
B(  8-N , 13-H ) :   1.1913 B(  8-N , 14-H ) :   1.3142 B(  9-N , 10-H ) :   1.0565
B(  9-N , 11-H ) :   1.3154 B( 10-H , 11-H ) :  -0.1853 B( 12-H , 18-H ) :  -0.1816
B( 12-H , 39-F ) :   0.2280 B( 13-H , 14-H ) :  -0.2399 B( 13-H , 15-O ) :   0.1297
B( 17-C , 18-H ) :   0.1160 B( 17-C , 26-C ) :   1.2789 B( 17-C , 27-H ) :   0.8059
B( 17-C , 28-H ) :   0.7299 B( 17-C , 31-H ) :   0.1404 B( 20-C , 21-C ) :   1.2259
B( 20-C , 22-H ) :   0.1087 B( 20-C , 23-H ) :   0.1200 B( 20-C , 32-C ) :   1.1322
B( 20-C , 35-H ) :   0.8574 B( 20-C , 36-H ) :   0.9778 B( 20-C , 37-H ) :   0.1037
B( 20-C , 38-H ) :   0.2103 B( 21-C , 22-H ) :   0.7163 B( 21-C , 23-H ) :   0.7456
B( 21-C , 24-H ) :   0.1781 B( 21-C , 36-H ) :   0.1867 B( 22-H , 23-H ) :   0.2525
B( 23-H , 34-H ) :   0.1221 B( 26-C , 27-H ) :   0.1278 B( 26-C , 28-H ) :   0.2165
B( 26-C , 29-C ) :   1.1883 B( 26-C , 30-H ) :   0.8454 B( 26-C , 31-H ) :   0.9051
B( 26-C , 33-H ) :   0.1333 B( 27-H , 28-H ) :  -0.1051 B( 29-C , 30-H ) :   0.1328
B( 29-C , 32-C ) :   1.1284 B( 29-C , 33-H ) :   1.0354 B( 29-C , 34-H ) :   0.8542
B( 29-C , 37-H ) :   0.2712 B( 29-C , 38-H ) :   0.1342 B( 32-C , 37-H ) :   0.6988
B( 32-C , 38-H ) :   0.7122

Dispersion correction           -0.021801064
FINAL SINGLE POINT ENERGY     -1190.054556879332

DIPOLE MOMENT
-------------
                                X             Y             Z
Electronic contribution:    -18.40025       3.98646     -17.98571
Nuclear contribution   :     18.74089      -4.92611      17.99644
                        -----------------------------------------
Total Dipole Moment    :      0.34065      -0.93965       0.01073
                        -----------------------------------------
Magnitude (a.u.)       :      0.99955
Magnitude (Debye)      :      2.54065

Rotational constants in cm-1:     0.014210     0.012324     0.007480
Rotational constants in MHz :   425.991442   369.455467   224.259162

                             ****ORCA TERMINATED NORMALLY****
TOTAL RUN TIME: 0 days 0 hours 2 minutes 32 seconds 391 msec
