                         Program Version 5.0.0 -  RELEASE  -
|  1> !wB97X-D3 RIJCOSX def2-SVPD def2/J TightSCF xyzfile
|  2>
|  3> *xyzfile 0 1 D8.xyz
|  4>
|  5> %MaxCore 64000
|  6>
|  7> %pal nprocs 18
|  8> end
|  9>
| 10> %scf
| 11>   MaxIter 150
| 12> end
| 13>
| 14>
| 15>                          ****END OF INPUT****

CARTESIAN COORDINATES (ANGSTROEM)
---------------------------------
  C      4.490588    1.155899   -2.469290
  N      4.305394    1.222762   -3.908317
  C      4.906458   -3.102816   -5.954844
  C      3.511771   -2.806215   -6.492283
  H      2.736044   -3.373445   -5.973736
  H      3.444904   -3.040831   -7.555281
  S      3.004618   -1.096206   -6.389259
  C      4.631918    2.246365   -4.670958
  C      4.541686    2.143990   -5.987139
  N      5.084086    3.393584   -4.118545
  H      4.920675    3.570501   -3.135870
  H      5.254652    4.197390   -4.706956
  H      3.824530    0.449113   -4.350926
  H      4.343373    1.249318   -6.416646
  H      4.676712    2.956624   -6.574113
  O      4.128856   -0.329647   -6.953717
  O      1.781285   -1.000779   -7.136399
  C      5.942129    0.939500   -2.036893
  H      3.864305    0.328532   -2.136611
  H      4.076233    2.049994   -1.989010
  C      6.462677   -3.117775   -3.944671
  C      5.024977   -3.025679   -4.437625
  H      4.423321   -3.818693   -3.977648
  H      4.579350   -2.087131   -4.108727
  H      5.201533   -4.100207   -6.296905
  H      5.605922   -2.397822   -6.413368
  C      6.559957   -0.356290   -2.559086
  H      5.967976    0.952567   -0.942444
  H      6.547184    1.788331   -2.368849
  C      6.006283   -1.615917   -1.899301
  H      7.642360   -0.318000   -2.402059
  H      6.414855   -0.403433   -3.642587
  C      6.608718   -2.917014   -2.435655
  H      6.190324   -1.561115   -0.820948
  H      4.919250   -1.651245   -2.016586
  H      7.066975   -2.374258   -4.475514
  H      6.887808   -4.089747   -4.215332
  H      6.135197   -3.755573   -1.915159
  H      7.671142   -2.955503   -2.172291
  F      2.851546   -0.783683   -4.956789

 Total Charge           Charge          ....    0
 Multiplicity           Mult            ....    1
 Number of Electrons    NEL             ....  144
 Basis Dimension        Dim             ....  540

ORBITAL ENERGIES
----------------

  NO   OCC          E(Eh)            E(eV)
   0   2.0000     -89.243381     -2428.4359
   1   2.0000     -24.926489      -678.2842
   2   2.0000     -19.269252      -524.3430
   3   2.0000     -19.255410      -523.9664
   4   2.0000     -14.422270      -392.4499
   5   2.0000     -14.420919      -392.4132
   6   2.0000     -10.359367      -281.8927
   7   2.0000     -10.322710      -280.8952
   8   2.0000     -10.321120      -280.8519
   9   2.0000     -10.316884      -280.7367
  10   2.0000     -10.306968      -280.4669
  11   2.0000     -10.296842      -280.1913
  12   2.0000     -10.292801      -280.0813
  13   2.0000     -10.289449      -279.9901
  14   2.0000     -10.283779      -279.8359
  15   2.0000     -10.283498      -279.8282
  16   2.0000     -10.168679      -276.7038
  17   2.0000      -8.316696      -226.3088
  18   2.0000      -6.280628      -170.9046
  19   2.0000      -6.274004      -170.7243
  20   2.0000      -6.272569      -170.6853
  21   2.0000      -1.488912       -40.5154
  22   2.0000      -1.238007       -33.6879
  23   2.0000      -1.135738       -30.9050
  24   2.0000      -1.065497       -28.9937
  25   2.0000      -0.977734       -26.6055
  26   2.0000      -0.962806       -26.1993
  27   2.0000      -0.930518       -25.3207
  28   2.0000      -0.901213       -24.5233
  29   2.0000      -0.865795       -23.5595
  30   2.0000      -0.842970       -22.9384
  31   2.0000      -0.819934       -22.3115
  32   2.0000      -0.785831       -21.3835
  33   2.0000      -0.761414       -20.7191
  34   2.0000      -0.740550       -20.1514
  35   2.0000      -0.719171       -19.5696
  36   2.0000      -0.706470       -19.2240
  37   2.0000      -0.696749       -18.9595
  38   2.0000      -0.678813       -18.4714
  39   2.0000      -0.668421       -18.1887
  40   2.0000      -0.662210       -18.0197
  41   2.0000      -0.622020       -16.9260
  42   2.0000      -0.608815       -16.5667
  43   2.0000      -0.595097       -16.1934
  44   2.0000      -0.589015       -16.0279
  45   2.0000      -0.586351       -15.9554
  46   2.0000      -0.575159       -15.6509
  47   2.0000      -0.571242       -15.5443
  48   2.0000      -0.564009       -15.3475
  49   2.0000      -0.546687       -14.8761
  50   2.0000      -0.543860       -14.7992
  51   2.0000      -0.534142       -14.5348
  52   2.0000      -0.517364       -14.0782
  53   2.0000      -0.504898       -13.7390
  54   2.0000      -0.493546       -13.4301
  55   2.0000      -0.490250       -13.3404
  56   2.0000      -0.484206       -13.1759
  57   2.0000      -0.476185       -12.9577
  58   2.0000      -0.467429       -12.7194
  59   2.0000      -0.462147       -12.5757
  60   2.0000      -0.460621       -12.5341
  61   2.0000      -0.444664       -12.0999
  62   2.0000      -0.442721       -12.0470
  63   2.0000      -0.435787       -11.8584
  64   2.0000      -0.432579       -11.7711
  65   2.0000      -0.418514       -11.3883
  66   2.0000      -0.415263       -11.2999
  67   2.0000      -0.412942       -11.2367
  68   2.0000      -0.406955       -11.0738
  69   2.0000      -0.389493       -10.5986
  70   2.0000      -0.336316        -9.1516
  71   2.0000      -0.231236        -6.2923
  72   0.0000       0.063047         1.7156
  73   0.0000       0.081601         2.2205
  74   0.0000       0.088686         2.4133
  75   0.0000       0.091525         2.4905
  76   0.0000       0.103901         2.8273

MULLIKEN ATOMIC CHARGES
-----------------------
   0 C :    1.011045
   1 N :    0.306288
   2 C :    0.185631
   3 C :    0.211466
   4 H :    0.043993
   5 H :    0.076109
   6 S :    1.503453
   7 C :    1.000035
   8 C :    0.531606
   9 N :    0.178705
  10 H :   -0.055888
  11 H :   -0.189921
  12 H :   -1.146840
  13 H :   -0.367312
  14 H :   -0.647651
  15 O :   -0.716924
  16 O :   -0.723952
  17 C :    0.284212
  18 H :   -0.299468
  19 H :   -0.176637
  20 C :   -0.023503
  21 C :    0.221276
  22 H :    0.045683
  23 H :   -0.539176
  24 H :   -0.059055
  25 H :    0.078454
  26 C :    0.122833
  27 H :   -0.140335
  28 H :   -0.025214
  29 C :   -0.150054
  30 H :   -0.144969
  31 H :   -0.118770
  32 C :    0.615918
  33 H :   -0.322873
  34 H :    0.132273
  35 H :    0.124136
  36 H :   -0.307072
  37 H :   -0.026478
  38 H :    0.027449
  39 F :   -0.518474
Sum of atomic charges:   -0.0000000

LOEWDIN ATOMIC CHARGES
----------------------
   0 C :    0.058981
   1 N :    0.000714
   2 C :   -0.032558
   3 C :   -0.040008
   4 H :    0.030952
   5 H :    0.039919
   6 S :    1.164804
   7 C :   -0.208941
   8 C :    0.171081
   9 N :    0.191713
  10 H :   -0.027290
  11 H :    0.004778
  12 H :   -0.056591
  13 H :   -0.190441
  14 H :   -0.090055
  15 O :   -0.447912
  16 O :   -0.441887
  17 C :   -0.021829
  18 H :    0.014642
  19 H :    0.012159
  20 C :   -0.032932
  21 C :   -0.032761
  22 H :    0.041336
  23 H :   -0.014848
  24 H :    0.039694
  25 H :    0.032599
  26 C :   -0.030897
  27 H :    0.021923
  28 H :    0.013675
  29 C :   -0.041002
  30 H :    0.028925
  31 H :    0.010746
  32 C :   -0.030580
  33 H :    0.025627
  34 H :    0.002505
  35 H :    0.022404
  36 H :    0.027320
  37 H :    0.023052
  38 H :    0.025540
  39 F :   -0.264558

  Mayer bond orders larger than 0.100000
B(  0-C ,  1-N ) :   0.9467 B(  0-C , 12-H ) :  -0.5066 B(  0-C , 17-C ) :   1.1003
B(  0-C , 18-H ) :   0.6560 B(  0-C , 19-H ) :   0.8766 B(  0-C , 27-H ) :   0.1047
B(  0-C , 28-H ) :   0.1012 B(  1-N ,  7-C ) :   1.1526 B(  1-N ,  8-C ) :   0.1364
B(  1-N ,  9-N ) :   0.3057 B(  1-N , 12-H ) :   0.7165 B(  1-N , 18-H ) :   0.2359
B(  1-N , 39-F ) :  -0.1300 B(  2-C ,  3-C ) :   1.2341 B(  2-C ,  5-H ) :   0.2345
B(  2-C , 21-C ) :   1.1432 B(  2-C , 24-H ) :   0.8356 B(  2-C , 25-H ) :   0.8808
B(  3-C ,  4-H ) :   0.9323 B(  3-C ,  5-H ) :   0.7342 B(  3-C ,  6-S ) :   0.9969
B(  3-C , 16-O ) :   0.1039 B(  3-C , 25-H ) :   0.1036 B(  6-S , 15-O ) :   1.4653
B(  6-S , 16-O ) :   1.4517 B(  6-S , 39-F ) :   0.5762 B(  7-C ,  8-C ) :   1.4131
B(  7-C ,  9-N ) :   0.7911 B(  7-C , 12-H ) :  -0.7074 B(  7-C , 14-H ) :   0.1119
B(  8-C ,  9-N ) :   0.3005 B(  8-C , 13-H ) :   0.5184 B(  8-C , 14-H ) :   0.7829
B(  9-N , 10-H ) :   0.9739 B(  9-N , 11-H ) :   1.2058 B( 10-H , 11-H ) :  -0.1804
B( 12-H , 18-H ) :   0.1213 B( 12-H , 39-F ) :   0.2142 B( 13-H , 14-H ) :  -0.1625
B( 17-C , 18-H ) :   0.1220 B( 17-C , 19-H ) :   0.1006 B( 17-C , 26-C ) :   1.2147
B( 17-C , 27-H ) :   0.9440 B( 17-C , 28-H ) :   0.7387 B( 17-C , 31-H ) :   0.1096
B( 18-H , 19-H ) :  -0.1694 B( 20-C , 21-C ) :   1.2334 B( 20-C , 22-H ) :   0.1093
B( 20-C , 23-H ) :   0.1151 B( 20-C , 32-C ) :   1.1358 B( 20-C , 35-H ) :   0.8599
B( 20-C , 36-H ) :   0.9720 B( 20-C , 37-H ) :   0.1066 B( 20-C , 38-H ) :   0.2082
B( 21-C , 22-H ) :   0.7223 B( 21-C , 23-H ) :   0.7948 B( 21-C , 24-H ) :   0.1803
B( 21-C , 36-H ) :   0.1869 B( 22-H , 23-H ) :   0.2404 B( 23-H , 34-H ) :   0.1234
B( 26-C , 28-H ) :   0.2002 B( 26-C , 29-C ) :   1.1944 B( 26-C , 30-H ) :   0.8824
B( 26-C , 31-H ) :   0.9274 B( 26-C , 33-H ) :   0.1360 B( 29-C , 30-H ) :   0.1482
B( 29-C , 31-H ) :   0.1073 B( 29-C , 32-C ) :   1.1391 B( 29-C , 33-H ) :   1.0494
B( 29-C , 34-H ) :   0.8426 B( 29-C , 37-H ) :   0.2699 B( 29-C , 38-H ) :   0.1329
B( 32-C , 37-H ) :   0.6945 B( 32-C , 38-H ) :   0.7154

Dispersion correction           -0.021849202
FINAL SINGLE POINT ENERGY     -1190.031078076278

DIPOLE MOMENT
-------------
                                X             Y             Z
Electronic contribution:    -18.42771       3.12075     -16.16069
Nuclear contribution   :     18.77618      -4.78855      17.68602
                        -----------------------------------------
Total Dipole Moment    :      0.34847      -1.66780       1.52533
                        -----------------------------------------
Magnitude (a.u.)       :      2.28684
Magnitude (Debye)      :      5.81268

Rotational constants in cm-1:     0.014368     0.012319     0.007509
Rotational constants in MHz :   430.738566   369.302170   225.105103

                             ****ORCA TERMINATED NORMALLY****
TOTAL RUN TIME: 0 days 0 hours 2 minutes 32 seconds 229 msec
