                         Program Version 5.0.0 -  RELEASE  -
|  1> !wB97X-D3 RIJCOSX def2-SVPD def2/J TightSCF xyzfile
|  2>
|  3> *xyzfile 0 1 D9.xyz
|  4>
|  5> %MaxCore 64000
|  6>
|  7> %pal nprocs 18
|  8> end
|  9>
| 10> %scf
| 11>   MaxIter 150
| 12> end
| 13>
| 14>
| 15>                          ****END OF INPUT****

CARTESIAN COORDINATES (ANGSTROEM)
---------------------------------
  C      4.490588    1.155899   -2.469290
  N      4.305394    1.222762   -3.908317
  C      4.906458   -3.102816   -5.954844
  C      3.511771   -2.806215   -6.492283
  H      2.736044   -3.373445   -5.973736
  H      3.444904   -3.040831   -7.555281
  S      3.004618   -1.096206   -6.389259
  C      4.631918    2.246365   -4.670958
  N      4.541686    2.143990   -5.987139
  C      5.084086    3.393584   -4.118545
  H      4.920675    3.570501   -3.135870
  H      5.254652    4.197390   -4.706956
  H      3.824530    0.449113   -4.350926
  H      4.343373    1.249318   -6.416646
  H      4.676712    2.956624   -6.574113
  O      4.128856   -0.329647   -6.953717
  O      1.781285   -1.000779   -7.136399
  C      5.942129    0.939500   -2.036893
  H      3.864305    0.328532   -2.136611
  H      4.076233    2.049994   -1.989010
  C      6.462677   -3.117775   -3.944671
  C      5.024977   -3.025679   -4.437625
  H      4.423321   -3.818693   -3.977648
  H      4.579350   -2.087131   -4.108727
  H      5.201533   -4.100207   -6.296905
  H      5.605922   -2.397822   -6.413368
  C      6.559957   -0.356290   -2.559086
  H      5.967976    0.952567   -0.942444
  H      6.547184    1.788331   -2.368849
  C      6.006283   -1.615917   -1.899301
  H      7.642360   -0.318000   -2.402059
  H      6.414855   -0.403433   -3.642587
  C      6.608718   -2.917014   -2.435655
  H      6.190324   -1.561115   -0.820948
  H      4.919250   -1.651245   -2.016586
  H      7.066975   -2.374258   -4.475514
  H      6.887808   -4.089747   -4.215332
  H      6.135197   -3.755573   -1.915159
  H      7.671142   -2.955503   -2.172291
  F      2.851546   -0.783683   -4.956789

 Total Charge           Charge          ....    0
 Multiplicity           Mult            ....    1
 Number of Electrons    NEL             ....  144
 Basis Dimension        Dim             ....  540

ORBITAL ENERGIES
----------------

  NO   OCC          E(Eh)            E(eV)
   0   2.0000     -89.263089     -2428.9721
   1   2.0000     -24.941386      -678.6896
   2   2.0000     -19.286894      -524.8231
   3   2.0000     -19.282603      -524.7063
   4   2.0000     -14.424823      -392.5194
   5   2.0000     -14.403255      -391.9325
   6   2.0000     -10.372885      -282.2605
   7   2.0000     -10.330634      -281.1108
   8   2.0000     -10.320918      -280.8465
   9   2.0000     -10.314879      -280.6821
  10   2.0000     -10.312915      -280.6287
  11   2.0000     -10.300235      -280.2836
  12   2.0000     -10.293457      -280.0992
  13   2.0000     -10.287718      -279.9430
  14   2.0000     -10.279718      -279.7253
  15   2.0000     -10.274317      -279.5784
  16   2.0000     -10.182649      -277.0840
  17   2.0000      -8.336518      -226.8482
  18   2.0000      -6.300413      -171.4430
  19   2.0000      -6.294002      -171.2685
  20   2.0000      -6.292244      -171.2207
  21   2.0000      -1.504366       -40.9359
  22   2.0000      -1.258392       -34.2426
  23   2.0000      -1.158765       -31.5316
  24   2.0000      -1.065482       -28.9932
  25   2.0000      -0.977597       -26.6018
  26   2.0000      -0.973039       -26.4777
  27   2.0000      -0.933448       -25.4004
  28   2.0000      -0.899914       -24.4879
  29   2.0000      -0.868631       -23.6366
  30   2.0000      -0.846470       -23.0336
  31   2.0000      -0.811029       -22.0692
  32   2.0000      -0.798209       -21.7204
  33   2.0000      -0.773004       -21.0345
  34   2.0000      -0.749221       -20.3873
  35   2.0000      -0.725155       -19.7325
  36   2.0000      -0.713482       -19.4148
  37   2.0000      -0.704279       -19.1644
  38   2.0000      -0.689087       -18.7510
  39   2.0000      -0.670781       -18.2529
  40   2.0000      -0.641823       -17.4649
  41   2.0000      -0.631631       -17.1875
  42   2.0000      -0.621721       -16.9179
  43   2.0000      -0.612982       -16.6801
  44   2.0000      -0.598656       -16.2903
  45   2.0000      -0.597388       -16.2558
  46   2.0000      -0.579753       -15.7759
  47   2.0000      -0.575807       -15.6685
  48   2.0000      -0.557716       -15.1762
  49   2.0000      -0.552904       -15.0453
  50   2.0000      -0.540626       -14.7112
  51   2.0000      -0.538658       -14.6576
  52   2.0000      -0.520331       -14.1589
  53   2.0000      -0.512089       -13.9346
  54   2.0000      -0.497944       -13.5498
  55   2.0000      -0.491451       -13.3731
  56   2.0000      -0.484060       -13.1719
  57   2.0000      -0.475586       -12.9413
  58   2.0000      -0.469194       -12.7674
  59   2.0000      -0.462586       -12.5876
  60   2.0000      -0.458188       -12.4679
  61   2.0000      -0.452692       -12.3184
  62   2.0000      -0.446693       -12.1551
  63   2.0000      -0.442004       -12.0275
  64   2.0000      -0.439404       -11.9568
  65   2.0000      -0.433634       -11.7998
  66   2.0000      -0.430168       -11.7055
  67   2.0000      -0.413146       -11.2423
  68   2.0000      -0.411209       -11.1896
  69   2.0000      -0.402448       -10.9512
  70   2.0000      -0.325115        -8.8468
  71   2.0000      -0.234636        -6.3848
  72   0.0000       0.054006         1.4696
  73   0.0000       0.075600         2.0572
  74   0.0000       0.081276         2.2116
  75   0.0000       0.089442         2.4339
  76   0.0000       0.097203         2.6450

MULLIKEN ATOMIC CHARGES
-----------------------
   0 C :    0.963231
   1 N :    0.409561
   2 C :    0.186229
   3 C :    0.197964
   4 H :    0.057150
   5 H :    0.083689
   6 S :    1.494682
   7 C :    0.605547
   8 N :    0.540153
   9 C :    0.501613
  10 H :    0.092843
  11 H :   -0.669349
  12 H :   -1.300196
  13 H :   -0.445192
  14 H :   -0.170354
  15 O :   -0.723276
  16 O :   -0.706598
  17 C :    0.301936
  18 H :   -0.320735
  19 H :   -0.083938
  20 C :   -0.033005
  21 C :    0.231783
  22 H :    0.044872
  23 H :   -0.540546
  24 H :   -0.056850
  25 H :    0.080588
  26 C :    0.089716
  27 H :   -0.107798
  28 H :   -0.029784
  29 C :   -0.157490
  30 H :   -0.147545
  31 H :   -0.125265
  32 C :    0.622543
  33 H :   -0.317434
  34 H :    0.124876
  35 H :    0.130066
  36 H :   -0.310491
  37 H :   -0.027130
  38 H :    0.029474
  39 F :   -0.515538
Sum of atomic charges:    0.0000000

LOEWDIN ATOMIC CHARGES
----------------------
   0 C :    0.066126
   1 N :    0.000853
   2 C :   -0.031957
   3 C :   -0.036147
   4 H :    0.034211
   5 H :    0.041198
   6 S :    1.170510
   7 C :   -0.210721
   8 N :    0.209730
   9 C :    0.147708
  10 H :   -0.117865
  11 H :   -0.107065
  12 H :   -0.065160
  13 H :   -0.125973
  14 H :    0.015934
  15 O :   -0.443281
  16 O :   -0.435776
  17 C :   -0.013855
  18 H :    0.013183
  19 H :    0.019832
  20 C :   -0.032856
  21 C :   -0.032383
  22 H :    0.042101
  23 H :   -0.014897
  24 H :    0.041278
  25 H :    0.032189
  26 C :   -0.032577
  27 H :    0.023865
  28 H :    0.014134
  29 C :   -0.041486
  30 H :    0.028759
  31 H :    0.007289
  32 C :   -0.030567
  33 H :    0.026274
  34 H :    0.001848
  35 H :    0.022107
  36 H :    0.027314
  37 H :    0.022822
  38 H :    0.026006
  39 F :   -0.262703

  Mayer bond orders larger than 0.100000
B(  0-C ,  1-N ) :   0.9894 B(  0-C , 10-H ) :   0.1164 B(  0-C , 12-H ) :  -0.5285
B(  0-C , 17-C ) :   1.0882 B(  0-C , 18-H ) :   0.7257 B(  0-C , 19-H ) :   0.8697
B(  1-N ,  7-C ) :   1.0264 B(  1-N ,  9-C ) :   0.2887 B(  1-N , 11-H ) :   0.1261
B(  1-N , 12-H ) :   0.5623 B(  1-N , 13-H ) :   0.1572 B(  1-N , 14-H ) :  -0.1069
B(  1-N , 18-H ) :   0.2669 B(  2-C ,  3-C ) :   1.2361 B(  2-C ,  5-H ) :   0.2366
B(  2-C , 21-C ) :   1.1368 B(  2-C , 24-H ) :   0.8408 B(  2-C , 25-H ) :   0.8736
B(  3-C ,  4-H ) :   0.9288 B(  3-C ,  5-H ) :   0.7295 B(  3-C ,  6-S ) :   1.0175
B(  3-C , 25-H ) :   0.1057 B(  6-S , 15-O ) :   1.3974 B(  6-S , 16-O ) :   1.4798
B(  6-S , 39-F ) :   0.5983 B(  7-C ,  8-N ) :   0.9531 B(  7-C ,  9-C ) :   1.7541
B(  7-C , 10-H ) :   0.3685 B(  7-C , 11-H ) :   0.3336 B(  7-C , 12-H ) :  -0.6889
B(  7-C , 13-H ) :  -0.1726 B(  7-C , 18-H ) :   0.1135 B(  8-N ,  9-C ) :   0.2043
B(  8-N , 13-H ) :   0.9291 B(  8-N , 14-H ) :   1.2457 B(  9-C , 10-H ) :   0.5299
B(  9-C , 11-H ) :   0.6806 B( 10-H , 13-H ) :   0.1532 B( 10-H , 18-H ) :  -0.1066
B( 10-H , 19-H ) :   0.1217 B( 11-H , 12-H ) :  -0.1005 B( 12-H , 39-F ) :   0.2553
B( 13-H , 14-H ) :  -0.2589 B( 13-H , 15-O ) :   0.1518 B( 17-C , 18-H ) :   0.1232
B( 17-C , 26-C ) :   1.1914 B( 17-C , 27-H ) :   0.9156 B( 17-C , 28-H ) :   0.7855
B( 17-C , 31-H ) :   0.1132 B( 18-H , 19-H ) :  -0.1968 B( 20-C , 21-C ) :   1.2354
B( 20-C , 22-H ) :   0.1084 B( 20-C , 23-H ) :   0.1196 B( 20-C , 32-C ) :   1.1353
B( 20-C , 35-H ) :   0.8586 B( 20-C , 36-H ) :   0.9783 B( 20-C , 37-H ) :   0.1081
B( 20-C , 38-H ) :   0.2076 B( 21-C , 22-H ) :   0.7255 B( 21-C , 23-H ) :   0.7880
B( 21-C , 24-H ) :   0.1772 B( 21-C , 36-H ) :   0.1865 B( 22-H , 23-H ) :   0.2373
B( 23-H , 34-H ) :   0.1226 B( 26-C , 28-H ) :   0.2011 B( 26-C , 29-C ) :   1.1935
B( 26-C , 30-H ) :   0.8932 B( 26-C , 31-H ) :   0.9320 B( 26-C , 33-H ) :   0.1393
B( 27-H , 28-H ) :  -0.1104 B( 29-C , 30-H ) :   0.1498 B( 29-C , 31-H ) :   0.1156
B( 29-C , 32-C ) :   1.1382 B( 29-C , 33-H ) :   1.0497 B( 29-C , 34-H ) :   0.8495
B( 29-C , 37-H ) :   0.2734 B( 29-C , 38-H ) :   0.1332 B( 32-C , 37-H ) :   0.6922
B( 32-C , 38-H ) :   0.7167

Dispersion correction           -0.021750747
FINAL SINGLE POINT ENERGY     -1190.048450214027

DIPOLE MOMENT
-------------
                                X             Y             Z
Electronic contribution:    -18.94882       1.79765     -17.82132
Nuclear contribution   :     18.85717      -4.60195      17.96505
                        -----------------------------------------
Total Dipole Moment    :     -0.09165      -2.80430       0.14374
                        -----------------------------------------
Magnitude (a.u.)       :      2.80948
Magnitude (Debye)      :      7.14112

Rotational constants in cm-1:     0.014436     0.012382     0.007563
Rotational constants in MHz :   432.785702   371.214592   226.743759

                             ****ORCA TERMINATED NORMALLY****
TOTAL RUN TIME: 0 days 0 hours 2 minutes 58 seconds 673 msec
