                         Program Version 5.0.0 -  RELEASE  -
|  1> !wB97X-D3 RIJCOSX def2-TZVP def2/J TightSCF
|  2> *xyz -1 1
|  3> C         -0.29041        0.95134       -5.15342
|  4> C         -0.05517        1.61942       -3.78858
|  5> H          0.04501        0.86230       -3.00301
|  6> H         -0.92294        2.23033       -3.51703
|  7> C          1.22302        2.46987       -3.75691
|  8> H          1.11470        3.25807       -4.53300
|  9> H          1.23773        3.01124       -2.79216
| 10> O          2.35381        1.71203       -3.93448
| 11> H         -0.38575        1.70447       -5.90748
| 12> H         -1.18723        0.36894       -5.11561
| 13> H          0.53806        0.31571       -5.38692
| 14> *
| 15>
| 16> %MaxCore 64000
| 17>
| 18> %pal nprocs 18
| 19> end
| 20>
| 21> %scf
| 22>   MaxIter 150
| 23> end
| 24>
| 25>
| 26>                          ****END OF INPUT****

CARTESIAN COORDINATES (ANGSTROEM)
---------------------------------
  C     -0.290410    0.951340   -5.153420
  C     -0.055170    1.619420   -3.788580
  H      0.045010    0.862300   -3.003010
  H     -0.922940    2.230330   -3.517030
  C      1.223020    2.469870   -3.756910
  H      1.114700    3.258070   -4.533000
  H      1.237730    3.011240   -2.792160
  O      2.353810    1.712030   -3.934480
  H     -0.385750    1.704470   -5.907480
  H     -1.187230    0.368940   -5.115610
  H      0.538060    0.315710   -5.386920

 Total Charge           Charge          ....   -1
 Multiplicity           Mult            ....    1
 Number of Electrons    NEL             ....   34
 Basis Dimension        Dim             ....  166

ORBITAL ENERGIES
----------------

  NO   OCC          E(Eh)            E(eV)
   0   2.0000     -18.875958      -513.6409
   1   2.0000     -10.087590      -274.4973
   2   2.0000     -10.080593      -274.3069
   3   2.0000     -10.077339      -274.2183
   4   2.0000      -0.784955       -21.3597
   5   2.0000      -0.692542       -18.8450
   6   2.0000      -0.575252       -15.6534
   7   2.0000      -0.468441       -12.7469
   8   2.0000      -0.369594       -10.0572
   9   2.0000      -0.361874        -9.8471
  10   2.0000      -0.312152        -8.4941
  11   2.0000      -0.278448        -7.5770
  12   2.0000      -0.248013        -6.7488
  13   2.0000      -0.241055        -6.5594
  14   2.0000      -0.194439        -5.2909
  15   2.0000      -0.050901        -1.3851
  16   2.0000      -0.048237        -1.3126
  17   0.0000       0.274995         7.4830
  18   0.0000       0.308426         8.3927
  19   0.0000       0.322021         8.7626
  20   0.0000       0.345071         9.3899
  21   0.0000       0.349187         9.5019

MULLIKEN ATOMIC CHARGES
-----------------------
   0 C :   -0.285070
   1 C :   -0.039140
   2 H :    0.015268
   3 H :   -0.027532
   4 C :    0.087050
   5 H :   -0.083027
   6 H :   -0.066483
   7 O :   -0.795697
   8 H :    0.053590
   9 H :    0.044222
  10 H :    0.096819
Sum of atomic charges:   -1.0000000

LOEWDIN ATOMIC CHARGES
----------------------
   0 C :   -0.332857
   1 C :   -0.328065
   2 H :    0.109629
   3 H :    0.094060
   4 C :   -0.522397
   5 H :    0.058347
   6 H :    0.059787
   7 O :   -0.437211
   8 H :    0.098849
   9 H :    0.089014
  10 H :    0.110845

  Mayer bond orders larger than 0.100000
B(  0-C ,  1-C ) :   0.9759 B(  0-C ,  8-H ) :   0.9786 B(  0-C ,  9-H ) :   0.9793
B(  0-C , 10-H ) :   0.9711 B(  1-C ,  2-H ) :   0.9678 B(  1-C ,  3-H ) :   0.9394
B(  1-C ,  4-C ) :   0.9329 B(  1-C ,  7-O ) :  -0.1314 B(  4-C ,  5-H ) :   0.9127
B(  4-C ,  6-H ) :   0.9325 B(  4-C ,  7-O ) :   1.5634

Dispersion correction           -0.001942097
FINAL SINGLE POINT ENERGY      -193.752427565676

DIPOLE MOMENT
-------------
                                X             Y             Z
Electronic contribution:      3.03092      -0.10535       0.71482
Nuclear contribution   :     -4.97104      -0.06484      -1.04325
                        -----------------------------------------
Total Dipole Moment    :     -1.94012      -0.17019      -0.32843
                        -----------------------------------------
Magnitude (a.u.)       :      1.97507
Magnitude (Debye)      :      5.02022

Rotational constants in cm-1:     0.508668     0.174500     0.148765
Rotational constants in MHz : 15249.486055  5231.367342  4459.875680

                             ****ORCA TERMINATED NORMALLY****
TOTAL RUN TIME: 0 days 0 hours 0 minutes 11 seconds 435 msec
