                         Program Version 5.0.0 -  RELEASE  -
|  1> !wB97X-D3 RIJCOSX def2-TZVP def2/J TightSCF
|  2> *xyz 1 1
|  3> C          1.63556       -1.67040       -5.29211
|  4> C          0.33848       -1.50091       -4.50540
|  5> N          2.48451       -0.50741       -5.14039
|  6> C         -0.68487       -0.52803       -5.09989
|  7> H          1.39834       -1.82924       -6.35259
|  8> H          2.15586       -2.56540       -4.93209
|  9> C          3.45115       -0.14953       -5.95259
| 10> N          3.92267        1.08956       -5.85071
| 11> N          3.96616       -1.00618       -6.86788
| 12> H          3.52139       -1.90647       -6.99527
| 13> H          4.44482       -0.62347       -7.67035
| 14> H          2.25200        0.24080       -4.49879
| 15> H          3.46428        1.64078       -5.13639
| 16> H          4.83447        1.31375       -6.22465
| 17> H          0.59489       -1.21158       -3.48231
| 18> H         -0.12653       -2.48766       -4.43418
| 19> H         -0.92267       -0.82721       -6.09931
| 20> H         -0.27317        0.45953       -5.11162
| 21> H         -1.57350       -0.53693       -4.50394
| 22> *
| 23>
| 24> %MaxCore 64000
| 25>
| 26> %pal nprocs 18
| 27> end
| 28>
| 29> %scf
| 30>   MaxIter 150
| 31> end
| 32>
| 33>
| 34>                          ****END OF INPUT****

CARTESIAN COORDINATES (ANGSTROEM)
---------------------------------
  C      1.635560   -1.670400   -5.292110
  C      0.338480   -1.500910   -4.505400
  N      2.484510   -0.507410   -5.140390
  C     -0.684870   -0.528030   -5.099890
  H      1.398340   -1.829240   -6.352590
  H      2.155860   -2.565400   -4.932090
  C      3.451150   -0.149530   -5.952590
  N      3.922670    1.089560   -5.850710
  N      3.966160   -1.006180   -6.867880
  H      3.521390   -1.906470   -6.995270
  H      4.444820   -0.623470   -7.670350
  H      2.252000    0.240800   -4.498790
  H      3.464280    1.640780   -5.136390
  H      4.834470    1.313750   -6.224650
  H      0.594890   -1.211580   -3.482310
  H     -0.126530   -2.487660   -4.434180
  H     -0.922670   -0.827210   -6.099310
  H     -0.273170    0.459530   -5.111620
  H     -1.573500   -0.536930   -4.503940

 Total Charge           Charge          ....    1
 Multiplicity           Mult            ....    1
 Number of Electrons    NEL             ....   56
 Basis Dimension        Dim             ....  289

ORBITAL ENERGIES
----------------

  NO   OCC          E(Eh)            E(eV)
   0   2.0000     -14.646624      -398.5549
   1   2.0000     -14.642194      -398.4343
   2   2.0000     -14.640188      -398.3798
   3   2.0000     -10.608527      -288.6727
   4   2.0000     -10.479884      -285.1721
   5   2.0000     -10.419278      -283.5230
   6   2.0000     -10.386564      -282.6328
   7   2.0000      -1.335846       -36.3502
   8   2.0000      -1.220523       -33.2121
   9   2.0000      -1.206804       -32.8388
  10   2.0000      -1.058990       -28.8166
  11   2.0000      -0.973090       -26.4791
  12   2.0000      -0.931359       -25.3436
  13   2.0000      -0.884825       -24.0773
  14   2.0000      -0.870899       -23.6984
  15   2.0000      -0.836261       -22.7558
  16   2.0000      -0.786335       -21.3973
  17   2.0000      -0.780621       -21.2418
  18   2.0000      -0.757354       -20.6086
  19   2.0000      -0.741415       -20.1749
  20   2.0000      -0.694889       -18.9089
  21   2.0000      -0.673528       -18.3276
  22   2.0000      -0.651075       -17.7166
  23   2.0000      -0.594995       -16.1906
  24   2.0000      -0.579549       -15.7703
  25   2.0000      -0.577233       -15.7073
  26   2.0000      -0.569495       -15.4967
  27   2.0000      -0.540772       -14.7152
  28   0.0000      -0.082442        -2.2434
  29   0.0000      -0.069013        -1.8779
  30   0.0000      -0.036850        -1.0027
  31   0.0000      -0.018374        -0.5000
  32   0.0000       0.002214         0.0603

MULLIKEN ATOMIC CHARGES
-----------------------
   0 C :   -0.143021
   1 C :   -0.276996
   2 N :   -0.276474
   3 C :   -0.328570
   4 H :    0.150522
   5 H :    0.178667
   6 C :    0.484983
   7 N :   -0.436885
   8 N :   -0.461859
   9 H :    0.302698
  10 H :    0.298940
  11 H :    0.251861
  12 H :    0.279680
  13 H :    0.307738
  14 H :    0.136492
  15 H :    0.149649
  16 H :    0.128714
  17 H :    0.091786
  18 H :    0.162074
Sum of atomic charges:    1.0000000

LOEWDIN ATOMIC CHARGES
----------------------
   0 C :   -0.269085
   1 C :   -0.283722
   2 N :    0.174609
   3 C :   -0.288646
   4 H :    0.143143
   5 H :    0.147379
   6 C :   -0.397051
   7 N :    0.058601
   8 N :    0.047870
   9 H :    0.195257
  10 H :    0.197103
  11 H :    0.211612
  12 H :    0.198477
  13 H :    0.201653
  14 H :    0.142870
  15 H :    0.154637
  16 H :    0.122919
  17 H :    0.110558
  18 H :    0.131817

  Mayer bond orders larger than 0.100000
B(  0-C ,  1-C ) :   0.9818 B(  0-C ,  2-N ) :   0.8403 B(  0-C ,  4-H ) :   0.9710
B(  0-C ,  5-H ) :   0.9495 B(  1-C ,  3-C ) :   0.9890 B(  1-C , 14-H ) :   0.9768
B(  1-C , 15-H ) :   0.9589 B(  2-N ,  6-C ) :   1.4073 B(  2-N , 11-H ) :   0.9002
B(  3-C , 16-H ) :   0.9697 B(  3-C , 17-H ) :   0.9757 B(  3-C , 18-H ) :   0.9751
B(  6-C ,  7-N ) :   1.3258 B(  6-C ,  8-N ) :   1.3081 B(  7-N , 12-H ) :   0.8981
B(  7-N , 13-H ) :   0.8851 B(  8-N ,  9-H ) :   0.8916 B(  8-N , 10-H ) :   0.8902

Dispersion correction           -0.004931757
FINAL SINGLE POINT ENERGY      -323.745254105701

DIPOLE MOMENT
-------------
                                X             Y             Z
Electronic contribution:      7.37017       1.75829      -1.60543
Nuclear contribution   :     -5.91327      -1.13589       1.03073
                        -----------------------------------------
Total Dipole Moment    :      1.45690       0.62240      -0.57470
                        -----------------------------------------
Magnitude (a.u.)       :      1.68530
Magnitude (Debye)      :      4.28369

Rotational constants in cm-1:     0.176161     0.043658     0.038822
Rotational constants in MHz :  5281.161077  1308.843263  1163.840625

                             ****ORCA TERMINATED NORMALLY****
TOTAL RUN TIME: 0 days 0 hours 0 minutes 21 seconds 636 msec
