                         Program Version 5.0.0 -  RELEASE  -
|  1> !wB97X-D3 RIJCOSX def2-TZVP def2/J TightSCF
|  2> *xyz 0 1
|  3> C         -0.29041        0.95134       -5.15342
|  4> C         -0.05517        1.61942       -3.78858
|  5> H          0.04501        0.86230       -3.00301
|  6> H         -0.92294        2.23033       -3.51703
|  7> C          1.22302        2.46987       -3.75691
|  8> H          1.11470        3.25807       -4.53300
|  9> H          1.23773        3.01124       -2.79216
| 10> F          2.35381        1.71203       -3.93448
| 11> H         -0.38575        1.70447       -5.90748
| 12> H         -1.18723        0.36894       -5.11561
| 13> H          0.53806        0.31571       -5.38692
| 14> *
| 15>
| 16> %MaxCore 64000
| 17>
| 18> %pal nprocs 18
| 19> end
| 20>
| 21> %scf
| 22>   MaxIter 150
| 23> end
| 24>
| 25>
| 26>                          ****END OF INPUT****

CARTESIAN COORDINATES (ANGSTROEM)
---------------------------------
  C     -0.290410    0.951340   -5.153420
  C     -0.055170    1.619420   -3.788580
  H      0.045010    0.862300   -3.003010
  H     -0.922940    2.230330   -3.517030
  C      1.223020    2.469870   -3.756910
  H      1.114700    3.258070   -4.533000
  H      1.237730    3.011240   -2.792160
  F      2.353810    1.712030   -3.934480
  H     -0.385750    1.704470   -5.907480
  H     -1.187230    0.368940   -5.115610
  H      0.538060    0.315710   -5.386920

 Total Charge           Charge          ....    0
 Multiplicity           Mult            ....    1
 Number of Electrons    NEL             ....   34
 Basis Dimension        Dim             ....  166

ORBITAL ENERGIES
----------------

  NO   OCC          E(Eh)            E(eV)
   0   2.0000     -24.768593      -673.9877
   1   2.0000     -10.350279      -281.6454
   2   2.0000     -10.279965      -279.7321
   3   2.0000     -10.259472      -279.1744
   4   2.0000      -1.311265       -35.6813
   5   2.0000      -0.904824       -24.6215
   6   2.0000      -0.802880       -21.8475
   7   2.0000      -0.707568       -19.2539
   8   2.0000      -0.610037       -16.6000
   9   2.0000      -0.594849       -16.1867
  10   2.0000      -0.568077       -15.4582
  11   2.0000      -0.533745       -14.5239
  12   2.0000      -0.498474       -13.5642
  13   2.0000      -0.472177       -12.8486
  14   2.0000      -0.447222       -12.1695
  15   2.0000      -0.420795       -11.4504
  16   2.0000      -0.418221       -11.3804
  17   0.0000       0.120084         3.2677
  18   0.0000       0.155312         4.2263
  19   0.0000       0.162827         4.4308
  20   0.0000       0.174804         4.7567
  21   0.0000       0.184841         5.0298

MULLIKEN ATOMIC CHARGES
-----------------------
   0 C :   -0.335790
   1 C :   -0.195968
   2 H :    0.102074
   3 H :    0.099599
   4 C :    0.045858
   5 H :    0.082176
   6 H :    0.095835
   7 F :   -0.239108
   8 H :    0.101985
   9 H :    0.115997
  10 H :    0.127343
Sum of atomic charges:   -0.0000000

LOEWDIN ATOMIC CHARGES
----------------------
   0 C :   -0.303676
   1 C :   -0.301088
   2 H :    0.134795
   3 H :    0.136487
   4 C :   -0.343878
   5 H :    0.118818
   6 H :    0.118306
   7 F :    0.092375
   8 H :    0.113807
   9 H :    0.115095
  10 H :    0.118959

  Mayer bond orders larger than 0.100000
B(  0-C ,  1-C ) :   0.9806 B(  0-C ,  8-H ) :   0.9758 B(  0-C ,  9-H ) :   0.9796
B(  0-C , 10-H ) :   0.9769 B(  1-C ,  2-H ) :   0.9703 B(  1-C ,  3-H ) :   0.9597
B(  1-C ,  4-C ) :   0.9933 B(  4-C ,  5-H ) :   0.9690 B(  4-C ,  6-H ) :   0.9740
B(  4-C ,  7-F ) :   0.9874

Dispersion correction           -0.001921977
FINAL SINGLE POINT ENERGY      -218.403766153868

DIPOLE MOMENT
-------------
                                X             Y             Z
Electronic contribution:      6.19934       0.38316       1.40622
Nuclear contribution   :     -6.82889      -0.09322      -1.32039
                        -----------------------------------------
Total Dipole Moment    :     -0.62955       0.28994       0.08584
                        -----------------------------------------
Magnitude (a.u.)       :      0.69840
Magnitude (Debye)      :      1.77519

Rotational constants in cm-1:     0.494282     0.164406     0.140369
Rotational constants in MHz : 14818.207649  4928.760399  4208.156468

                             ****ORCA TERMINATED NORMALLY****
TOTAL RUN TIME: 0 days 0 hours 0 minutes 9 seconds 661 msec
