                         Program Version 5.0.0 -  RELEASE  -
|  1> !wB97X-D3 RIJCOSX def2-TZVP def2/J TightSCF
|  2> *xyz 0 1
|  3> C          1.63556       -1.67040       -5.29211
|  4> C          0.33848       -1.50091       -4.50540
|  5> C          2.48451       -0.50741       -5.14039
|  6> C         -0.68487       -0.52803       -5.09989
|  7> H          1.39834       -1.82924       -6.35259
|  8> H          2.15586       -2.56540       -4.93209
|  9> C          3.45115       -0.14953       -5.95259
| 10> N          3.92267        1.08956       -5.85071
| 11> N          3.96616       -1.00618       -6.86788
| 12> H          3.52139       -1.90647       -6.99527
| 13> H          4.44482       -0.62347       -7.67035
| 14> H          2.25200        0.24080       -4.49879
| 15> H          3.46428        1.64078       -5.13639
| 16> H          4.83447        1.31375       -6.22465
| 17> H          0.59489       -1.21158       -3.48231
| 18> H         -0.12653       -2.48766       -4.43418
| 19> H         -0.92267       -0.82721       -6.09931
| 20> H         -0.27317        0.45953       -5.11162
| 21> H         -1.57350       -0.53693       -4.50394
| 22> *
| 23>
| 24> %MaxCore 64000
| 25>
| 26> %pal nprocs 18
| 27> end
| 28>
| 29> %scf
| 30>   MaxIter 150
| 31> end
| 32>
| 33>
| 34>                          ****END OF INPUT****

CARTESIAN COORDINATES (ANGSTROEM)
---------------------------------
  C      1.635560   -1.670400   -5.292110
  C      0.338480   -1.500910   -4.505400
  C      2.484510   -0.507410   -5.140390
  C     -0.684870   -0.528030   -5.099890
  H      1.398340   -1.829240   -6.352590
  H      2.155860   -2.565400   -4.932090
  C      3.451150   -0.149530   -5.952590
  N      3.922670    1.089560   -5.850710
  N      3.966160   -1.006180   -6.867880
  H      3.521390   -1.906470   -6.995270
  H      4.444820   -0.623470   -7.670350
  H      2.252000    0.240800   -4.498790
  H      3.464280    1.640780   -5.136390
  H      4.834470    1.313750   -6.224650
  H      0.594890   -1.211580   -3.482310
  H     -0.126530   -2.487660   -4.434180
  H     -0.922670   -0.827210   -6.099310
  H     -0.273170    0.459530   -5.111620
  H     -1.573500   -0.536930   -4.503940

 Total Charge           Charge          ....    0
 Multiplicity           Mult            ....    1
 Number of Electrons    NEL             ....   56
 Basis Dimension        Dim             ....  289

ORBITAL ENERGIES
----------------

  NO   OCC          E(Eh)            E(eV)
   0   2.0000     -14.419505      -392.3747
   1   2.0000     -14.414349      -392.2344
   2   2.0000     -10.313167      -280.6355
   3   2.0000     -10.253220      -279.0043
   4   2.0000     -10.249221      -278.8955
   5   2.0000     -10.242194      -278.7043
   6   2.0000     -10.192425      -277.3500
   7   2.0000      -1.073872       -29.2216
   8   2.0000      -0.983973       -26.7753
   9   2.0000      -0.903646       -24.5895
  10   2.0000      -0.837623       -22.7929
  11   2.0000      -0.771402       -20.9909
  12   2.0000      -0.698037       -18.9946
  13   2.0000      -0.676429       -18.4066
  14   2.0000      -0.634063       -17.2537
  15   2.0000      -0.615604       -16.7514
  16   2.0000      -0.562722       -15.3125
  17   2.0000      -0.542787       -14.7700
  18   2.0000      -0.535976       -14.5846
  19   2.0000      -0.511010       -13.9053
  20   2.0000      -0.483963       -13.1693
  21   2.0000      -0.471158       -12.8209
  22   2.0000      -0.457753       -12.4561
  23   2.0000      -0.419569       -11.4170
  24   2.0000      -0.409518       -11.1436
  25   2.0000      -0.403848       -10.9893
  26   2.0000      -0.357425        -9.7260
  27   2.0000      -0.247329        -6.7302
  28   0.0000       0.105913         2.8820
  29   0.0000       0.131913         3.5895
  30   0.0000       0.137817         3.7502
  31   0.0000       0.155166         4.2223
  32   0.0000       0.161514         4.3950

MULLIKEN ATOMIC CHARGES
-----------------------
   0 C :   -0.149356
   1 C :   -0.198884
   2 C :   -0.312838
   3 C :   -0.330891
   4 H :    0.066972
   5 H :    0.095956
   6 C :    0.335711
   7 N :   -0.509599
   8 N :   -0.530927
   9 H :    0.254420
  10 H :    0.230076
  11 H :    0.066665
  12 H :    0.245195
  13 H :    0.233270
  14 H :    0.096887
  15 H :    0.088905
  16 H :    0.100274
  17 H :    0.106833
  18 H :    0.111331
Sum of atomic charges:   -0.0000000

LOEWDIN ATOMIC CHARGES
----------------------
   0 C :   -0.285279
   1 C :   -0.285591
   2 C :   -0.284673
   3 C :   -0.303034
   4 H :    0.130554
   5 H :    0.132985
   6 C :   -0.453752
   7 N :   -0.024336
   8 N :   -0.030545
   9 H :    0.174198
  10 H :    0.160729
  11 H :    0.123588
  12 H :    0.181603
  13 H :    0.162664
  14 H :    0.133108
  15 H :    0.128723
  16 H :    0.113085
  17 H :    0.113017
  18 H :    0.112955

  Mayer bond orders larger than 0.100000
B(  0-C ,  1-C ) :   0.9722 B(  0-C ,  2-C ) :   0.9582 B(  0-C ,  4-H ) :   0.9779
B(  0-C ,  5-H ) :   0.9756 B(  1-C ,  3-C ) :   0.9814 B(  1-C , 14-H ) :   0.9836
B(  1-C , 15-H ) :   0.9830 B(  2-C ,  6-C ) :   1.6701 B(  2-C , 11-H ) :   1.0048
B(  3-C , 16-H ) :   0.9784 B(  3-C , 17-H ) :   0.9799 B(  3-C , 18-H ) :   0.9830
B(  6-C ,  7-N ) :   1.1711 B(  6-C ,  8-N ) :   1.1486 B(  7-N , 12-H ) :   0.9195
B(  7-N , 13-H ) :   0.9189 B(  8-N ,  9-H ) :   0.9192 B(  8-N , 10-H ) :   0.9215

Dispersion correction           -0.004909907
FINAL SINGLE POINT ENERGY      -307.259663316619

DIPOLE MOMENT
-------------
                                X             Y             Z
Electronic contribution:      6.42696       1.45362      -1.69921
Nuclear contribution   :     -5.84539      -1.11717       1.11949
                        -----------------------------------------
Total Dipole Moment    :      0.58156       0.33645      -0.57972
                        -----------------------------------------
Magnitude (a.u.)       :      0.88741
Magnitude (Debye)      :      2.25561

Rotational constants in cm-1:     0.177055     0.043715     0.038831
Rotational constants in MHz :  5307.971484  1310.555422  1164.112547

                             ****ORCA TERMINATED NORMALLY****
TOTAL RUN TIME: 0 days 0 hours 0 minutes 27 seconds 10 msec
