                         Program Version 5.0.0 -  RELEASE  -
|  1> !wB97X-D3 RIJCOSX def2-TZVP def2/J TightSCF
|  2> *xyz 0 1
|  3> C          1.63556       -1.67040       -5.29211
|  4> C          0.33848       -1.50091       -4.50540
|  5> N          2.48451       -0.50741       -5.14039
|  6> C         -0.68487       -0.52803       -5.09989
|  7> H          1.39834       -1.82924       -6.35259
|  8> H          2.15586       -2.56540       -4.93209
|  9> C          3.45115       -0.14953       -5.95259
| 10> C          3.92267        1.08956       -5.85071
| 11> N          3.96616       -1.00618       -6.86788
| 12> H          3.52139       -1.90647       -6.99527
| 13> H          4.44482       -0.62347       -7.67035
| 14> H          2.25200        0.24080       -4.49879
| 15> H          3.46428        1.64078       -5.13639
| 16> H          4.83447        1.31375       -6.22465
| 17> H          0.59489       -1.21158       -3.48231
| 18> H         -0.12653       -2.48766       -4.43418
| 19> H         -0.92267       -0.82721       -6.09931
| 20> H         -0.27317        0.45953       -5.11162
| 21> H         -1.57350       -0.53693       -4.50394
| 22> *
| 23>
| 24> %MaxCore 64000
| 25>
| 26> %pal nprocs 18
| 27> end
| 28>
| 29> %scf
| 30>   MaxIter 150
| 31> end
| 32>
| 33>
| 34>                          ****END OF INPUT****

CARTESIAN COORDINATES (ANGSTROEM)
---------------------------------
  C      1.635560   -1.670400   -5.292110
  C      0.338480   -1.500910   -4.505400
  N      2.484510   -0.507410   -5.140390
  C     -0.684870   -0.528030   -5.099890
  H      1.398340   -1.829240   -6.352590
  H      2.155860   -2.565400   -4.932090
  C      3.451150   -0.149530   -5.952590
  C      3.922670    1.089560   -5.850710
  N      3.966160   -1.006180   -6.867880
  H      3.521390   -1.906470   -6.995270
  H      4.444820   -0.623470   -7.670350
  H      2.252000    0.240800   -4.498790
  H      3.464280    1.640780   -5.136390
  H      4.834470    1.313750   -6.224650
  H      0.594890   -1.211580   -3.482310
  H     -0.126530   -2.487660   -4.434180
  H     -0.922670   -0.827210   -6.099310
  H     -0.273170    0.459530   -5.111620
  H     -1.573500   -0.536930   -4.503940

 Total Charge           Charge          ....    0
 Multiplicity           Mult            ....    1
 Number of Electrons    NEL             ....   56
 Basis Dimension        Dim             ....  289

ORBITAL ENERGIES
----------------

  NO   OCC          E(Eh)            E(eV)
   0   2.0000     -14.420631      -392.4053
   1   2.0000     -14.418348      -392.3432
   2   2.0000     -10.318517      -280.7811
   3   2.0000     -10.315591      -280.7015
   4   2.0000     -10.284691      -279.8607
   5   2.0000     -10.264952      -279.3235
   6   2.0000     -10.178761      -276.9782
   7   2.0000      -1.087161       -29.5832
   8   2.0000      -0.998614       -27.1737
   9   2.0000      -0.911781       -24.8108
  10   2.0000      -0.842104       -22.9148
  11   2.0000      -0.783911       -21.3313
  12   2.0000      -0.714316       -19.4375
  13   2.0000      -0.698946       -19.0193
  14   2.0000      -0.637211       -17.3394
  15   2.0000      -0.600625       -16.3438
  16   2.0000      -0.574183       -15.6243
  17   2.0000      -0.565418       -15.3858
  18   2.0000      -0.545779       -14.8514
  19   2.0000      -0.515601       -14.0302
  20   2.0000      -0.490571       -13.3491
  21   2.0000      -0.478990       -13.0340
  22   2.0000      -0.470254       -12.7963
  23   2.0000      -0.449078       -12.2200
  24   2.0000      -0.444634       -12.0991
  25   2.0000      -0.435421       -11.8484
  26   2.0000      -0.350174        -9.5287
  27   2.0000      -0.246842        -6.7169
  28   0.0000       0.104619         2.8468
  29   0.0000       0.123516         3.3610
  30   0.0000       0.132085         3.5942
  31   0.0000       0.150024         4.0824
  32   0.0000       0.153324         4.1722

MULLIKEN ATOMIC CHARGES
-----------------------
   0 C :   -0.077112
   1 C :   -0.244461
   2 N :   -0.337372
   3 C :   -0.322692
   4 H :    0.097950
   5 H :    0.115859
   6 C :    0.415343
   7 C :   -0.563205
   8 N :   -0.530348
   9 H :    0.235878
  10 H :    0.259534
  11 H :    0.225366
  12 H :    0.059172
  13 H :    0.109869
  14 H :    0.110185
  15 H :    0.105272
  16 H :    0.106445
  17 H :    0.112632
  18 H :    0.121683
Sum of atomic charges:   -0.0000000

LOEWDIN ATOMIC CHARGES
----------------------
   0 C :   -0.292334
   1 C :   -0.293681
   2 N :    0.119079
   3 C :   -0.299957
   4 H :    0.127574
   5 H :    0.126786
   6 C :   -0.455898
   7 C :   -0.353468
   8 N :   -0.026904
   9 H :    0.160831
  10 H :    0.176197
  11 H :    0.199640
  12 H :    0.095308
  13 H :    0.096022
  14 H :    0.134743
  15 H :    0.137649
  16 H :    0.116043
  17 H :    0.115147
  18 H :    0.117223

  Mayer bond orders larger than 0.100000
B(  0-C ,  1-C ) :   0.9899 B(  0-C ,  2-N ) :   0.9162 B(  0-C ,  4-H ) :   0.9686
B(  0-C ,  5-H ) :   0.9580 B(  1-C ,  3-C ) :   0.9841 B(  1-C , 14-H ) :   0.9843
B(  1-C , 15-H ) :   0.9749 B(  2-N ,  6-C ) :   1.2145 B(  2-N , 11-H ) :   0.9205
B(  3-C , 16-H ) :   0.9753 B(  3-C , 17-H ) :   0.9778 B(  3-C , 18-H ) :   0.9804
B(  6-C ,  7-C ) :   1.5885 B(  6-C ,  8-N ) :   1.1061 B(  7-C , 12-H ) :   1.0179
B(  7-C , 13-H ) :   1.0045 B(  8-N ,  9-H ) :   0.9266 B(  8-N , 10-H ) :   0.9179

Dispersion correction           -0.004971126
FINAL SINGLE POINT ENERGY      -307.249426960679

DIPOLE MOMENT
-------------
                                X             Y             Z
Electronic contribution:      4.75730      -0.19823      -1.05724
Nuclear contribution   :     -5.53036      -0.76734       0.96389
                        -----------------------------------------
Total Dipole Moment    :     -0.77306      -0.96558      -0.09335
                        -----------------------------------------
Magnitude (a.u.)       :      1.24043
Magnitude (Debye)      :      3.15293

Rotational constants in cm-1:     0.181901     0.044719     0.039941
Rotational constants in MHz :  5453.254735  1340.639344  1197.391002

                             ****ORCA TERMINATED NORMALLY****
TOTAL RUN TIME: 0 days 0 hours 0 minutes 28 seconds 502 msec
