                         Program Version 5.0.0 -  RELEASE  -
|  1> !wB97X-D3 RIJCOSX def2-TZVP def2/J TightSCF
|  2> *xyz 0 1
|  3> C          1.63556       -1.67040       -5.29211
|  4> C          0.33848       -1.50091       -4.50540
|  5> N          2.48451       -0.50741       -5.14039
|  6> C         -0.68487       -0.52803       -5.09989
|  7> H          1.39834       -1.82924       -6.35259
|  8> H          2.15586       -2.56540       -4.93209
|  9> C          3.45115       -0.14953       -5.95259
| 10> N          3.92267        1.08956       -5.85071
| 11> C          3.96616       -1.00618       -6.86788
| 12> H          3.52139       -1.90647       -6.99527
| 13> H          4.44482       -0.62347       -7.67035
| 14> H          2.25200        0.24080       -4.49879
| 15> H          3.46428        1.64078       -5.13639
| 16> H          4.83447        1.31375       -6.22465
| 17> H          0.59489       -1.21158       -3.48231
| 18> H         -0.12653       -2.48766       -4.43418
| 19> H         -0.92267       -0.82721       -6.09931
| 20> H         -0.27317        0.45953       -5.11162
| 21> H         -1.57350       -0.53693       -4.50394
| 22> *
| 23>
| 24> %MaxCore 64000
| 25>
| 26> %pal nprocs 18
| 27> end
| 28>
| 29> %scf
| 30>   MaxIter 150
| 31> end
| 32>
| 33>
| 34>                          ****END OF INPUT****

CARTESIAN COORDINATES (ANGSTROEM)
---------------------------------
  C      1.635560   -1.670400   -5.292110
  C      0.338480   -1.500910   -4.505400
  N      2.484510   -0.507410   -5.140390
  C     -0.684870   -0.528030   -5.099890
  H      1.398340   -1.829240   -6.352590
  H      2.155860   -2.565400   -4.932090
  C      3.451150   -0.149530   -5.952590
  N      3.922670    1.089560   -5.850710
  C      3.966160   -1.006180   -6.867880
  H      3.521390   -1.906470   -6.995270
  H      4.444820   -0.623470   -7.670350
  H      2.252000    0.240800   -4.498790
  H      3.464280    1.640780   -5.136390
  H      4.834470    1.313750   -6.224650
  H      0.594890   -1.211580   -3.482310
  H     -0.126530   -2.487660   -4.434180
  H     -0.922670   -0.827210   -6.099310
  H     -0.273170    0.459530   -5.111620
  H     -1.573500   -0.536930   -4.503940

 Total Charge           Charge          ....    0
 Multiplicity           Mult            ....    1
 Number of Electrons    NEL             ....   56
 Basis Dimension        Dim             ....  289

ORBITAL ENERGIES
----------------

  NO   OCC          E(Eh)            E(eV)
   0   2.0000     -14.426902      -392.5760
   1   2.0000     -14.420615      -392.4049
   2   2.0000     -10.320019      -280.8220
   3   2.0000     -10.308722      -280.5146
   4   2.0000     -10.281132      -279.7638
   5   2.0000     -10.263814      -279.2926
   6   2.0000     -10.180006      -277.0121
   7   2.0000      -1.095694       -29.8154
   8   2.0000      -1.003977       -27.3196
   9   2.0000      -0.903954       -24.5978
  10   2.0000      -0.821481       -22.3536
  11   2.0000      -0.807886       -21.9837
  12   2.0000      -0.719243       -19.5716
  13   2.0000      -0.673541       -18.3280
  14   2.0000      -0.637759       -17.3543
  15   2.0000      -0.625929       -17.0324
  16   2.0000      -0.574642       -15.6368
  17   2.0000      -0.568690       -15.4748
  18   2.0000      -0.533311       -14.5121
  19   2.0000      -0.518331       -14.1045
  20   2.0000      -0.484479       -13.1834
  21   2.0000      -0.480717       -13.0810
  22   2.0000      -0.462174       -12.5764
  23   2.0000      -0.448276       -12.1982
  24   2.0000      -0.440326       -11.9819
  25   2.0000      -0.435155       -11.8412
  26   2.0000      -0.343889        -9.3577
  27   2.0000      -0.250637        -6.8202
  28   0.0000       0.096560         2.6275
  29   0.0000       0.120781         3.2866
  30   0.0000       0.141360         3.8466
  31   0.0000       0.152935         4.1616
  32   0.0000       0.157121         4.2755

MULLIKEN ATOMIC CHARGES
-----------------------
   0 C :   -0.058758
   1 C :   -0.236123
   2 N :   -0.347394
   3 C :   -0.316808
   4 H :    0.117724
   5 H :    0.120856
   6 C :    0.394258
   7 N :   -0.505155
   8 C :   -0.564064
   9 H :    0.090744
  10 H :    0.099286
  11 H :    0.187161
  12 H :    0.211797
  13 H :    0.266800
  14 H :    0.103310
  15 H :    0.107953
  16 H :    0.112344
  17 H :    0.095530
  18 H :    0.120538
Sum of atomic charges:   -0.0000000

LOEWDIN ATOMIC CHARGES
----------------------
   0 C :   -0.273529
   1 C :   -0.295384
   2 N :    0.120209
   3 C :   -0.301782
   4 H :    0.136971
   5 H :    0.132247
   6 C :   -0.467778
   7 N :   -0.016657
   8 C :   -0.362037
   9 H :    0.094628
  10 H :    0.093776
  11 H :    0.180169
  12 H :    0.162698
  13 H :    0.181147
  14 H :    0.132152
  15 H :    0.138663
  16 H :    0.117420
  17 H :    0.110554
  18 H :    0.116531

  Mayer bond orders larger than 0.100000
B(  0-C ,  1-C ) :   0.9765 B(  0-C ,  2-N ) :   0.8995 B(  0-C ,  4-H ) :   0.9764
B(  0-C ,  5-H ) :   0.9679 B(  1-C ,  3-C ) :   0.9812 B(  1-C , 14-H ) :   0.9835
B(  1-C , 15-H ) :   0.9772 B(  2-N ,  6-C ) :   1.1817 B(  2-N , 11-H ) :   0.9304
B(  3-C , 16-H ) :   0.9757 B(  3-C , 17-H ) :   0.9785 B(  3-C , 18-H ) :   0.9809
B(  6-C ,  7-N ) :   1.1313 B(  6-C ,  8-C ) :   1.5886 B(  7-N , 12-H ) :   0.9289
B(  7-N , 13-H ) :   0.9135 B(  8-C ,  9-H ) :   1.0141 B(  8-C , 10-H ) :   1.0034

Dispersion correction           -0.004948798
FINAL SINGLE POINT ENERGY      -307.249559013505

DIPOLE MOMENT
-------------
                                X             Y             Z
Electronic contribution:      4.81738       1.95738       0.07795
Nuclear contribution   :     -5.52083      -1.22643       0.74108
                        -----------------------------------------
Total Dipole Moment    :     -0.70345       0.73096       0.81902
                        -----------------------------------------
Magnitude (a.u.)       :      1.30382
Magnitude (Debye)      :      3.31404

Rotational constants in cm-1:     0.181479     0.044588     0.039739
Rotational constants in MHz :  5440.604457  1336.706831  1191.355312

                             ****ORCA TERMINATED NORMALLY****
TOTAL RUN TIME: 0 days 0 hours 0 minutes 23 seconds 550 msec
