                         Program Version 5.0.0 -  RELEASE  -
|  1> !B3LYP D3BJ RIJCOSX def2-SVPD def2/J TightSCF
|  2> *xyz -1 1
|  3> C          4.99986       -1.59613       -5.92488
|  4> C          3.76678       -2.26611       -6.51175
|  5> C          2.49670       -1.84416       -5.73570
|  6> H          1.62642       -2.21743       -6.30895
|  7> H          2.48182       -2.45607       -4.79341
|  8> O          2.45973       -0.50920       -5.50576
|  9> H          3.88619       -3.35708       -6.53360
| 10> H          3.68560       -1.92217       -7.54713
| 11> H          5.86637       -1.89999       -6.47418
| 12> H          5.10830       -1.88372       -4.89997
| 13> H          4.89230       -0.53341       -5.98765
| 14> *
| 15>
| 16> %MaxCore 64000
| 17>
| 18> %pal nprocs 4
| 19> end
| 20>
| 21> %scf
| 22>   MaxIter 150
| 23> end
| 24>
| 25>
| 26>                          ****END OF INPUT****

CARTESIAN COORDINATES (ANGSTROEM)
---------------------------------
  C      4.999860   -1.596130   -5.924880
  C      3.766780   -2.266110   -6.511750
  C      2.496700   -1.844160   -5.735700
  H      1.626420   -2.217430   -6.308950
  H      2.481820   -2.456070   -4.793410
  O      2.459730   -0.509200   -5.505760
  H      3.886190   -3.357080   -6.533600
  H      3.685600   -1.922170   -7.547130
  H      5.866370   -1.899990   -6.474180
  H      5.108300   -1.883720   -4.899970
  H      4.892300   -0.533410   -5.987650

 Total Charge           Charge          ....   -1
 Multiplicity           Mult            ....    1
 Number of Electrons    NEL             ....   34
 Basis Dimension        Dim             ....  139

ORBITAL ENERGIES
----------------

  NO   OCC          E(Eh)            E(eV)
   0   2.0000     -18.813588      -511.9437
   1   2.0000     -10.000754      -272.1344
   2   2.0000      -9.993232      -271.9297
   3   2.0000      -9.989125      -271.8179
   4   2.0000      -0.682983       -18.5849
   5   2.0000      -0.572465       -15.5776
   6   2.0000      -0.456557       -12.4235
   7   2.0000      -0.357654        -9.7323
   8   2.0000      -0.272984        -7.4283
   9   2.0000      -0.263007        -7.1568
  10   2.0000      -0.211030        -5.7424
  11   2.0000      -0.187804        -5.1104
  12   2.0000      -0.158941        -4.3250
  13   2.0000      -0.149118        -4.0577
  14   2.0000      -0.117965        -3.2100
  15   2.0000       0.022838         0.6215
  16   2.0000       0.025827         0.7028
  17   0.0000       0.166581         4.5329
  18   0.0000       0.190036         5.1712
  19   0.0000       0.206580         5.6213
  20   0.0000       0.229572         6.2470
  21   0.0000       0.250443         6.8149

MULLIKEN ATOMIC CHARGES
-----------------------
   0 C :    0.815792
   1 C :   -0.346610
   2 C :    0.582188
   3 H :   -0.270462
   4 H :   -0.158388
   5 O :   -0.859416
   6 H :   -0.193394
   7 H :   -0.122938
   8 H :   -0.213601
   9 H :   -0.155331
  10 H :   -0.077840
Sum of atomic charges:   -1.0000000

LOEWDIN ATOMIC CHARGES
----------------------
   0 C :    0.082859
   1 C :   -0.107398
   2 C :   -0.213032
   3 H :   -0.041579
   4 H :   -0.031863
   5 O :   -0.536340
   6 H :   -0.017064
   7 H :   -0.006677
   8 H :   -0.054831
   9 H :   -0.034555
  10 H :   -0.039520

  Mayer bond orders larger than 0.100000
B(  0-C ,  1-C ) :   1.2792 B(  0-C ,  7-H ) :   0.1151 B(  0-C ,  8-H ) :   0.7499
B(  0-C ,  9-H ) :   0.7804 B(  0-C , 10-H ) :   0.7788 B(  1-C ,  2-C ) :   1.0163
B(  1-C ,  3-H ) :   0.1705 B(  1-C ,  4-H ) :   0.1646 B(  1-C ,  5-O ) :   0.1279
B(  1-C ,  6-H ) :   0.9952 B(  1-C ,  7-H ) :   0.9119 B(  1-C ,  8-H ) :   0.2321
B(  1-C ,  9-H ) :   0.2160 B(  1-C , 10-H ) :   0.2297 B(  2-C ,  3-H ) :   0.9291
B(  2-C ,  4-H ) :   0.9099 B(  2-C ,  5-O ) :   1.1593 B(  2-C ,  6-H ) :   0.1000
B(  2-C ,  7-H ) :   0.1093 B(  3-H ,  4-H ) :   0.1015

Dispersion correction           -0.011062533
FINAL SINGLE POINT ENERGY      -193.501493708215

DIPOLE MOMENT
-------------
                                X             Y             Z
Electronic contribution:     -2.01274       2.02807       0.55744
Nuclear contribution   :      3.33375      -3.25054      -1.09297
                        -----------------------------------------
Total Dipole Moment    :      1.32102      -1.22247      -0.53553
                        -----------------------------------------
Magnitude (a.u.)       :      1.87785
Magnitude (Debye)      :      4.77311

Rotational constants in cm-1:     0.478390     0.193336     0.154822
Rotational constants in MHz : 14341.777399  5796.063993  4641.443060

                             ****ORCA TERMINATED NORMALLY****
TOTAL RUN TIME: 0 days 0 hours 0 minutes 10 seconds 580 msec
