                         Program Version 5.0.0 -  RELEASE  -
|  1> !B3LYP D3BJ RIJCOSX def2-SVPD def2/J TightSCF
|  2> *xyz 1 1
|  3> C          4.99986       -1.59613       -5.92488
|  4> N          5.28156       -1.97413       -4.53576
|  5> C          3.76678       -2.26611       -6.51175
|  6> C          2.49670       -1.84416       -5.73570
|  7> C          4.79250       -1.36132       -3.45730
|  8> N          3.93990       -0.37492       -3.55736
|  9> N          5.25986       -1.75422       -2.23913
| 10> H          5.92282       -2.52145       -2.18672
| 11> H          4.65468       -1.64040       -1.44202
| 12> H          5.70914       -2.87560       -4.38702
| 13> H          3.33010       -0.31764       -4.36125
| 14> H          3.69849        0.11447       -2.70833
| 15> H          4.84333       -0.51793       -5.94302
| 16> H          5.90170       -1.82250       -6.49647
| 17> H          3.88619       -3.35708       -6.53360
| 18> H          3.68560       -1.92217       -7.54713
| 19> H          1.64155       -2.32499       -6.16281
| 20> H          2.37707       -0.78268       -5.79763
| 21> H          2.59306       -2.13299       -4.70994
| 22> *
| 23>
| 24> %MaxCore 64000
| 25>
| 26> %pal nprocs 4
| 27> end
| 28>
| 29> %scf
| 30>   MaxIter 150
| 31> end
| 32>
| 33>
| 34>                          ****END OF INPUT****

CARTESIAN COORDINATES (ANGSTROEM)
---------------------------------
  C      4.999860   -1.596130   -5.924880
  N      5.281560   -1.974130   -4.535760
  C      3.766780   -2.266110   -6.511750
  C      2.496700   -1.844160   -5.735700
  C      4.792500   -1.361320   -3.457300
  N      3.939900   -0.374920   -3.557360
  N      5.259860   -1.754220   -2.239130
  H      5.922820   -2.521450   -2.186720
  H      4.654680   -1.640400   -1.442020
  H      5.709140   -2.875600   -4.387020
  H      3.330100   -0.317640   -4.361250
  H      3.698490    0.114470   -2.708330
  H      4.843330   -0.517930   -5.943020
  H      5.901700   -1.822500   -6.496470
  H      3.886190   -3.357080   -6.533600
  H      3.685600   -1.922170   -7.547130
  H      1.641550   -2.324990   -6.162810
  H      2.377070   -0.782680   -5.797630
  H      2.593060   -2.132990   -4.709940

 Total Charge           Charge          ....    1
 Multiplicity           Mult            ....    1
 Number of Electrons    NEL             ....   56
 Basis Dimension        Dim             ....  236

ORBITAL ENERGIES
----------------

  NO   OCC          E(Eh)            E(eV)
   0   2.0000     -14.550273      -395.9331
   1   2.0000     -14.549625      -395.9154
   2   2.0000     -14.545981      -395.8163
   3   2.0000     -10.513866      -286.0969
   4   2.0000     -10.384532      -282.5775
   5   2.0000     -10.333360      -281.1850
   6   2.0000     -10.321327      -280.8576
   7   2.0000      -1.202597       -32.7243
   8   2.0000      -1.093879       -29.7660
   9   2.0000      -1.079334       -29.3702
  10   2.0000      -0.939451       -25.5638
  11   2.0000      -0.862642       -23.4737
  12   2.0000      -0.824121       -22.4255
  13   2.0000      -0.786775       -21.4092
  14   2.0000      -0.760323       -20.6894
  15   2.0000      -0.730952       -19.8902
  16   2.0000      -0.695543       -18.9267
  17   2.0000      -0.689821       -18.7710
  18   2.0000      -0.641667       -17.4606
  19   2.0000      -0.630616       -17.1599
  20   2.0000      -0.606272       -16.4975
  21   2.0000      -0.579349       -15.7649
  22   2.0000      -0.561451       -15.2779
  23   2.0000      -0.522139       -14.2081
  24   2.0000      -0.501595       -13.6491
  25   2.0000      -0.498673       -13.5696
  26   2.0000      -0.473743       -12.8912
  27   2.0000      -0.447866       -12.1871
  28   0.0000      -0.175392        -4.7727
  29   0.0000      -0.148620        -4.0442
  30   0.0000      -0.116538        -3.1712
  31   0.0000      -0.105517        -2.8713
  32   0.0000      -0.093309        -2.5391

MULLIKEN ATOMIC CHARGES
-----------------------
   0 C :    0.884318
   1 N :   -0.341656
   2 C :    0.120194
   3 C :    0.734091
   4 C :    1.119314
   5 N :    0.330213
   6 N :    0.041089
   7 H :   -0.077080
   8 H :   -0.060318
   9 H :   -0.272274
  10 H :   -0.393297
  11 H :   -0.123596
  12 H :   -0.019296
  13 H :   -0.451210
  14 H :   -0.198500
  15 H :   -0.053349
  16 H :   -0.440854
  17 H :    0.150770
  18 H :    0.051441
Sum of atomic charges:    1.0000000

LOEWDIN ATOMIC CHARGES
----------------------
   0 C :    0.078118
   1 N :    0.060395
   2 C :   -0.018077
   3 C :    0.145435
   4 C :   -0.042115
   5 N :    0.299734
   6 N :    0.268212
   7 H :    0.030209
   8 H :    0.024774
   9 H :    0.054074
  10 H :   -0.035673
  11 H :    0.047043
  12 H :    0.030124
  13 H :    0.038039
  14 H :    0.031080
  15 H :    0.036455
  16 H :   -0.000370
  17 H :   -0.015269
  18 H :   -0.032187

  Mayer bond orders larger than 0.100000
B(  0-C ,  1-N ) :   0.9680 B(  0-C ,  2-C ) :   1.0996 B(  0-C ,  9-H ) :  -0.2053
B(  0-C , 12-H ) :   0.7042 B(  0-C , 13-H ) :   0.8775 B(  0-C , 14-H ) :   0.1499
B(  0-C , 15-H ) :   0.1237 B(  1-N ,  4-C ) :   1.0364 B(  1-N ,  5-N ) :   0.1680
B(  1-N ,  6-N ) :   0.2008 B(  1-N ,  9-H ) :   1.2859 B(  1-N , 12-H ) :   0.1908
B(  1-N , 13-H ) :   0.1416 B(  2-C ,  3-C ) :   1.2716 B(  2-C , 12-H ) :   0.1225
B(  2-C , 14-H ) :   0.9032 B(  2-C , 15-H ) :   0.8340 B(  2-C , 16-H ) :   0.1941
B(  2-C , 17-H ) :   0.1537 B(  2-C , 18-H ) :   0.1632 B(  3-C , 10-H ) :   0.1421
B(  3-C , 15-H ) :   0.1108 B(  3-C , 16-H ) :   0.9136 B(  3-C , 17-H ) :   0.6820
B(  3-C , 18-H ) :   0.8093 B(  4-C ,  5-N ) :   1.1144 B(  4-C ,  6-N ) :   0.8721
B(  4-C ,  7-H ) :  -0.1083 B(  4-C ,  9-H ) :  -0.2220 B(  4-C , 10-H ) :  -0.1202
B(  4-C , 11-H ) :  -0.1226 B(  5-N ,  6-N ) :   0.1693 B(  5-N , 10-H ) :   1.1586
B(  5-N , 11-H ) :   1.2184 B(  5-N , 12-H ) :   0.1122 B(  6-N ,  7-H ) :   1.1005
B(  6-N ,  8-H ) :   1.1508 B(  7-H ,  8-H ) :  -0.1437 B( 10-H , 11-H ) :  -0.2198
B( 10-H , 17-H ) :   0.1824 B( 12-H , 13-H ) :  -0.1712 B( 16-H , 17-H ) :  -0.1457

Dispersion correction           -0.027332796
FINAL SINGLE POINT ENERGY      -323.317763929023

DIPOLE MOMENT
-------------
                                X             Y             Z
Electronic contribution:      3.86828       0.80223       4.82460
Nuclear contribution   :     -3.69451      -0.93313      -3.60402
                        -----------------------------------------
Total Dipole Moment    :      0.17377      -0.13090       1.22058
                        -----------------------------------------
Magnitude (a.u.)       :      1.23982
Magnitude (Debye)      :      3.15137

Rotational constants in cm-1:     0.152547     0.057272     0.048491
Rotational constants in MHz :  4573.230603  1716.968614  1453.721796

                             ****ORCA TERMINATED NORMALLY****
TOTAL RUN TIME: 0 days 0 hours 0 minutes 30 seconds 637 msec
