                         Program Version 5.0.0 -  RELEASE  -
|  1> !B3LYP D3BJ RIJCOSX def2-SVPD def2/J TightSCF
|  2> *xyz 0 1
|  3> C          4.99986       -1.59613       -5.92488
|  4> C          3.76678       -2.26611       -6.51175
|  5> C          2.49670       -1.84416       -5.73570
|  6> H          1.62642       -2.21743       -6.30895
|  7> H          2.48182       -2.45607       -4.79341
|  8> F          2.45973       -0.50920       -5.50576
|  9> H          3.88619       -3.35708       -6.53360
| 10> H          3.68560       -1.92217       -7.54713
| 11> H          5.86637       -1.89999       -6.47418
| 12> H          5.10830       -1.88372       -4.89997
| 13> H          4.89230       -0.53341       -5.98765
| 14> *
| 15>
| 16> %MaxCore 64000
| 17>
| 18> %pal nprocs 4
| 19> end
| 20>
| 21> %scf
| 22>   MaxIter 150
| 23> end
| 24>
| 25>
| 26>                          ****END OF INPUT****

CARTESIAN COORDINATES (ANGSTROEM)
---------------------------------
  C      4.999860   -1.596130   -5.924880
  C      3.766780   -2.266110   -6.511750
  C      2.496700   -1.844160   -5.735700
  H      1.626420   -2.217430   -6.308950
  H      2.481820   -2.456070   -4.793410
  F      2.459730   -0.509200   -5.505760
  H      3.886190   -3.357080   -6.533600
  H      3.685600   -1.922170   -7.547130
  H      5.866370   -1.899990   -6.474180
  H      5.108300   -1.883720   -4.899970
  H      4.892300   -0.533410   -5.987650

 Total Charge           Charge          ....    0
 Multiplicity           Mult            ....    1
 Number of Electrons    NEL             ....   34
 Basis Dimension        Dim             ....  139

ORBITAL ENERGIES
----------------

  NO   OCC          E(Eh)            E(eV)
   0   2.0000     -24.690729      -671.8689
   1   2.0000     -10.263097      -279.2731
   2   2.0000     -10.188205      -277.2352
   3   2.0000     -10.167654      -276.6759
   4   2.0000      -1.193651       -32.4809
   5   2.0000      -0.781385       -21.2626
   6   2.0000      -0.682929       -18.5834
   7   2.0000      -0.591320       -16.0906
   8   2.0000      -0.515098       -14.0165
   9   2.0000      -0.498066       -13.5531
  10   2.0000      -0.478802       -13.0289
  11   2.0000      -0.437979       -11.9180
  12   2.0000      -0.398533       -10.8446
  13   2.0000      -0.374328       -10.1860
  14   2.0000      -0.357145        -9.7184
  15   2.0000      -0.327691        -8.9169
  16   2.0000      -0.324531        -8.8309
  17   0.0000       0.019981         0.5437
  18   0.0000       0.044836         1.2200
  19   0.0000       0.055419         1.5080
  20   0.0000       0.068181         1.8553
  21   0.0000       0.089584         2.4377

MULLIKEN ATOMIC CHARGES
-----------------------
   0 C :    0.822107
   1 C :   -0.285806
   2 C :    0.870305
   3 H :   -0.185191
   4 H :   -0.077171
   5 F :   -0.430267
   6 H :   -0.180832
   7 H :   -0.124898
   8 H :   -0.185830
   9 H :   -0.142147
  10 H :   -0.080271
Sum of atomic charges:    0.0000000

LOEWDIN ATOMIC CHARGES
----------------------
   0 C :    0.121306
   1 C :   -0.057863
   2 C :    0.097518
   3 H :    0.024241
   4 H :    0.036253
   5 F :   -0.201834
   6 H :    0.023898
   7 H :    0.016908
   8 H :   -0.021884
   9 H :   -0.017907
  10 H :   -0.020634

  Mayer bond orders larger than 0.100000
B(  0-C ,  1-C ) :   1.3183 B(  0-C ,  8-H ) :   0.7779 B(  0-C ,  9-H ) :   0.7787
B(  0-C , 10-H ) :   0.7828 B(  1-C ,  2-C ) :   1.1591 B(  1-C ,  3-H ) :   0.1285
B(  1-C ,  4-H ) :   0.1264 B(  1-C ,  6-H ) :   0.9451 B(  1-C ,  7-H ) :   0.8939
B(  1-C ,  8-H ) :   0.2152 B(  1-C ,  9-H ) :   0.1929 B(  1-C , 10-H ) :   0.1970
B(  2-C ,  3-H ) :   0.8890 B(  2-C ,  4-H ) :   0.8630 B(  2-C ,  5-F ) :   0.7387

Dispersion correction           -0.010408791
FINAL SINGLE POINT ENERGY      -218.107760858979

DIPOLE MOMENT
-------------
                                X             Y             Z
Electronic contribution:     -4.39677       3.86081       1.41871
Nuclear contribution   :      4.50596      -4.50325      -1.58424
                        -----------------------------------------
Total Dipole Moment    :      0.10919      -0.64243      -0.16553
                        -----------------------------------------
Magnitude (a.u.)       :      0.67234
Magnitude (Debye)      :      1.70896

Rotational constants in cm-1:     0.464063     0.182606     0.146573
Rotational constants in MHz : 13912.251583  5474.398056  4394.141907

                             ****ORCA TERMINATED NORMALLY****
TOTAL RUN TIME: 0 days 0 hours 0 minutes 8 seconds 684 msec
