                         Program Version 5.0.0 -  RELEASE  -
|  1> !B3LYP D3BJ RIJCOSX def2-SVPD def2/J TightSCF
|  2> *xyz 0 1
|  3> C          4.99986       -1.59613       -5.92488
|  4> C          5.28156       -1.97413       -4.53576
|  5> C          3.76678       -2.26611       -6.51175
|  6> C          2.49670       -1.84416       -5.73570
|  7> C          4.79250       -1.36132       -3.45730
|  8> N          3.93990       -0.37492       -3.55736
|  9> N          5.25986       -1.75422       -2.23913
| 10> H          5.92282       -2.52145       -2.18672
| 11> H          4.65468       -1.64040       -1.44202
| 12> H          5.70914       -2.87560       -4.38702
| 13> H          3.33010       -0.31764       -4.36125
| 14> H          3.69849        0.11447       -2.70833
| 15> H          4.84333       -0.51793       -5.94302
| 16> H          5.90170       -1.82250       -6.49647
| 17> H          3.88619       -3.35708       -6.53360
| 18> H          3.68560       -1.92217       -7.54713
| 19> H          1.64155       -2.32499       -6.16281
| 20> H          2.37707       -0.78268       -5.79763
| 21> H          2.59306       -2.13299       -4.70994
| 22> *
| 23>
| 24> %MaxCore 64000
| 25>
| 26> %pal nprocs 4
| 27> end
| 28>
| 29> %scf
| 30>   MaxIter 150
| 31> end
| 32>
| 33>
| 34>                          ****END OF INPUT****

CARTESIAN COORDINATES (ANGSTROEM)
---------------------------------
  C      4.999860   -1.596130   -5.924880
  C      5.281560   -1.974130   -4.535760
  C      3.766780   -2.266110   -6.511750
  C      2.496700   -1.844160   -5.735700
  C      4.792500   -1.361320   -3.457300
  N      3.939900   -0.374920   -3.557360
  N      5.259860   -1.754220   -2.239130
  H      5.922820   -2.521450   -2.186720
  H      4.654680   -1.640400   -1.442020
  H      5.709140   -2.875600   -4.387020
  H      3.330100   -0.317640   -4.361250
  H      3.698490    0.114470   -2.708330
  H      4.843330   -0.517930   -5.943020
  H      5.901700   -1.822500   -6.496470
  H      3.886190   -3.357080   -6.533600
  H      3.685600   -1.922170   -7.547130
  H      1.641550   -2.324990   -6.162810
  H      2.377070   -0.782680   -5.797630
  H      2.593060   -2.132990   -4.709940

 Total Charge           Charge          ....    0
 Multiplicity           Mult            ....    1
 Number of Electrons    NEL             ....   56
 Basis Dimension        Dim             ....  236

ORBITAL ENERGIES
----------------

  NO   OCC          E(Eh)            E(eV)
   0   2.0000     -14.330158      -389.9434
   1   2.0000     -14.326488      -389.8436
   2   2.0000     -10.224250      -278.2160
   3   2.0000     -10.165817      -276.6259
   4   2.0000     -10.164665      -276.5946
   5   2.0000     -10.154547      -276.3193
   6   2.0000     -10.107900      -275.0499
   7   2.0000      -0.952651       -25.9230
   8   2.0000      -0.861721       -23.4486
   9   2.0000      -0.781171       -21.2568
  10   2.0000      -0.716751       -19.5038
  11   2.0000      -0.654118       -17.7994
  12   2.0000      -0.601851       -16.3772
  13   2.0000      -0.558724       -15.2037
  14   2.0000      -0.543154       -14.7800
  15   2.0000      -0.505773       -13.7628
  16   2.0000      -0.480984       -13.0882
  17   2.0000      -0.447785       -12.1848
  18   2.0000      -0.435998       -11.8641
  19   2.0000      -0.419031       -11.4024
  20   2.0000      -0.387987       -10.5577
  21   2.0000      -0.373476       -10.1628
  22   2.0000      -0.356604        -9.7037
  23   2.0000      -0.335493        -9.1292
  24   2.0000      -0.320686        -8.7263
  25   2.0000      -0.316756        -8.6194
  26   2.0000      -0.263620        -7.1735
  27   2.0000      -0.163799        -4.4572
  28   0.0000       0.014754         0.4015
  29   0.0000       0.037150         1.0109
  30   0.0000       0.046214         1.2575
  31   0.0000       0.059150         1.6096
  32   0.0000       0.062751         1.7075

MULLIKEN ATOMIC CHARGES
-----------------------
   0 C :    0.352321
   1 C :   -0.189935
   2 C :    0.085672
   3 C :    0.749245
   4 C :    0.808260
   5 N :    0.415070
   6 N :    0.006902
   7 H :   -0.085252
   8 H :   -0.133647
   9 H :   -0.385304
  10 H :   -0.430730
  11 H :   -0.259767
  12 H :   -0.027443
  13 H :   -0.286301
  14 H :   -0.221672
  15 H :   -0.126555
  16 H :   -0.435555
  17 H :    0.140158
  18 H :    0.024533
Sum of atomic charges:    0.0000000

LOEWDIN ATOMIC CHARGES
----------------------
   0 C :   -0.061003
   1 C :   -0.012929
   2 C :   -0.050038
   3 C :    0.127668
   4 C :   -0.224455
   5 N :    0.218581
   6 N :    0.188053
   7 H :   -0.002977
   8 H :   -0.026604
   9 H :   -0.056192
  10 H :   -0.060507
  11 H :   -0.001382
  12 H :    0.007782
  13 H :    0.009607
  14 H :    0.018611
  15 H :    0.009284
  16 H :   -0.023548
  17 H :   -0.026478
  18 H :   -0.033475

  Mayer bond orders larger than 0.100000
B(  0-C ,  1-C ) :   1.1453 B(  0-C ,  2-C ) :   1.1081 B(  0-C ,  9-H ) :   0.2683
B(  0-C , 12-H ) :   0.7143 B(  0-C , 13-H ) :   0.8284 B(  0-C , 14-H ) :   0.1861
B(  0-C , 15-H ) :   0.1444 B(  1-C ,  4-C ) :   1.4869 B(  1-C ,  5-N ) :   0.2778
B(  1-C ,  6-N ) :   0.3215 B(  1-C ,  9-H ) :   0.8307 B(  1-C , 10-H ) :  -0.1035
B(  1-C , 12-H ) :   0.2987 B(  1-C , 13-H ) :   0.1866 B(  2-C ,  3-C ) :   1.2730
B(  2-C , 12-H ) :   0.1187 B(  2-C , 14-H ) :   0.9053 B(  2-C , 15-H ) :   0.8232
B(  2-C , 16-H ) :   0.2158 B(  2-C , 17-H ) :   0.1677 B(  2-C , 18-H ) :   0.1925
B(  3-C , 10-H ) :   0.1314 B(  3-C , 15-H ) :   0.1272 B(  3-C , 16-H ) :   0.8551
B(  3-C , 17-H ) :   0.6890 B(  3-C , 18-H ) :   0.7921 B(  4-C ,  5-N ) :   1.0345
B(  4-C ,  6-N ) :   0.7564 B(  4-C ,  9-H ) :   0.1186 B(  4-C , 11-H ) :  -0.1347
B(  4-C , 12-H ) :  -0.1530 B(  5-N ,  6-N ) :   0.1151 B(  5-N , 10-H ) :   1.1028
B(  5-N , 11-H ) :   1.2478 B(  6-N ,  7-H ) :   1.1223 B(  6-N ,  8-H ) :   1.1296
B(  7-H ,  8-H ) :  -0.1329 B( 10-H , 11-H ) :  -0.2033 B( 10-H , 17-H ) :   0.1783
B( 16-H , 17-H ) :  -0.1167

Dispersion correction           -0.028393045
FINAL SINGLE POINT ENERGY      -306.848547019472

DIPOLE MOMENT
-------------
                                X             Y             Z
Electronic contribution:      2.89661       1.03535       4.31380
Nuclear contribution   :     -3.49027      -1.01686      -3.60427
                        -----------------------------------------
Total Dipole Moment    :     -0.59366       0.01849       0.70953
                        -----------------------------------------
Magnitude (a.u.)       :      0.92532
Magnitude (Debye)      :      2.35197

Rotational constants in cm-1:     0.155200     0.057307     0.048781
Rotational constants in MHz :  4652.781345  1718.017305  1462.410307

                             ****ORCA TERMINATED NORMALLY****
TOTAL RUN TIME: 0 days 0 hours 0 minutes 34 seconds 832 msec
