                         Program Version 5.0.0 -  RELEASE  -
|  1> !B3LYP D3BJ RIJCOSX def2-SVPD def2/J TightSCF
|  2> *xyz 0 1
|  3> C          4.99986       -1.59613       -5.92488
|  4> N          5.28156       -1.97413       -4.53576
|  5> C          3.76678       -2.26611       -6.51175
|  6> C          2.49670       -1.84416       -5.73570
|  7> C          4.79250       -1.36132       -3.45730
|  8> C          3.93990       -0.37492       -3.55736
|  9> N          5.25986       -1.75422       -2.23913
| 10> H          5.92282       -2.52145       -2.18672
| 11> H          4.65468       -1.64040       -1.44202
| 12> H          5.70914       -2.87560       -4.38702
| 13> H          3.33010       -0.31764       -4.36125
| 14> H          3.69849        0.11447       -2.70833
| 15> H          4.84333       -0.51793       -5.94302
| 16> H          5.90170       -1.82250       -6.49647
| 17> H          3.88619       -3.35708       -6.53360
| 18> H          3.68560       -1.92217       -7.54713
| 19> H          1.64155       -2.32499       -6.16281
| 20> H          2.37707       -0.78268       -5.79763
| 21> H          2.59306       -2.13299       -4.70994
| 22> *
| 23>
| 24> %MaxCore 64000
| 25>
| 26> %pal nprocs 4
| 27> end
| 28>
| 29> %scf
| 30>   MaxIter 150
| 31> end
| 32>
| 33>
| 34>                          ****END OF INPUT****

CARTESIAN COORDINATES (ANGSTROEM)
---------------------------------
  C      4.999860   -1.596130   -5.924880
  N      5.281560   -1.974130   -4.535760
  C      3.766780   -2.266110   -6.511750
  C      2.496700   -1.844160   -5.735700
  C      4.792500   -1.361320   -3.457300
  C      3.939900   -0.374920   -3.557360
  N      5.259860   -1.754220   -2.239130
  H      5.922820   -2.521450   -2.186720
  H      4.654680   -1.640400   -1.442020
  H      5.709140   -2.875600   -4.387020
  H      3.330100   -0.317640   -4.361250
  H      3.698490    0.114470   -2.708330
  H      4.843330   -0.517930   -5.943020
  H      5.901700   -1.822500   -6.496470
  H      3.886190   -3.357080   -6.533600
  H      3.685600   -1.922170   -7.547130
  H      1.641550   -2.324990   -6.162810
  H      2.377070   -0.782680   -5.797630
  H      2.593060   -2.132990   -4.709940

 Total Charge           Charge          ....    0
 Multiplicity           Mult            ....    1
 Number of Electrons    NEL             ....   56
 Basis Dimension        Dim             ....  236

ORBITAL ENERGIES
----------------

  NO   OCC          E(Eh)            E(eV)
   0   2.0000     -14.331139      -389.9701
   1   2.0000     -14.327403      -389.8685
   2   2.0000     -10.225597      -278.2526
   3   2.0000     -10.211240      -277.8620
   4   2.0000     -10.179735      -277.0047
   5   2.0000     -10.159945      -276.4662
   6   2.0000     -10.094723      -274.6914
   7   2.0000      -0.953518       -25.9466
   8   2.0000      -0.870818       -23.6962
   9   2.0000      -0.768976       -20.9249
  10   2.0000      -0.717917       -19.5355
  11   2.0000      -0.674521       -18.3547
  12   2.0000      -0.602082       -16.3835
  13   2.0000      -0.559779       -15.2324
  14   2.0000      -0.537213       -14.6183
  15   2.0000      -0.511909       -13.9298
  16   2.0000      -0.466722       -12.7002
  17   2.0000      -0.456206       -12.4140
  18   2.0000      -0.432518       -11.7694
  19   2.0000      -0.405712       -11.0400
  20   2.0000      -0.394710       -10.7406
  21   2.0000      -0.377396       -10.2695
  22   2.0000      -0.373426       -10.1614
  23   2.0000      -0.345078        -9.3900
  24   2.0000      -0.340661        -9.2699
  25   2.0000      -0.329680        -8.9710
  26   2.0000      -0.250482        -6.8160
  27   2.0000      -0.172741        -4.7005
  28   0.0000       0.012745         0.3468
  29   0.0000       0.035015         0.9528
  30   0.0000       0.042185         1.1479
  31   0.0000       0.054111         1.4724
  32   0.0000       0.065272         1.7761

MULLIKEN ATOMIC CHARGES
-----------------------
   0 C :    0.870922
   1 N :   -0.370221
   2 C :    0.065477
   3 C :    0.609345
   4 C :    0.688968
   5 C :    0.859013
   6 N :    0.120880
   7 H :   -0.160159
   8 H :   -0.053577
   9 H :   -0.374064
  10 H :   -0.984513
  11 H :   -0.482902
  12 H :    0.046382
  13 H :   -0.485948
  14 H :   -0.219503
  15 H :   -0.103545
  16 H :   -0.515059
  17 H :    0.336294
  18 H :    0.152213
Sum of atomic charges:   -0.0000000

LOEWDIN ATOMIC CHARGES
----------------------
   0 C :    0.052450
   1 N :   -0.004710
   2 C :   -0.041810
   3 C :    0.130327
   4 C :   -0.229420
   5 C :    0.169981
   6 N :    0.192677
   7 H :   -0.018933
   8 H :   -0.008208
   9 H :    0.014010
  10 H :   -0.148481
  11 H :   -0.089989
  12 H :    0.020811
  13 H :    0.013015
  14 H :    0.013856
  15 H :    0.013672
  16 H :   -0.025486
  17 H :   -0.021550
  18 H :   -0.032212

  Mayer bond orders larger than 0.100000
B(  0-C ,  1-N ) :   0.9645 B(  0-C ,  2-C ) :   1.0756 B(  0-C ,  4-C ) :  -0.1137
B(  0-C ,  5-C ) :   0.1101 B(  0-C ,  9-H ) :  -0.1943 B(  0-C , 12-H ) :   0.6915
B(  0-C , 13-H ) :   0.8851 B(  0-C , 14-H ) :   0.1406 B(  0-C , 15-H ) :   0.1285
B(  1-N ,  4-C ) :   0.9535 B(  1-N ,  5-C ) :   0.3111 B(  1-N ,  6-N ) :   0.1473
B(  1-N ,  9-H ) :   1.3513 B(  1-N , 12-H ) :   0.1702 B(  1-N , 13-H ) :   0.1394
B(  2-C ,  3-C ) :   1.2911 B(  2-C , 12-H ) :   0.1463 B(  2-C , 14-H ) :   0.9091
B(  2-C , 15-H ) :   0.8373 B(  2-C , 16-H ) :   0.2003 B(  2-C , 17-H ) :   0.1423
B(  2-C , 18-H ) :   0.1579 B(  3-C , 10-H ) :   0.3070 B(  3-C , 15-H ) :   0.1230
B(  3-C , 16-H ) :   0.9157 B(  3-C , 17-H ) :   0.6231 B(  3-C , 18-H ) :   0.8141
B(  4-C ,  5-C ) :   1.6945 B(  4-C ,  6-N ) :   0.8570 B(  4-C ,  9-H ) :  -0.2509
B(  4-C , 10-H ) :   0.1036 B(  4-C , 11-H ) :   0.4031 B(  5-C ,  6-N ) :   0.3353
B(  5-C , 10-H ) :   0.2932 B(  5-C , 11-H ) :   0.4769 B(  6-N ,  7-H ) :   1.0419
B(  6-N ,  8-H ) :   1.0856 B(  6-N , 11-H ) :   0.1936 B(  7-H ,  8-H ) :  -0.1405
B( 10-H , 12-H ) :   0.1063 B( 10-H , 17-H ) :   0.1711 B( 12-H , 13-H ) :  -0.1852
B( 16-H , 17-H ) :  -0.2076 B( 16-H , 18-H ) :  -0.1116

Dispersion correction           -0.028316288
FINAL SINGLE POINT ENERGY      -306.836631864022

DIPOLE MOMENT
-------------
                                X             Y             Z
Electronic contribution:      4.04237      -0.34840       3.36993
Nuclear contribution   :     -3.78417      -0.66655      -3.38995
                        -----------------------------------------
Total Dipole Moment    :      0.25821      -1.01495      -0.02002
                        -----------------------------------------
Magnitude (a.u.)       :      1.04747
Magnitude (Debye)      :      2.66245

Rotational constants in cm-1:     0.157710     0.057795     0.049101
Rotational constants in MHz :  4728.033540  1732.635996  1472.015132

                             ****ORCA TERMINATED NORMALLY****
TOTAL RUN TIME: 0 days 0 hours 0 minutes 31 seconds 128 msec
