                         Program Version 5.0.0 -  RELEASE  -
|  1> !B3LYP D3BJ RIJCOSX def2-SVPD def2/J TightSCF
|  2> *xyz 0 1
|  3> C          4.99986       -1.59613       -5.92488
|  4> N          5.28156       -1.97413       -4.53576
|  5> C          3.76678       -2.26611       -6.51175
|  6> C          2.49670       -1.84416       -5.73570
|  7> C          4.79250       -1.36132       -3.45730
|  8> N          3.93990       -0.37492       -3.55736
|  9> C          5.25986       -1.75422       -2.23913
| 10> H          5.92282       -2.52145       -2.18672
| 11> H          4.65468       -1.64040       -1.44202
| 12> H          5.70914       -2.87560       -4.38702
| 13> H          3.33010       -0.31764       -4.36125
| 14> H          3.69849        0.11447       -2.70833
| 15> H          4.84333       -0.51793       -5.94302
| 16> H          5.90170       -1.82250       -6.49647
| 17> H          3.88619       -3.35708       -6.53360
| 18> H          3.68560       -1.92217       -7.54713
| 19> H          1.64155       -2.32499       -6.16281
| 20> H          2.37707       -0.78268       -5.79763
| 21> H          2.59306       -2.13299       -4.70994
| 22> *
| 23>
| 24> %MaxCore 64000
| 25>
| 26> %pal nprocs 4
| 27> end
| 28>
| 29> %scf
| 30>   MaxIter 150
| 31> end
| 32>
| 33>
| 34>                          ****END OF INPUT****

CARTESIAN COORDINATES (ANGSTROEM)
---------------------------------
  C      4.999860   -1.596130   -5.924880
  N      5.281560   -1.974130   -4.535760
  C      3.766780   -2.266110   -6.511750
  C      2.496700   -1.844160   -5.735700
  C      4.792500   -1.361320   -3.457300
  N      3.939900   -0.374920   -3.557360
  C      5.259860   -1.754220   -2.239130
  H      5.922820   -2.521450   -2.186720
  H      4.654680   -1.640400   -1.442020
  H      5.709140   -2.875600   -4.387020
  H      3.330100   -0.317640   -4.361250
  H      3.698490    0.114470   -2.708330
  H      4.843330   -0.517930   -5.943020
  H      5.901700   -1.822500   -6.496470
  H      3.886190   -3.357080   -6.533600
  H      3.685600   -1.922170   -7.547130
  H      1.641550   -2.324990   -6.162810
  H      2.377070   -0.782680   -5.797630
  H      2.593060   -2.132990   -4.709940

 Total Charge           Charge          ....    0
 Multiplicity           Mult            ....    1
 Number of Electrons    NEL             ....   56
 Basis Dimension        Dim             ....  236

ORBITAL ENERGIES
----------------

  NO   OCC          E(Eh)            E(eV)
   0   2.0000     -14.330020      -389.9397
   1   2.0000     -14.328924      -389.9098
   2   2.0000     -10.228781      -278.3393
   3   2.0000     -10.219967      -278.0994
   4   2.0000     -10.191407      -277.3223
   5   2.0000     -10.182458      -277.0788
   6   2.0000     -10.091480      -274.6031
   7   2.0000      -0.962491       -26.1907
   8   2.0000      -0.879558       -23.9340
   9   2.0000      -0.788808       -21.4646
  10   2.0000      -0.711597       -19.3635
  11   2.0000      -0.669450       -18.2167
  12   2.0000      -0.601951       -16.3799
  13   2.0000      -0.595637       -16.2081
  14   2.0000      -0.545159       -14.8345
  15   2.0000      -0.501397       -13.6437
  16   2.0000      -0.480206       -13.0671
  17   2.0000      -0.461267       -12.5517
  18   2.0000      -0.453147       -12.3308
  19   2.0000      -0.408433       -11.1140
  20   2.0000      -0.394183       -10.7263
  21   2.0000      -0.386431       -10.5153
  22   2.0000      -0.375409       -10.2154
  23   2.0000      -0.355412        -9.6712
  24   2.0000      -0.351782        -9.5725
  25   2.0000      -0.344185        -9.3658
  26   2.0000      -0.255048        -6.9402
  27   2.0000      -0.158346        -4.3088
  28   0.0000       0.012627         0.3436
  29   0.0000       0.032241         0.8773
  30   0.0000       0.041503         1.1293
  31   0.0000       0.047081         1.2811
  32   0.0000       0.063588         1.7303

MULLIKEN ATOMIC CHARGES
-----------------------
   0 C :    0.879880
   1 N :   -0.144974
   2 C :    0.103131
   3 C :    0.719470
   4 C :    0.275332
   5 N :    0.487275
   6 C :    0.542383
   7 H :   -0.384392
   8 H :   -0.381269
   9 H :   -0.348044
  10 H :   -0.500888
  11 H :   -0.128551
  12 H :   -0.051223
  13 H :   -0.520226
  14 H :   -0.215025
  15 H :   -0.084873
  16 H :   -0.476041
  17 H :    0.139574
  18 H :    0.088460
Sum of atomic charges:    0.0000000

LOEWDIN ATOMIC CHARGES
----------------------
   0 C :    0.047338
   1 N :    0.005614
   2 C :   -0.043002
   3 C :    0.132338
   4 C :   -0.240985
   5 N :    0.217018
   6 C :    0.150546
   7 H :   -0.115420
   8 H :   -0.120861
   9 H :    0.029395
  10 H :   -0.068973
  11 H :    0.015461
  12 H :    0.014851
  13 H :    0.013846
  14 H :    0.018646
  15 H :    0.015336
  16 H :   -0.019911
  17 H :   -0.024028
  18 H :   -0.027210

  Mayer bond orders larger than 0.100000
B(  0-C ,  1-N ) :   0.9809 B(  0-C ,  2-C ) :   1.0782 B(  0-C ,  9-H ) :  -0.2259
B(  0-C , 12-H ) :   0.7193 B(  0-C , 13-H ) :   0.8662 B(  0-C , 14-H ) :   0.1638
B(  0-C , 15-H ) :   0.1372 B(  1-N ,  4-C ) :   1.1040 B(  1-N ,  5-N ) :   0.1199
B(  1-N ,  6-C ) :   0.1977 B(  1-N ,  9-H ) :   1.1827 B(  1-N , 12-H ) :   0.1986
B(  1-N , 13-H ) :   0.1424 B(  2-C ,  3-C ) :   1.2647 B(  2-C , 12-H ) :   0.1242
B(  2-C , 14-H ) :   0.8951 B(  2-C , 15-H ) :   0.8303 B(  2-C , 16-H ) :   0.1981
B(  2-C , 17-H ) :   0.1596 B(  2-C , 18-H ) :   0.1721 B(  3-C , 10-H ) :   0.1307
B(  3-C , 15-H ) :   0.1111 B(  3-C , 16-H ) :   0.8837 B(  3-C , 17-H ) :   0.6937
B(  3-C , 18-H ) :   0.8083 B(  4-C ,  5-N ) :   1.1334 B(  4-C ,  6-C ) :   1.7037
B(  4-C ,  7-H ) :   0.2039 B(  4-C ,  8-H ) :   0.2327 B(  4-C ,  9-H ) :  -0.1582
B(  5-N ,  6-C ) :   0.1614 B(  5-N , 10-H ) :   1.0407 B(  5-N , 11-H ) :   1.1951
B(  5-N , 12-H ) :   0.1184 B(  6-C ,  7-H ) :   0.6789 B(  6-C ,  8-H ) :   0.7267
B(  7-H ,  8-H ) :   0.1960 B( 10-H , 11-H ) :  -0.2022 B( 10-H , 17-H ) :   0.1690
B( 12-H , 13-H ) :  -0.1797 B( 16-H , 17-H ) :  -0.1508

Dispersion correction           -0.028052139
FINAL SINGLE POINT ENERGY      -306.835101098496

DIPOLE MOMENT
-------------
                                X             Y             Z
Electronic contribution:      2.75247       0.91669       1.93747
Nuclear contribution   :     -3.49502      -0.96869      -3.10119
                        -----------------------------------------
Total Dipole Moment    :     -0.74256      -0.05201      -1.16372
                        -----------------------------------------
Magnitude (a.u.)       :      1.38142
Magnitude (Debye)      :      3.51130

Rotational constants in cm-1:     0.153385     0.059790     0.050215
Rotational constants in MHz :  4598.376479  1792.462869  1505.410199

                             ****ORCA TERMINATED NORMALLY****
TOTAL RUN TIME: 0 days 0 hours 0 minutes 34 seconds 182 msec
