                         Program Version 5.0.0 -  RELEASE  -
|  1> !B3LYP D3BJ RIJCOSX def2-SVPD def2/J TightSCF xyzfile
|  2>
|  3> *xyzfile 0 1 D1.xyz
|  4>
|  5> %MaxCore 64000
|  6>
|  7> %pal nprocs 4
|  8> end
|  9>
| 10> %scf
| 11>   MaxIter 150
| 12> end
| 13>
| 14>
| 15>                          ****END OF INPUT****

CARTESIAN COORDINATES (ANGSTROEM)
---------------------------------
  C      4.999862   -1.596133   -5.924876
  C      5.281560   -1.974132   -4.535764
  C      3.766779   -2.266110   -6.511752
  C      2.496702   -1.844161   -5.735704
  H      1.626416   -2.217434   -6.308950
  H      2.481824   -2.456069   -4.793414
  F      2.459729   -0.509204   -5.505757
  C      4.792500   -1.361316   -3.457295
  N      3.939898   -0.374925   -3.557359
  N      5.259860   -1.754224   -2.239133
  H      5.922824   -2.521451   -2.186720
  H      4.654678   -1.640404   -1.442016
  H      5.709139   -2.875599   -4.387021
  H      3.330101   -0.317639   -4.361247
  H      3.698494    0.114468   -2.708333
  H      4.843333   -0.517930   -5.943019
  H      5.901695   -1.822503   -6.496467
  H      3.886191   -3.357076   -6.533604
  H      3.685602   -1.922168   -7.547128

 Total Charge           Charge          ....    0
 Multiplicity           Mult            ....    1
 Number of Electrons    NEL             ....   64
 Basis Dimension        Dim             ....  251

ORBITAL ENERGIES
----------------

  NO   OCC          E(Eh)            E(eV)
   0   2.0000     -24.720843      -672.6883
   1   2.0000     -14.321728      -389.7140
   2   2.0000     -14.306775      -389.3071
   3   2.0000     -10.267989      -279.4062
   4   2.0000     -10.219173      -278.0778
   5   2.0000     -10.179065      -276.9864
   6   2.0000     -10.158148      -276.4173
   7   2.0000     -10.103672      -274.9349
   8   2.0000      -1.231911       -33.5220
   9   2.0000      -0.942718       -25.6527
  10   2.0000      -0.852770       -23.2051
  11   2.0000      -0.788067       -21.4444
  12   2.0000      -0.717883       -19.5346
  13   2.0000      -0.667343       -18.1593
  14   2.0000      -0.597807       -16.2672
  15   2.0000      -0.587937       -15.9986
  16   2.0000      -0.543803       -14.7976
  17   2.0000      -0.530496       -14.4355
  18   2.0000      -0.517765       -14.0891
  19   2.0000      -0.496192       -13.5021
  20   2.0000      -0.491515       -13.3748
  21   2.0000      -0.455853       -12.4044
  22   2.0000      -0.425921       -11.5899
  23   2.0000      -0.407513       -11.0890
  24   2.0000      -0.394728       -10.7411
  25   2.0000      -0.374279       -10.1847
  26   2.0000      -0.351892        -9.5755
  27   2.0000      -0.339090        -9.2271
  28   2.0000      -0.327034        -8.8990
  29   2.0000      -0.317618        -8.6428
  30   2.0000      -0.255110        -6.9419
  31   2.0000      -0.159693        -4.3455
  32   0.0000       0.017513         0.4766
  33   0.0000       0.033872         0.9217
  34   0.0000       0.047275         1.2864
  35   0.0000       0.050350         1.3701
  36   0.0000       0.064060         1.7432

MULLIKEN ATOMIC CHARGES
-----------------------
   0 C :    0.336701
   1 C :   -0.183255
   2 C :    0.167980
   3 C :    0.945260
   4 H :   -0.410193
   5 H :    0.120908
   6 F :   -0.419396
   7 C :    0.777867
   8 N :    0.531037
   9 N :    0.001664
  10 H :   -0.095976
  11 H :   -0.127081
  12 H :   -0.388522
  13 H :   -0.385153
  14 H :   -0.289418
  15 H :    0.082341
  16 H :   -0.337600
  17 H :   -0.223828
  18 H :   -0.103336
Sum of atomic charges:    0.0000000

LOEWDIN ATOMIC CHARGES
----------------------
   0 C :   -0.051284
   1 C :   -0.017684
   2 C :   -0.005458
   3 C :    0.139516
   4 H :    0.027567
   5 H :    0.041355
   6 F :   -0.179499
   7 C :   -0.218490
   8 N :    0.235515
   9 N :    0.186885
  10 H :   -0.005283
  11 H :   -0.026963
  12 H :   -0.060788
  13 H :   -0.126611
  14 H :   -0.002840
  15 H :    0.010822
  16 H :    0.011560
  17 H :    0.028137
  18 H :    0.013541

  Mayer bond orders larger than 0.100000
B(  0-C ,  1-C ) :   1.1463 B(  0-C ,  2-C ) :   1.1339 B(  0-C , 12-H ) :   0.2619
B(  0-C , 15-H ) :   0.7058 B(  0-C , 16-H ) :   0.8204 B(  0-C , 17-H ) :   0.1799
B(  0-C , 18-H ) :   0.1267 B(  1-C ,  7-C ) :   1.4741 B(  1-C ,  8-N ) :   0.2544
B(  1-C ,  9-N ) :   0.3289 B(  1-C , 12-H ) :   0.8157 B(  1-C , 13-H ) :  -0.1061
B(  1-C , 15-H ) :   0.3026 B(  1-C , 16-H ) :   0.1686 B(  2-C ,  3-C ) :   1.1880
B(  2-C ,  4-H ) :   0.1740 B(  2-C ,  5-H ) :   0.1387 B(  2-C ,  6-F ) :   0.1026
B(  2-C , 16-H ) :   0.1109 B(  2-C , 17-H ) :   0.8779 B(  2-C , 18-H ) :   0.8299
B(  3-C ,  4-H ) :   0.8867 B(  3-C ,  5-H ) :   0.8080 B(  3-C ,  6-F ) :   0.6167
B(  6-F , 13-H ) :   0.1196 B(  7-C ,  8-N ) :   1.0502 B(  7-C ,  9-N ) :   0.7380
B(  7-C , 10-H ) :  -0.1074 B(  7-C , 12-H ) :   0.1214 B(  7-C , 14-H ) :  -0.1297
B(  7-C , 15-H ) :  -0.1420 B(  8-N ,  9-N ) :   0.1132 B(  8-N , 13-H ) :   1.1545
B(  8-N , 14-H ) :   1.1904 B(  9-N , 10-H ) :   1.1456 B(  9-N , 11-H ) :   1.1123
B(  9-N , 12-H ) :   0.1111 B( 10-H , 11-H ) :  -0.1337 B( 13-H , 14-H ) :  -0.1953

Dispersion correction           -0.028985273
FINAL SINGLE POINT ENERGY      -405.973847544678

DIPOLE MOMENT
-------------
                                X             Y             Z
Electronic contribution:     -3.32674       3.98246       0.78272
Nuclear contribution   :      2.63975      -4.51113      -0.34926
                        -----------------------------------------
Total Dipole Moment    :     -0.68700      -0.52867       0.43346
                        -----------------------------------------
Magnitude (a.u.)       :      0.96920
Magnitude (Debye)      :      2.46351

Rotational constants in cm-1:     0.109429     0.049838     0.039337
Rotational constants in MHz :  3280.611039  1494.113088  1179.280063

                             ****ORCA TERMINATED NORMALLY****
TOTAL RUN TIME: 0 days 0 hours 0 minutes 52 seconds 19 msec
