                         Program Version 5.0.0 -  RELEASE  -
|  1> !B3LYP D3BJ RIJCOSX def2-SVPD def2/J TightSCF xyzfile
|  2>
|  3> *xyzfile 0 1 D2.xyz
|  4>
|  5> %MaxCore 64000
|  6>
|  7> %pal nprocs 4
|  8> end
|  9>
| 10> %scf
| 11>   MaxIter 150
| 12> end
| 13>
| 14>
| 15>                          ****END OF INPUT****

CARTESIAN COORDINATES (ANGSTROEM)
---------------------------------
  C      4.999862   -1.596133   -5.924876
  N      5.281560   -1.974132   -4.535764
  C      3.766779   -2.266110   -6.511752
  C      2.496702   -1.844161   -5.735704
  H      1.626416   -2.217434   -6.308950
  H      2.481824   -2.456069   -4.793414
  F      2.459729   -0.509204   -5.505757
  C      4.792500   -1.361316   -3.457295
  C      3.939898   -0.374925   -3.557359
  N      5.259860   -1.754224   -2.239133
  H      5.922824   -2.521451   -2.186720
  H      4.654678   -1.640404   -1.442016
  H      5.709139   -2.875599   -4.387021
  H      3.330101   -0.317639   -4.361247
  H      3.698494    0.114468   -2.708333
  H      4.843333   -0.517930   -5.943019
  H      5.901695   -1.822503   -6.496467
  H      3.886191   -3.357076   -6.533604
  H      3.685602   -1.922168   -7.547128

 Total Charge           Charge          ....    0
 Multiplicity           Mult            ....    1
 Number of Electrons    NEL             ....   64
 Basis Dimension        Dim             ....  251

ORBITAL ENERGIES
----------------

  NO   OCC          E(Eh)            E(eV)
   0   2.0000     -24.698417      -672.0781
   1   2.0000     -14.328139      -389.8885
   2   2.0000     -14.319979      -389.6664
   3   2.0000     -10.267233      -279.3856
   4   2.0000     -10.216287      -277.9993
   5   2.0000     -10.215292      -277.9722
   6   2.0000     -10.194316      -277.4014
   7   2.0000     -10.071981      -274.0725
   8   2.0000      -1.211994       -32.9800
   9   2.0000      -0.948569       -25.8119
  10   2.0000      -0.866683       -23.5836
  11   2.0000      -0.777896       -21.1676
  12   2.0000      -0.705194       -19.1893
  13   2.0000      -0.688039       -18.7225
  14   2.0000      -0.610305       -16.6072
  15   2.0000      -0.567186       -15.4339
  16   2.0000      -0.548828       -14.9344
  17   2.0000      -0.520501       -14.1636
  18   2.0000      -0.516561       -14.0563
  19   2.0000      -0.496593       -13.5130
  20   2.0000      -0.485377       -13.2078
  21   2.0000      -0.458328       -12.4717
  22   2.0000      -0.427605       -11.6357
  23   2.0000      -0.410576       -11.1723
  24   2.0000      -0.388345       -10.5674
  25   2.0000      -0.379577       -10.3288
  26   2.0000      -0.361641        -9.8408
  27   2.0000      -0.344678        -9.3792
  28   2.0000      -0.338167        -9.2020
  29   2.0000      -0.307405        -8.3649
  30   2.0000      -0.247514        -6.7352
  31   2.0000      -0.162996        -4.4353
  32   0.0000       0.009834         0.2676
  33   0.0000       0.031841         0.8664
  34   0.0000       0.039921         1.0863
  35   0.0000       0.051006         1.3879
  36   0.0000       0.063672         1.7326

MULLIKEN ATOMIC CHARGES
-----------------------
   0 C :    0.879250
   1 N :   -0.342662
   2 C :    0.122731
   3 C :    0.942250
   4 H :   -0.460199
   5 H :    0.173970
   6 F :   -0.491395
   7 C :    0.675179
   8 C :    1.086551
   9 N :    0.080314
  10 H :   -0.172797
  11 H :   -0.052384
  12 H :   -0.379021
  13 H :   -0.947096
  14 H :   -0.435129
  15 H :    0.135750
  16 H :   -0.527158
  17 H :   -0.202889
  18 H :   -0.085265
Sum of atomic charges:   -0.0000000

LOEWDIN ATOMIC CHARGES
----------------------
   0 C :    0.064906
   1 N :   -0.009112
   2 C :    0.004178
   3 C :    0.141406
   4 H :    0.026629
   5 H :    0.040956
   6 F :   -0.199832
   7 C :   -0.229086
   8 C :    0.194477
   9 N :    0.187352
  10 H :   -0.023279
  11 H :   -0.010222
  12 H :    0.010624
  13 H :   -0.192969
  14 H :   -0.088167
  15 H :    0.023212
  16 H :    0.015927
  17 H :    0.024012
  18 H :    0.018989

  Mayer bond orders larger than 0.100000
B(  0-C ,  1-N ) :   0.9734 B(  0-C ,  2-C ) :   1.1132 B(  0-C ,  7-C ) :  -0.1033
B(  0-C , 12-H ) :  -0.1899 B(  0-C , 13-H ) :   0.1030 B(  0-C , 15-H ) :   0.6757
B(  0-C , 16-H ) :   0.8525 B(  0-C , 17-H ) :   0.1324 B(  0-C , 18-H ) :   0.1295
B(  1-N ,  7-C ) :   0.9952 B(  1-N ,  8-C ) :   0.3256 B(  1-N ,  9-N ) :   0.1382
B(  1-N , 12-H ) :   1.3290 B(  1-N , 15-H ) :   0.1633 B(  1-N , 16-H ) :   0.1474
B(  2-C ,  3-C ) :   1.2061 B(  2-C ,  4-H ) :   0.1683 B(  2-C ,  5-H ) :   0.1274
B(  2-C ,  6-F ) :   0.1040 B(  2-C , 15-H ) :   0.1206 B(  2-C , 17-H ) :   0.8864
B(  2-C , 18-H ) :   0.8372 B(  3-C ,  4-H ) :   0.9029 B(  3-C ,  5-H ) :   0.7946
B(  3-C ,  6-F ) :   0.6612 B(  3-C , 13-H ) :   0.1518 B(  6-F , 13-H ) :   0.3091
B(  7-C ,  8-C ) :   1.7465 B(  7-C ,  9-N ) :   0.8026 B(  7-C , 12-H ) :  -0.2422
B(  7-C , 14-H ) :   0.4388 B(  8-C ,  9-N ) :   0.3588 B(  8-C , 14-H ) :   0.5095
B(  9-N , 10-H ) :   1.0725 B(  9-N , 11-H ) :   1.0920 B(  9-N , 14-H ) :   0.1812
B( 10-H , 11-H ) :  -0.1430 B( 13-H , 15-H ) :   0.1325 B( 15-H , 16-H ) :  -0.2041

Dispersion correction           -0.028894130
FINAL SINGLE POINT ENERGY      -405.942114027733

DIPOLE MOMENT
-------------
                                X             Y             Z
Electronic contribution:     -2.27579       2.70471      -0.14836
Nuclear contribution   :      2.43398      -4.26587      -0.19921
                        -----------------------------------------
Total Dipole Moment    :      0.15819      -1.56116      -0.34757
                        -----------------------------------------
Magnitude (a.u.)       :      1.60719
Magnitude (Debye)      :      4.08516

Rotational constants in cm-1:     0.110089     0.049944     0.039407
Rotational constants in MHz :  3300.378855  1497.273856  1181.385913

                             ****ORCA TERMINATED NORMALLY****
TOTAL RUN TIME: 0 days 0 hours 0 minutes 42 seconds 559 msec
