                         Program Version 5.0.0 -  RELEASE  -
|  1> !B3LYP D3BJ RIJCOSX def2-SVPD def2/J TightSCF xyzfile
|  2>
|  3> *xyzfile 0 1 D3.xyz
|  4>
|  5> %MaxCore 64000
|  6>
|  7> %pal nprocs 4
|  8> end
|  9>
| 10> %scf
| 11>   MaxIter 150
| 12> end
| 13>
| 14>
| 15>                          ****END OF INPUT****

CARTESIAN COORDINATES (ANGSTROEM)
---------------------------------
  C      4.999862   -1.596133   -5.924876
  N      5.281560   -1.974132   -4.535764
  C      3.766779   -2.266110   -6.511752
  C      2.496702   -1.844161   -5.735704
  H      1.626416   -2.217434   -6.308950
  H      2.481824   -2.456069   -4.793414
  F      2.459729   -0.509204   -5.505757
  C      4.792500   -1.361316   -3.457295
  N      3.939898   -0.374925   -3.557359
  C      5.259860   -1.754224   -2.239133
  H      5.922824   -2.521451   -2.186720
  H      4.654678   -1.640404   -1.442016
  H      5.709139   -2.875599   -4.387021
  H      3.330101   -0.317639   -4.361247
  H      3.698494    0.114468   -2.708333
  H      4.843333   -0.517930   -5.943019
  H      5.901695   -1.822503   -6.496467
  H      3.886191   -3.357076   -6.533604
  H      3.685602   -1.922168   -7.547128

 Total Charge           Charge          ....    0
 Multiplicity           Mult            ....    1
 Number of Electrons    NEL             ....   64
 Basis Dimension        Dim             ....  251

ORBITAL ENERGIES
----------------

  NO   OCC          E(Eh)            E(eV)
   0   2.0000     -24.735070      -673.0755
   1   2.0000     -14.328861      -389.9081
   2   2.0000     -14.304535      -389.2462
   3   2.0000     -10.286999      -279.9235
   4   2.0000     -10.224950      -278.2350
   5   2.0000     -10.221000      -278.1275
   6   2.0000     -10.206133      -277.7230
   7   2.0000     -10.083886      -274.3965
   8   2.0000      -1.246509       -33.9192
   9   2.0000      -0.955076       -25.9889
  10   2.0000      -0.872903       -23.7529
  11   2.0000      -0.793324       -21.5874
  12   2.0000      -0.723550       -19.6888
  13   2.0000      -0.665827       -18.1181
  14   2.0000      -0.618735       -16.8366
  15   2.0000      -0.595638       -16.2081
  16   2.0000      -0.575127       -15.6500
  17   2.0000      -0.547904       -14.9092
  18   2.0000      -0.517547       -14.0832
  19   2.0000      -0.505636       -13.7591
  20   2.0000      -0.474130       -12.9017
  21   2.0000      -0.471834       -12.8393
  22   2.0000      -0.437990       -11.9183
  23   2.0000      -0.427240       -11.6258
  24   2.0000      -0.389024       -10.5859
  25   2.0000      -0.381489       -10.3809
  26   2.0000      -0.372625       -10.1396
  27   2.0000      -0.359120        -9.7722
  28   2.0000      -0.348151        -9.4737
  29   2.0000      -0.340453        -9.2642
  30   2.0000      -0.248676        -6.7668
  31   2.0000      -0.151450        -4.1212
  32   0.0000       0.007401         0.2014
  33   0.0000       0.031786         0.8650
  34   0.0000       0.038365         1.0440
  35   0.0000       0.041086         1.1180
  36   0.0000       0.065730         1.7886

MULLIKEN ATOMIC CHARGES
-----------------------
   0 C :    0.903871
   1 N :   -0.153869
   2 C :    0.163557
   3 C :    0.945861
   4 H :   -0.462735
   5 H :    0.166926
   6 F :   -0.389568
   7 C :    0.220658
   8 N :    0.638466
   9 C :    0.541402
  10 H :   -0.375806
  11 H :   -0.397115
  12 H :   -0.342395
  13 H :   -0.516476
  14 H :   -0.166279
  15 H :    0.056530
  16 H :   -0.556088
  17 H :   -0.210004
  18 H :   -0.066936
Sum of atomic charges:    0.0000000

LOEWDIN ATOMIC CHARGES
----------------------
   0 C :    0.059539
   1 N :    0.004463
   2 C :    0.003855
   3 C :    0.144035
   4 H :    0.031197
   5 H :    0.047680
   6 F :   -0.178892
   7 C :   -0.238881
   8 N :    0.235871
   9 C :    0.144467
  10 H :   -0.120468
  11 H :   -0.123556
  12 H :    0.027031
  13 H :   -0.133447
  14 H :    0.014161
  15 H :    0.017580
  16 H :    0.016776
  17 H :    0.028385
  18 H :    0.020205

  Mayer bond orders larger than 0.100000
B(  0-C ,  1-N ) :   0.9831 B(  0-C ,  2-C ) :   1.1174 B(  0-C , 12-H ) :  -0.2206
B(  0-C , 15-H ) :   0.7055 B(  0-C , 16-H ) :   0.8260 B(  0-C , 17-H ) :   0.1521
B(  0-C , 18-H ) :   0.1207 B(  1-N ,  7-C ) :   1.1262 B(  1-N ,  8-N ) :   0.1183
B(  1-N ,  9-C ) :   0.1921 B(  1-N , 12-H ) :   1.1756 B(  1-N , 15-H ) :   0.1957
B(  1-N , 16-H ) :   0.1553 B(  2-C ,  3-C ) :   1.1947 B(  2-C ,  4-H ) :   0.1692
B(  2-C ,  5-H ) :   0.1209 B(  2-C , 15-H ) :   0.1042 B(  2-C , 17-H ) :   0.8701
B(  2-C , 18-H ) :   0.8377 B(  3-C ,  4-H ) :   0.9099 B(  3-C ,  5-H ) :   0.7892
B(  3-C ,  6-F ) :   0.6194 B(  6-F , 13-H ) :   0.1178 B(  7-C ,  8-N ) :   1.1284
B(  7-C ,  9-C ) :   1.6760 B(  7-C , 10-H ) :   0.2077 B(  7-C , 11-H ) :   0.2149
B(  7-C , 12-H ) :  -0.1458 B(  8-N ,  9-C ) :   0.1259 B(  8-N , 13-H ) :   1.0603
B(  8-N , 14-H ) :   1.1267 B(  8-N , 15-H ) :   0.1032 B(  9-C , 10-H ) :   0.6866
B(  9-C , 11-H ) :   0.7422 B( 10-H , 11-H ) :   0.2112 B( 13-H , 14-H ) :  -0.1991
B( 15-H , 16-H ) :  -0.1973

Dispersion correction           -0.028640955
FINAL SINGLE POINT ENERGY      -405.957013274136

DIPOLE MOMENT
-------------
                                X             Y             Z
Electronic contribution:     -3.48027       3.86211      -1.50467
Nuclear contribution   :      2.63642      -4.47741       0.00296
                        -----------------------------------------
Total Dipole Moment    :     -0.84385      -0.61530      -1.50172
                        -----------------------------------------
Magnitude (a.u.)       :      1.82916
Magnitude (Debye)      :      4.64935

Rotational constants in cm-1:     0.108041     0.051979     0.040387
Rotational constants in MHz :  3238.993235  1558.297571  1210.782552

                             ****ORCA TERMINATED NORMALLY****
TOTAL RUN TIME: 0 days 0 hours 0 minutes 47 seconds 122 msec
