                         Program Version 5.0.0 -  RELEASE  -
|  1> !CAM-B3LYP RIJCOSX def2-TZVPD def2/J TightSCF
|  2> *xyz -1 1
|  3> C         -0.05517        1.61942       -3.78858
|  4> C          1.22302        2.46987       -3.75691
|  5> H          1.11470        3.25807       -4.53300
|  6> H          1.23773        3.01124       -2.79216
|  7> O          2.35381        1.71203       -3.93448
|  8> H         -0.10198        1.08015       -4.71156
|  9> H         -0.91014        2.25726       -3.70441
| 10> H         -0.04403        0.92826       -2.97183
| 11> *
| 12>
| 13> %MaxCore 64000
| 14>
| 15> %pal nprocs 4
| 16> end
| 17>
| 18> %scf
| 19>   MaxIter 150
| 20> end
| 21>
| 22>
| 23>                          ****END OF INPUT****

CARTESIAN COORDINATES (ANGSTROEM)
---------------------------------
  C     -0.055170    1.619420   -3.788580
  C      1.223020    2.469870   -3.756910
  H      1.114700    3.258070   -4.533000
  H      1.237730    3.011240   -2.792160
  O      2.353810    1.712030   -3.934480
  H     -0.101980    1.080150   -4.711560
  H     -0.910140    2.257260   -3.704410
  H     -0.044030    0.928260   -2.971830

 Total Charge           Charge          ....   -1
 Multiplicity           Mult            ....    1
 Number of Electrons    NEL             ....   26
 Basis Dimension        Dim             ....  159

ORBITAL ENERGIES
----------------

  NO   OCC          E(Eh)            E(eV)
   0   2.0000     -18.864330      -513.3245
   1   2.0000     -10.057225      -273.6710
   2   2.0000     -10.033132      -273.0154
   3   2.0000      -0.759943       -20.6791
   4   2.0000      -0.607305       -16.5256
   5   2.0000      -0.449913       -12.2427
   6   2.0000      -0.322050        -8.7634
   7   2.0000      -0.297308        -8.0902
   8   2.0000      -0.240766        -6.5516
   9   2.0000      -0.224025        -6.0960
  10   2.0000      -0.177385        -4.8269
  11   2.0000      -0.032862        -0.8942
  12   2.0000      -0.031620        -0.8604
  13   0.0000       0.179333         4.8799
  14   0.0000       0.202008         5.4969
  15   0.0000       0.230234         6.2650
  16   0.0000       0.232423         6.3246
  17   0.0000       0.254522         6.9259

MULLIKEN ATOMIC CHARGES
-----------------------
   0 C :   -0.947951
   1 C :   -0.300309
   2 H :    0.194637
   3 H :    0.193751
   4 O :   -0.935551
   5 H :    0.235756
   6 H :    0.327192
   7 H :    0.232475
Sum of atomic charges:   -1.0000000

LOEWDIN ATOMIC CHARGES
----------------------
   0 C :   -0.172865
   1 C :   -0.620427
   2 H :    0.057737
   3 H :    0.056506
   4 O :   -0.428651
   5 H :    0.040329
   6 H :    0.027898
   7 H :    0.039474

  Mayer bond orders larger than 0.100000
B(  0-C ,  1-C ) :   0.7324 B(  0-C ,  4-O ) :   0.2734 B(  0-C ,  5-H ) :   1.0027
B(  0-C ,  6-H ) :   0.9520 B(  0-C ,  7-H ) :   1.0001 B(  1-C ,  2-H ) :   1.0482
B(  1-C ,  3-H ) :   1.0518 B(  1-C ,  4-O ) :   0.9431

FINAL SINGLE POINT ENERGY      -154.416109858695

DIPOLE MOMENT
-------------
                                X             Y             Z
Electronic contribution:      2.72469      -0.49648      -0.24465
Nuclear contribution   :     -4.28298       0.81046       0.39340
                        -----------------------------------------
Total Dipole Moment    :     -1.55829       0.31398       0.14875
                        -----------------------------------------
Magnitude (a.u.)       :      1.59655
Magnitude (Debye)      :      4.05811

Rotational constants in cm-1:     1.266793     0.328147     0.288309
Rotational constants in MHz : 37977.512300  9837.594308  8643.275638

                             ****ORCA TERMINATED NORMALLY****
TOTAL RUN TIME: 0 days 0 hours 0 minutes 22 seconds 700 msec
