                         Program Version 5.0.0 -  RELEASE  -
|  1> !CAM-B3LYP RIJCOSX def2-TZVPD def2/J TightSCF
|  2> *xyz 1 1
|  3> C          1.63556       -1.67040       -5.29211
|  4> C          0.33848       -1.50091       -4.50540
|  5> N          2.48451       -0.50741       -5.14039
|  6> H          1.39834       -1.82924       -6.35259
|  7> H          2.15586       -2.56540       -4.93209
|  8> C          3.45115       -0.14953       -5.95259
|  9> N          3.92267        1.08956       -5.85071
| 10> N          3.96616       -1.00618       -6.86788
| 11> H          3.52139       -1.90647       -6.99527
| 12> H          4.44482       -0.62347       -7.67035
| 13> H          2.25200        0.24080       -4.49879
| 14> H          3.46428        1.64078       -5.13639
| 15> H          4.83447        1.31375       -6.22465
| 16> H         -0.17658       -0.62881       -4.85045
| 17> H          0.56384       -1.39374       -3.46490
| 18> H         -0.28102       -2.36136       -4.64938
| 19> *
| 20>
| 21> %MaxCore 64000
| 22>
| 23> %pal nprocs 4
| 24> end
| 25>
| 26> %scf
| 27>   MaxIter 150
| 28> end
| 29>
| 30>
| 31>                          ****END OF INPUT****

CARTESIAN COORDINATES (ANGSTROEM)
---------------------------------
  C      1.635560   -1.670400   -5.292110
  C      0.338480   -1.500910   -4.505400
  N      2.484510   -0.507410   -5.140390
  H      1.398340   -1.829240   -6.352590
  H      2.155860   -2.565400   -4.932090
  C      3.451150   -0.149530   -5.952590
  N      3.922670    1.089560   -5.850710
  N      3.966160   -1.006180   -6.867880
  H      3.521390   -1.906470   -6.995270
  H      4.444820   -0.623470   -7.670350
  H      2.252000    0.240800   -4.498790
  H      3.464280    1.640780   -5.136390
  H      4.834470    1.313750   -6.224650
  H     -0.176580   -0.628810   -4.850450
  H      0.563840   -1.393740   -3.464900
  H     -0.281020   -2.361360   -4.649380

 Total Charge           Charge          ....    1
 Multiplicity           Mult            ....    1
 Number of Electrons    NEL             ....   48
 Basis Dimension        Dim             ....  312

ORBITAL ENERGIES
----------------

  NO   OCC          E(Eh)            E(eV)
   0   2.0000     -14.617178      -397.7536
   1   2.0000     -14.612659      -397.6307
   2   2.0000     -14.611023      -397.5861
   3   2.0000     -10.581676      -287.9420
   4   2.0000     -10.453931      -284.4659
   5   2.0000     -10.381570      -282.4969
   6   2.0000      -1.304808       -35.5056
   7   2.0000      -1.189723       -32.3740
   8   2.0000      -1.175822       -31.9957
   9   2.0000      -1.018159       -27.7055
  10   2.0000      -0.908778       -24.7291
  11   2.0000      -0.891355       -24.2550
  12   2.0000      -0.849966       -23.1288
  13   2.0000      -0.818990       -22.2858
  14   2.0000      -0.759688       -20.6722
  15   2.0000      -0.754660       -20.5353
  16   2.0000      -0.735139       -20.0042
  17   2.0000      -0.711544       -19.3621
  18   2.0000      -0.673807       -18.3352
  19   2.0000      -0.614928       -16.7331
  20   2.0000      -0.597846       -16.2682
  21   2.0000      -0.588370       -16.0104
  22   2.0000      -0.544406       -14.8140
  23   2.0000      -0.517808       -14.0903
  24   0.0000      -0.130908        -3.5622
  25   0.0000      -0.125828        -3.4240
  26   0.0000      -0.101675        -2.7667
  27   0.0000      -0.087876        -2.3912
  28   0.0000      -0.068210        -1.8561

MULLIKEN ATOMIC CHARGES
-----------------------
   0 C :   -0.383394
   1 C :   -1.427281
   2 N :   -0.101890
   3 H :    0.378955
   4 H :    0.353561
   5 C :    0.598585
   6 N :   -0.300625
   7 N :   -0.350914
   8 H :    0.244920
   9 H :    0.225662
  10 H :    0.170202
  11 H :    0.201728
  12 H :    0.235112
  13 H :    0.403456
  14 H :    0.379502
  15 H :    0.372422
Sum of atomic charges:    1.0000000

LOEWDIN ATOMIC CHARGES
----------------------
   0 C :   -0.218465
   1 C :   -0.060913
   2 N :    0.082638
   3 H :    0.130008
   4 H :    0.133421
   5 C :   -0.432596
   6 N :    0.205290
   7 N :    0.215517
   8 H :    0.120421
   9 H :    0.135616
  10 H :    0.164336
  11 H :    0.135821
  12 H :    0.142599
  13 H :    0.080311
  14 H :    0.080513
  15 H :    0.085482

  Mayer bond orders larger than 0.100000
B(  0-C ,  1-C ) :   0.5635 B(  0-C ,  2-N ) :   0.8550 B(  0-C ,  3-H ) :   0.8250
B(  0-C ,  4-H ) :   0.8678 B(  1-C , 13-H ) :   0.9143 B(  1-C , 14-H ) :   0.9298
B(  1-C , 15-H ) :   0.9405 B(  2-N ,  5-C ) :   1.2497 B(  2-N , 10-H ) :   0.9937
B(  5-C ,  6-N ) :   1.1266 B(  5-C ,  7-N ) :   1.1550 B(  6-N , 11-H ) :   0.9653
B(  6-N , 12-H ) :   0.9619 B(  7-N ,  8-H ) :   0.9331 B(  7-N ,  9-H ) :   0.9733

FINAL SINGLE POINT ENERGY      -284.362312024921

DIPOLE MOMENT
-------------
                                X             Y             Z
Electronic contribution:      4.69897       2.47295      -1.70428
Nuclear contribution   :     -3.96322      -1.85512       1.24891
                        -----------------------------------------
Total Dipole Moment    :      0.73575       0.61783      -0.45537
                        -----------------------------------------
Magnitude (a.u.)       :      1.06321
Magnitude (Debye)      :      2.70245

Rotational constants in cm-1:     0.261404     0.067000     0.054949
Rotational constants in MHz :  7836.702504  2008.609425  1647.329138

                             ****ORCA TERMINATED NORMALLY****
TOTAL RUN TIME: 0 days 0 hours 1 minutes 23 seconds 795 msec
