                         Program Version 5.0.0 -  RELEASE  -
|  1> !CAM-B3LYP RIJCOSX def2-TZVPD def2/J TightSCF xyzfile
|  2>
|  3> *xyzfile 0 1 B.xyz
|  4>
|  5> %MaxCore 64000
|  6>
|  7> %pal nprocs 4
|  8> end
|  9>
| 10> %scf
| 11>   MaxIter 150
| 12> end
| 13>
| 14>
| 15>                          ****END OF INPUT****

CARTESIAN COORDINATES (ANGSTROEM)
---------------------------------
  C      1.635557   -1.670396   -5.292109
  C      0.338484   -1.500907   -4.505398
  N      2.484511   -0.507410   -5.140392
  C     -0.684873   -0.528026   -5.099889
  C     -0.290406    0.951335   -5.153423
  H      0.607991    1.070692   -5.764412
  C     -0.055168    1.619420   -3.788577
  H     -1.080912    1.483775   -5.689436
  H      0.045006    0.862302   -3.003015
  H     -0.922936    2.230329   -3.517028
  C      1.223022    2.469865   -3.756911
  H      1.114701    3.258074   -4.532999
  H      1.237732    3.011242   -2.792157
  O      2.353815    1.712032   -3.934477
  H      1.398337   -1.829239   -6.352591
  H      2.155864   -2.565398   -4.932091
  C      3.451149   -0.149530   -5.952589
  N      3.922667    1.089559   -5.850711
  N      3.966162   -1.006183   -6.867880
  H      3.521391   -1.906467   -6.995270
  H      4.444824   -0.623472   -7.670348
  H      2.251995    0.240804   -4.498792
  H      3.464277    1.640782   -5.136392
  H      4.834470    1.313745   -6.224653
  H     -0.937999   -0.869056   -6.110838
  H     -1.604638   -0.622496   -4.513132
  H      0.594887   -1.211578   -3.482312
  H     -0.126530   -2.487656   -4.434176

 Total Charge           Charge          ....    0
 Multiplicity           Mult            ....    1
 Number of Electrons    NEL             ....   88
 Basis Dimension        Dim             ....  563

ORBITAL ENERGIES
----------------

  NO   OCC          E(Eh)            E(eV)
   0   2.0000     -19.062852      -518.7266
   1   2.0000     -14.448128      -393.1536
   2   2.0000     -14.405720      -391.9996
   3   2.0000     -14.403538      -391.9402
   4   2.0000     -10.393607      -282.8244
   5   2.0000     -10.296229      -280.1746
   6   2.0000     -10.246542      -278.8226
   7   2.0000     -10.233363      -278.4640
   8   2.0000     -10.220630      -278.1175
   9   2.0000     -10.214638      -277.9544
  10   2.0000     -10.196436      -277.4591
  11   2.0000      -1.116975       -30.3944
  12   2.0000      -1.010544       -27.4983
  13   2.0000      -0.990095       -26.9418
  14   2.0000      -0.962882       -26.2014
  15   2.0000      -0.883405       -24.0387
  16   2.0000      -0.828336       -22.5402
  17   2.0000      -0.770924       -20.9779
  18   2.0000      -0.730320       -19.8730
  19   2.0000      -0.703884       -19.1537
  20   2.0000      -0.672431       -18.2978
  21   2.0000      -0.653872       -17.7928
  22   2.0000      -0.636081       -17.3086
  23   2.0000      -0.602717       -16.4008
  24   2.0000      -0.579449       -15.7676
  25   2.0000      -0.568394       -15.4668
  26   2.0000      -0.560474       -15.2513
  27   2.0000      -0.547747       -14.9050
  28   2.0000      -0.510618       -13.8946
  29   2.0000      -0.495935       -13.4951
  30   2.0000      -0.484934       -13.1957
  31   2.0000      -0.479867       -13.0578
  32   2.0000      -0.452426       -12.3111
  33   2.0000      -0.432605       -11.7718
  34   2.0000      -0.424972       -11.5641
  35   2.0000      -0.403117       -10.9694
  36   2.0000      -0.385265       -10.4836
  37   2.0000      -0.376709       -10.2508
  38   2.0000      -0.368620       -10.0307
  39   2.0000      -0.360308        -9.8045
  40   2.0000      -0.354286        -9.6406
  41   2.0000      -0.325586        -8.8597
  42   2.0000      -0.241329        -6.5669
  43   2.0000      -0.234716        -6.3870
  44   0.0000       0.005001         0.1361
  45   0.0000       0.031832         0.8662
  46   0.0000       0.045888         1.2487
  47   0.0000       0.049885         1.3574
  48   0.0000       0.053810         1.4642

MULLIKEN ATOMIC CHARGES
-----------------------
   0 C :   -0.805485
   1 C :   -0.700120
   2 N :   -0.142391
   3 C :   -0.557839
   4 C :   -0.597893
   5 H :    0.289576
   6 C :   -0.517767
   7 H :    0.327571
   8 H :    0.197983
   9 H :    0.335802
  10 C :   -0.478682
  11 H :    0.250139
  12 H :    0.279540
  13 O :   -1.049444
  14 H :    0.398411
  15 H :    0.371635
  16 C :    0.483684
  17 N :   -0.282061
  18 N :   -0.377467
  19 H :    0.222255
  20 H :    0.193221
  21 H :    0.492222
  22 H :    0.361532
  23 H :    0.152020
  24 H :    0.299058
  25 H :    0.247944
  26 H :    0.313481
  27 H :    0.293076
Sum of atomic charges:    0.0000000

LOEWDIN ATOMIC CHARGES
----------------------
   0 C :   -0.181815
   1 C :   -0.190970
   2 N :    0.086169
   3 C :   -0.210181
   4 C :   -0.214017
   5 H :    0.100832
   6 C :   -0.201098
   7 H :    0.106768
   8 H :    0.100237
   9 H :    0.104060
  10 C :   -0.406288
  11 H :    0.103378
  12 H :    0.096410
  13 O :   -0.330536
  14 H :    0.121077
  15 H :    0.121259
  16 C :   -0.450155
  17 N :    0.185622
  18 N :    0.174562
  19 H :    0.100334
  20 H :    0.113589
  21 H :    0.057842
  22 H :    0.049904
  23 H :    0.120171
  24 H :    0.106898
  25 H :    0.111609
  26 H :    0.113221
  27 H :    0.111121

  Mayer bond orders larger than 0.100000
B(  0-C ,  1-C ) :   0.8248 B(  0-C ,  2-N ) :   0.9153 B(  0-C , 14-H ) :   0.8475
B(  0-C , 15-H ) :   0.8799 B(  0-C , 16-C ) :  -0.1887 B(  0-C , 18-N ) :   0.1021
B(  1-C ,  3-C ) :   0.7710 B(  1-C , 26-H ) :   0.9358 B(  1-C , 27-H ) :   1.0101
B(  2-N , 16-C ) :   1.3777 B(  2-N , 21-H ) :   0.6641 B(  3-C ,  4-C ) :   0.7333
B(  3-C ,  6-C ) :   0.1064 B(  3-C , 24-H ) :   0.9675 B(  3-C , 25-H ) :   1.0173
B(  4-C ,  5-H ) :   1.0327 B(  4-C ,  6-C ) :   0.6459 B(  4-C ,  7-H ) :   0.9397
B(  4-C , 10-C ) :   0.1106 B(  6-C ,  8-H ) :   1.0007 B(  6-C ,  9-H ) :   0.9822
B(  6-C , 10-C ) :   0.7976 B( 10-C , 11-H ) :   1.0357 B( 10-C , 12-H ) :   0.9689
B( 10-C , 13-O ) :   0.8868 B( 13-O , 16-C ) :  -0.1091 B( 13-O , 22-H ) :   0.1762
B( 16-C , 17-N ) :   1.2618 B( 16-C , 18-N ) :   1.0719 B( 17-N , 22-H ) :   0.7269
B( 17-N , 23-H ) :   1.0195 B( 18-N , 19-H ) :   0.9531 B( 18-N , 20-H ) :   0.9941

FINAL SINGLE POINT ENERGY      -516.388400961160

DIPOLE MOMENT
-------------
                                X             Y             Z
Electronic contribution:      8.34396      -0.93493      -2.25366
Nuclear contribution   :     -7.46499      -1.05836       0.01518
                        -----------------------------------------
Total Dipole Moment    :      0.87897      -1.99329      -2.23848
                        -----------------------------------------
Magnitude (a.u.)       :      3.12356
Magnitude (Debye)      :      7.93945

Rotational constants in cm-1:     0.044680     0.028958     0.019773
Rotational constants in MHz :  1339.486245   868.136755   592.791310

                             ****ORCA TERMINATED NORMALLY****
TOTAL RUN TIME: 0 days 0 hours 6 minutes 11 seconds 840 msec
