                         Program Version 5.0.0 -  RELEASE  -
|  1> !CAM-B3LYP RIJCOSX def2-TZVPD def2/J TightSCF
|  2> *xyz 0 1
|  3> C         -0.05517        1.61942       -3.78858
|  4> C          1.22302        2.46987       -3.75691
|  5> H          1.11470        3.25807       -4.53300
|  6> H          1.23773        3.01124       -2.79216
|  7> F          2.35381        1.71203       -3.93448
|  8> H         -0.10198        1.08015       -4.71156
|  9> H         -0.91014        2.25726       -3.70441
| 10> H         -0.04403        0.92826       -2.97183
| 11> *
| 12>
| 13> %MaxCore 64000
| 14>
| 15> %pal nprocs 4
| 16> end
| 17>
| 18> %scf
| 19>   MaxIter 150
| 20> end
| 21>
| 22>
| 23>                          ****END OF INPUT****

CARTESIAN COORDINATES (ANGSTROEM)
---------------------------------
  C     -0.055170    1.619420   -3.788580
  C      1.223020    2.469870   -3.756910
  H      1.114700    3.258070   -4.533000
  H      1.237730    3.011240   -2.792160
  F      2.353810    1.712030   -3.934480
  H     -0.101980    1.080150   -4.711560
  H     -0.910140    2.257260   -3.704410
  H     -0.044030    0.928260   -2.971830

 Total Charge           Charge          ....    0
 Multiplicity           Mult            ....    1
 Number of Electrons    NEL             ....   26
 Basis Dimension        Dim             ....  159

ORBITAL ENERGIES
----------------

  NO   OCC          E(Eh)            E(eV)
   0   2.0000     -24.744028      -673.3192
   1   2.0000     -10.323838      -280.9259
   2   2.0000     -10.238161      -278.5945
   3   2.0000      -1.280269       -34.8379
   4   2.0000      -0.848558       -23.0904
   5   2.0000      -0.711042       -19.3484
   6   2.0000      -0.581115       -15.8129
   7   2.0000      -0.571015       -15.5381
   8   2.0000      -0.531148       -14.4533
   9   2.0000      -0.476072       -12.9546
  10   2.0000      -0.469735       -12.7821
  11   2.0000      -0.405116       -11.0238
  12   2.0000      -0.400105       -10.8874
  13   0.0000       0.035884         0.9765
  14   0.0000       0.060536         1.6473
  15   0.0000       0.081127         2.2076
  16   0.0000       0.083452         2.2709
  17   0.0000       0.111946         3.0462

MULLIKEN ATOMIC CHARGES
-----------------------
   0 C :   -0.944740
   1 C :   -0.117761
   2 H :    0.235020
   3 H :    0.234232
   4 F :   -0.299779
   5 H :    0.287287
   6 H :    0.323992
   7 H :    0.281749
Sum of atomic charges:   -0.0000000

LOEWDIN ATOMIC CHARGES
----------------------
   0 C :   -0.086483
   1 C :   -0.289389
   2 H :    0.113981
   3 H :    0.111950
   4 F :   -0.049151
   5 H :    0.066165
   6 H :    0.067568
   7 H :    0.065359

  Mayer bond orders larger than 0.100000
B(  0-C ,  1-C ) :   0.7344 B(  0-C ,  5-H ) :   0.9577 B(  0-C ,  6-H ) :   0.9362
B(  0-C ,  7-H ) :   0.9597 B(  1-C ,  2-H ) :   0.9784 B(  1-C ,  3-H ) :   0.9812
B(  1-C ,  4-F ) :   0.8058

FINAL SINGLE POINT ENERGY      -179.064098446254

DIPOLE MOMENT
-------------
                                X             Y             Z
Electronic contribution:      5.00625      -0.72575      -0.42947
Nuclear contribution   :     -5.66833       1.07099       0.52006
                        -----------------------------------------
Total Dipole Moment    :     -0.66208       0.34524       0.09059
                        -----------------------------------------
Magnitude (a.u.)       :      0.75216
Magnitude (Debye)      :      1.91184

Rotational constants in cm-1:     1.245689     0.305293     0.269541
Rotational constants in MHz : 37344.801915  9152.442838  8080.640229

                             ****ORCA TERMINATED NORMALLY****
TOTAL RUN TIME: 0 days 0 hours 0 minutes 17 seconds 984 msec
