                         Program Version 5.0.0 -  RELEASE  -
|  1> !CAM-B3LYP RIJCOSX def2-TZVPD def2/J TightSCF
|  2> *xyz 0 1
|  3> C          1.63556       -1.67040       -5.29211
|  4> C          0.33848       -1.50091       -4.50540
|  5> C          2.48451       -0.50741       -5.14039
|  6> H          1.39834       -1.82924       -6.35259
|  7> H          2.15586       -2.56540       -4.93209
|  8> C          3.45115       -0.14953       -5.95259
|  9> N          3.92267        1.08956       -5.85071
| 10> N          3.96616       -1.00618       -6.86788
| 11> H          3.52139       -1.90647       -6.99527
| 12> H          4.44482       -0.62347       -7.67035
| 13> H          2.25200        0.24080       -4.49879
| 14> H          3.46428        1.64078       -5.13639
| 15> H          4.83447        1.31375       -6.22465
| 16> H         -0.17658       -0.62881       -4.85045
| 17> H          0.56384       -1.39374       -3.46490
| 18> H         -0.28102       -2.36136       -4.64938
| 19> *
| 20>
| 21> %MaxCore 64000
| 22>
| 23> %pal nprocs 4
| 24> end
| 25>
| 26> %scf
| 27>   MaxIter 150
| 28> end
| 29>
| 30>
| 31>                          ****END OF INPUT****

CARTESIAN COORDINATES (ANGSTROEM)
---------------------------------
  C      1.635560   -1.670400   -5.292110
  C      0.338480   -1.500910   -4.505400
  C      2.484510   -0.507410   -5.140390
  H      1.398340   -1.829240   -6.352590
  H      2.155860   -2.565400   -4.932090
  C      3.451150   -0.149530   -5.952590
  N      3.922670    1.089560   -5.850710
  N      3.966160   -1.006180   -6.867880
  H      3.521390   -1.906470   -6.995270
  H      4.444820   -0.623470   -7.670350
  H      2.252000    0.240800   -4.498790
  H      3.464280    1.640780   -5.136390
  H      4.834470    1.313750   -6.224650
  H     -0.176580   -0.628810   -4.850450
  H      0.563840   -1.393740   -3.464900
  H     -0.281020   -2.361360   -4.649380

 Total Charge           Charge          ....    0
 Multiplicity           Mult            ....    1
 Number of Electrons    NEL             ....   48
 Basis Dimension        Dim             ....  312

ORBITAL ENERGIES
----------------

  NO   OCC          E(Eh)            E(eV)
   0   2.0000     -14.390312      -391.5803
   1   2.0000     -14.385179      -391.4406
   2   2.0000     -10.284828      -279.8644
   3   2.0000     -10.220444      -278.1124
   4   2.0000     -10.210452      -277.8405
   5   2.0000     -10.165791      -276.6252
   6   2.0000      -1.042166       -28.3588
   7   2.0000      -0.952327       -25.9141
   8   2.0000      -0.860063       -23.4035
   9   2.0000      -0.778978       -21.1971
  10   2.0000      -0.689090       -18.7511
  11   2.0000      -0.654721       -17.8159
  12   2.0000      -0.605722       -16.4825
  13   2.0000      -0.585510       -15.9325
  14   2.0000      -0.535200       -14.5635
  15   2.0000      -0.512632       -13.9494
  16   2.0000      -0.498145       -13.5552
  17   2.0000      -0.465497       -12.6668
  18   2.0000      -0.447585       -12.1794
  19   2.0000      -0.407921       -11.1001
  20   2.0000      -0.397238       -10.8094
  21   2.0000      -0.395788       -10.7699
  22   2.0000      -0.330718        -8.9993
  23   2.0000      -0.221981        -6.0404
  24   0.0000       0.028106         0.7648
  25   0.0000       0.050133         1.3642
  26   0.0000       0.053791         1.4637
  27   0.0000       0.075623         2.0578
  28   0.0000       0.082943         2.2570

MULLIKEN ATOMIC CHARGES
-----------------------
   0 C :   -0.252956
   1 C :   -1.402585
   2 C :   -0.413306
   3 H :    0.292681
   4 H :    0.243897
   5 C :    0.300464
   6 N :   -0.363813
   7 N :   -0.402152
   8 H :    0.192289
   9 H :    0.166545
  10 H :    0.258846
  11 H :    0.169288
  12 H :    0.166230
  13 H :    0.363004
  14 H :    0.328633
  15 H :    0.352936
Sum of atomic charges:    0.0000000

LOEWDIN ATOMIC CHARGES
----------------------
   0 C :   -0.295104
   1 C :   -0.114377
   2 C :   -0.152298
   3 H :    0.107806
   4 H :    0.108737
   5 C :   -0.545042
   6 N :    0.102150
   7 N :    0.129287
   8 H :    0.092628
   9 H :    0.095022
  10 H :    0.068722
  11 H :    0.106592
  12 H :    0.099471
  13 H :    0.068289
  14 H :    0.067566
  15 H :    0.060553

  Mayer bond orders larger than 0.100000
B(  0-C ,  1-C ) :   0.5113 B(  0-C ,  2-C ) :   0.5744 B(  0-C ,  3-H ) :   0.8637
B(  0-C ,  4-H ) :   0.9884 B(  0-C ,  5-C ) :   0.1391 B(  1-C ,  2-C ) :   0.1019
B(  1-C , 13-H ) :   0.9581 B(  1-C , 14-H ) :   0.9914 B(  1-C , 15-H ) :   0.9464
B(  2-C ,  5-C ) :   1.1672 B(  2-C , 10-H ) :   1.0865 B(  5-C ,  6-N ) :   1.1145
B(  5-C ,  7-N ) :   0.9463 B(  5-C , 10-H ) :  -0.2664 B(  6-N , 11-H ) :   0.9761
B(  6-N , 12-H ) :   1.0366 B(  7-N ,  8-H ) :   0.9580 B(  7-N ,  9-H ) :   1.0276

FINAL SINGLE POINT ENERGY      -267.878419507968

DIPOLE MOMENT
-------------
                                X             Y             Z
Electronic contribution:      4.50235       2.14872      -1.89191
Nuclear contribution   :     -3.99655      -1.83277       1.34879
                        -----------------------------------------
Total Dipole Moment    :      0.50580       0.31595      -0.54313
                        -----------------------------------------
Magnitude (a.u.)       :      0.80663
Magnitude (Debye)      :      2.05028

Rotational constants in cm-1:     0.262971     0.067064     0.055026
Rotational constants in MHz :  7883.664566  2010.513309  1649.636654

                             ****ORCA TERMINATED NORMALLY****
TOTAL RUN TIME: 0 days 0 hours 1 minutes 24 seconds 560 msec
