                         Program Version 5.0.0 -  RELEASE  -
|  1> !CAM-B3LYP RIJCOSX def2-TZVPD def2/J TightSCF
|  2> *xyz 0 1
|  3> C          1.63556       -1.67040       -5.29211
|  4> C          0.33848       -1.50091       -4.50540
|  5> N          2.48451       -0.50741       -5.14039
|  6> H          1.39834       -1.82924       -6.35259
|  7> H          2.15586       -2.56540       -4.93209
|  8> C          3.45115       -0.14953       -5.95259
|  9> C          3.92267        1.08956       -5.85071
| 10> N          3.96616       -1.00618       -6.86788
| 11> H          3.52139       -1.90647       -6.99527
| 12> H          4.44482       -0.62347       -7.67035
| 13> H          2.25200        0.24080       -4.49879
| 14> H          3.46428        1.64078       -5.13639
| 15> H          4.83447        1.31375       -6.22465
| 16> H         -0.17658       -0.62881       -4.85045
| 17> H          0.56384       -1.39374       -3.46490
| 18> H         -0.28102       -2.36136       -4.64938
| 19> *
| 20>
| 21> %MaxCore 64000
| 22>
| 23> %pal nprocs 4
| 24> end
| 25>
| 26> %scf
| 27>   MaxIter 150
| 28> end
| 29>
| 30>
| 31>                          ****END OF INPUT****

CARTESIAN COORDINATES (ANGSTROEM)
---------------------------------
  C      1.635560   -1.670400   -5.292110
  C      0.338480   -1.500910   -4.505400
  N      2.484510   -0.507410   -5.140390
  H      1.398340   -1.829240   -6.352590
  H      2.155860   -2.565400   -4.932090
  C      3.451150   -0.149530   -5.952590
  C      3.922670    1.089560   -5.850710
  N      3.966160   -1.006180   -6.867880
  H      3.521390   -1.906470   -6.995270
  H      4.444820   -0.623470   -7.670350
  H      2.252000    0.240800   -4.498790
  H      3.464280    1.640780   -5.136390
  H      4.834470    1.313750   -6.224650
  H     -0.176580   -0.628810   -4.850450
  H      0.563840   -1.393740   -3.464900
  H     -0.281020   -2.361360   -4.649380

 Total Charge           Charge          ....    0
 Multiplicity           Mult            ....    1
 Number of Electrons    NEL             ....   48
 Basis Dimension        Dim             ....  312

ORBITAL ENERGIES
----------------

  NO   OCC          E(Eh)            E(eV)
   0   2.0000     -14.389638      -391.5620
   1   2.0000     -14.388821      -391.5397
   2   2.0000     -10.289869      -280.0016
   3   2.0000     -10.286745      -279.9166
   4   2.0000     -10.242647      -278.7166
   5   2.0000     -10.151583      -276.2386
   6   2.0000      -1.054866       -28.7044
   7   2.0000      -0.966026       -26.2869
   8   2.0000      -0.861449       -23.4412
   9   2.0000      -0.784105       -21.3366
  10   2.0000      -0.707227       -19.2446
  11   2.0000      -0.671689       -18.2776
  12   2.0000      -0.607290       -16.5252
  13   2.0000      -0.568439       -15.4680
  14   2.0000      -0.553599       -15.0642
  15   2.0000      -0.532512       -14.4904
  16   2.0000      -0.489131       -13.3099
  17   2.0000      -0.466416       -12.6918
  18   2.0000      -0.448672       -12.2090
  19   2.0000      -0.442914       -12.0523
  20   2.0000      -0.442562       -12.0427
  21   2.0000      -0.417082       -11.3494
  22   2.0000      -0.323810        -8.8113
  23   2.0000      -0.220185        -5.9915
  24   0.0000       0.026086         0.7098
  25   0.0000       0.043871         1.1938
  26   0.0000       0.053391         1.4528
  27   0.0000       0.076770         2.0890
  28   0.0000       0.086220         2.3462

MULLIKEN ATOMIC CHARGES
-----------------------
   0 C :   -0.323120
   1 C :   -1.372515
   2 N :   -0.146402
   3 H :    0.344904
   4 H :    0.282807
   5 C :    0.602442
   6 C :   -1.142085
   7 N :   -0.393493
   8 H :    0.190612
   9 H :    0.200040
  10 H :    0.129904
  11 H :    0.273313
  12 H :    0.288800
  13 H :    0.365791
  14 H :    0.342010
  15 H :    0.356991
Sum of atomic charges:   -0.0000000

LOEWDIN ATOMIC CHARGES
----------------------
   0 C :   -0.255608
   1 C :   -0.089409
   2 N :    0.010335
   3 H :    0.114738
   4 H :    0.114189
   5 C :   -0.561851
   6 C :   -0.008592
   7 N :    0.123225
   8 H :    0.084553
   9 H :    0.106430
  10 H :    0.141612
  11 H :    0.005490
  12 H :    0.007321
  13 H :    0.071060
  14 H :    0.069002
  15 H :    0.067505

  Mayer bond orders larger than 0.100000
B(  0-C ,  1-C ) :   0.5242 B(  0-C ,  2-N ) :   0.8153 B(  0-C ,  3-H ) :   0.8720
B(  0-C ,  4-H ) :   0.9392 B(  1-C , 13-H ) :   0.9620 B(  1-C , 14-H ) :   0.9607
B(  1-C , 15-H ) :   0.9439 B(  2-N ,  5-C ) :   1.0962 B(  2-N , 10-H ) :   0.9668
B(  5-C ,  6-C ) :   1.1032 B(  5-C ,  7-N ) :   1.0190 B(  5-C , 11-H ) :  -0.1003
B(  6-C , 11-H ) :   1.0091 B(  6-C , 12-H ) :   1.0485 B(  7-N ,  8-H ) :   0.9857
B(  7-N ,  9-H ) :   0.9801

FINAL SINGLE POINT ENERGY      -267.867890896897

DIPOLE MOMENT
-------------
                                X             Y             Z
Electronic contribution:      2.95122       0.54768      -1.28107
Nuclear contribution   :     -3.69145      -1.49398       1.19810
                        -----------------------------------------
Total Dipole Moment    :     -0.74023      -0.94630      -0.08298
                        -----------------------------------------
Magnitude (a.u.)       :      1.20429
Magnitude (Debye)      :      3.06106

Rotational constants in cm-1:     0.270790     0.068966     0.056679
Rotational constants in MHz :  8118.084803  2067.559423  1699.196934

                             ****ORCA TERMINATED NORMALLY****
TOTAL RUN TIME: 0 days 0 hours 1 minutes 26 seconds 902 msec
