                         Program Version 5.0.0 -  RELEASE  -
|  1> !CAM-B3LYP RIJCOSX def2-TZVPD def2/J TightSCF
|  2> *xyz 0 1
|  3> C          1.63556       -1.67040       -5.29211
|  4> C          0.33848       -1.50091       -4.50540
|  5> N          2.48451       -0.50741       -5.14039
|  6> H          1.39834       -1.82924       -6.35259
|  7> H          2.15586       -2.56540       -4.93209
|  8> C          3.45115       -0.14953       -5.95259
|  9> N          3.92267        1.08956       -5.85071
| 10> C          3.96616       -1.00618       -6.86788
| 11> H          3.52139       -1.90647       -6.99527
| 12> H          4.44482       -0.62347       -7.67035
| 13> H          2.25200        0.24080       -4.49879
| 14> H          3.46428        1.64078       -5.13639
| 15> H          4.83447        1.31375       -6.22465
| 16> H         -0.17658       -0.62881       -4.85045
| 17> H          0.56384       -1.39374       -3.46490
| 18> H         -0.28102       -2.36136       -4.64938
| 19> *
| 20>
| 21> %MaxCore 64000
| 22>
| 23> %pal nprocs 4
| 24> end
| 25>
| 26> %scf
| 27>   MaxIter 150
| 28> end
| 29>
| 30>
| 31>                          ****END OF INPUT****

CARTESIAN COORDINATES (ANGSTROEM)
---------------------------------
  C      1.635560   -1.670400   -5.292110
  C      0.338480   -1.500910   -4.505400
  N      2.484510   -0.507410   -5.140390
  H      1.398340   -1.829240   -6.352590
  H      2.155860   -2.565400   -4.932090
  C      3.451150   -0.149530   -5.952590
  N      3.922670    1.089560   -5.850710
  C      3.966160   -1.006180   -6.867880
  H      3.521390   -1.906470   -6.995270
  H      4.444820   -0.623470   -7.670350
  H      2.252000    0.240800   -4.498790
  H      3.464280    1.640780   -5.136390
  H      4.834470    1.313750   -6.224650
  H     -0.176580   -0.628810   -4.850450
  H      0.563840   -1.393740   -3.464900
  H     -0.281020   -2.361360   -4.649380

 Total Charge           Charge          ....    0
 Multiplicity           Mult            ....    1
 Number of Electrons    NEL             ....   48
 Basis Dimension        Dim             ....  312

ORBITAL ENERGIES
----------------

  NO   OCC          E(Eh)            E(eV)
   0   2.0000     -14.396352      -391.7447
   1   2.0000     -14.391096      -391.6016
   2   2.0000     -10.291657      -280.0502
   3   2.0000     -10.280086      -279.7354
   4   2.0000     -10.238852      -278.6133
   5   2.0000     -10.153867      -276.3008
   6   2.0000      -1.063477       -28.9387
   7   2.0000      -0.971310       -26.4307
   8   2.0000      -0.847319       -23.0567
   9   2.0000      -0.785123       -21.3643
  10   2.0000      -0.724039       -19.7021
  11   2.0000      -0.643368       -17.5069
  12   2.0000      -0.608845       -16.5675
  13   2.0000      -0.597067       -16.2470
  14   2.0000      -0.547902       -14.9092
  15   2.0000      -0.536623       -14.6023
  16   2.0000      -0.471979       -12.8432
  17   2.0000      -0.464096       -12.6287
  18   2.0000      -0.461630       -12.5616
  19   2.0000      -0.439098       -11.9485
  20   2.0000      -0.429290       -11.6816
  21   2.0000      -0.418002       -11.3744
  22   2.0000      -0.317328        -8.6349
  23   2.0000      -0.224813        -6.1175
  24   0.0000       0.025857         0.7036
  25   0.0000       0.042184         1.1479
  26   0.0000       0.055047         1.4979
  27   0.0000       0.075287         2.0487
  28   0.0000       0.086889         2.3644

MULLIKEN ATOMIC CHARGES
-----------------------
   0 C :   -0.385817
   1 C :   -1.326269
   2 N :   -0.162854
   3 H :    0.340421
   4 H :    0.328992
   5 C :    0.573225
   6 N :   -0.349646
   7 C :   -1.143693
   8 H :    0.342608
   9 H :    0.247843
  10 H :    0.137117
  11 H :    0.141763
  12 H :    0.197876
  13 H :    0.362085
  14 H :    0.340400
  15 H :    0.355948
Sum of atomic charges:    0.0000000

LOEWDIN ATOMIC CHARGES
----------------------
   0 C :   -0.247831
   1 C :   -0.091408
   2 N :    0.010842
   3 H :    0.119939
   4 H :    0.120604
   5 C :   -0.572119
   6 N :    0.114384
   7 C :    0.004494
   8 H :   -0.009959
   9 H :    0.002091
  10 H :    0.135541
  11 H :    0.097223
  12 H :    0.113341
  13 H :    0.068418
  14 H :    0.066463
  15 H :    0.067979

  Mayer bond orders larger than 0.100000
B(  0-C ,  1-C ) :   0.4725 B(  0-C ,  2-N ) :   0.8686 B(  0-C ,  3-H ) :   0.9073
B(  0-C ,  4-H ) :   0.9083 B(  0-C ,  7-C ) :   0.1250 B(  1-C , 13-H ) :   0.9644
B(  1-C , 14-H ) :   0.9606 B(  1-C , 15-H ) :   0.9445 B(  2-N ,  5-C ) :   1.0332
B(  2-N , 10-H ) :   1.0275 B(  5-C ,  6-N ) :   0.9840 B(  5-C ,  7-C ) :   1.3149
B(  5-C ,  9-H ) :  -0.1098 B(  6-N , 11-H ) :   1.0287 B(  6-N , 12-H ) :   0.9858
B(  7-C ,  8-H ) :   0.9062 B(  7-C ,  9-H ) :   1.1268

FINAL SINGLE POINT ENERGY      -267.868615832220

DIPOLE MOMENT
-------------
                                X             Y             Z
Electronic contribution:      3.01328       2.60756      -0.21292
Nuclear contribution   :     -3.68222      -1.93858       0.98231
                        -----------------------------------------
Total Dipole Moment    :     -0.66895       0.66898       0.76939
                        -----------------------------------------
Magnitude (a.u.)       :      1.21942
Magnitude (Debye)      :      3.09951

Rotational constants in cm-1:     0.275407     0.068040     0.056255
Rotational constants in MHz :  8256.498401  2039.796466  1686.484500

                             ****ORCA TERMINATED NORMALLY****
TOTAL RUN TIME: 0 days 0 hours 1 minutes 21 seconds 714 msec
