                         Program Version 5.0.0 -  RELEASE  -
|  1> !CAM-B3LYP RIJCOSX def2-TZVPD def2/J TightSCF xyzfile
|  2>
|  3> *xyzfile 0 1 D1.xyz
|  4>
|  5> %MaxCore 64000
|  6>
|  7> %pal nprocs 4
|  8> end
|  9>
| 10> %scf
| 11>   MaxIter 150
| 12> end
| 13>
| 14>
| 15>                          ****END OF INPUT****

CARTESIAN COORDINATES (ANGSTROEM)
---------------------------------
  C      1.635557   -1.670396   -5.292109
  C      0.338484   -1.500907   -4.505398
  C      2.484511   -0.507410   -5.140392
  C     -0.684873   -0.528026   -5.099889
  C     -0.290406    0.951335   -5.153423
  H      0.607991    1.070692   -5.764412
  C     -0.055168    1.619420   -3.788577
  H     -1.080912    1.483775   -5.689436
  H      0.045006    0.862302   -3.003015
  H     -0.922936    2.230329   -3.517028
  C      1.223022    2.469865   -3.756911
  H      1.114701    3.258074   -4.532999
  H      1.237732    3.011242   -2.792157
  F      2.353815    1.712032   -3.934477
  H      1.398337   -1.829239   -6.352591
  H      2.155864   -2.565398   -4.932091
  C      3.451149   -0.149530   -5.952589
  N      3.922667    1.089559   -5.850711
  N      3.966162   -1.006183   -6.867880
  H      3.521391   -1.906467   -6.995270
  H      4.444824   -0.623472   -7.670348
  H      2.251995    0.240804   -4.498792
  H      3.464277    1.640782   -5.136392
  H      4.834470    1.313745   -6.224653
  H     -0.937999   -0.869056   -6.110838
  H     -1.604638   -0.622496   -4.513132
  H      0.594887   -1.211578   -3.482312
  H     -0.126530   -2.487656   -4.434176

 Total Charge           Charge          ....    0
 Multiplicity           Mult            ....    1
 Number of Electrons    NEL             ....   88
 Basis Dimension        Dim             ....  563

ORBITAL ENERGIES
----------------

  NO   OCC          E(Eh)            E(eV)
   0   2.0000     -24.770180      -674.0309
   1   2.0000     -14.375522      -391.1778
   2   2.0000     -14.359438      -390.7402
   3   2.0000     -10.333148      -281.1793
   4   2.0000     -10.265667      -279.3430
   5   2.0000     -10.249850      -278.9126
   6   2.0000     -10.232105      -278.4297
   7   2.0000     -10.229306      -278.3536
   8   2.0000     -10.219591      -278.0892
   9   2.0000     -10.209344      -277.8104
  10   2.0000     -10.137482      -275.8549
  11   2.0000      -1.317509       -35.8512
  12   2.0000      -1.024045       -27.8657
  13   2.0000      -0.935287       -25.4504
  14   2.0000      -0.893338       -24.3090
  15   2.0000      -0.859130       -23.3781
  16   2.0000      -0.808591       -22.0029
  17   2.0000      -0.772379       -21.0175
  18   2.0000      -0.719244       -19.5716
  19   2.0000      -0.685583       -18.6557
  20   2.0000      -0.652696       -17.7608
  21   2.0000      -0.630980       -17.1698
  22   2.0000      -0.610583       -16.6148
  23   2.0000      -0.594260       -16.1706
  24   2.0000      -0.580102       -15.7854
  25   2.0000      -0.574641       -15.6368
  26   2.0000      -0.557140       -15.1606
  27   2.0000      -0.528065       -14.3694
  28   2.0000      -0.510516       -13.8918
  29   2.0000      -0.507388       -13.8067
  30   2.0000      -0.485964       -13.2237
  31   2.0000      -0.471064       -12.8183
  32   2.0000      -0.460130       -12.5208
  33   2.0000      -0.446549       -12.1512
  34   2.0000      -0.428572       -11.6620
  35   2.0000      -0.425396       -11.5756
  36   2.0000      -0.416260       -11.3270
  37   2.0000      -0.402469       -10.9517
  38   2.0000      -0.384078       -10.4513
  39   2.0000      -0.372627       -10.1397
  40   2.0000      -0.366567        -9.9748
  41   2.0000      -0.355293        -9.6680
  42   2.0000      -0.313449        -8.5294
  43   2.0000      -0.203105        -5.5268
  44   0.0000       0.030990         0.8433
  45   0.0000       0.038889         1.0582
  46   0.0000       0.046557         1.2669
  47   0.0000       0.053614         1.4589
  48   0.0000       0.063465         1.7270

MULLIKEN ATOMIC CHARGES
-----------------------
   0 C :   -0.520193
   1 C :   -0.743562
   2 C :   -0.664841
   3 C :   -0.636212
   4 C :   -0.601456
   5 H :    0.432359
   6 C :   -0.594148
   7 H :    0.327980
   8 H :    0.269976
   9 H :    0.352492
  10 C :   -0.351308
  11 H :    0.279403
  12 H :    0.295687
  13 F :   -0.454628
  14 H :    0.332413
  15 H :    0.319356
  16 C :   -0.607930
  17 N :   -0.376662
  18 N :   -0.406570
  19 H :    0.196156
  20 H :    0.162530
  21 H :    1.451898
  22 H :    0.343299
  23 H :    0.090279
  24 H :    0.313105
  25 H :    0.244157
  26 H :    0.241668
  27 H :    0.304752
Sum of atomic charges:    0.0000000

LOEWDIN ATOMIC CHARGES
----------------------
   0 C :   -0.229375
   1 C :   -0.214584
   2 C :   -0.143494
   3 C :   -0.204974
   4 C :   -0.208716
   5 H :    0.105799
   6 C :   -0.173187
   7 H :    0.108072
   8 H :    0.109278
   9 H :    0.116874
  10 C :   -0.193876
  11 H :    0.132349
  12 H :    0.122339
  13 F :   -0.080550
  14 H :    0.112466
  15 H :    0.110966
  16 C :   -0.529459
  17 N :    0.114196
  18 N :    0.127870
  19 H :    0.089830
  20 H :    0.091452
  21 H :    0.034536
  22 H :    0.070580
  23 H :    0.099760
  24 H :    0.111629
  25 H :    0.108610
  26 H :    0.106011
  27 H :    0.105597

  Mayer bond orders larger than 0.100000
B(  0-C ,  1-C ) :   0.8667 B(  0-C , 14-H ) :   0.8175 B(  0-C , 15-H ) :   1.0792
B(  1-C ,  2-C ) :   0.1957 B(  1-C ,  3-C ) :   0.7856 B(  1-C , 26-H ) :   0.9752
B(  1-C , 27-H ) :   1.0183 B(  2-C ,  5-H ) :  -0.1141 B(  2-C , 13-F ) :   0.2989
B(  2-C , 14-H ) :  -0.1630 B(  2-C , 15-H ) :  -0.1823 B(  2-C , 16-C ) :   2.1779
B(  2-C , 17-N ) :  -0.1249 B(  2-C , 21-H ) :  -0.2759 B(  3-C ,  4-C ) :   0.7639
B(  3-C ,  6-C ) :   0.1516 B(  3-C , 24-H ) :   0.9639 B(  3-C , 25-H ) :   1.0299
B(  4-C ,  5-H ) :   0.9550 B(  4-C ,  6-C ) :   0.5646 B(  4-C ,  7-H ) :   0.9398
B(  4-C , 10-C ) :   0.1204 B(  6-C ,  8-H ) :   0.9950 B(  6-C ,  9-H ) :   0.9426
B(  6-C , 10-C ) :   0.7906 B( 10-C , 11-H ) :   0.9838 B( 10-C , 12-H ) :   0.9474
B( 10-C , 13-F ) :   0.7633 B( 13-F , 16-C ) :   0.1357 B( 13-F , 21-H ) :  -0.5553
B( 16-C , 17-N ) :   1.1329 B( 16-C , 18-N ) :   0.9278 B( 16-C , 21-H ) :  -0.7764
B( 17-N , 22-H ) :   0.8255 B( 17-N , 23-H ) :   1.1012 B( 18-N , 19-H ) :   0.9658
B( 18-N , 20-H ) :   1.0268

FINAL SINGLE POINT ENERGY      -524.316183505832

DIPOLE MOMENT
-------------
                                X             Y             Z
Electronic contribution:      7.79948       3.83485       1.16424
Nuclear contribution   :     -8.11591      -2.99033      -1.35383
                        -----------------------------------------
Total Dipole Moment    :     -0.31643       0.84453      -0.18960
                        -----------------------------------------
Magnitude (a.u.)       :      0.92158
Magnitude (Debye)      :      2.34246

Rotational constants in cm-1:     0.043530     0.028984     0.019589
Rotational constants in MHz :  1305.007140   868.923804   587.262638

                             ****ORCA TERMINATED NORMALLY****
TOTAL RUN TIME: 0 days 0 hours 6 minutes 51 seconds 945 msec
