                         Program Version 5.0.0 -  RELEASE  -
|  1> !CAM-B3LYP RIJCOSX def2-TZVPD def2/J TightSCF xyzfile
|  2>
|  3> *xyzfile 0 1 D2.xyz
|  4>
|  5> %MaxCore 64000
|  6>
|  7> %pal nprocs 4
|  8> end
|  9>
| 10> %scf
| 11>   MaxIter 150
| 12> end
| 13>
| 14>
| 15>                          ****END OF INPUT****

CARTESIAN COORDINATES (ANGSTROEM)
---------------------------------
  C      1.635557   -1.670396   -5.292109
  C      0.338484   -1.500907   -4.505398
  N      2.484511   -0.507410   -5.140392
  C     -0.684873   -0.528026   -5.099889
  C     -0.290406    0.951335   -5.153423
  H      0.607991    1.070692   -5.764412
  C     -0.055168    1.619420   -3.788577
  H     -1.080912    1.483775   -5.689436
  H      0.045006    0.862302   -3.003015
  H     -0.922936    2.230329   -3.517028
  C      1.223022    2.469865   -3.756911
  H      1.114701    3.258074   -4.532999
  H      1.237732    3.011242   -2.792157
  F      2.353815    1.712032   -3.934477
  H      1.398337   -1.829239   -6.352591
  H      2.155864   -2.565398   -4.932091
  C      3.451149   -0.149530   -5.952589
  C      3.922667    1.089559   -5.850711
  N      3.966162   -1.006183   -6.867880
  H      3.521391   -1.906467   -6.995270
  H      4.444824   -0.623472   -7.670348
  H      2.251995    0.240804   -4.498792
  H      3.464277    1.640782   -5.136392
  H      4.834470    1.313745   -6.224653
  H     -0.937999   -0.869056   -6.110838
  H     -1.604638   -0.622496   -4.513132
  H      0.594887   -1.211578   -3.482312
  H     -0.126530   -2.487656   -4.434176

 Total Charge           Charge          ....    0
 Multiplicity           Mult            ....    1
 Number of Electrons    NEL             ....   88
 Basis Dimension        Dim             ....  563

ORBITAL ENERGIES
----------------

  NO   OCC          E(Eh)            E(eV)
   0   2.0000     -24.771413      -674.0644
   1   2.0000     -14.373829      -391.1318
   2   2.0000     -14.361676      -390.8011
   3   2.0000     -10.334766      -281.2233
   4   2.0000     -10.272917      -279.5403
   5   2.0000     -10.271224      -279.4942
   6   2.0000     -10.258361      -279.1442
   7   2.0000     -10.246982      -278.8346
   8   2.0000     -10.246617      -278.8246
   9   2.0000     -10.244558      -278.7686
  10   2.0000     -10.125856      -275.5385
  11   2.0000      -1.318224       -35.8707
  12   2.0000      -1.036959       -28.2171
  13   2.0000      -0.951548       -25.8929
  14   2.0000      -0.903078       -24.5740
  15   2.0000      -0.860079       -23.4039
  16   2.0000      -0.819392       -22.2968
  17   2.0000      -0.765980       -20.8434
  18   2.0000      -0.730898       -19.8888
  19   2.0000      -0.700596       -19.0642
  20   2.0000      -0.660417       -17.9709
  21   2.0000      -0.644339       -17.5334
  22   2.0000      -0.617935       -16.8149
  23   2.0000      -0.591287       -16.0897
  24   2.0000      -0.583031       -15.8651
  25   2.0000      -0.576358       -15.6835
  26   2.0000      -0.556846       -15.1526
  27   2.0000      -0.544918       -14.8280
  28   2.0000      -0.520834       -14.1726
  29   2.0000      -0.510805       -13.8997
  30   2.0000      -0.492903       -13.4126
  31   2.0000      -0.480038       -13.0625
  32   2.0000      -0.468433       -12.7467
  33   2.0000      -0.449792       -12.2395
  34   2.0000      -0.436940       -11.8897
  35   2.0000      -0.430813       -11.7230
  36   2.0000      -0.419545       -11.4164
  37   2.0000      -0.414918       -11.2905
  38   2.0000      -0.398436       -10.8420
  39   2.0000      -0.388859       -10.5814
  40   2.0000      -0.387722       -10.5505
  41   2.0000      -0.383493       -10.4354
  42   2.0000      -0.304991        -8.2992
  43   2.0000      -0.201782        -5.4908
  44   0.0000       0.027317         0.7433
  45   0.0000       0.036428         0.9913
  46   0.0000       0.044248         1.2040
  47   0.0000       0.047254         1.2859
  48   0.0000       0.064022         1.7421

MULLIKEN ATOMIC CHARGES
-----------------------
   0 C :   -0.744716
   1 C :   -0.736782
   2 N :   -0.255782
   3 C :   -0.522503
   4 C :   -0.713229
   5 H :    0.415081
   6 C :   -0.578636
   7 H :    0.319257
   8 H :    0.263271
   9 H :    0.338086
  10 C :   -0.343350
  11 H :    0.281422
  12 H :    0.295559
  13 F :   -0.473608
  14 H :    0.394616
  15 H :    0.353792
  16 C :    0.533570
  17 C :   -1.290046
  18 N :   -0.421324
  19 H :    0.193559
  20 H :    0.197557
  21 H :    0.454301
  22 H :    0.621186
  23 H :    0.289911
  24 H :    0.318297
  25 H :    0.245754
  26 H :    0.283676
  27 H :    0.281081
Sum of atomic charges:   -0.0000000

LOEWDIN ATOMIC CHARGES
----------------------
   0 C :   -0.197636
   1 C :   -0.196460
   2 N :    0.025825
   3 C :   -0.205648
   4 C :   -0.207015
   5 H :    0.106640
   6 C :   -0.174308
   7 H :    0.111015
   8 H :    0.107494
   9 H :    0.117926
  10 C :   -0.192403
  11 H :    0.135261
  12 H :    0.123773
  13 F :   -0.079106
  14 H :    0.118963
  15 H :    0.115910
  16 C :   -0.546102
  17 C :    0.004030
  18 N :    0.121917
  19 H :    0.081991
  20 H :    0.103394
  21 H :    0.087325
  22 H :   -0.014055
  23 H :    0.010066
  24 H :    0.112466
  25 H :    0.110959
  26 H :    0.107132
  27 H :    0.110647

  Mayer bond orders larger than 0.100000
B(  0-C ,  1-C ) :   0.8141 B(  0-C ,  2-N ) :   0.9436 B(  0-C , 14-H ) :   0.8442
B(  0-C , 15-H ) :   0.8913 B(  0-C , 16-C ) :  -0.1831 B(  1-C ,  3-C ) :   0.7634
B(  1-C , 26-H ) :   0.9503 B(  1-C , 27-H ) :   1.0308 B(  2-N , 16-C ) :   1.0433
B(  2-N , 21-H ) :   0.7309 B(  3-C ,  4-C ) :   0.7653 B(  3-C ,  6-C ) :   0.1115
B(  3-C , 24-H ) :   0.9541 B(  3-C , 25-H ) :   1.0215 B(  4-C ,  5-H ) :   0.9268
B(  4-C ,  6-C ) :   0.5912 B(  4-C ,  7-H ) :   0.9580 B(  4-C , 10-C ) :   0.1003
B(  6-C ,  8-H ) :   1.0032 B(  6-C ,  9-H ) :   0.9560 B(  6-C , 10-C ) :   0.8037
B( 10-C , 11-H ) :   0.9852 B( 10-C , 12-H ) :   0.9473 B( 10-C , 13-F ) :   0.7500
B( 13-F , 17-C ) :   0.1277 B( 13-F , 22-H ) :  -0.1297 B( 16-C , 17-C ) :   1.2783
B( 16-C , 18-N ) :   0.9501 B( 16-C , 22-H ) :  -0.1019 B( 16-C , 23-H ) :  -0.1100
B( 17-C , 22-H ) :   0.6859 B( 17-C , 23-H ) :   1.1004 B( 18-N , 19-H ) :   0.9881
B( 18-N , 20-H ) :   0.9859

FINAL SINGLE POINT ENERGY      -524.308181354259

DIPOLE MOMENT
-------------
                                X             Y             Z
Electronic contribution:      6.32816       2.44733       1.72555
Nuclear contribution   :     -7.85451      -2.70006      -1.48294
                        -----------------------------------------
Total Dipole Moment    :     -1.52635      -0.25273       0.24261
                        -----------------------------------------
Magnitude (a.u.)       :      1.56604
Magnitude (Debye)      :      3.98056

Rotational constants in cm-1:     0.044065     0.029250     0.019826
Rotational constants in MHz :  1321.026981   876.903192   594.367265

                             ****ORCA TERMINATED NORMALLY****
TOTAL RUN TIME: 0 days 0 hours 6 minutes 23 seconds 840 msec
