                         Program Version 5.0.0 -  RELEASE  -
|  1> !CAM-B3LYP RIJCOSX def2-TZVPD def2/J TightSCF xyzfile
|  2>
|  3> *xyzfile 0 1 D3.xyz
|  4>
|  5> %MaxCore 64000
|  6>
|  7> %pal nprocs 4
|  8> end
|  9>
| 10> %scf
| 11>   MaxIter 150
| 12> end
| 13>
| 14>
| 15>                          ****END OF INPUT****

CARTESIAN COORDINATES (ANGSTROEM)
---------------------------------
  C      1.635557   -1.670396   -5.292109
  C      0.338484   -1.500907   -4.505398
  N      2.484511   -0.507410   -5.140392
  C     -0.684873   -0.528026   -5.099889
  C     -0.290406    0.951335   -5.153423
  H      0.607991    1.070692   -5.764412
  C     -0.055168    1.619420   -3.788577
  H     -1.080912    1.483775   -5.689436
  H      0.045006    0.862302   -3.003015
  H     -0.922936    2.230329   -3.517028
  C      1.223022    2.469865   -3.756911
  H      1.114701    3.258074   -4.532999
  H      1.237732    3.011242   -2.792157
  F      2.353815    1.712032   -3.934477
  H      1.398337   -1.829239   -6.352591
  H      2.155864   -2.565398   -4.932091
  C      3.451149   -0.149530   -5.952589
  N      3.922667    1.089559   -5.850711
  C      3.966162   -1.006183   -6.867880
  H      3.521391   -1.906467   -6.995270
  H      4.444824   -0.623472   -7.670348
  H      2.251995    0.240804   -4.498792
  H      3.464277    1.640782   -5.136392
  H      4.834470    1.313745   -6.224653
  H     -0.937999   -0.869056   -6.110838
  H     -1.604638   -0.622496   -4.513132
  H      0.594887   -1.211578   -3.482312
  H     -0.126530   -2.487656   -4.434176

 Total Charge           Charge          ....    0
 Multiplicity           Mult            ....    1
 Number of Electrons    NEL             ....   88
 Basis Dimension        Dim             ....  563

ORBITAL ENERGIES
----------------

  NO   OCC          E(Eh)            E(eV)
   0   2.0000     -24.799804      -674.8370
   1   2.0000     -14.365676      -390.9099
   2   2.0000     -14.362518      -390.8240
   3   2.0000     -10.352020      -281.6928
   4   2.0000     -10.272356      -279.5250
   5   2.0000     -10.268239      -279.4130
   6   2.0000     -10.265859      -279.3482
   7   2.0000     -10.250711      -278.9360
   8   2.0000     -10.247695      -278.8540
   9   2.0000     -10.244558      -278.7686
  10   2.0000     -10.136242      -275.8212
  11   2.0000      -1.345552       -36.6143
  12   2.0000      -1.042080       -28.3564
  13   2.0000      -0.952327       -25.9141
  14   2.0000      -0.908052       -24.7094
  15   2.0000      -0.863753       -23.5039
  16   2.0000      -0.811318       -22.0771
  17   2.0000      -0.775203       -21.0943
  18   2.0000      -0.740324       -20.1452
  19   2.0000      -0.713314       -19.4103
  20   2.0000      -0.656069       -17.8525
  21   2.0000      -0.645305       -17.5596
  22   2.0000      -0.634228       -17.2582
  23   2.0000      -0.608051       -16.5459
  24   2.0000      -0.603082       -16.4107
  25   2.0000      -0.569932       -15.5086
  26   2.0000      -0.561549       -15.2805
  27   2.0000      -0.546253       -14.8643
  28   2.0000      -0.534387       -14.5414
  29   2.0000      -0.505097       -13.7444
  30   2.0000      -0.498256       -13.5582
  31   2.0000      -0.489018       -13.3069
  32   2.0000      -0.470685       -12.8080
  33   2.0000      -0.445996       -12.1362
  34   2.0000      -0.443807       -12.0766
  35   2.0000      -0.430687       -11.7196
  36   2.0000      -0.428097       -11.6491
  37   2.0000      -0.421697       -11.4749
  38   2.0000      -0.409640       -11.1469
  39   2.0000      -0.397593       -10.8191
  40   2.0000      -0.388911       -10.5828
  41   2.0000      -0.386175       -10.5083
  42   2.0000      -0.294377        -8.0104
  43   2.0000      -0.206582        -5.6214
  44   0.0000       0.022046         0.5999
  45   0.0000       0.036863         1.0031
  46   0.0000       0.041420         1.1271
  47   0.0000       0.046962         1.2779
  48   0.0000       0.059725         1.6252

MULLIKEN ATOMIC CHARGES
-----------------------
   0 C :   -0.841180
   1 C :   -0.706056
   2 N :   -0.221057
   3 C :   -0.539094
   4 C :   -0.686194
   5 H :    0.390540
   6 C :   -0.583011
   7 H :    0.317341
   8 H :    0.268249
   9 H :    0.346517
  10 C :   -0.324585
  11 H :    0.291020
  12 H :    0.297271
  13 F :   -0.480023
  14 H :    0.390152
  15 H :    0.409326
  16 C :    0.388191
  17 N :   -0.345879
  18 C :   -1.189169
  19 H :    0.396658
  20 H :    0.262648
  21 H :    0.521451
  22 H :    0.357103
  23 H :    0.137458
  24 H :    0.326148
  25 H :    0.246078
  26 H :    0.287925
  27 H :    0.282173
Sum of atomic charges:   -0.0000000

LOEWDIN ATOMIC CHARGES
----------------------
   0 C :   -0.190597
   1 C :   -0.196219
   2 N :    0.026054
   3 C :   -0.204527
   4 C :   -0.207769
   5 H :    0.106590
   6 C :   -0.173059
   7 H :    0.111316
   8 H :    0.108876
   9 H :    0.119743
  10 C :   -0.189224
  11 H :    0.135752
  12 H :    0.125769
  13 F :   -0.069158
  14 H :    0.123409
  15 H :    0.122149
  16 C :   -0.561118
  17 N :    0.123048
  18 C :    0.001242
  19 H :   -0.013828
  20 H :   -0.002435
  21 H :    0.084109
  22 H :    0.064312
  23 H :    0.113512
  24 H :    0.114243
  25 H :    0.110954
  26 H :    0.105235
  27 H :    0.111622

  Mayer bond orders larger than 0.100000
B(  0-C ,  1-C ) :   0.7479 B(  0-C ,  2-N ) :   1.0234 B(  0-C , 14-H ) :   0.8976
B(  0-C , 15-H ) :   0.8459 B(  0-C , 18-C ) :   0.2226 B(  1-C ,  3-C ) :   0.7555
B(  1-C , 26-H ) :   0.9509 B(  1-C , 27-H ) :   1.0329 B(  2-N , 16-C ) :   1.1072
B(  2-N , 21-H ) :   0.6864 B(  3-C ,  4-C ) :   0.7806 B(  3-C ,  6-C ) :   0.1076
B(  3-C , 24-H ) :   0.9473 B(  3-C , 25-H ) :   1.0239 B(  4-C ,  5-H ) :   0.9546
B(  4-C ,  6-C ) :   0.5800 B(  4-C ,  7-H ) :   0.9635 B(  4-C , 10-C ) :   0.1113
B(  6-C ,  8-H ) :   1.0045 B(  6-C ,  9-H ) :   0.9497 B(  6-C , 10-C ) :   0.8057
B( 10-C , 11-H ) :   0.9744 B( 10-C , 12-H ) :   0.9421 B( 10-C , 13-F ) :   0.7301
B( 16-C , 17-N ) :   1.0575 B( 16-C , 18-C ) :   1.3005 B( 16-C , 20-H ) :  -0.1364
B( 17-N , 22-H ) :   0.8285 B( 17-N , 23-H ) :   1.0306 B( 18-C , 19-H ) :   0.8608
B( 18-C , 20-H ) :   1.1561

FINAL SINGLE POINT ENERGY      -524.319852961497

DIPOLE MOMENT
-------------
                                X             Y             Z
Electronic contribution:      6.23091       4.45290       2.81850
Nuclear contribution   :     -7.84660      -3.08098      -1.66782
                        -----------------------------------------
Total Dipole Moment    :     -1.61569       1.37191       1.15068
                        -----------------------------------------
Magnitude (a.u.)       :      2.41177
Magnitude (Debye)      :      6.13024

Rotational constants in cm-1:     0.043547     0.029898     0.020008
Rotational constants in MHz :  1305.520367   896.323854   599.829375

                             ****ORCA TERMINATED NORMALLY****
TOTAL RUN TIME: 0 days 0 hours 6 minutes 14 seconds 460 msec
