                         Program Version 5.0.0 -  RELEASE  -
|  1> !wB97X-D3 RIJCOSX def2-TZVPD def2/J TightSCF
|  2> *xyz -1 1
|  3> C         -7.33044       -2.67899       -3.20681
|  4> S         -6.01966       -2.92697       -4.41913
|  5> O         -5.64583       -1.58838       -4.91931
|  6> O         -4.88196       -3.50370       -3.66724
|  7> O         -6.54927       -3.80515       -5.42507
|  8> C         -6.28692       -0.73588       -1.89353
|  9> C         -7.46900       -1.24615       -2.71383
| 10> H         -7.60191       -0.60135       -3.58533
| 11> H         -8.38979       -1.17344       -2.12692
| 12> H         -7.11825       -3.37982       -2.39805
| 13> H         -8.24184       -3.00474       -3.70651
| 14> H         -5.39124       -0.81034       -2.47415
| 15> H         -6.18709       -1.32597       -1.00655
| 16> H         -6.45393        0.28631       -1.62495
| 17> *
| 18> %MaxCore 64000
| 19>
| 20> %pal nprocs 8
| 21> end
| 22>
| 23> %scf
| 24>   MaxIter 150
| 25> end
| 26>
| 27>
| 28>                          ****END OF INPUT****

CARTESIAN COORDINATES (ANGSTROEM)
---------------------------------
  C     -7.330440   -2.678990   -3.206810
  S     -6.019660   -2.926970   -4.419130
  O     -5.645830   -1.588380   -4.919310
  O     -4.881960   -3.503700   -3.667240
  O     -6.549270   -3.805150   -5.425070
  C     -6.286920   -0.735880   -1.893530
  C     -7.469000   -1.246150   -2.713830
  H     -7.601910   -0.601350   -3.585330
  H     -8.389790   -1.173440   -2.126920
  H     -7.118250   -3.379820   -2.398050
  H     -8.241840   -3.004740   -3.706510
  H     -5.391240   -0.810340   -2.474150
  H     -6.187090   -1.325970   -1.006550
  H     -6.453930    0.286310   -1.624950

 Total Charge           Charge          ....   -1
 Multiplicity           Mult            ....    1
 Number of Electrons    NEL             ....   66
 Basis Dimension        Dim             ....  340

ORBITAL ENERGIES
----------------

  NO   OCC          E(Eh)            E(eV)
   0   2.0000     -88.937383     -2420.1092
   1   2.0000     -19.015074      -517.4265
   2   2.0000     -19.005220      -517.1583
   3   2.0000     -19.001081      -517.0457
   4   2.0000     -10.143957      -276.0311
   5   2.0000     -10.139408      -275.9073
   6   2.0000     -10.125476      -275.5282
   7   2.0000      -8.000363      -217.7010
   8   2.0000      -5.954528      -162.0309
   9   2.0000      -5.953407      -162.0004
  10   2.0000      -5.953077      -161.9915
  11   2.0000      -1.038633       -28.2626
  12   2.0000      -0.905736       -24.6463
  13   2.0000      -0.883666       -24.0458
  14   2.0000      -0.776088       -21.1184
  15   2.0000      -0.682339       -18.5674
  16   2.0000      -0.582448       -15.8492
  17   2.0000      -0.490036       -13.3346
  18   2.0000      -0.434743       -11.8300
  19   2.0000      -0.423198       -11.5158
  20   2.0000      -0.391253       -10.6465
  21   2.0000      -0.378951       -10.3118
  22   2.0000      -0.360594        -9.8123
  23   2.0000      -0.351045        -9.5524
  24   2.0000      -0.319483        -8.6936
  25   2.0000      -0.309621        -8.4252
  26   2.0000      -0.299186        -8.1413
  27   2.0000      -0.248465        -6.7611
  28   2.0000      -0.246167        -6.6985
  29   2.0000      -0.209939        -5.7127
  30   2.0000      -0.202477        -5.5097
  31   2.0000      -0.194816        -5.3012
  32   2.0000      -0.158534        -4.3139
  33   0.0000       0.173027         4.7083
  34   0.0000       0.182460         4.9650
  35   0.0000       0.184066         5.0087
  36   0.0000       0.189159         5.1473
  37   0.0000       0.211349         5.7511

MULLIKEN ATOMIC CHARGES
-----------------------
   0 C :   -0.722247
   1 S :    1.211542
   2 O :   -0.735472
   3 O :   -0.734040
   4 O :   -0.699905
   5 C :   -1.263935
   6 C :   -0.113040
   7 H :    0.269789
   8 H :    0.269904
   9 H :    0.296908
  10 H :    0.242247
  11 H :    0.377662
  12 H :    0.299248
  13 H :    0.301339
Sum of atomic charges:   -1.0000000

LOEWDIN ATOMIC CHARGES
----------------------
   0 C :   -0.276791
   1 S :    0.377712
   2 O :   -0.405687
   3 O :   -0.420106
   4 O :   -0.387614
   5 C :   -0.119208
   6 C :   -0.305841
   7 H :    0.097636
   8 H :    0.093356
   9 H :    0.089103
  10 H :    0.081679
  11 H :    0.058765
  12 H :    0.062380
  13 H :    0.054615

  Mayer bond orders larger than 0.100000
B(  0-C ,  1-S ) :   0.8627 B(  0-C ,  3-O ) :   0.1564 B(  0-C ,  4-O ) :   0.1421
B(  0-C ,  5-C ) :   0.2309 B(  0-C ,  6-C ) :   0.7684 B(  0-C ,  9-H ) :   0.9374
B(  0-C , 10-H ) :   1.0293 B(  1-S ,  2-O ) :   1.4932 B(  1-S ,  3-O ) :   1.4935
B(  1-S ,  4-O ) :   1.4773 B(  2-O ,  6-C ) :   0.1079 B(  5-C ,  6-C ) :   0.5966
B(  5-C , 11-H ) :   0.9203 B(  5-C , 12-H ) :   0.9812 B(  5-C , 13-H ) :   0.9424
B(  6-C ,  7-H ) :   0.9319 B(  6-C ,  8-H ) :   0.9588

Dispersion correction           -0.004501560
FINAL SINGLE POINT ENERGY      -742.538576075320

DIPOLE MOMENT
-------------
                                X             Y             Z
Electronic contribution:      3.81325      -5.85136      -7.93907
Nuclear contribution   :     -5.28952       6.71955       9.52938
                        -----------------------------------------
Total Dipole Moment    :     -1.47627       0.86819       1.59030
                        -----------------------------------------
Magnitude (a.u.)       :      2.33713
Magnitude (Debye)      :      5.94052

Rotational constants in cm-1:     0.135789     0.055302     0.052251
Rotational constants in MHz :  4070.851802  1657.908940  1566.458563

                             ****ORCA TERMINATED NORMALLY****
TOTAL RUN TIME: 0 days 0 hours 0 minutes 49 seconds 43 msec
