                         Program Version 5.0.0 -  RELEASE  -
|  1> !wB97X-D3 RIJCOSX def2-TZVPD def2/J TightSCF
|  2> *xyz 1 1
|  3> C         -2.16038       -1.36949       -3.46710
|  4> N         -3.03011       -1.91086       -4.54107
|  5> C         -2.04772        0.14658       -3.51177
|  6> H         -3.47744       -2.79151       -4.25710
|  7> H         -2.53801       -2.01786       -5.43808
|  8> H         -3.89159       -1.37604       -4.71437
|  9> H         -1.18444       -1.84400       -3.56639
| 10> H         -2.59819       -1.70838       -2.52848
| 11> C         -3.32876        0.87504       -3.10367
| 12> H         -1.74003        0.45234       -4.51713
| 13> H         -1.23261        0.43494       -2.84221
| 14> H         -4.12483        0.59148       -3.76000
| 15> H         -3.17368        1.93185       -3.16688
| 16> H         -3.58415        0.61151       -2.09857
| 17> *
| 18> %MaxCore 64000
| 19>
| 20> %pal nprocs 8
| 21> end
| 22>
| 23> %scf
| 24>   MaxIter 150
| 25> end
| 26>
| 27>
| 28>                          ****END OF INPUT****

CARTESIAN COORDINATES (ANGSTROEM)
---------------------------------
  C     -2.160380   -1.369490   -3.467100
  N     -3.030110   -1.910860   -4.541070
  C     -2.047720    0.146580   -3.511770
  H     -3.477440   -2.791510   -4.257100
  H     -2.538010   -2.017860   -5.438080
  H     -3.891590   -1.376040   -4.714370
  H     -1.184440   -1.844000   -3.566390
  H     -2.598190   -1.708380   -2.528480
  C     -3.328760    0.875040   -3.103670
  H     -1.740030    0.452340   -4.517130
  H     -1.232610    0.434940   -2.842210
  H     -4.124830    0.591480   -3.760000
  H     -3.173680    1.931850   -3.166880
  H     -3.584150    0.611510   -2.098570

 Total Charge           Charge          ....    1
 Multiplicity           Mult            ....    1
 Number of Electrons    NEL             ....   34
 Basis Dimension        Dim             ....  238

ORBITAL ENERGIES
----------------

  NO   OCC          E(Eh)            E(eV)
   0   2.0000     -14.752471      -401.4351
   1   2.0000     -10.521763      -286.3117
   2   2.0000     -10.451505      -284.3999
   3   2.0000     -10.416424      -283.4453
   4   2.0000      -1.329092       -36.1664
   5   2.0000      -1.090494       -29.6738
   6   2.0000      -0.998327       -27.1659
   7   2.0000      -0.911068       -24.7914
   8   2.0000      -0.892378       -24.2828
   9   2.0000      -0.865879       -23.5618
  10   2.0000      -0.793046       -21.5799
  11   2.0000      -0.730205       -19.8699
  12   2.0000      -0.705539       -19.1987
  13   2.0000      -0.681248       -18.5377
  14   2.0000      -0.619170       -16.8485
  15   2.0000      -0.613011       -16.6809
  16   2.0000      -0.606832       -16.5127
  17   0.0000      -0.118771        -3.2319
  18   0.0000      -0.067238        -1.8296
  19   0.0000      -0.065404        -1.7797
  20   0.0000      -0.049770        -1.3543
  21   0.0000      -0.024943        -0.6787

MULLIKEN ATOMIC CHARGES
-----------------------
   0 C :   -0.592455
   1 N :   -0.292272
   2 C :   -0.228352
   3 H :    0.368432
   4 H :    0.387520
   5 H :    0.330452
   6 H :    0.295478
   7 H :    0.353617
   8 C :   -1.260651
   9 H :    0.315768
  10 H :    0.302787
  11 H :    0.347482
  12 H :    0.317399
  13 H :    0.354795
Sum of atomic charges:    1.0000000

LOEWDIN ATOMIC CHARGES
----------------------
   0 C :   -0.164914
   1 N :    0.184767
   2 C :   -0.230385
   3 H :    0.182857
   4 H :    0.187809
   5 H :    0.169434
   6 H :    0.138780
   7 H :    0.138704
   8 C :   -0.082388
   9 H :    0.120325
  10 H :    0.127574
  11 H :    0.060591
  12 H :    0.084803
  13 H :    0.082042

  Mayer bond orders larger than 0.100000
B(  0-C ,  1-N ) :   0.9865 B(  0-C ,  2-C ) :   0.8185 B(  0-C ,  6-H ) :   0.9695
B(  0-C ,  7-H ) :   0.8571 B(  0-C ,  8-C ) :   0.1366 B(  1-N ,  3-H ) :   0.8453
B(  1-N ,  4-H ) :   0.8312 B(  1-N ,  5-H ) :   0.8865 B(  2-C ,  8-C ) :   0.6325
B(  2-C ,  9-H ) :   0.9302 B(  2-C , 10-H ) :   0.9432 B(  8-C , 11-H ) :   0.8858
B(  8-C , 12-H ) :   0.9982 B(  8-C , 13-H ) :   0.9784

Dispersion correction           -0.002834713
FINAL SINGLE POINT ENERGY      -174.867742281585

DIPOLE MOMENT
-------------
                                X             Y             Z
Electronic contribution:      0.32538      -2.13219      -1.08963
Nuclear contribution   :     -0.76147       0.35838       0.01319
                        -----------------------------------------
Total Dipole Moment    :     -0.43609      -1.77380      -1.07644
                        -----------------------------------------
Magnitude (a.u.)       :      2.12021
Magnitude (Debye)      :      5.38913

Rotational constants in cm-1:     0.457188     0.153451     0.133348
Rotational constants in MHz : 13706.154863  4600.337483  3997.673747

                             ****ORCA TERMINATED NORMALLY****
TOTAL RUN TIME: 0 days 0 hours 0 minutes 22 seconds 869 msec
