                         Program Version 5.0.0 -  RELEASE  -
|  1> !wB97X-D3 RIJCOSX def2-TZVPD def2/J TightSCF xyzfile
|  2>
|  3> *xyzfile 0 1 B.xyz
|  4>
|  5> %MaxCore 64000
|  6>
|  7> %pal nprocs 18
|  8> end
|  9>
| 10> %scf
| 11>   MaxIter 150
| 12> end
| 13>
| 14>
| 15>                          ****END OF INPUT****

CARTESIAN COORDINATES (ANGSTROEM)
---------------------------------
  C     -2.160376   -1.369486   -3.467104
  N     -3.030108   -1.910857   -4.541074
  C     -2.047717    0.146583   -3.511774
  C     -7.330440   -2.678991   -3.206811
  S     -6.019659   -2.926965   -4.419128
  H     -3.477443   -2.791513   -4.257096
  H     -2.538013   -2.017860   -5.438075
  H     -3.891589   -1.376039   -4.714365
  O     -5.645830   -1.588384   -4.919307
  O     -4.881961   -3.503697   -3.667235
  H     -1.184438   -1.843997   -3.566393
  H     -2.598195   -1.708376   -2.528477
  O     -6.549267   -3.805150   -5.425071
  C     -3.328755    0.875037   -3.103669
  H     -1.740034    0.452343   -4.517126
  H     -1.232611    0.434938   -2.842208
  C     -3.628487    0.771601   -1.609363
  H     -4.175106    0.490791   -3.682203
  H     -3.237812    1.928663   -3.381480
  C     -4.975718    1.361432   -1.190644
  H     -2.830700    1.276234   -1.054766
  H     -3.594312   -0.275838   -1.294603
  C     -6.184720    0.784347   -1.926464
  H     -4.956292    2.445725   -1.342200
  H     -5.097256    1.205252   -0.114136
  C     -6.286921   -0.735882   -1.893531
  H     -6.163994    1.100199   -2.974250
  H     -7.094530    1.223459   -1.504509
  C     -7.468999   -1.246153   -2.713833
  H     -6.360641   -1.090347   -0.859176
  H     -5.369848   -1.171853   -2.295982
  H     -7.601914   -0.601349   -3.585329
  H     -8.389791   -1.173436   -2.126922
  H     -7.118254   -3.379818   -2.398055
  H     -8.241838   -3.004745   -3.706513

 Total Charge           Charge          ....    0
 Multiplicity           Mult            ....    1
 Number of Electrons    NEL             ....  122
 Basis Dimension        Dim             ....  725

ORBITAL ENERGIES
----------------

  NO   OCC          E(Eh)            E(eV)
   0   2.0000     -89.102729     -2424.6085
   1   2.0000     -19.183074      -521.9980
   2   2.0000     -19.182835      -521.9915
   3   2.0000     -19.168154      -521.5920
   4   2.0000     -14.527229      -395.3060
   5   2.0000     -10.359532      -281.8972
   6   2.0000     -10.311931      -280.6019
   7   2.0000     -10.291696      -280.0513
   8   2.0000     -10.283300      -279.8228
   9   2.0000     -10.276752      -279.6446
  10   2.0000     -10.275402      -279.6079
  11   2.0000     -10.267699      -279.3983
  12   2.0000     -10.266978      -279.3787
  13   2.0000     -10.264000      -279.2976
  14   2.0000      -8.166616      -222.2249
  15   2.0000      -6.120720      -166.5533
  16   2.0000      -6.119891      -166.5307
  17   2.0000      -6.118886      -166.5034
  18   2.0000      -1.211192       -32.9582
  19   2.0000      -1.123664       -30.5764
  20   2.0000      -1.070622       -29.1331
  21   2.0000      -1.068553       -29.0768
  22   2.0000      -0.955749       -26.0073
  23   2.0000      -0.926114       -25.2008
  24   2.0000      -0.899308       -24.4714
  25   2.0000      -0.854313       -23.2470
  26   2.0000      -0.820463       -22.3259
  27   2.0000      -0.775115       -21.0920
  28   2.0000      -0.736028       -20.0283
  29   2.0000      -0.716485       -19.4966
  30   2.0000      -0.702388       -19.1129
  31   2.0000      -0.676353       -18.4045
  32   2.0000      -0.668567       -18.1926
  33   2.0000      -0.644334       -17.5332
  34   2.0000      -0.616028       -16.7630
  35   2.0000      -0.592558       -16.1243
  36   2.0000      -0.591283       -16.0896
  37   2.0000      -0.576854       -15.6970
  38   2.0000      -0.559372       -15.2213
  39   2.0000      -0.548092       -14.9143
  40   2.0000      -0.539040       -14.6680
  41   2.0000      -0.535876       -14.5819
  42   2.0000      -0.528449       -14.3798
  43   2.0000      -0.512716       -13.9517
  44   2.0000      -0.508973       -13.8499
  45   2.0000      -0.497714       -13.5435
  46   2.0000      -0.484114       -13.1734
  47   2.0000      -0.470583       -12.8052
  48   2.0000      -0.464703       -12.6452
  49   2.0000      -0.448709       -12.2100
  50   2.0000      -0.440365       -11.9829
  51   2.0000      -0.432977       -11.7819
  52   2.0000      -0.420310       -11.4372
  53   2.0000      -0.416758       -11.3406
  54   2.0000      -0.413241       -11.2449
  55   2.0000      -0.409413       -11.1407
  56   2.0000      -0.403771       -10.9872
  57   2.0000      -0.377515       -10.2727
  58   2.0000      -0.369503       -10.0547
  59   2.0000      -0.359361        -9.7787
  60   2.0000      -0.335247        -9.1225
  61   0.0000       0.039459         1.0737
  62   0.0000       0.060719         1.6523
  63   0.0000       0.065311         1.7772
  64   0.0000       0.073428         1.9981
  65   0.0000       0.079303         2.1580

MULLIKEN ATOMIC CHARGES
-----------------------
   0 C :   -0.627689
   1 N :   -0.060142
   2 C :   -0.594247
   3 C :   -0.948353
   4 S :    1.250249
   5 H :    0.381133
   6 H :    0.349409
   7 H :    0.228737
   8 O :   -0.851103
   9 O :   -0.847913
  10 H :    0.335755
  11 H :    0.318115
  12 O :   -0.675136
  13 C :   -0.219763
  14 H :    0.294139
  15 H :    0.337897
  16 C :   -0.462984
  17 H :    0.066292
  18 H :    0.291625
  19 C :   -0.873185
  20 H :    0.323023
  21 H :    0.246624
  22 C :   -0.588966
  23 H :    0.284977
  24 H :    0.313257
  25 C :    0.103670
  26 H :    0.309106
  27 H :    0.338917
  28 C :   -0.594640
  29 H :    0.332256
  30 H :   -0.133456
  31 H :    0.297519
  32 H :    0.378352
  33 H :    0.369836
  34 H :    0.326690
Sum of atomic charges:   -0.0000000

LOEWDIN ATOMIC CHARGES
----------------------
   0 C :   -0.156947
   1 N :    0.149995
   2 C :   -0.187419
   3 C :   -0.232197
   4 S :    0.467278
   5 H :    0.077445
   6 H :    0.176808
   7 H :    0.083782
   8 O :   -0.379052
   9 O :   -0.385258
  10 H :    0.126818
  11 H :    0.123995
  12 O :   -0.323671
  13 C :   -0.202740
  14 H :    0.116322
  15 H :    0.119080
  16 C :   -0.217088
  17 H :    0.097201
  18 H :    0.122574
  19 C :   -0.208727
  20 H :    0.115841
  21 H :    0.100250
  22 C :   -0.216514
  23 H :    0.111173
  24 H :    0.111803
  25 C :   -0.218134
  26 H :    0.110677
  27 H :    0.117224
  28 C :   -0.237070
  29 H :    0.126381
  30 H :    0.083255
  31 H :    0.109014
  32 H :    0.116808
  33 H :    0.103414
  34 H :    0.097678

  Mayer bond orders larger than 0.100000
B(  0-C ,  1-N ) :   0.9400 B(  0-C ,  2-C ) :   0.9243 B(  0-C , 10-H ) :   0.8375
B(  0-C , 11-H ) :   0.8611 B(  0-C , 16-C ) :   0.1493 B(  1-N ,  5-H ) :   0.7706
B(  1-N ,  6-H ) :   0.8197 B(  1-N ,  7-H ) :   0.9429 B(  2-C , 13-C ) :   0.9038
B(  2-C , 14-H ) :   0.9180 B(  2-C , 15-H ) :   0.8833 B(  2-C , 16-C ) :   0.2997
B(  3-C ,  4-S ) :   0.9135 B(  3-C ,  9-O ) :   0.1443 B(  3-C , 12-O ) :   0.1786
B(  3-C , 25-C ) :   0.2918 B(  3-C , 28-C ) :   0.7677 B(  3-C , 33-H ) :   0.8569
B(  3-C , 34-H ) :   0.9787 B(  4-S ,  8-O ) :   1.4480 B(  4-S ,  9-O ) :   1.3843
B(  4-S , 12-O ) :   1.3262 B(  8-O ,  9-O ) :   0.1089 B(  8-O , 28-C ) :   0.1210
B( 13-C , 16-C ) :   0.3256 B( 13-C , 17-H ) :   1.1792 B( 13-C , 18-H ) :   0.8512
B( 13-C , 19-C ) :   0.3133 B( 13-C , 21-H ) :  -0.1270 B( 13-C , 22-C ) :   0.1386
B( 16-C , 19-C ) :   1.0315 B( 16-C , 20-H ) :   0.8909 B( 16-C , 21-H ) :   1.0250
B( 16-C , 25-C ) :   0.1040 B( 19-C , 22-C ) :   0.8788 B( 19-C , 23-H ) :   0.9532
B( 19-C , 24-H ) :   0.9154 B( 19-C , 25-C ) :   0.3338 B( 22-C , 25-C ) :   0.3991
B( 22-C , 26-H ) :   0.9676 B( 22-C , 27-H ) :   0.8467 B( 22-C , 28-C ) :   0.6076
B( 25-C , 26-H ) :  -0.1372 B( 25-C , 28-C ) :   0.5165 B( 25-C , 29-H ) :   0.7569
B( 25-C , 30-H ) :   1.3793 B( 26-H , 28-C ) :   0.1061 B( 28-C , 29-H ) :  -0.1475
B( 28-C , 31-H ) :   0.8937 B( 28-C , 32-H ) :   0.8856 B( 29-H , 30-H ) :   0.1009

Dispersion correction           -0.018858199
FINAL SINGLE POINT ENERGY     -1034.349738283969

DIPOLE MOMENT
-------------
                                X             Y             Z
Electronic contribution:     -5.94624     -15.20268     -11.41967
Nuclear contribution   :      8.59301      16.99497      12.41069
                        -----------------------------------------
Total Dipole Moment    :      2.64677       1.79229       0.99101
                        -----------------------------------------
Magnitude (a.u.)       :      3.34661
Magnitude (Debye)      :      8.50642

Rotational constants in cm-1:     0.025617     0.015295     0.010641
Rotational constants in MHz :   767.991150   458.522408   319.013093

                             ****ORCA TERMINATED NORMALLY****
TOTAL RUN TIME: 0 days 0 hours 3 minutes 3 seconds 159 msec
