                         Program Version 5.0.0 -  RELEASE  -
|  1> !wB97X-D3 RIJCOSX def2-TZVPD def2/J TightSCF
|  2> *xyz 0 1
|  3> C         -7.33044       -2.67899       -3.20681
|  4> S         -6.01966       -2.92697       -4.41913
|  5> F         -5.64583       -1.58838       -4.91931
|  6> O         -4.88196       -3.50370       -3.66724
|  7> O         -6.54927       -3.80515       -5.42507
|  8> C         -6.28692       -0.73588       -1.89353
|  9> C         -7.46900       -1.24615       -2.71383
| 10> H         -7.60191       -0.60135       -3.58533
| 11> H         -8.38979       -1.17344       -2.12692
| 12> H         -7.11825       -3.37982       -2.39805
| 13> H         -8.24184       -3.00474       -3.70651
| 14> H         -5.39124       -0.81034       -2.47415
| 15> H         -6.18709       -1.32597       -1.00655
| 16> H         -6.45393        0.28631       -1.62495
| 17> *
| 18> %MaxCore 64000
| 19>
| 20> %pal nprocs 8
| 21> end
| 22>
| 23> %scf
| 24>   MaxIter 150
| 25> end
| 26>
| 27>
| 28>                          ****END OF INPUT****

CARTESIAN COORDINATES (ANGSTROEM)
---------------------------------
  C     -7.330440   -2.678990   -3.206810
  S     -6.019660   -2.926970   -4.419130
  F     -5.645830   -1.588380   -4.919310
  O     -4.881960   -3.503700   -3.667240
  O     -6.549270   -3.805150   -5.425070
  C     -6.286920   -0.735880   -1.893530
  C     -7.469000   -1.246150   -2.713830
  H     -7.601910   -0.601350   -3.585330
  H     -8.389790   -1.173440   -2.126920
  H     -7.118250   -3.379820   -2.398050
  H     -8.241840   -3.004740   -3.706510
  H     -5.391240   -0.810340   -2.474150
  H     -6.187090   -1.325970   -1.006550
  H     -6.453930    0.286310   -1.624950

 Total Charge           Charge          ....    0
 Multiplicity           Mult            ....    1
 Number of Electrons    NEL             ....   66
 Basis Dimension        Dim             ....  340

ORBITAL ENERGIES
----------------

  NO   OCC          E(Eh)            E(eV)
   0   2.0000     -89.194328     -2427.1011
   1   2.0000     -24.891588      -677.3345
   2   2.0000     -19.246805      -523.7322
   3   2.0000     -19.231822      -523.3245
   4   2.0000     -10.337141      -281.2879
   5   2.0000     -10.310243      -280.5560
   6   2.0000     -10.278225      -279.6847
   7   2.0000      -8.257878      -224.7083
   8   2.0000      -6.215417      -169.1301
   9   2.0000      -6.208786      -168.9497
  10   2.0000      -6.208449      -168.9405
  11   2.0000      -1.473535       -40.0969
  12   2.0000      -1.223713       -33.2989
  13   2.0000      -1.123193       -30.5636
  14   2.0000      -0.957196       -26.0466
  15   2.0000      -0.867675       -23.6106
  16   2.0000      -0.812242       -22.1022
  17   2.0000      -0.748793       -20.3757
  18   2.0000      -0.690904       -18.8005
  19   2.0000      -0.673872       -18.3370
  20   2.0000      -0.646096       -17.5812
  21   2.0000      -0.596500       -16.2316
  22   2.0000      -0.583714       -15.8837
  23   2.0000      -0.563504       -15.3337
  24   2.0000      -0.547051       -14.8860
  25   2.0000      -0.534132       -14.5345
  26   2.0000      -0.491940       -13.3864
  27   2.0000      -0.485078       -13.1996
  28   2.0000      -0.474555       -12.9133
  29   2.0000      -0.464266       -12.6333
  30   2.0000      -0.428147       -11.6505
  31   2.0000      -0.415575       -11.3084
  32   2.0000      -0.405010       -11.0209
  33   0.0000       0.051407         1.3989
  34   0.0000       0.062175         1.6919
  35   0.0000       0.069859         1.9010
  36   0.0000       0.072495         1.9727
  37   0.0000       0.094285         2.5656

MULLIKEN ATOMIC CHARGES
-----------------------
   0 C :   -0.580620
   1 S :    1.224461
   2 F :   -0.173615
   3 O :   -0.610560
   4 O :   -0.589666
   5 C :   -1.240059
   6 C :   -0.268092
   7 H :    0.299258
   8 H :    0.287996
   9 H :    0.347531
  10 H :    0.290083
  11 H :    0.370880
  12 H :    0.324684
  13 H :    0.317719
Sum of atomic charges:    0.0000000

LOEWDIN ATOMIC CHARGES
----------------------
   0 C :   -0.228083
   1 S :    0.620054
   2 F :   -0.078429
   3 O :   -0.306569
   4 O :   -0.274077
   5 C :   -0.098049
   6 C :   -0.283440
   7 H :    0.106021
   8 H :    0.115137
   9 H :    0.114322
  10 H :    0.103249
  11 H :    0.060748
  12 H :    0.077130
  13 H :    0.071985

  Mayer bond orders larger than 0.100000
B(  0-C ,  1-S ) :   0.8256 B(  0-C ,  3-O ) :   0.1180 B(  0-C ,  4-O ) :   0.1118
B(  0-C ,  5-C ) :   0.1374 B(  0-C ,  6-C ) :   0.8266 B(  0-C ,  9-H ) :   0.8937
B(  0-C , 10-H ) :   0.9919 B(  1-S ,  2-F ) :   0.9792 B(  1-S ,  3-O ) :   1.6500
B(  1-S ,  4-O ) :   1.6379 B(  5-C ,  6-C ) :   0.6306 B(  5-C , 11-H ) :   0.8881
B(  5-C , 12-H ) :   0.9892 B(  5-C , 13-H ) :   0.9698 B(  6-C ,  7-H ) :   0.9251
B(  6-C ,  8-H ) :   0.9484

Dispersion correction           -0.004487415
FINAL SINGLE POINT ENERGY      -767.066925472323

DIPOLE MOMENT
-------------
                                X             Y             Z
Electronic contribution:      4.81284      -4.56351      -9.84048
Nuclear contribution   :     -5.93570       5.78812      10.65621
                        -----------------------------------------
Total Dipole Moment    :     -1.12285       1.22461       0.81573
                        -----------------------------------------
Magnitude (a.u.)       :      1.85091
Magnitude (Debye)      :      4.70465

Rotational constants in cm-1:     0.129417     0.054385     0.051980
Rotational constants in MHz :  3879.823072  1630.427453  1558.324762

                             ****ORCA TERMINATED NORMALLY****
TOTAL RUN TIME: 0 days 0 hours 0 minutes 51 seconds 818 msec
