                         Program Version 5.0.0 -  RELEASE  -
|  1> !wB97X-D3 RIJCOSX def2-TZVPD def2/J TightSCF
|  2> *xyz 0 1
|  3> C         -2.16038       -1.36949       -3.46710
|  4> C         -3.03011       -1.91086       -4.54107
|  5> C         -2.04772        0.14658       -3.51177
|  6> H         -3.47744       -2.79151       -4.25710
|  7> H         -2.53801       -2.01786       -5.43808
|  8> H         -3.89159       -1.37604       -4.71437
|  9> H         -1.18444       -1.84400       -3.56639
| 10> H         -2.59819       -1.70838       -2.52848
| 11> C         -3.32876        0.87504       -3.10367
| 12> H         -1.74003        0.45234       -4.51713
| 13> H         -1.23261        0.43494       -2.84221
| 14> H         -4.12483        0.59148       -3.76000
| 15> H         -3.17368        1.93185       -3.16688
| 16> H         -3.58415        0.61151       -2.09857
| 17> *
| 18> %MaxCore 64000
| 19>
| 20> %pal nprocs 8
| 21> end
| 22>
| 23> %scf
| 24>   MaxIter 150
| 25> end
| 26>
| 27>
| 28>                          ****END OF INPUT****

CARTESIAN COORDINATES (ANGSTROEM)
---------------------------------
  C     -2.160380   -1.369490   -3.467100
  C     -3.030110   -1.910860   -4.541070
  C     -2.047720    0.146580   -3.511770
  H     -3.477440   -2.791510   -4.257100
  H     -2.538010   -2.017860   -5.438080
  H     -3.891590   -1.376040   -4.714370
  H     -1.184440   -1.844000   -3.566390
  H     -2.598190   -1.708380   -2.528480
  C     -3.328760    0.875040   -3.103670
  H     -1.740030    0.452340   -4.517130
  H     -1.232610    0.434940   -2.842210
  H     -4.124830    0.591480   -3.760000
  H     -3.173680    1.931850   -3.166880
  H     -3.584150    0.611510   -2.098570

 Total Charge           Charge          ....    0
 Multiplicity           Mult            ....    1
 Number of Electrons    NEL             ....   34
 Basis Dimension        Dim             ....  238

ORBITAL ENERGIES
----------------

  NO   OCC          E(Eh)            E(eV)
   0   2.0000     -10.262884      -279.2673
   1   2.0000     -10.258771      -279.1554
   2   2.0000     -10.251246      -278.9506
   3   2.0000     -10.230565      -278.3878
   4   2.0000      -0.918921       -25.0051
   5   2.0000      -0.844575       -22.9821
   6   2.0000      -0.757807       -20.6210
   7   2.0000      -0.678152       -18.4535
   8   2.0000      -0.568035       -15.4570
   9   2.0000      -0.561045       -15.2668
  10   2.0000      -0.527153       -14.3446
  11   2.0000      -0.484648       -13.1879
  12   2.0000      -0.473980       -12.8977
  13   2.0000      -0.459379       -12.5004
  14   2.0000      -0.415384       -11.3032
  15   2.0000      -0.413857       -11.2616
  16   2.0000      -0.410348       -11.1661
  17   0.0000       0.076866         2.0916
  18   0.0000       0.093611         2.5473
  19   0.0000       0.095659         2.6030
  20   0.0000       0.098134         2.6704
  21   0.0000       0.141312         3.8453

MULLIKEN ATOMIC CHARGES
-----------------------
   0 C :   -0.126867
   1 C :   -1.518181
   2 C :   -0.219100
   3 H :    0.381051
   4 H :    0.374934
   5 H :    0.375592
   6 H :    0.201189
   7 H :    0.274009
   8 C :   -1.229851
   9 H :    0.286544
  10 H :    0.239965
  11 H :    0.321976
  12 H :    0.312367
  13 H :    0.326372
Sum of atomic charges:   -0.0000000

LOEWDIN ATOMIC CHARGES
----------------------
   0 C :   -0.274315
   1 C :   -0.122691
   2 C :   -0.271887
   3 H :    0.055065
   4 H :    0.060479
   5 H :    0.047249
   6 H :    0.107247
   7 H :    0.108462
   8 C :   -0.108661
   9 H :    0.108978
  10 H :    0.101006
  11 H :    0.057365
  12 H :    0.063323
  13 H :    0.068379

  Mayer bond orders larger than 0.100000
B(  0-C ,  1-C ) :   0.5923 B(  0-C ,  2-C ) :   0.7714 B(  0-C ,  6-H ) :   1.0087
B(  0-C ,  7-H ) :   0.9585 B(  0-C ,  8-C ) :   0.1069 B(  1-C ,  2-C ) :   0.1425
B(  1-C ,  3-H ) :   0.9318 B(  1-C ,  4-H ) :   0.9325 B(  1-C ,  5-H ) :   0.8963
B(  1-C ,  8-C ) :   0.1449 B(  2-C ,  8-C ) :   0.6293 B(  2-C ,  9-H ) :   0.9524
B(  2-C , 10-H ) :   0.9867 B(  8-C , 11-H ) :   0.9563 B(  8-C , 12-H ) :   0.9627
B(  8-C , 13-H ) :   0.9683

Dispersion correction           -0.002735097
FINAL SINGLE POINT ENERGY      -158.453195671466

DIPOLE MOMENT
-------------
                                X             Y             Z
Electronic contribution:      0.86585       0.03340       0.25397
Nuclear contribution   :     -0.87438      -0.05339      -0.25605
                        -----------------------------------------
Total Dipole Moment    :     -0.00853      -0.01999      -0.00208
                        -----------------------------------------
Magnitude (a.u.)       :      0.02183
Magnitude (Debye)      :      0.05549

Rotational constants in cm-1:     0.464420     0.160323     0.139078
Rotational constants in MHz : 13922.972952  4806.377145  4169.443621

                             ****ORCA TERMINATED NORMALLY****
TOTAL RUN TIME: 0 days 0 hours 0 minutes 21 seconds 434 msec
