                         Program Version 5.0.0 -  RELEASE  -
|  1> !wB97X-D3 RIJCOSX def2-TZVPD def2/J TightSCF
|  2> *xyz 0 1
|  3> C         -7.33044       -2.67899       -3.20681
|  4> S         -6.01966       -2.92697       -4.41913
|  5> O         -5.64583       -1.58838       -4.91931
|  6> F         -4.88196       -3.50370       -3.66724
|  7> O         -6.54927       -3.80515       -5.42507
|  8> C         -6.28692       -0.73588       -1.89353
|  9> C         -7.46900       -1.24615       -2.71383
| 10> H         -7.60191       -0.60135       -3.58533
| 11> H         -8.38979       -1.17344       -2.12692
| 12> H         -7.11825       -3.37982       -2.39805
| 13> H         -8.24184       -3.00474       -3.70651
| 14> H         -5.39124       -0.81034       -2.47415
| 15> H         -6.18709       -1.32597       -1.00655
| 16> H         -6.45393        0.28631       -1.62495
| 17> *
| 18> %MaxCore 64000
| 19>
| 20> %pal nprocs 8
| 21> end
| 22>
| 23> %scf
| 24>   MaxIter 150
| 25> end
| 26>
| 27>
| 28>                          ****END OF INPUT****

CARTESIAN COORDINATES (ANGSTROEM)
---------------------------------
  C     -7.330440   -2.678990   -3.206810
  S     -6.019660   -2.926970   -4.419130
  O     -5.645830   -1.588380   -4.919310
  F     -4.881960   -3.503700   -3.667240
  O     -6.549270   -3.805150   -5.425070
  C     -6.286920   -0.735880   -1.893530
  C     -7.469000   -1.246150   -2.713830
  H     -7.601910   -0.601350   -3.585330
  H     -8.389790   -1.173440   -2.126920
  H     -7.118250   -3.379820   -2.398050
  H     -8.241840   -3.004740   -3.706510
  H     -5.391240   -0.810340   -2.474150
  H     -6.187090   -1.325970   -1.006550
  H     -6.453930    0.286310   -1.624950

 Total Charge           Charge          ....    0
 Multiplicity           Mult            ....    1
 Number of Electrons    NEL             ....   66
 Basis Dimension        Dim             ....  340

ORBITAL ENERGIES
----------------

  NO   OCC          E(Eh)            E(eV)
   0   2.0000     -89.194935     -2427.1176
   1   2.0000     -24.888472      -677.2498
   2   2.0000     -19.247250      -523.7443
   3   2.0000     -19.235752      -523.4314
   4   2.0000     -10.337773      -281.3051
   5   2.0000     -10.301889      -280.3286
   6   2.0000     -10.271941      -279.5137
   7   2.0000      -8.258458      -224.7241
   8   2.0000      -6.215924      -169.1439
   9   2.0000      -6.209583      -168.9714
  10   2.0000      -6.208909      -168.9530
  11   2.0000      -1.469555       -39.9886
  12   2.0000      -1.225296       -33.3420
  13   2.0000      -1.127466       -30.6799
  14   2.0000      -0.951846       -25.9010
  15   2.0000      -0.866747       -23.5854
  16   2.0000      -0.809662       -22.0320
  17   2.0000      -0.742822       -20.2132
  18   2.0000      -0.676916       -18.4198
  19   2.0000      -0.669612       -18.2211
  20   2.0000      -0.656924       -17.8758
  21   2.0000      -0.598320       -16.2811
  22   2.0000      -0.587280       -15.9807
  23   2.0000      -0.552697       -15.0396
  24   2.0000      -0.544888       -14.8272
  25   2.0000      -0.535168       -14.5627
  26   2.0000      -0.491378       -13.3711
  27   2.0000      -0.478966       -13.0333
  28   2.0000      -0.464844       -12.6491
  29   2.0000      -0.459040       -12.4911
  30   2.0000      -0.426882       -11.6160
  31   2.0000      -0.423188       -11.5155
  32   2.0000      -0.408773       -11.1233
  33   0.0000       0.053464         1.4548
  34   0.0000       0.062654         1.7049
  35   0.0000       0.070846         1.9278
  36   0.0000       0.071476         1.9450
  37   0.0000       0.098218         2.6726

MULLIKEN ATOMIC CHARGES
-----------------------
   0 C :   -0.736518
   1 S :    1.225750
   2 O :   -0.618118
   3 F :   -0.162284
   4 O :   -0.592903
   5 C :   -1.314678
   6 C :   -0.115635
   7 H :    0.297505
   8 H :    0.302043
   9 H :    0.394309
  10 H :    0.297859
  11 H :    0.376476
  12 H :    0.338726
  13 H :    0.307468
Sum of atomic charges:    0.0000000

LOEWDIN ATOMIC CHARGES
----------------------
   0 C :   -0.230865
   1 S :    0.625388
   2 O :   -0.297106
   3 F :   -0.082859
   4 O :   -0.274172
   5 C :   -0.100924
   6 C :   -0.279822
   7 H :    0.109995
   8 H :    0.114980
   9 H :    0.105250
  10 H :    0.106679
  11 H :    0.059237
  12 H :    0.071660
  13 H :    0.072560

  Mayer bond orders larger than 0.100000
B(  0-C ,  1-S ) :   0.8518 B(  0-C ,  4-O ) :   0.1231 B(  0-C ,  5-C ) :   0.2726
B(  0-C ,  6-C ) :   0.7847 B(  0-C ,  9-H ) :   0.8406 B(  0-C , 10-H ) :   0.9778
B(  1-S ,  2-O ) :   1.6489 B(  1-S ,  3-F ) :   0.9647 B(  1-S ,  4-O ) :   1.6318
B(  5-C ,  6-C ) :   0.5401 B(  5-C , 11-H ) :   0.8942 B(  5-C , 12-H ) :   0.9716
B(  5-C , 13-H ) :   0.9692 B(  6-C ,  7-H ) :   0.9272 B(  6-C ,  8-H ) :   0.9370

Dispersion correction           -0.004440525
FINAL SINGLE POINT ENERGY      -767.070637050647

DIPOLE MOMENT
-------------
                                X             Y             Z
Electronic contribution:      6.17000      -7.88035      -7.73298
Nuclear contribution   :     -6.75719       7.84793       9.30968
                        -----------------------------------------
Total Dipole Moment    :     -0.58720      -0.03242       1.57670
                        -----------------------------------------
Magnitude (a.u.)       :      1.68280
Magnitude (Debye)      :      4.27734

Rotational constants in cm-1:     0.129104     0.054499     0.051192
Rotational constants in MHz :  3870.429564  1633.827608  1534.709243

                             ****ORCA TERMINATED NORMALLY****
TOTAL RUN TIME: 0 days 0 hours 0 minutes 51 seconds 560 msec
