                         Program Version 5.0.0 -  RELEASE  -
|  1> !wB97X-D3 RIJCOSX def2-TZVPD def2/J TightSCF
|  2> *xyz 0 1
|  3> C         -7.33044       -2.67899       -3.20681
|  4> S         -6.01966       -2.92697       -4.41913
|  5> O         -5.64583       -1.58838       -4.91931
|  6> O         -4.88196       -3.50370       -3.66724
|  7> F         -6.54927       -3.80515       -5.42507
|  8> C         -6.28692       -0.73588       -1.89353
|  9> C         -7.46900       -1.24615       -2.71383
| 10> H         -7.60191       -0.60135       -3.58533
| 11> H         -8.38979       -1.17344       -2.12692
| 12> H         -7.11825       -3.37982       -2.39805
| 13> H         -8.24184       -3.00474       -3.70651
| 14> H         -5.39124       -0.81034       -2.47415
| 15> H         -6.18709       -1.32597       -1.00655
| 16> H         -6.45393        0.28631       -1.62495
| 17> *
| 18> %MaxCore 64000
| 19>
| 20> %pal nprocs 8
| 21> end
| 22>
| 23> %scf
| 24>   MaxIter 150
| 25> end
| 26>
| 27>
| 28>                          ****END OF INPUT****

CARTESIAN COORDINATES (ANGSTROEM)
---------------------------------
  C     -7.330440   -2.678990   -3.206810
  S     -6.019660   -2.926970   -4.419130
  O     -5.645830   -1.588380   -4.919310
  O     -4.881960   -3.503700   -3.667240
  F     -6.549270   -3.805150   -5.425070
  C     -6.286920   -0.735880   -1.893530
  C     -7.469000   -1.246150   -2.713830
  H     -7.601910   -0.601350   -3.585330
  H     -8.389790   -1.173440   -2.126920
  H     -7.118250   -3.379820   -2.398050
  H     -8.241840   -3.004740   -3.706510
  H     -5.391240   -0.810340   -2.474150
  H     -6.187090   -1.325970   -1.006550
  H     -6.453930    0.286310   -1.624950

 Total Charge           Charge          ....    0
 Multiplicity           Mult            ....    1
 Number of Electrons    NEL             ....   66
 Basis Dimension        Dim             ....  340

ORBITAL ENERGIES
----------------

  NO   OCC          E(Eh)            E(eV)
   0   2.0000     -89.197511     -2427.1877
   1   2.0000     -24.911362      -677.8726
   2   2.0000     -19.236829      -523.4607
   3   2.0000     -19.233495      -523.3700
   4   2.0000     -10.338386      -281.3218
   5   2.0000     -10.301527      -280.3188
   6   2.0000     -10.264110      -279.3006
   7   2.0000      -8.261048      -224.7946
   8   2.0000      -6.218351      -169.2099
   9   2.0000      -6.212027      -169.0379
  10   2.0000      -6.211667      -169.0280
  11   2.0000      -1.506784       -41.0017
  12   2.0000      -1.209956       -32.9246
  13   2.0000      -1.110858       -30.2280
  14   2.0000      -0.950349       -25.8603
  15   2.0000      -0.871790       -23.7226
  16   2.0000      -0.820014       -22.3137
  17   2.0000      -0.745408       -20.2836
  18   2.0000      -0.697505       -18.9801
  19   2.0000      -0.691503       -18.8168
  20   2.0000      -0.659261       -17.9394
  21   2.0000      -0.592973       -16.1356
  22   2.0000      -0.587019       -15.9736
  23   2.0000      -0.557308       -15.1651
  24   2.0000      -0.540210       -14.6999
  25   2.0000      -0.520624       -14.1669
  26   2.0000      -0.482828       -13.1384
  27   2.0000      -0.469092       -12.7646
  28   2.0000      -0.465904       -12.6779
  29   2.0000      -0.450597       -12.2614
  30   2.0000      -0.422450       -11.4954
  31   2.0000      -0.414496       -11.2790
  32   2.0000      -0.395925       -10.7737
  33   0.0000       0.046829         1.2743
  34   0.0000       0.063155         1.7185
  35   0.0000       0.065894         1.7931
  36   0.0000       0.075456         2.0533
  37   0.0000       0.093955         2.5566

MULLIKEN ATOMIC CHARGES
-----------------------
   0 C :   -0.720657
   1 S :    1.208376
   2 O :   -0.615126
   3 O :   -0.608530
   4 F :   -0.101298
   5 C :   -1.309616
   6 C :   -0.176002
   7 H :    0.287501
   8 H :    0.290262
   9 H :    0.346160
  10 H :    0.357226
  11 H :    0.392527
  12 H :    0.332886
  13 H :    0.316290
Sum of atomic charges:   -0.0000000

LOEWDIN ATOMIC CHARGES
----------------------
   0 C :   -0.236147
   1 S :    0.625042
   2 O :   -0.298315
   3 O :   -0.304807
   4 F :   -0.049810
   5 C :   -0.096357
   6 C :   -0.277758
   7 H :    0.107751
   8 H :    0.114944
   9 H :    0.108754
  10 H :    0.097482
  11 H :    0.063583
  12 H :    0.073940
  13 H :    0.071699

  Mayer bond orders larger than 0.100000
B(  0-C ,  1-S ) :   0.8419 B(  0-C ,  3-O ) :   0.1274 B(  0-C ,  5-C ) :   0.2184
B(  0-C ,  6-C ) :   0.8563 B(  0-C ,  9-H ) :   0.9197 B(  0-C , 10-H ) :   0.8738
B(  1-S ,  2-O ) :   1.6542 B(  1-S ,  3-O ) :   1.6532 B(  1-S ,  4-F ) :   1.0024
B(  5-C ,  6-C ) :   0.6195 B(  5-C , 11-H ) :   0.8946 B(  5-C , 12-H ) :   0.9681
B(  5-C , 13-H ) :   0.9548 B(  6-C ,  7-H ) :   0.9157 B(  6-C ,  8-H ) :   0.9359

Dispersion correction           -0.004488984
FINAL SINGLE POINT ENERGY      -767.052265928244

DIPOLE MOMENT
-------------
                                X             Y             Z
Electronic contribution:      3.29526      -8.41055     -10.79915
Nuclear contribution   :     -4.96410       8.17213      11.20012
                        -----------------------------------------
Total Dipole Moment    :     -1.66884      -0.23843       0.40097
                        -----------------------------------------
Magnitude (a.u.)       :      1.73281
Magnitude (Debye)      :      4.40446

Rotational constants in cm-1:     0.133784     0.053405     0.050278
Rotational constants in MHz :  4010.731548  1601.045142  1507.298018

                             ****ORCA TERMINATED NORMALLY****
TOTAL RUN TIME: 0 days 0 hours 0 minutes 53 seconds 493 msec
