                         Program Version 5.0.0 -  RELEASE  -
|  1> !wB97X-D3 RIJCOSX def2-TZVPD def2/J TightSCF xyzfile
|  2>
|  3> *xyzfile 0 1 D1.xyz
|  4>
|  5> %MaxCore 64000
|  6>
|  7> %pal nprocs 18
|  8> end
|  9>
| 10> %scf
| 11>   MaxIter 150
| 12> end
| 13>
| 14>
| 15>                          ****END OF INPUT****

CARTESIAN COORDINATES (ANGSTROEM)
---------------------------------
  C     -2.160376   -1.369486   -3.467104
  C     -3.030108   -1.910857   -4.541074
  C     -2.047717    0.146583   -3.511774
  C     -7.330440   -2.678991   -3.206811
  S     -6.019659   -2.926965   -4.419128
  H     -3.477443   -2.791513   -4.257096
  H     -2.538013   -2.017860   -5.438075
  H     -3.891589   -1.376039   -4.714365
  F     -5.645830   -1.588384   -4.919307
  O     -4.881961   -3.503697   -3.667235
  H     -1.184438   -1.843997   -3.566393
  H     -2.598195   -1.708376   -2.528477
  O     -6.549267   -3.805150   -5.425071
  C     -3.328755    0.875037   -3.103669
  H     -1.740034    0.452343   -4.517126
  H     -1.232611    0.434938   -2.842208
  C     -3.628487    0.771601   -1.609363
  H     -4.175106    0.490791   -3.682203
  H     -3.237812    1.928663   -3.381480
  C     -4.975718    1.361432   -1.190644
  H     -2.830700    1.276234   -1.054766
  H     -3.594312   -0.275838   -1.294603
  C     -6.184720    0.784347   -1.926464
  H     -4.956292    2.445725   -1.342200
  H     -5.097256    1.205252   -0.114136
  C     -6.286921   -0.735882   -1.893531
  H     -6.163994    1.100199   -2.974250
  H     -7.094530    1.223459   -1.504509
  C     -7.468999   -1.246153   -2.713833
  H     -6.360641   -1.090347   -0.859176
  H     -5.369848   -1.171853   -2.295982
  H     -7.601914   -0.601349   -3.585329
  H     -8.389791   -1.173436   -2.126922
  H     -7.118254   -3.379818   -2.398055
  H     -8.241838   -3.004745   -3.706513

 Total Charge           Charge          ....    0
 Multiplicity           Mult            ....    1
 Number of Electrons    NEL             ....  122
 Basis Dimension        Dim             ....  725

ORBITAL ENERGIES
----------------

  NO   OCC          E(Eh)            E(eV)
   0   2.0000     -89.200263     -2427.2626
   1   2.0000     -24.896694      -677.4735
   2   2.0000     -19.252208      -523.8792
   3   2.0000     -19.236738      -523.4583
   4   2.0000     -10.340211      -281.3714
   5   2.0000     -10.309066      -280.5239
   6   2.0000     -10.287666      -279.9416
   7   2.0000     -10.279991      -279.7328
   8   2.0000     -10.273064      -279.5443
   9   2.0000     -10.266088      -279.3544
  10   2.0000     -10.263688      -279.2892
  11   2.0000     -10.256056      -279.0815
  12   2.0000     -10.245708      -278.7999
  13   2.0000     -10.196106      -277.4501
  14   2.0000      -8.264070      -224.8768
  15   2.0000      -6.221576      -169.2977
  16   2.0000      -6.214878      -169.1154
  17   2.0000      -6.214714      -169.1110
  18   2.0000      -1.482125       -40.3307
  19   2.0000      -1.231048       -33.4985
  20   2.0000      -1.133671       -30.8487
  21   2.0000      -0.965945       -26.2847
  22   2.0000      -0.934403       -25.4264
  23   2.0000      -0.905332       -24.6353
  24   2.0000      -0.876484       -23.8503
  25   2.0000      -0.835323       -22.7303
  26   2.0000      -0.819879       -22.3100
  27   2.0000      -0.783902       -21.3311
  28   2.0000      -0.749338       -20.3905
  29   2.0000      -0.732194       -19.9240
  30   2.0000      -0.699714       -19.0402
  31   2.0000      -0.690174       -18.7806
  32   2.0000      -0.675759       -18.3883
  33   2.0000      -0.657770       -17.8988
  34   2.0000      -0.653890       -17.7933
  35   2.0000      -0.601291       -16.3620
  36   2.0000      -0.593688       -16.1551
  37   2.0000      -0.579995       -15.7825
  38   2.0000      -0.571334       -15.5468
  39   2.0000      -0.564605       -15.3637
  40   2.0000      -0.551079       -14.9956
  41   2.0000      -0.537809       -14.6345
  42   2.0000      -0.532507       -14.4902
  43   2.0000      -0.526966       -14.3395
  44   2.0000      -0.510437       -13.8897
  45   2.0000      -0.494679       -13.4609
  46   2.0000      -0.488344       -13.2885
  47   2.0000      -0.486561       -13.2400
  48   2.0000      -0.471824       -12.8390
  49   2.0000      -0.462662       -12.5897
  50   2.0000      -0.451410       -12.2835
  51   2.0000      -0.448274       -12.1982
  52   2.0000      -0.434586       -11.8257
  53   2.0000      -0.429240       -11.6802
  54   2.0000      -0.423906       -11.5351
  55   2.0000      -0.417104       -11.3500
  56   2.0000      -0.410414       -11.1679
  57   2.0000      -0.406852       -11.0710
  58   2.0000      -0.396165       -10.7802
  59   2.0000      -0.393200       -10.6995
  60   2.0000      -0.369467       -10.0537
  61   0.0000       0.046617         1.2685
  62   0.0000       0.058472         1.5911
  63   0.0000       0.067987         1.8500
  64   0.0000       0.072155         1.9634
  65   0.0000       0.081854         2.2274

MULLIKEN ATOMIC CHARGES
-----------------------
   0 C :   -0.003401
   1 C :   -1.912721
   2 C :   -0.656771
   3 C :   -0.773063
   4 S :    1.239455
   5 H :    0.609928
   6 H :    0.510284
   7 H :    0.473992
   8 F :   -0.220586
   9 O :   -0.641482
  10 H :    0.266831
  11 H :    0.198244
  12 O :   -0.614978
  13 C :   -0.204408
  14 H :    0.311937
  15 H :    0.261946
  16 C :   -0.424861
  17 H :   -0.033819
  18 H :    0.299074
  19 C :   -0.891321
  20 H :    0.335533
  21 H :    0.199938
  22 C :   -0.562894
  23 H :    0.286336
  24 H :    0.307107
  25 C :    0.046326
  26 H :    0.329680
  27 H :    0.330189
  28 C :   -0.716501
  29 H :    0.349550
  30 H :   -0.086248
  31 H :    0.289617
  32 H :    0.384910
  33 H :    0.379820
  34 H :    0.332356
Sum of atomic charges:    0.0000000

LOEWDIN ATOMIC CHARGES
----------------------
   0 C :   -0.237249
   1 C :   -0.132602
   2 C :   -0.210893
   3 C :   -0.206303
   4 S :    0.655508
   5 H :    0.001939
   6 H :    0.073562
   7 H :    0.018711
   8 F :   -0.094224
   9 O :   -0.303771
  10 H :    0.111960
  11 H :    0.102863
  12 O :   -0.255872
  13 C :   -0.208840
  14 H :    0.114121
  15 H :    0.107873
  16 C :   -0.217008
  17 H :    0.090953
  18 H :    0.116930
  19 C :   -0.209828
  20 H :    0.116373
  21 H :    0.100154
  22 C :   -0.217793
  23 H :    0.111553
  24 H :    0.110728
  25 C :   -0.212988
  26 H :    0.108445
  27 H :    0.116787
  28 C :   -0.231178
  29 H :    0.131030
  30 H :    0.090753
  31 H :    0.111507
  32 H :    0.124029
  33 H :    0.117562
  34 H :    0.105207

  Mayer bond orders larger than 0.100000
B(  0-C ,  1-C ) :   0.3622 B(  0-C ,  2-C ) :   0.7599 B(  0-C ,  7-H ) :  -0.1045
B(  0-C , 10-H ) :   0.9188 B(  0-C , 11-H ) :   1.0076 B(  0-C , 16-C ) :   0.1296
B(  1-C ,  2-C ) :   0.3959 B(  1-C ,  5-H ) :   0.7541 B(  1-C ,  6-H ) :   0.6311
B(  1-C ,  7-H ) :   1.0077 B(  1-C ,  8-F ) :   0.1974 B(  1-C ,  9-O ) :   0.1356
B(  2-C , 13-C ) :   1.0310 B(  2-C , 14-H ) :   0.9036 B(  2-C , 15-H ) :   0.9221
B(  2-C , 16-C ) :   0.3420 B(  3-C ,  4-S ) :   0.8627 B(  3-C ,  9-O ) :   0.1202
B(  3-C , 12-O ) :   0.1696 B(  3-C , 25-C ) :   0.1989 B(  3-C , 28-C ) :   0.8317
B(  3-C , 33-H ) :   0.8462 B(  3-C , 34-H ) :   0.9938 B(  4-S ,  8-F ) :   1.0645
B(  4-S ,  9-O ) :   1.6077 B(  4-S , 12-O ) :   1.3794 B(  5-H ,  9-O ) :  -0.1949
B(  7-H ,  8-F ) :  -0.2224 B( 13-C , 16-C ) :   0.3510 B( 13-C , 17-H ) :   1.1956
B( 13-C , 18-H ) :   0.8300 B( 13-C , 19-C ) :   0.3323 B( 13-C , 21-H ) :  -0.1236
B( 13-C , 22-C ) :   0.1520 B( 16-C , 19-C ) :   0.9781 B( 16-C , 20-H ) :   0.8611
B( 16-C , 21-H ) :   1.0743 B( 19-C , 22-C ) :   0.9183 B( 19-C , 23-H ) :   0.9586
B( 19-C , 24-H ) :   0.9241 B( 19-C , 25-C ) :   0.3274 B( 22-C , 25-C ) :   0.3996
B( 22-C , 26-H ) :   0.9539 B( 22-C , 27-H ) :   0.8525 B( 22-C , 28-C ) :   0.5711
B( 25-C , 26-H ) :  -0.1514 B( 25-C , 28-C ) :   0.3719 B( 25-C , 29-H ) :   0.7619
B( 25-C , 30-H ) :   1.3759 B( 26-H , 28-C ) :   0.1082 B( 28-C , 29-H ) :  -0.1425
B( 28-C , 31-H ) :   0.9621 B( 28-C , 32-H ) :   0.8663 B( 29-H , 30-H ) :   0.1104

Dispersion correction           -0.018496574
FINAL SINGLE POINT ENERGY     -1042.242608094902

DIPOLE MOMENT
-------------
                                X             Y             Z
Electronic contribution:    -10.86534     -16.18617     -13.17683
Nuclear contribution   :      9.63012      17.20461      14.03552
                        -----------------------------------------
Total Dipole Moment    :     -1.23522       1.01844       0.85869
                        -----------------------------------------
Magnitude (a.u.)       :      1.81668
Magnitude (Debye)      :      4.61763

Rotational constants in cm-1:     0.025899     0.015189     0.010690
Rotational constants in MHz :   776.424978   455.369614   320.488876

                             ****ORCA TERMINATED NORMALLY****
TOTAL RUN TIME: 0 days 0 hours 3 minutes 2 seconds 895 msec
