                         Program Version 5.0.0 -  RELEASE  -
|  1> !wB97X-D3 RIJCOSX def2-TZVPD def2/J TightSCF xyzfile
|  2>
|  3> *xyzfile 0 1 D3.xyz
|  4>
|  5> %MaxCore 64000
|  6>
|  7> %pal nprocs 18
|  8> end
|  9>
| 10> %scf
| 11>   MaxIter 150
| 12> end
| 13>
| 14>
| 15>                          ****END OF INPUT****

CARTESIAN COORDINATES (ANGSTROEM)
---------------------------------
  C     -2.160376   -1.369486   -3.467104
  C     -3.030108   -1.910857   -4.541074
  C     -2.047717    0.146583   -3.511774
  C     -7.330440   -2.678991   -3.206811
  S     -6.019659   -2.926965   -4.419128
  H     -3.477443   -2.791513   -4.257096
  H     -2.538013   -2.017860   -5.438075
  H     -3.891589   -1.376039   -4.714365
  O     -5.645830   -1.588384   -4.919307
  O     -4.881961   -3.503697   -3.667235
  H     -1.184438   -1.843997   -3.566393
  H     -2.598195   -1.708376   -2.528477
  F     -6.549267   -3.805150   -5.425071
  C     -3.328755    0.875037   -3.103669
  H     -1.740034    0.452343   -4.517126
  H     -1.232611    0.434938   -2.842208
  C     -3.628487    0.771601   -1.609363
  H     -4.175106    0.490791   -3.682203
  H     -3.237812    1.928663   -3.381480
  C     -4.975718    1.361432   -1.190644
  H     -2.830700    1.276234   -1.054766
  H     -3.594312   -0.275838   -1.294603
  C     -6.184720    0.784347   -1.926464
  H     -4.956292    2.445725   -1.342200
  H     -5.097256    1.205252   -0.114136
  C     -6.286921   -0.735882   -1.893531
  H     -6.163994    1.100199   -2.974250
  H     -7.094530    1.223459   -1.504509
  C     -7.468999   -1.246153   -2.713833
  H     -6.360641   -1.090347   -0.859176
  H     -5.369848   -1.171853   -2.295982
  H     -7.601914   -0.601349   -3.585329
  H     -8.389791   -1.173436   -2.126922
  H     -7.118254   -3.379818   -2.398055
  H     -8.241838   -3.004745   -3.706513

 Total Charge           Charge          ....    0
 Multiplicity           Mult            ....    1
 Number of Electrons    NEL             ....  122
 Basis Dimension        Dim             ....  725

ORBITAL ENERGIES
----------------

  NO   OCC          E(Eh)            E(eV)
   0   2.0000     -89.206804     -2427.4405
   1   2.0000     -24.919030      -678.0813
   2   2.0000     -19.245140      -523.6869
   3   2.0000     -19.241956      -523.6002
   4   2.0000     -10.343033      -281.4482
   5   2.0000     -10.302619      -280.3485
   6   2.0000     -10.276538      -279.6388
   7   2.0000     -10.268847      -279.4295
   8   2.0000     -10.263137      -279.2742
   9   2.0000     -10.255013      -279.0531
  10   2.0000     -10.249091      -278.8919
  11   2.0000     -10.243274      -278.7337
  12   2.0000     -10.231666      -278.4178
  13   2.0000     -10.174101      -276.8514
  14   2.0000      -8.270515      -225.0522
  15   2.0000      -6.227892      -169.4696
  16   2.0000      -6.221391      -169.2926
  17   2.0000      -6.221169      -169.2866
  18   2.0000      -1.514475       -41.2110
  19   2.0000      -1.223917       -33.3045
  20   2.0000      -1.124880       -30.6096
  21   2.0000      -0.959704       -26.1149
  22   2.0000      -0.925067       -25.1723
  23   2.0000      -0.895219       -24.3602
  24   2.0000      -0.873403       -23.7665
  25   2.0000      -0.837905       -22.8005
  26   2.0000      -0.813171       -22.1275
  27   2.0000      -0.775813       -21.1109
  28   2.0000      -0.740297       -20.1445
  29   2.0000      -0.720309       -19.6006
  30   2.0000      -0.706481       -19.2243
  31   2.0000      -0.698407       -19.0046
  32   2.0000      -0.673845       -18.3362
  33   2.0000      -0.667453       -18.1623
  34   2.0000      -0.640960       -17.4414
  35   2.0000      -0.603195       -16.4138
  36   2.0000      -0.591068       -16.0838
  37   2.0000      -0.574943       -15.6450
  38   2.0000      -0.569751       -15.5037
  39   2.0000      -0.561225       -15.2717
  40   2.0000      -0.546755       -14.8780
  41   2.0000      -0.530229       -14.4283
  42   2.0000      -0.519582       -14.1385
  43   2.0000      -0.515777       -14.0350
  44   2.0000      -0.503083       -13.6896
  45   2.0000      -0.484677       -13.1887
  46   2.0000      -0.479988       -13.0611
  47   2.0000      -0.473554       -12.8860
  48   2.0000      -0.460478       -12.5303
  49   2.0000      -0.449298       -12.2260
  50   2.0000      -0.442484       -12.0406
  51   2.0000      -0.432005       -11.7555
  52   2.0000      -0.428440       -11.6585
  53   2.0000      -0.425169       -11.5694
  54   2.0000      -0.416497       -11.3334
  55   2.0000      -0.406431       -11.0595
  56   2.0000      -0.399725       -10.8771
  57   2.0000      -0.395301       -10.7567
  58   2.0000      -0.380319       -10.3490
  59   2.0000      -0.371619       -10.1123
  60   2.0000      -0.357178        -9.7193
  61   0.0000       0.037747         1.0272
  62   0.0000       0.058913         1.6031
  63   0.0000       0.060196         1.6380
  64   0.0000       0.074770         2.0346
  65   0.0000       0.084981         2.3124

MULLIKEN ATOMIC CHARGES
-----------------------
   0 C :    0.005773
   1 C :   -1.878101
   2 C :   -0.649024
   3 C :   -0.957662
   4 S :    1.200764
   5 H :    0.513580
   6 H :    0.491631
   7 H :    0.541453
   8 O :   -0.665757
   9 O :   -0.632716
  10 H :    0.259333
  11 H :    0.192487
  12 F :   -0.101106
  13 C :   -0.232898
  14 H :    0.308136
  15 H :    0.261575
  16 C :   -0.439006
  17 H :    0.025195
  18 H :    0.284204
  19 C :   -0.872288
  20 H :    0.333419
  21 H :    0.196657
  22 C :   -0.610506
  23 H :    0.282619
  24 H :    0.304573
  25 C :    0.055025
  26 H :    0.343417
  27 H :    0.337109
  28 C :   -0.595751
  29 H :    0.349109
  30 H :   -0.130768
  31 H :    0.294476
  32 H :    0.390671
  33 H :    0.376521
  34 H :    0.417857
Sum of atomic charges:   -0.0000000

LOEWDIN ATOMIC CHARGES
----------------------
   0 C :   -0.240983
   1 C :   -0.138213
   2 C :   -0.211502
   3 C :   -0.213906
   4 S :    0.676776
   5 H :    0.000523
   6 H :    0.070635
   7 H :    0.005869
   8 O :   -0.295033
   9 O :   -0.301395
  10 H :    0.108452
  11 H :    0.101095
  12 F :   -0.034581
  13 C :   -0.206760
  14 H :    0.113481
  15 H :    0.105760
  16 C :   -0.218078
  17 H :    0.095030
  18 H :    0.115745
  19 C :   -0.211040
  20 H :    0.114838
  21 H :    0.099410
  22 C :   -0.215847
  23 H :    0.110663
  24 H :    0.109169
  25 C :   -0.211134
  26 H :    0.111315
  27 H :    0.115195
  28 C :   -0.226040
  29 H :    0.128466
  30 H :    0.093189
  31 H :    0.112746
  32 H :    0.124175
  33 H :    0.112276
  34 H :    0.099702

  Mayer bond orders larger than 0.100000
B(  0-C ,  1-C ) :   0.3178 B(  0-C ,  2-C ) :   0.7837 B(  0-C , 10-H ) :   0.9265
B(  0-C , 11-H ) :   0.9996 B(  0-C , 16-C ) :   0.1298 B(  1-C ,  2-C ) :   0.3893
B(  1-C ,  5-H ) :   0.8777 B(  1-C ,  6-H ) :   0.6754 B(  1-C ,  7-H ) :   0.9281
B(  1-C ,  8-O ) :   0.1448 B(  2-C , 13-C ) :   1.0163 B(  2-C , 14-H ) :   0.9031
B(  2-C , 15-H ) :   0.9270 B(  2-C , 16-C ) :   0.3505 B(  3-C ,  4-S ) :   0.8481
B(  3-C ,  9-O ) :   0.1376 B(  3-C , 12-F ) :   0.1126 B(  3-C , 25-C ) :   0.2828
B(  3-C , 28-C ) :   0.8176 B(  3-C , 33-H ) :   0.8736 B(  3-C , 34-H ) :   0.8448
B(  4-S ,  8-O ) :   1.7217 B(  4-S ,  9-O ) :   1.6591 B(  4-S , 12-F ) :   0.8524
B(  5-H ,  9-O ) :  -0.1848 B(  7-H ,  8-O ) :  -0.2261 B(  8-O ,  9-O ) :   0.1559
B( 13-C , 16-C ) :   0.3357 B( 13-C , 17-H ) :   1.2078 B( 13-C , 18-H ) :   0.8321
B( 13-C , 19-C ) :   0.3167 B( 13-C , 21-H ) :  -0.1209 B( 13-C , 22-C ) :   0.1659
B( 16-C , 19-C ) :   0.9642 B( 16-C , 20-H ) :   0.8658 B( 16-C , 21-H ) :   1.0783
B( 16-C , 25-C ) :   0.1039 B( 19-C , 22-C ) :   0.9123 B( 19-C , 23-H ) :   0.9600
B( 19-C , 24-H ) :   0.9233 B( 19-C , 25-C ) :   0.3287 B( 22-C , 25-C ) :   0.3971
B( 22-C , 26-H ) :   0.9433 B( 22-C , 27-H ) :   0.8439 B( 22-C , 28-C ) :   0.5988
B( 25-C , 26-H ) :  -0.1465 B( 25-C , 28-C ) :   0.4986 B( 25-C , 29-H ) :   0.7621
B( 25-C , 30-H ) :   1.3324 B( 26-H , 28-C ) :   0.1139 B( 28-C , 29-H ) :  -0.1513
B( 28-C , 31-H ) :   0.9011 B( 28-C , 32-H ) :   0.8636

Dispersion correction           -0.018589015
FINAL SINGLE POINT ENERGY     -1042.227825459158

DIPOLE MOMENT
-------------
                                X             Y             Z
Electronic contribution:    -12.67072     -20.29235     -14.31321
Nuclear contribution   :     10.70731      19.84772      14.63855
                        -----------------------------------------
Total Dipole Moment    :     -1.96341      -0.44463       0.32534
                        -----------------------------------------
Magnitude (a.u.)       :      2.03924
Magnitude (Debye)      :      5.18334

Rotational constants in cm-1:     0.026014     0.014812     0.010477
Rotational constants in MHz :   779.874765   444.063394   314.081855

                             ****ORCA TERMINATED NORMALLY****
TOTAL RUN TIME: 0 days 0 hours 3 minutes 27 seconds 212 msec
