                         Program Version 5.0.0 -  RELEASE  -
|  1> !B3LYP D3BJ RIJCOSX def2-TZVPD def2/J TightSCF
|  2> *xyz -1 1
|  3> C         -0.77455        2.78833       -0.54394
|  4> C          0.69721        3.22791       -0.52513
|  5> O          1.48929        2.37470        0.19919
|  6> H          0.71600        4.26403       -0.13077
|  7> H          1.03615        3.33092       -1.58367
|  8> H         -1.34746        3.48478       -1.11982
|  9> H         -1.15078        2.75876        0.45729
| 10> H         -0.85058        1.81526       -0.98241
| 11> *
| 12>
| 13> %MaxCore 64000
| 14> %pal nprocs 4
| 15> end
| 16>
| 17> %scf
| 18>   MaxIter 150
| 19> end
| 20>
| 21>
| 22>                          ****END OF INPUT****

CARTESIAN COORDINATES (ANGSTROEM)
---------------------------------
  C     -0.774550    2.788330   -0.543940
  C      0.697210    3.227910   -0.525130
  O      1.489290    2.374700    0.199190
  H      0.716000    4.264030   -0.130770
  H      1.036150    3.330920   -1.583670
  H     -1.347460    3.484780   -1.119820
  H     -1.150780    2.758760    0.457290
  H     -0.850580    1.815260   -0.982410

 Total Charge           Charge          ....   -1
 Multiplicity           Mult            ....    1
 Number of Electrons    NEL             ....   26
 Basis Dimension        Dim             ....  159

ORBITAL ENERGIES
----------------

  NO   OCC          E(Eh)            E(eV)
   0   2.0000     -18.798269      -511.5269
   1   2.0000      -9.984301      -271.6866
   2   2.0000      -9.959143      -271.0021
   3   2.0000      -0.682595       -18.5744
   4   2.0000      -0.526680       -14.3317
   5   2.0000      -0.374066       -10.1789
   6   2.0000      -0.250515        -6.8168
   7   2.0000      -0.228634        -6.2215
   8   2.0000      -0.174776        -4.7559
   9   2.0000      -0.157754        -4.2927
  10   2.0000      -0.115833        -3.1520
  11   2.0000       0.026222         0.7135
  12   2.0000       0.028151         0.7660
  13   0.0000       0.154098         4.1932
  14   0.0000       0.177596         4.8326
  15   0.0000       0.203732         5.5438
  16   0.0000       0.207831         5.6554
  17   0.0000       0.228693         6.2231

MULLIKEN ATOMIC CHARGES
-----------------------
   0 C :   -0.958607
   1 C :   -0.210078
   2 O :   -0.934056
   3 H :    0.162203
   4 H :    0.166621
   5 H :    0.332521
   6 H :    0.220021
   7 H :    0.221376
Sum of atomic charges:   -1.0000000

LOEWDIN ATOMIC CHARGES
----------------------
   0 C :   -0.170892
   1 C :   -0.616550
   2 O :   -0.410278
   3 H :    0.050143
   4 H :    0.053251
   5 H :    0.022298
   6 H :    0.036218
   7 H :    0.035810

  Mayer bond orders larger than 0.100000
B(  0-C ,  1-C ) :   0.7695 B(  0-C ,  2-O ) :   0.4019 B(  0-C ,  5-H ) :   0.9517
B(  0-C ,  6-H ) :   1.0079 B(  0-C ,  7-H ) :   1.0078 B(  1-C ,  2-O ) :   0.8951
B(  1-C ,  3-H ) :   1.0653 B(  1-C ,  4-H ) :   1.0574

Dispersion correction           -0.006237633
FINAL SINGLE POINT ENERGY      -154.406838737863

DIPOLE MOMENT
-------------
                                X             Y             Z
Electronic contribution:      2.47423      -1.04472       1.20123
Nuclear contribution   :     -3.69910       1.55962      -1.78699
                        -----------------------------------------
Total Dipole Moment    :     -1.22487       0.51490      -0.58576
                        -----------------------------------------
Magnitude (a.u.)       :      1.45208
Magnitude (Debye)      :      3.69090

Rotational constants in cm-1:     1.268893     0.327436     0.287754
Rotational constants in MHz : 38040.440181  9816.269339  8626.646564

                             ****ORCA TERMINATED NORMALLY****
TOTAL RUN TIME: 0 days 0 hours 0 minutes 16 seconds 148 msec
