                         Program Version 5.0.0 -  RELEASE  -
|  1> !B3LYP D3BJ RIJCOSX def2-TZVPD def2/J TightSCF
|  2> *xyz 1 1
|  3> C          3.95643        0.50147       -0.37910
|  4> H          3.16840        0.02920        0.20738
|  5> N          3.80389        1.96157       -0.15675
|  6> C          3.84232        0.14849       -1.85406
|  7> H          4.92323        0.17798        0.00937
|  8> H          4.20643        2.24441        0.74536
|  9> H          2.80827        2.21132       -0.09610
| 10> H          4.28076        2.50155       -0.89104
| 11> H          4.62951        0.62800       -2.39748
| 12> H          2.89665        0.48102       -2.22825
| 13> H          3.92053       -0.91187       -1.97413
| 14> *
| 15>
| 16> %MaxCore 64000
| 17> %pal nprocs 4
| 18> end
| 19>
| 20> %scf
| 21>   MaxIter 150
| 22> end
| 23>
| 24>
| 25>                          ****END OF INPUT****

CARTESIAN COORDINATES (ANGSTROEM)
---------------------------------
  C      3.956430    0.501470   -0.379100
  H      3.168400    0.029200    0.207380
  N      3.803890    1.961570   -0.156750
  C      3.842320    0.148490   -1.854060
  H      4.923230    0.177980    0.009370
  H      4.206430    2.244410    0.745360
  H      2.808270    2.211320   -0.096100
  H      4.280760    2.501550   -0.891040
  H      4.629510    0.628000   -2.397480
  H      2.896650    0.481020   -2.228250
  H      3.920530   -0.911870   -1.974130

 Total Charge           Charge          ....    1
 Multiplicity           Mult            ....    1
 Number of Electrons    NEL             ....   26
 Basis Dimension        Dim             ....  183

ORBITAL ENERGIES
----------------

  NO   OCC          E(Eh)            E(eV)
   0   2.0000     -14.650136      -398.6505
   1   2.0000     -10.422283      -283.6047
   2   2.0000     -10.342691      -281.4389
   3   2.0000      -1.217218       -33.1222
   4   2.0000      -0.966244       -26.2928
   5   2.0000      -0.845132       -22.9972
   6   2.0000      -0.803864       -21.8743
   7   2.0000      -0.785942       -21.3866
   8   2.0000      -0.697795       -18.9880
   9   2.0000      -0.643773       -17.5179
  10   2.0000      -0.583863       -15.8877
  11   2.0000      -0.569676       -15.5017
  12   2.0000      -0.552859       -15.0441
  13   0.0000      -0.203644        -5.5414
  14   0.0000      -0.145566        -3.9610
  15   0.0000      -0.141550        -3.8518
  16   0.0000      -0.133950        -3.6450
  17   0.0000      -0.103400        -2.8136

MULLIKEN ATOMIC CHARGES
-----------------------
   0 C :   -0.266613
   1 H :    0.292214
   2 N :   -0.254419
   3 C :   -1.077675
   4 H :    0.288460
   5 H :    0.338363
   6 H :    0.343487
   7 H :    0.314200
   8 H :    0.363656
   9 H :    0.347127
  10 H :    0.311202
Sum of atomic charges:    1.0000000

LOEWDIN ATOMIC CHARGES
----------------------
   0 C :   -0.198090
   1 H :    0.134543
   2 N :    0.183760
   3 C :   -0.050562
   4 H :    0.134991
   5 H :    0.179353
   6 H :    0.182109
   7 H :    0.178939
   8 H :    0.081614
   9 H :    0.081735
  10 H :    0.091609

  Mayer bond orders larger than 0.100000
B(  0-C ,  1-H ) :   0.9316 B(  0-C ,  2-N ) :   0.9518 B(  0-C ,  3-C ) :   0.6583
B(  0-C ,  4-H ) :   0.9252 B(  2-N ,  5-H ) :   0.8731 B(  2-N ,  6-H ) :   0.8641
B(  2-N ,  7-H ) :   0.8779 B(  3-C ,  8-H ) :   0.9068 B(  3-C ,  9-H ) :   0.9476
B(  3-C , 10-H ) :   0.9794

Dispersion correction           -0.010039132
FINAL SINGLE POINT ENERGY      -135.505394012814

DIPOLE MOMENT
-------------
                                X             Y             Z
Electronic contribution:     -0.01140       1.31819       1.24042
Nuclear contribution   :     -0.06214      -0.04120      -0.39947
                        -----------------------------------------
Total Dipole Moment    :     -0.07354       1.27699       0.84094
                        -----------------------------------------
Magnitude (a.u.)       :      1.53078
Magnitude (Debye)      :      3.89095

Rotational constants in cm-1:     1.011771     0.281435     0.249812
Rotational constants in MHz : 30332.138762  8437.210602  7489.166323

                             ****ORCA TERMINATED NORMALLY****
TOTAL RUN TIME: 0 days 0 hours 0 minutes 16 seconds 968 msec
