                         Program Version 5.0.0 -  RELEASE  -
|  1> !B3LYP D3BJ RIJCOSX def2-TZVPD def2/J TightSCF xyzfile
|  2>
|  3> *xyzfile 0 1 B.xyz
|  4>
|  5> %MaxCore 64000
|  6>
|  7> %pal nprocs 4
|  8> end
|  9>
| 10> %scf
| 11>   MaxIter 150
| 12> end
| 13>
| 14>
| 15>                          ****END OF INPUT****

CARTESIAN COORDINATES (ANGSTROEM)
---------------------------------
  C      3.956426    0.501466   -0.379100
  H      3.168398    0.029201    0.207383
  N      3.803893    1.961572   -0.156747
  C      3.842322    0.148490   -1.854058
  H      4.923231    0.177982    0.009371
  H      4.620021    0.694502   -2.402150
  H      4.096015   -0.910930   -1.955103
  C      2.475619    0.412708   -2.485377
  H      2.174689    1.445076   -2.287971
  C      1.383931   -0.532740   -1.995203
  H      2.575613    0.318574   -3.571460
  H      1.264698   -0.412309   -0.915491
  H      1.705223   -1.566885   -2.164984
  C      0.031398   -0.317260   -2.677791
  C     -0.587292    1.060853   -2.436460
  H     -0.662815   -1.089530   -2.329985
  H      0.149465   -0.478040   -3.755648
  H      0.104376    1.828590   -2.793130
  C     -0.951213    1.334978   -0.972500
  H     -1.478832    1.161355   -3.062484
  H     -0.317007    0.741648   -0.311389
  H     -1.980916    1.012842   -0.788958
  C     -0.774550    2.788332   -0.543943
  H     -1.352609    3.459372   -1.192585
  H     -1.171014    2.902331    0.469968
  C      0.697208    3.227911   -0.525126
  O      1.489294    2.374703    0.199189
  H      0.715998    4.264030   -0.130774
  H      1.036148    3.330920   -1.583669
  H      4.206425    2.244406    0.745359
  H      2.808269    2.211323   -0.096097
  H      4.280757    2.501552   -0.891037

 Total Charge           Charge          ....    0
 Multiplicity           Mult            ....    1
 Number of Electrons    NEL             ....   90
 Basis Dimension        Dim             ....  599

ORBITAL ENERGIES
----------------

  NO   OCC          E(Eh)            E(eV)
   0   2.0000     -18.995738      -516.9003
   1   2.0000     -14.395595      -391.7240
   2   2.0000     -10.235797      -278.5302
   3   2.0000     -10.191461      -277.3237
   4   2.0000     -10.165550      -276.6187
   5   2.0000     -10.153194      -276.2825
   6   2.0000     -10.151099      -276.2254
   7   2.0000     -10.147520      -276.1281
   8   2.0000     -10.134986      -275.7870
   9   2.0000     -10.122112      -275.4367
  10   2.0000     -10.115301      -275.2513
  11   2.0000      -0.989599       -26.9284
  12   2.0000      -0.890470       -24.2309
  13   2.0000      -0.816585       -22.2204
  14   2.0000      -0.777574       -21.1589
  15   2.0000      -0.739811       -20.1313
  16   2.0000      -0.697683       -18.9849
  17   2.0000      -0.659989       -17.9592
  18   2.0000      -0.621267       -16.9055
  19   2.0000      -0.593725       -16.1561
  20   2.0000      -0.571210       -15.5434
  21   2.0000      -0.567224       -15.4350
  22   2.0000      -0.546446       -14.8696
  23   2.0000      -0.509571       -13.8661
  24   2.0000      -0.492781       -13.4093
  25   2.0000      -0.466680       -12.6990
  26   2.0000      -0.465706       -12.6725
  27   2.0000      -0.436155       -11.8684
  28   2.0000      -0.422305       -11.4915
  29   2.0000      -0.417171       -11.3518
  30   2.0000      -0.401255       -10.9187
  31   2.0000      -0.390615       -10.6292
  32   2.0000      -0.381098       -10.3702
  33   2.0000      -0.364305        -9.9132
  34   2.0000      -0.355487        -9.6733
  35   2.0000      -0.343863        -9.3570
  36   2.0000      -0.335851        -9.1390
  37   2.0000      -0.325954        -8.8697
  38   2.0000      -0.315296        -8.5796
  39   2.0000      -0.310179        -8.4404
  40   2.0000      -0.290093        -7.8938
  41   2.0000      -0.284288        -7.7359
  42   2.0000      -0.281051        -7.6478
  43   2.0000      -0.183227        -4.9859
  44   2.0000      -0.175320        -4.7707
  45   0.0000      -0.026330        -0.7165
  46   0.0000       0.004834         0.1315
  47   0.0000       0.008920         0.2427
  48   0.0000       0.022334         0.6077
  49   0.0000       0.035832         0.9750

MULLIKEN ATOMIC CHARGES
-----------------------
   0 C :   -0.529393
   1 H :    0.291329
   2 N :   -0.048536
   3 C :   -0.469348
   4 H :    0.252675
   5 H :    0.193749
   6 H :    0.228453
   7 C :   -0.019945
   8 H :   -0.003287
   9 C :   -0.311389
  10 H :    0.253239
  11 H :    0.126835
  12 H :    0.251570
  13 C :   -0.612424
  14 C :   -0.528286
  15 H :    0.219193
  16 H :    0.247717
  17 H :    0.252807
  18 C :   -0.240373
  19 H :    0.273929
  20 H :    0.059019
  21 H :    0.271746
  22 C :   -0.545681
  23 H :    0.202574
  24 H :    0.262519
  25 C :   -0.297737
  26 O :   -0.941947
  27 H :    0.197222
  28 H :    0.194357
  29 H :    0.332301
  30 H :    0.115644
  31 H :    0.321466
Sum of atomic charges:    0.0000000

LOEWDIN ATOMIC CHARGES
----------------------
   0 C :   -0.169147
   1 H :    0.125252
   2 N :    0.142148
   3 C :   -0.189553
   4 H :    0.116097
   5 H :    0.109004
   6 H :    0.114376
   7 C :   -0.201277
   8 H :    0.090540
   9 C :   -0.208598
  10 H :    0.117341
  11 H :    0.095381
  12 H :    0.111346
  13 C :   -0.206293
  14 C :   -0.206744
  15 H :    0.108594
  16 H :    0.104472
  17 H :    0.088966
  18 C :   -0.212909
  19 H :    0.106495
  20 H :    0.088499
  21 H :    0.104518
  22 C :   -0.200931
  23 H :    0.104421
  24 H :    0.102101
  25 C :   -0.415193
  26 O :   -0.271898
  27 H :    0.092812
  28 H :    0.083828
  29 H :    0.159242
  30 H :   -0.041985
  31 H :    0.159095

  Mayer bond orders larger than 0.100000
B(  0-C ,  1-H ) :   0.9200 B(  0-C ,  2-N ) :   0.9539 B(  0-C ,  3-C ) :   0.7780
B(  0-C ,  4-H ) :   0.9435 B(  0-C ,  9-C ) :   0.1105 B(  2-N , 26-O ) :  -0.1045
B(  2-N , 29-H ) :   0.8555 B(  2-N , 30-H ) :   0.8699 B(  2-N , 31-H ) :   0.8335
B(  3-C ,  5-H ) :   0.9776 B(  3-C ,  6-H ) :   0.9798 B(  3-C ,  7-C ) :   0.8310
B(  3-C ,  9-C ) :   0.1612 B(  7-C ,  8-H ) :   1.2534 B(  7-C ,  9-C ) :   0.4670
B(  7-C , 10-H ) :   0.8861 B(  7-C , 12-H ) :  -0.1180 B(  7-C , 13-C ) :   0.1737
B(  7-C , 14-C ) :   0.1336 B(  9-C , 11-H ) :   1.0771 B(  9-C , 12-H ) :   0.9369
B(  9-C , 13-C ) :   0.8659 B( 13-C , 14-C ) :   0.8596 B( 13-C , 15-H ) :   0.9820
B( 13-C , 16-H ) :   0.9546 B( 13-C , 18-C ) :   0.2027 B( 14-C , 17-H ) :   0.9830
B( 14-C , 18-C ) :   0.5726 B( 14-C , 19-H ) :   0.9412 B( 14-C , 22-C ) :   0.2466
B( 18-C , 20-H ) :   1.0355 B( 18-C , 21-H ) :   0.9237 B( 18-C , 22-C ) :   0.9387
B( 20-H , 26-O ) :   0.1001 B( 22-C , 23-H ) :   1.0156 B( 22-C , 24-H ) :   0.9087
B( 22-C , 25-C ) :   0.9443 B( 25-C , 26-O ) :   0.8032 B( 25-C , 27-H ) :   0.9875
B( 25-C , 28-H ) :   0.9685 B( 26-O , 30-H ) :   0.2622

Dispersion correction           -0.053571103
FINAL SINGLE POINT ENERGY      -485.450942560190

DIPOLE MOMENT
-------------
                                X             Y             Z
Electronic contribution:      2.10366       0.88366       2.56306
Nuclear contribution   :      0.61785      -1.47632      -2.91844
                        -----------------------------------------
Total Dipole Moment    :      2.72151      -0.59266      -0.35538
                        -----------------------------------------
Magnitude (a.u.)       :      2.80788
Magnitude (Debye)      :      7.13705

Rotational constants in cm-1:     0.040993     0.027400     0.018162
Rotational constants in MHz :  1228.944366   821.418004   544.476857

                             ****ORCA TERMINATED NORMALLY****
TOTAL RUN TIME: 0 days 0 hours 4 minutes 47 seconds 297 msec
