                         Program Version 5.0.0 -  RELEASE  -
|  1> !B3LYP D3BJ RIJCOSX def2-TZVPD def2/J TightSCF
|  2> *xyz 0 1
|  3> C         -0.77455        2.78833       -0.54394
|  4> C          0.69721        3.22791       -0.52513
|  5> F          1.48929        2.37470        0.19919
|  6> H          0.71600        4.26403       -0.13077
|  7> H          1.03615        3.33092       -1.58367
|  8> H         -1.34746        3.48478       -1.11982
|  9> H         -1.15078        2.75876        0.45729
| 10> H         -0.85058        1.81526       -0.98241
| 11> *
| 12>
| 13> %MaxCore 64000
| 14> %pal nprocs 4
| 15> end
| 16>
| 17> %scf
| 18>   MaxIter 150
| 19> end
| 20>
| 21>
| 22>                          ****END OF INPUT****

CARTESIAN COORDINATES (ANGSTROEM)
---------------------------------
  C     -0.774550    2.788330   -0.543940
  C      0.697210    3.227910   -0.525130
  F      1.489290    2.374700    0.199190
  H      0.716000    4.264030   -0.130770
  H      1.036150    3.330920   -1.583670
  H     -1.347460    3.484780   -1.119820
  H     -1.150780    2.758760    0.457290
  H     -0.850580    1.815260   -0.982410

 Total Charge           Charge          ....    0
 Multiplicity           Mult            ....    1
 Number of Electrons    NEL             ....   26
 Basis Dimension        Dim             ....  159

ORBITAL ENERGIES
----------------

  NO   OCC          E(Eh)            E(eV)
   0   2.0000     -24.669999      -671.3048
   1   2.0000     -10.248366      -278.8722
   2   2.0000     -10.163165      -276.5538
   3   2.0000      -1.199518       -32.6405
   4   2.0000      -0.764722       -20.8091
   5   2.0000      -0.632086       -17.1999
   6   2.0000      -0.509684       -13.8692
   7   2.0000      -0.495166       -13.4742
   8   2.0000      -0.458860       -12.4862
   9   2.0000      -0.406397       -11.0586
  10   2.0000      -0.402531       -10.9534
  11   2.0000      -0.338153        -9.2016
  12   2.0000      -0.332577        -9.0499
  13   0.0000       0.008596         0.2339
  14   0.0000       0.035176         0.9572
  15   0.0000       0.052098         1.4177
  16   0.0000       0.055727         1.5164
  17   0.0000       0.082389         2.2419

MULLIKEN ATOMIC CHARGES
-----------------------
   0 C :   -0.868865
   1 C :   -0.047433
   2 F :   -0.304600
   3 H :    0.200790
   4 H :    0.203142
   5 H :    0.300208
   6 H :    0.259321
   7 H :    0.257437
Sum of atomic charges:   -0.0000000

LOEWDIN ATOMIC CHARGES
----------------------
   0 C :   -0.080032
   1 C :   -0.287079
   2 F :   -0.044904
   3 H :    0.108658
   4 H :    0.112655
   5 H :    0.065022
   6 H :    0.063022
   7 H :    0.062659

  Mayer bond orders larger than 0.100000
B(  0-C ,  1-C ) :   0.7797 B(  0-C ,  5-H ) :   0.9399 B(  0-C ,  6-H ) :   0.9691
B(  0-C ,  7-H ) :   0.9693 B(  1-C ,  2-F ) :   0.8080 B(  1-C ,  3-H ) :   0.9844
B(  1-C ,  4-H ) :   0.9787

Dispersion correction           -0.005743213
FINAL SINGLE POINT ENERGY      -179.049390335352

DIPOLE MOMENT
-------------
                                X             Y             Z
Electronic contribution:      4.41260      -1.65205       1.99969
Nuclear contribution   :     -4.89513       2.05627      -2.36166
                        -----------------------------------------
Total Dipole Moment    :     -0.48254       0.40422      -0.36197
                        -----------------------------------------
Magnitude (a.u.)       :      0.72613
Magnitude (Debye)      :      1.84567

Rotational constants in cm-1:     1.247826     0.304622     0.269019
Rotational constants in MHz : 37408.889506  9132.346906  8064.979146

                             ****ORCA TERMINATED NORMALLY****
TOTAL RUN TIME: 0 days 0 hours 0 minutes 14 seconds 99 msec
