                         Program Version 5.0.0 -  RELEASE  -
|  1> !B3LYP D3BJ RIJCOSX def2-TZVPD def2/J TightSCF
|  2> *xyz 0 1
|  3> C          3.95643        0.50147       -0.37910
|  4> H          3.16840        0.02920        0.20738
|  5> C          3.80389        1.96157       -0.15675
|  6> C          3.84232        0.14849       -1.85406
|  7> H          4.92323        0.17798        0.00937
|  8> H          4.20643        2.24441        0.74536
|  9> H          2.80827        2.21132       -0.09610
| 10> H          4.28076        2.50155       -0.89104
| 11> H          4.62951        0.62800       -2.39748
| 12> H          2.89665        0.48102       -2.22825
| 13> H          3.92053       -0.91187       -1.97413
| 14> *
| 15>
| 16> %MaxCore 64000
| 17> %pal nprocs 4
| 18> end
| 19>
| 20> %scf
| 21>   MaxIter 150
| 22> end
| 23>
| 24>
| 25>                          ****END OF INPUT****

CARTESIAN COORDINATES (ANGSTROEM)
---------------------------------
  C      3.956430    0.501470   -0.379100
  H      3.168400    0.029200    0.207380
  C      3.803890    1.961570   -0.156750
  C      3.842320    0.148490   -1.854060
  H      4.923230    0.177980    0.009370
  H      4.206430    2.244410    0.745360
  H      2.808270    2.211320   -0.096100
  H      4.280760    2.501550   -0.891040
  H      4.629510    0.628000   -2.397480
  H      2.896650    0.481020   -2.228250
  H      3.920530   -0.911870   -1.974130

 Total Charge           Charge          ....    0
 Multiplicity           Mult            ....    1
 Number of Electrons    NEL             ....   26
 Basis Dimension        Dim             ....  183

ORBITAL ENERGIES
----------------

  NO   OCC          E(Eh)            E(eV)
   0   2.0000     -10.152973      -276.2764
   1   2.0000     -10.144369      -276.0423
   2   2.0000     -10.126181      -275.5474
   3   2.0000      -0.790739       -21.5171
   4   2.0000      -0.689352       -18.7582
   5   2.0000      -0.584559       -15.9066
   6   2.0000      -0.468326       -12.7438
   7   2.0000      -0.444825       -12.1043
   8   2.0000      -0.401422       -10.9233
   9   2.0000      -0.390766       -10.6333
  10   2.0000      -0.337054        -9.1717
  11   2.0000      -0.335027        -9.1165
  12   2.0000      -0.326026        -8.8716
  13   0.0000       0.012872         0.3503
  14   0.0000       0.036621         0.9965
  15   0.0000       0.039827         1.0837
  16   0.0000       0.058562         1.5936
  17   0.0000       0.081218         2.2100

MULLIKEN ATOMIC CHARGES
-----------------------
   0 C :    0.087020
   1 H :    0.184945
   2 C :   -1.235114
   3 C :   -1.071683
   4 H :    0.208006
   5 H :    0.333147
   6 H :    0.328660
   7 H :    0.312054
   8 H :    0.287624
   9 H :    0.289169
  10 H :    0.276172
Sum of atomic charges:   -0.0000000

LOEWDIN ATOMIC CHARGES
----------------------
   0 C :   -0.313277
   1 H :    0.101685
   2 C :   -0.124616
   3 C :   -0.112721
   4 H :    0.101314
   5 H :    0.050025
   6 H :    0.054944
   7 H :    0.053501
   8 H :    0.064356
   9 H :    0.065848
  10 H :    0.058940

  Mayer bond orders larger than 0.100000
B(  0-C ,  1-H ) :   0.9898 B(  0-C ,  2-C ) :   0.6204 B(  0-C ,  3-C ) :   0.6231
B(  0-C ,  4-H ) :   0.9849 B(  2-C ,  3-C ) :   0.1281 B(  2-C ,  5-H ) :   0.9557
B(  2-C ,  6-H ) :   0.9600 B(  2-C ,  7-H ) :   0.9503 B(  3-C ,  8-H ) :   0.9816
B(  3-C ,  9-H ) :   0.9838 B(  3-C , 10-H ) :   0.9919

Dispersion correction           -0.010116238
FINAL SINGLE POINT ENERGY      -119.094106114977

DIPOLE MOMENT
-------------
                                X             Y             Z
Electronic contribution:      0.08112      -0.29652       0.23347
Nuclear contribution   :     -0.08172       0.30475      -0.19303
                        -----------------------------------------
Total Dipole Moment    :     -0.00059       0.00823       0.04044
                        -----------------------------------------
Magnitude (a.u.)       :      0.04127
Magnitude (Debye)      :      0.10490

Rotational constants in cm-1:     1.020248     0.295755     0.261591
Rotational constants in MHz : 30586.266829  8866.511639  7842.297953

                             ****ORCA TERMINATED NORMALLY****
TOTAL RUN TIME: 0 days 0 hours 0 minutes 18 seconds 526 msec
