                         Program Version 5.0.0 -  RELEASE  -
|  1> !B3LYP D3BJ RIJCOSX def2-TZVPD def2/J TightSCF xyzfile
|  2>
|  3> *xyzfile 0 1 D.xyz
|  4>
|  5> %MaxCore 64000
|  6>
|  7> %pal nprocs 4
|  8> end
|  9>
| 10> %scf
| 11>   MaxIter 150
| 12> end
| 13>
| 14>
| 15>                          ****END OF INPUT****

CARTESIAN COORDINATES (ANGSTROEM)
---------------------------------
  C      3.956426    0.501466   -0.379100
  H      3.168398    0.029201    0.207383
  C      3.803893    1.961572   -0.156747
  C      3.842322    0.148490   -1.854058
  H      4.923231    0.177982    0.009371
  H      4.620021    0.694502   -2.402150
  H      4.096015   -0.910930   -1.955103
  C      2.475619    0.412708   -2.485377
  H      2.174689    1.445076   -2.287971
  C      1.383931   -0.532740   -1.995203
  H      2.575613    0.318574   -3.571460
  H      1.264698   -0.412309   -0.915491
  H      1.705223   -1.566885   -2.164984
  C      0.031398   -0.317260   -2.677791
  C     -0.587292    1.060853   -2.436460
  H     -0.662815   -1.089530   -2.329985
  H      0.149465   -0.478040   -3.755648
  H      0.104376    1.828590   -2.793130
  C     -0.951213    1.334978   -0.972500
  H     -1.478832    1.161355   -3.062484
  H     -0.317007    0.741648   -0.311389
  H     -1.980916    1.012842   -0.788958
  C     -0.774550    2.788332   -0.543943
  H     -1.352609    3.459372   -1.192585
  H     -1.171014    2.902331    0.469968
  C      0.697208    3.227911   -0.525126
  F      1.489294    2.374703    0.199189
  H      0.715998    4.264030   -0.130774
  H      1.036148    3.330920   -1.583669
  H      4.206425    2.244406    0.745359
  H      2.808269    2.211323   -0.096097
  H      4.280757    2.501552   -0.891037

 Total Charge           Charge          ....    0
 Multiplicity           Mult            ....    1
 Number of Electrons    NEL             ....   90
 Basis Dimension        Dim             ....  599

ORBITAL ENERGIES
----------------

  NO   OCC          E(Eh)            E(eV)
   0   2.0000     -24.689673      -671.8402
   1   2.0000     -10.256223      -279.0860
   2   2.0000     -10.178950      -276.9833
   3   2.0000     -10.165346      -276.6131
   4   2.0000     -10.161911      -276.5197
   5   2.0000     -10.158804      -276.4351
   6   2.0000     -10.152920      -276.2750
   7   2.0000     -10.150830      -276.2181
   8   2.0000     -10.144890      -276.0565
   9   2.0000     -10.134004      -275.7603
  10   2.0000     -10.080861      -274.3142
  11   2.0000      -1.233270       -33.5590
  12   2.0000      -0.819006       -22.2863
  13   2.0000      -0.799585       -21.7578
  14   2.0000      -0.766937       -20.8694
  15   2.0000      -0.736517       -20.0416
  16   2.0000      -0.689361       -18.7585
  17   2.0000      -0.664065       -18.0701
  18   2.0000      -0.622359       -16.9352
  19   2.0000      -0.600105       -16.3297
  20   2.0000      -0.564004       -15.3473
  21   2.0000      -0.551794       -15.0151
  22   2.0000      -0.529039       -14.3959
  23   2.0000      -0.514299       -13.9948
  24   2.0000      -0.494668       -13.4606
  25   2.0000      -0.468157       -12.7392
  26   2.0000      -0.457011       -12.4359
  27   2.0000      -0.448013       -12.1911
  28   2.0000      -0.428897       -11.6709
  29   2.0000      -0.425727       -11.5846
  30   2.0000      -0.409931       -11.1548
  31   2.0000      -0.393100       -10.6968
  32   2.0000      -0.386006       -10.5038
  33   2.0000      -0.374285       -10.1848
  34   2.0000      -0.365974        -9.9587
  35   2.0000      -0.355892        -9.6843
  36   2.0000      -0.348863        -9.4930
  37   2.0000      -0.342748        -9.3266
  38   2.0000      -0.324851        -8.8396
  39   2.0000      -0.320317        -8.7163
  40   2.0000      -0.313699        -8.5362
  41   2.0000      -0.312775        -8.5110
  42   2.0000      -0.298204        -8.1145
  43   2.0000      -0.297194        -8.0871
  44   2.0000      -0.274490        -7.4693
  45   0.0000       0.004419         0.1203
  46   0.0000       0.012650         0.3442
  47   0.0000       0.018036         0.4908
  48   0.0000       0.024075         0.6551
  49   0.0000       0.035746         0.9727

MULLIKEN ATOMIC CHARGES
-----------------------
   0 C :   -0.153334
   1 H :    0.245625
   2 C :   -0.894331
   3 C :   -0.537396
   4 H :    0.167060
   5 H :    0.236360
   6 H :    0.201199
   7 C :   -0.158699
   8 H :   -0.010686
   9 C :   -0.247152
  10 H :    0.245939
  11 H :    0.092714
  12 H :    0.260412
  13 C :   -0.623356
  14 C :   -0.531593
  15 H :    0.219244
  16 H :    0.264134
  17 H :    0.288155
  18 C :   -0.315860
  19 H :    0.271895
  20 H :    0.142851
  21 H :    0.283552
  22 C :   -0.514577
  23 H :    0.216487
  24 H :    0.266436
  25 C :   -0.263899
  26 F :   -0.390292
  27 H :    0.238726
  28 H :    0.258421
  29 H :    0.362561
  30 H :    0.040043
  31 H :    0.339359
Sum of atomic charges:    0.0000000

LOEWDIN ATOMIC CHARGES
----------------------
   0 C :   -0.248471
   1 H :    0.102133
   2 C :   -0.107320
   3 C :   -0.212471
   4 H :    0.103497
   5 H :    0.108882
   6 H :    0.103566
   7 C :   -0.203043
   8 H :    0.086940
   9 C :   -0.207799
  10 H :    0.114667
  11 H :    0.093298
  12 H :    0.114778
  13 C :   -0.205712
  14 C :   -0.205138
  15 H :    0.108825
  16 H :    0.107690
  17 H :    0.090407
  18 C :   -0.203092
  19 H :    0.109282
  20 H :    0.096033
  21 H :    0.112464
  22 C :   -0.175584
  23 H :    0.118787
  24 H :    0.108784
  25 C :   -0.200390
  26 F :   -0.035117
  27 H :    0.124116
  28 H :    0.117690
  29 H :    0.058365
  30 H :   -0.037926
  31 H :    0.061858

  Mayer bond orders larger than 0.100000
B(  0-C ,  1-H ) :   0.9325 B(  0-C ,  2-C ) :   0.4895 B(  0-C ,  3-C ) :   0.8174
B(  0-C ,  4-H ) :   1.0132 B(  0-C ,  9-C ) :   0.1353 B(  2-C ,  3-C ) :   0.1333
B(  2-C , 26-F ) :   0.2118 B(  2-C , 29-H ) :   0.9692 B(  2-C , 30-H ) :   1.0351
B(  2-C , 31-H ) :   1.0473 B(  3-C ,  5-H ) :   0.9468 B(  3-C ,  6-H ) :   0.9624
B(  3-C ,  7-C ) :   1.0044 B(  3-C ,  9-C ) :   0.1366 B(  7-C ,  8-H ) :   1.3124
B(  7-C ,  9-C ) :   0.4207 B(  7-C , 10-H ) :   0.8674 B(  7-C , 11-H ) :  -0.1032
B(  7-C , 13-C ) :   0.1607 B(  7-C , 14-C ) :   0.1208 B(  8-H ,  9-C ) :  -0.1361
B(  9-C , 11-H ) :   1.1001 B(  9-C , 12-H ) :   0.9155 B(  9-C , 13-C ) :   0.8527
B( 13-C , 14-C ) :   0.8809 B( 13-C , 15-H ) :   0.9867 B( 13-C , 16-H ) :   0.9480
B( 13-C , 18-C ) :   0.2116 B( 14-C , 17-H ) :   0.9625 B( 14-C , 18-C ) :   0.5831
B( 14-C , 19-H ) :   0.9451 B( 14-C , 22-C ) :   0.2281 B( 18-C , 20-H ) :   1.0307
B( 18-C , 21-H ) :   0.9282 B( 18-C , 22-C ) :   0.9008 B( 22-C , 23-H ) :   0.9787
B( 22-C , 24-H ) :   0.9371 B( 22-C , 25-C ) :   0.8997 B( 22-C , 26-F ) :   0.1107
B( 25-C , 26-F ) :   0.6578 B( 25-C , 27-H ) :   0.9186 B( 25-C , 28-H ) :   0.9792
B( 26-F , 30-H ) :  -0.1735

Dispersion correction           -0.052447077
FINAL SINGLE POINT ENERGY      -493.416793239876

DIPOLE MOMENT
-------------
                                X             Y             Z
Electronic contribution:     -1.95783       3.28342       4.28097
Nuclear contribution   :      1.09293      -2.80761      -4.51228
                        -----------------------------------------
Total Dipole Moment    :     -0.86490       0.47580      -0.23131
                        -----------------------------------------
Magnitude (a.u.)       :      1.01388
Magnitude (Debye)      :      2.57707

Rotational constants in cm-1:     0.040502     0.027818     0.018259
Rotational constants in MHz :  1214.218058   833.972871   547.398614

                             ****ORCA TERMINATED NORMALLY****
TOTAL RUN TIME: 0 days 0 hours 4 minutes 26 seconds 51 msec
