                         Program Version 5.0.0 -  RELEASE  -
|  1> !BLYP D3BJ RIJCOSX def2-TZVP def2/J TightSCF
|  2> *xyz -1 1
|  3> C         -1.10433        0.25137       -2.86006
|  4> C         -0.71189        0.84252       -4.21834
|  5> H          0.15463        1.49980       -4.13091
|  6> H         -1.53813        1.45922       -4.58267
|  7> C         -0.39762       -0.20587       -5.28802
|  8> O          0.61717       -0.00535       -5.99827
|  9> O         -1.13317       -1.22138       -5.34147
| 10> H         -1.95489       -0.38644       -2.98099
| 11> H         -1.34603        1.04362       -2.18269
| 12> H         -0.28606       -0.31581       -2.46809
| 13> *
| 14>
| 15> %MaxCore 64000
| 16>
| 17> %pal nprocs 4
| 18> end
| 19>
| 20> %scf
| 21>   MaxIter 150
| 22> end
| 23>
| 24>
| 25>                          ****END OF INPUT****

CARTESIAN COORDINATES (ANGSTROEM)
---------------------------------
  C     -1.104330    0.251370   -2.860060
  C     -0.711890    0.842520   -4.218340
  H      0.154630    1.499800   -4.130910
  H     -1.538130    1.459220   -4.582670
  C     -0.397620   -0.205870   -5.288020
  O      0.617170   -0.005350   -5.998270
  O     -1.133170   -1.221380   -5.341470
  H     -1.954890   -0.386440   -2.980990
  H     -1.346030    1.043620   -2.182690
  H     -0.286060   -0.315810   -2.468090

 Total Charge           Charge          ....   -1
 Multiplicity           Mult            ....    1
 Number of Electrons    NEL             ....   40
 Basis Dimension        Dim             ....  185

ORBITAL ENERGIES
----------------

  NO   OCC          E(Eh)            E(eV)
   0   2.0000     -18.497339      -503.3382
   1   2.0000     -18.495422      -503.2860
   2   2.0000      -9.770016      -265.8557
   3   2.0000      -9.733245      -264.8551
   4   2.0000      -9.722067      -264.5509
   5   2.0000      -0.714586       -19.4449
   6   2.0000      -0.627667       -17.0797
   7   2.0000      -0.519349       -14.1322
   8   2.0000      -0.398398       -10.8410
   9   2.0000      -0.253725        -6.9042
  10   2.0000      -0.234263        -6.3746
  11   2.0000      -0.197922        -5.3857
  12   2.0000      -0.170505        -4.6397
  13   2.0000      -0.158247        -4.3061
  14   2.0000      -0.145677        -3.9641
  15   2.0000      -0.119413        -3.2494
  16   2.0000      -0.105305        -2.8655
  17   2.0000       0.002906         0.0791
  18   2.0000       0.015210         0.4139
  19   2.0000       0.032502         0.8844
  20   0.0000       0.164981         4.4894
  21   0.0000       0.205586         5.5943
  22   0.0000       0.216690         5.8964
  23   0.0000       0.228243         6.2108
  24   0.0000       0.237786         6.4705

MULLIKEN ATOMIC CHARGES
-----------------------
   0 C :   -0.252152
   1 C :   -0.114292
   2 H :    0.014320
   3 H :    0.010172
   4 C :    0.128748
   5 O :   -0.474540
   6 O :   -0.472218
   7 H :    0.067494
   8 H :    0.029989
   9 H :    0.062479
Sum of atomic charges:   -1.0000000

LOEWDIN ATOMIC CHARGES
----------------------
   0 C :   -0.324180
   1 C :   -0.294262
   2 H :    0.113346
   3 H :    0.115987
   4 C :   -0.725979
   5 O :   -0.091511
   6 O :   -0.088588
   7 H :    0.104826
   8 H :    0.087382
   9 H :    0.102979

  Mayer bond orders larger than 0.100000
B(  0-C ,  1-C ) :   0.9280 B(  0-C ,  7-H ) :   0.9663 B(  0-C ,  8-H ) :   0.9580
B(  0-C ,  9-H ) :   0.9790 B(  1-C ,  2-H ) :   0.9457 B(  1-C ,  3-H ) :   0.9448
B(  1-C ,  4-C ) :   0.9174 B(  4-C ,  5-O ) :   1.9321 B(  4-C ,  6-O ) :   1.8916

Dispersion correction           -0.013520014
FINAL SINGLE POINT ENERGY      -267.878092679994

DIPOLE MOMENT
-------------
                                X             Y             Z
Electronic contribution:      1.60856      -2.48905      -5.40299
Nuclear contribution   :     -2.09607       3.44215       6.87744
                        -----------------------------------------
Total Dipole Moment    :     -0.48751       0.95310       1.47445
                        -----------------------------------------
Magnitude (a.u.)       :      1.82211
Magnitude (Debye)      :      4.63143

Rotational constants in cm-1:     0.324698     0.133739     0.103466
Rotational constants in MHz :  9734.203431  4009.406827  3101.846422

                             ****ORCA TERMINATED NORMALLY****
TOTAL RUN TIME: 0 days 0 hours 0 minutes 8 seconds 529 msec
