                         Program Version 5.0.0 -  RELEASE  -
|  1> !BLYP D3BJ RIJCOSX def2-TZVP def2/J TightSCF
|  2> *xyz 1 1
|  3> C          2.23447       -2.98975       -2.39762
|  4> N          2.75680       -2.94555       -3.76503
|  5> C          1.98721       -2.59045       -4.81898
|  6> N          0.74322       -3.01749       -4.91352
|  7> N          2.49964       -1.84860       -5.80324
|  8> H          3.30978       -1.29282       -5.55895
|  9> H          1.80103       -1.30430       -6.28913
| 10> H          3.71612       -2.62880       -3.82953
| 11> H          0.39583       -3.62775       -4.18502
| 12> H          0.03920       -2.45438       -5.37137
| 13> C          2.19120       -1.61950       -1.71549
| 14> H          2.87278       -3.66637       -1.82801
| 15> H          1.24619       -3.44744       -2.40784
| 16> H          1.56387       -0.96046       -2.27853
| 17> H          3.18033       -1.21449       -1.66568
| 18> H          1.79916       -1.72608       -0.72562
| 19> *
| 20>
| 21> %MaxCore 64000
| 22>
| 23> %pal nprocs 4
| 24> end
| 25>
| 26> %scf
| 27>   MaxIter 150
| 28> end
| 29>
| 30>
| 31>                          ****END OF INPUT****

CARTESIAN COORDINATES (ANGSTROEM)
---------------------------------
  C      2.234470   -2.989750   -2.397620
  N      2.756800   -2.945550   -3.765030
  C      1.987210   -2.590450   -4.818980
  N      0.743220   -3.017490   -4.913520
  N      2.499640   -1.848600   -5.803240
  H      3.309780   -1.292820   -5.558950
  H      1.801030   -1.304300   -6.289130
  H      3.716120   -2.628800   -3.829530
  H      0.395830   -3.627750   -4.185020
  H      0.039200   -2.454380   -5.371370
  C      2.191200   -1.619500   -1.715490
  H      2.872780   -3.666370   -1.828010
  H      1.246190   -3.447440   -2.407840
  H      1.563870   -0.960460   -2.278530
  H      3.180330   -1.214490   -1.665680
  H      1.799160   -1.726080   -0.725620

 Total Charge           Charge          ....    1
 Multiplicity           Mult            ....    1
 Number of Electrons    NEL             ....   48
 Basis Dimension        Dim             ....  246

ORBITAL ENERGIES
----------------

  NO   OCC          E(Eh)            E(eV)
   0   2.0000     -14.232832      -387.2951
   1   2.0000     -14.229266      -387.1980
   2   2.0000     -14.227211      -387.1421
   3   2.0000     -10.232533      -278.4414
   4   2.0000     -10.112794      -275.1831
   5   2.0000     -10.045783      -273.3597
   6   2.0000      -1.126905       -30.6647
   7   2.0000      -1.021239       -27.7893
   8   2.0000      -1.017963       -27.7002
   9   2.0000      -0.853445       -23.2234
  10   2.0000      -0.778108       -21.1734
  11   2.0000      -0.740653       -20.1542
  12   2.0000      -0.725825       -19.7507
  13   2.0000      -0.683669       -18.6036
  14   2.0000      -0.647634       -17.6230
  15   2.0000      -0.633413       -17.2360
  16   2.0000      -0.597772       -16.2662
  17   2.0000      -0.568913       -15.4809
  18   2.0000      -0.552636       -15.0380
  19   2.0000      -0.520639       -14.1673
  20   2.0000      -0.490390       -13.3442
  21   2.0000      -0.472891       -12.8680
  22   2.0000      -0.443300       -12.0628
  23   2.0000      -0.409922       -11.1546
  24   0.0000      -0.222298        -6.0490
  25   0.0000      -0.179147        -4.8748
  26   0.0000      -0.147911        -4.0249
  27   0.0000      -0.133723        -3.6388
  28   0.0000      -0.118491        -3.2243

MULLIKEN ATOMIC CHARGES
-----------------------
   0 C :   -0.112869
   1 N :   -0.220617
   2 C :    0.356860
   3 N :   -0.324493
   4 N :   -0.298613
   5 H :    0.251645
   6 H :    0.249849
   7 H :    0.224285
   8 H :    0.262011
   9 H :    0.263127
  10 C :   -0.290799
  11 H :    0.158254
  12 H :    0.101688
  13 H :    0.105653
  14 H :    0.125021
  15 H :    0.148998
Sum of atomic charges:    1.0000000

LOEWDIN ATOMIC CHARGES
----------------------
   0 C :   -0.279573
   1 N :    0.166481
   2 C :   -0.417944
   3 N :    0.097115
   4 N :    0.072483
   5 H :    0.191818
   6 H :    0.195774
   7 H :    0.201563
   8 H :    0.194163
   9 H :    0.195481
  10 C :   -0.275162
  11 H :    0.148378
  12 H :    0.132112
  13 H :    0.117372
  14 H :    0.123537
  15 H :    0.136403

  Mayer bond orders larger than 0.100000
B(  0-C ,  1-N ) :   0.8880 B(  0-C , 10-C ) :   0.9462 B(  0-C , 11-H ) :   0.9574
B(  0-C , 12-H ) :   0.9698 B(  1-N ,  2-C ) :   1.3409 B(  1-N ,  7-H ) :   0.9114
B(  2-C ,  3-N ) :   1.3325 B(  2-C ,  4-N ) :   1.3240 B(  3-N ,  8-H ) :   0.9019
B(  3-N ,  9-H ) :   0.8969 B(  4-N ,  5-H ) :   0.9049 B(  4-N ,  6-H ) :   0.9028
B( 10-C , 13-H ) :   0.9624 B( 10-C , 14-H ) :   0.9652 B( 10-C , 15-H ) :   0.9616

Dispersion correction           -0.025052832
FINAL SINGLE POINT ENERGY      -284.396647535680

DIPOLE MOMENT
-------------
                                X             Y             Z
Electronic contribution:      0.19347      -1.68469      -5.18813
Nuclear contribution   :     -0.59121       2.30298       4.63196
                        -----------------------------------------
Total Dipole Moment    :     -0.39774       0.61829      -0.55617
                        -----------------------------------------
Magnitude (a.u.)       :      0.92185
Magnitude (Debye)      :      2.34316

Rotational constants in cm-1:     0.205874     0.074757     0.066901
Rotational constants in MHz :  6171.937773  2241.151057  2005.629823

                             ****ORCA TERMINATED NORMALLY****
TOTAL RUN TIME: 0 days 0 hours 0 minutes 12 seconds 6 msec
