                         Program Version 5.0.0 -  RELEASE  -
|  1> !BLYP D3BJ RIJCOSX def2-TZVP def2/J TightSCF xyzfile
|  2>
|  3> *xyzfile 0 1 B.xyz
|  4>
|  5> %MaxCore 64000
|  6>
|  7> %pal nprocs 18
|  8> end
|  9>
| 10> %scf
| 11>   MaxIter 150
| 12> end
| 13>
| 14>
| 15>                          ****END OF INPUT****

CARTESIAN COORDINATES (ANGSTROEM)
---------------------------------
  C      2.234473   -2.989754   -2.397622
  N      2.756799   -2.945553   -3.765029
  C     -1.104325    0.251374   -2.860056
  C     -0.711893    0.842517   -4.218344
  H      0.154626    1.499800   -4.130909
  H     -1.538134    1.459222   -4.582671
  C     -0.397624   -0.205875   -5.288018
  C      1.987208   -2.590451   -4.818975
  N      0.743221   -3.017493   -4.913524
  N      2.499636   -1.848598   -5.803241
  H      3.309780   -1.292818   -5.558947
  H      1.801025   -1.304298   -6.289129
  H      3.716116   -2.628797   -3.829533
  H      0.395828   -3.627747   -4.185024
  H      0.039201   -2.454383   -5.371367
  O      0.617165   -0.005348   -5.998273
  O     -1.133173   -1.221380   -5.341465
  C      2.191199   -1.619503   -1.715492
  H      2.872783   -3.666368   -1.828014
  H      1.246188   -3.447444   -2.407842
  C      1.298729   -0.554314   -2.359773
  H      1.872917   -1.787955   -0.681310
  H      3.216809   -1.238432   -1.654428
  C     -0.196255   -0.863365   -2.325763
  H      1.612531   -0.371346   -3.393065
  H      1.480944    0.388638   -1.834444
  H     -0.404105   -1.761825   -2.909448
  H     -0.490439   -1.087880   -1.294131
  H     -1.143842    1.066711   -2.129680
  H     -2.114401   -0.156834   -2.930323

 Total Charge           Charge          ....    0
 Multiplicity           Mult            ....    1
 Number of Electrons    NEL             ....  102
 Basis Dimension        Dim             ....  505

ORBITAL ENERGIES
----------------

  NO   OCC          E(Eh)            E(eV)
   0   2.0000     -18.687606      -508.5156
   1   2.0000     -18.686736      -508.4919
   2   2.0000     -14.070026      -382.8649
   3   2.0000     -14.039750      -382.0410
   4   2.0000     -14.039530      -382.0350
   5   2.0000     -10.056858      -273.6610
   6   2.0000      -9.976553      -271.4758
   7   2.0000      -9.953792      -270.8564
   8   2.0000      -9.927311      -270.1359
   9   2.0000      -9.907410      -269.5943
  10   2.0000      -9.893798      -269.2239
  11   2.0000      -9.884089      -268.9597
  12   2.0000      -9.870925      -268.6015
  13   2.0000      -0.953882       -25.9564
  14   2.0000      -0.908614       -24.7246
  15   2.0000      -0.856591       -23.3090
  16   2.0000      -0.837400       -22.7868
  17   2.0000      -0.818066       -22.2607
  18   2.0000      -0.737655       -20.0726
  19   2.0000      -0.697152       -18.9705
  20   2.0000      -0.650552       -17.7024
  21   2.0000      -0.609856       -16.5950
  22   2.0000      -0.589059       -16.0291
  23   2.0000      -0.557552       -15.1718
  24   2.0000      -0.549371       -14.9491
  25   2.0000      -0.516557       -14.0562
  26   2.0000      -0.496087       -13.4992
  27   2.0000      -0.475635       -12.9427
  28   2.0000      -0.456247       -12.4151
  29   2.0000      -0.447065       -12.1652
  30   2.0000      -0.429580       -11.6895
  31   2.0000      -0.418276       -11.3819
  32   2.0000      -0.405611       -11.0372
  33   2.0000      -0.392356       -10.6766
  34   2.0000      -0.382304       -10.4030
  35   2.0000      -0.375280       -10.2119
  36   2.0000      -0.363635        -9.8950
  37   2.0000      -0.349880        -9.5207
  38   2.0000      -0.336811        -9.1651
  39   2.0000      -0.329715        -8.9720
  40   2.0000      -0.318013        -8.6536
  41   2.0000      -0.310501        -8.4492
  42   2.0000      -0.297127        -8.0853
  43   2.0000      -0.282331        -7.6826
  44   2.0000      -0.270823        -7.3695
  45   2.0000      -0.264664        -7.2019
  46   2.0000      -0.259458        -7.0602
  47   2.0000      -0.250676        -6.8212
  48   2.0000      -0.186702        -5.0804
  49   2.0000      -0.172674        -4.6987
  50   2.0000      -0.160170        -4.3585
  51   0.0000      -0.047241        -1.2855
  52   0.0000      -0.028756        -0.7825
  53   0.0000      -0.005690        -0.1548
  54   0.0000       0.011174         0.3041
  55   0.0000       0.026383         0.7179

MULLIKEN ATOMIC CHARGES
-----------------------
   0 C :   -0.129865
   1 N :   -0.212126
   2 C :   -0.108804
   3 C :   -0.138404
   4 H :    0.060616
   5 H :    0.077542
   6 C :    0.224359
   7 C :    0.231269
   8 N :   -0.289494
   9 N :   -0.277469
  10 H :    0.203509
  11 H :    0.253287
  12 H :    0.192262
  13 H :    0.210939
  14 H :    0.256282
  15 O :   -0.482045
  16 O :   -0.453989
  17 C :   -0.155633
  18 H :    0.123417
  19 H :    0.105932
  20 C :   -0.138646
  21 H :    0.084097
  22 H :    0.084633
  23 C :   -0.145528
  24 H :    0.101753
  25 H :    0.074251
  26 H :    0.058828
  27 H :    0.058541
  28 H :    0.063119
  29 H :    0.067367
Sum of atomic charges:    0.0000000

LOEWDIN ATOMIC CHARGES
----------------------
   0 C :   -0.272684
   1 N :    0.138960
   2 C :   -0.257940
   3 C :   -0.244595
   4 H :    0.131183
   5 H :    0.141579
   6 C :   -0.670423
   7 C :   -0.448013
   8 N :    0.098371
   9 N :    0.056919
  10 H :    0.170147
  11 H :    0.165751
  12 H :    0.186406
  13 H :    0.171814
  14 H :    0.159307
  15 O :   -0.044758
  16 O :   -0.033673
  17 C :   -0.262819
  18 H :    0.135647
  19 H :    0.131034
  20 C :   -0.260302
  21 H :    0.141393
  22 H :    0.132635
  23 C :   -0.266420
  24 H :    0.140204
  25 H :    0.138827
  26 H :    0.127073
  27 H :    0.129049
  28 H :    0.127973
  29 H :    0.137357

  Mayer bond orders larger than 0.100000
B(  0-C ,  1-N ) :   0.9050 B(  0-C , 17-C ) :   0.9551 B(  0-C , 18-H ) :   0.9719
B(  0-C , 19-H ) :   0.9745 B(  1-N ,  7-C ) :   1.3012 B(  1-N , 12-H ) :   0.9179
B(  2-C ,  3-C ) :   0.9552 B(  2-C , 23-C ) :   0.9944 B(  2-C , 28-H ) :   0.9532
B(  2-C , 29-H ) :   0.9464 B(  3-C ,  4-H ) :   0.9535 B(  3-C ,  5-H ) :   0.9372
B(  3-C ,  6-C ) :   0.9478 B(  6-C , 15-O ) :   1.7394 B(  6-C , 16-O ) :   1.7502
B(  7-C ,  8-N ) :   1.4081 B(  7-C ,  9-N ) :   1.3761 B(  8-N , 13-H ) :   0.9200
B(  8-N , 14-H ) :   0.7754 B(  9-N , 10-H ) :   0.9224 B(  9-N , 11-H ) :   0.8117
B( 11-H , 15-O ) :   0.1608 B( 14-H , 16-O ) :   0.1999 B( 17-C , 20-C ) :   0.9560
B( 17-C , 21-H ) :   0.9535 B( 17-C , 22-H ) :   0.9659 B( 20-C , 23-C ) :   0.9490
B( 20-C , 24-H ) :   0.9472 B( 20-C , 25-H ) :   0.9605 B( 23-C , 26-H ) :   0.9557
B( 23-C , 27-H ) :   0.9591

Dispersion correction           -0.070204545
FINAL SINGLE POINT ENERGY      -629.884399972294

DIPOLE MOMENT
-------------
                                X             Y             Z
Electronic contribution:      0.55013      -2.84096     -10.35917
Nuclear contribution   :      1.76912       1.50070      12.36652
                        -----------------------------------------
Total Dipole Moment    :      2.31924      -1.34026       2.00735
                        -----------------------------------------
Magnitude (a.u.)       :      3.34734
Magnitude (Debye)      :      8.50825

Rotational constants in cm-1:     0.033272     0.023886     0.017112
Rotational constants in MHz :   997.469575   716.074432   513.001395

                             ****ORCA TERMINATED NORMALLY****
TOTAL RUN TIME: 0 days 0 hours 0 minutes 25 seconds 598 msec
