                         Program Version 5.0.0 -  RELEASE  -
|  1> !BLYP D3BJ RIJCOSX def2-TZVP def2/J TightSCF
|  2> *xyz 0 1
|  3> C         -1.10433        0.25137       -2.86006
|  4> C         -0.71189        0.84252       -4.21834
|  5> H          0.15463        1.49980       -4.13091
|  6> H         -1.53813        1.45922       -4.58267
|  7> C         -0.39762       -0.20587       -5.28802
|  8> F          0.61717       -0.00535       -5.99827
|  9> O         -1.13317       -1.22138       -5.34147
| 10> H         -1.95489       -0.38644       -2.98099
| 11> H         -1.34603        1.04362       -2.18269
| 12> H         -0.28606       -0.31581       -2.46809
| 13> *
| 14>
| 15> %MaxCore 64000
| 16>
| 17> %pal nprocs 4
| 18> end
| 19>
| 20> %scf
| 21>   MaxIter 150
| 22> end
| 23>
| 24>
| 25>                          ****END OF INPUT****

CARTESIAN COORDINATES (ANGSTROEM)
---------------------------------
  C     -1.104330    0.251370   -2.860060
  C     -0.711890    0.842520   -4.218340
  H      0.154630    1.499800   -4.130910
  H     -1.538130    1.459220   -4.582670
  C     -0.397620   -0.205870   -5.288020
  F      0.617170   -0.005350   -5.998270
  O     -1.133170   -1.221380   -5.341470
  H     -1.954890   -0.386440   -2.980990
  H     -1.346030    1.043620   -2.182690
  H     -0.286060   -0.315810   -2.468090

 Total Charge           Charge          ....    0
 Multiplicity           Mult            ....    1
 Number of Electrons    NEL             ....   40
 Basis Dimension        Dim             ....  185

ORBITAL ENERGIES
----------------

  NO   OCC          E(Eh)            E(eV)
   0   2.0000     -24.350851      -662.6203
   1   2.0000     -18.774181      -510.8714
   2   2.0000     -10.072648      -274.0907
   3   2.0000      -9.934568      -270.3333
   4   2.0000      -9.905406      -269.5398
   5   2.0000      -1.207090       -32.8466
   6   2.0000      -0.937033       -25.4980
   7   2.0000      -0.718467       -19.5505
   8   2.0000      -0.618054       -16.8181
   9   2.0000      -0.568459       -15.4686
  10   2.0000      -0.483441       -13.1551
  11   2.0000      -0.469520       -12.7763
  12   2.0000      -0.444001       -12.0819
  13   2.0000      -0.411674       -11.2022
  14   2.0000      -0.379094       -10.3157
  15   2.0000      -0.347268        -9.4497
  16   2.0000      -0.328697        -8.9443
  17   2.0000      -0.325708        -8.8630
  18   2.0000      -0.302800        -8.2396
  19   2.0000      -0.240285        -6.5385
  20   0.0000      -0.061592        -1.6760
  21   0.0000       0.011740         0.3195
  22   0.0000       0.051076         1.3898
  23   0.0000       0.065751         1.7892
  24   0.0000       0.074591         2.0297

MULLIKEN ATOMIC CHARGES
-----------------------
   0 C :   -0.292202
   1 C :   -0.191786
   2 H :    0.092882
   3 H :    0.107444
   4 C :    0.330307
   5 F :   -0.078707
   6 O :   -0.295590
   7 H :    0.122417
   8 H :    0.103838
   9 H :    0.101397
Sum of atomic charges:   -0.0000000

LOEWDIN ATOMIC CHARGES
----------------------
   0 C :   -0.280984
   1 C :   -0.258767
   2 H :    0.136025
   3 H :    0.151745
   4 C :   -0.526375
   5 F :    0.340186
   6 O :    0.082481
   7 H :    0.122416
   8 H :    0.116047
   9 H :    0.117225

  Mayer bond orders larger than 0.100000
B(  0-C ,  1-C ) :   0.9593 B(  0-C ,  7-H ) :   0.9678 B(  0-C ,  8-H ) :   0.9658
B(  0-C ,  9-H ) :   0.9757 B(  1-C ,  2-H ) :   0.9535 B(  1-C ,  3-H ) :   0.9309
B(  1-C ,  4-C ) :   0.9849 B(  4-C ,  5-F ) :   1.1763 B(  4-C ,  6-O ) :   2.0693

Dispersion correction           -0.012837990
FINAL SINGLE POINT ENERGY      -292.453351697669

DIPOLE MOMENT
-------------
                                X             Y             Z
Electronic contribution:      3.60143      -2.41145      -7.75234
Nuclear contribution   :     -3.36368       3.36392       8.24820
                        -----------------------------------------
Total Dipole Moment    :      0.23774       0.95247       0.49586
                        -----------------------------------------
Magnitude (a.u.)       :      1.09982
Magnitude (Debye)      :      2.79551

Rotational constants in cm-1:     0.315013     0.126712     0.098430
Rotational constants in MHz :  9443.861322  3798.734540  2950.846388

                             ****ORCA TERMINATED NORMALLY****
TOTAL RUN TIME: 0 days 0 hours 0 minutes 8 seconds 144 msec
