                         Program Version 5.0.0 -  RELEASE  -
|  1> !BLYP D3BJ RIJCOSX def2-TZVP def2/J TightSCF
|  2> *xyz 0 1
|  3> C          2.23447       -2.98975       -2.39762
|  4> C          2.75680       -2.94555       -3.76503
|  5> C          1.98721       -2.59045       -4.81898
|  6> N          0.74322       -3.01749       -4.91352
|  7> N          2.49964       -1.84860       -5.80324
|  8> H          3.30978       -1.29282       -5.55895
|  9> H          1.80103       -1.30430       -6.28913
| 10> H          3.71612       -2.62880       -3.82953
| 11> H          0.39583       -3.62775       -4.18502
| 12> H          0.03920       -2.45438       -5.37137
| 13> C          2.19120       -1.61950       -1.71549
| 14> H          2.87278       -3.66637       -1.82801
| 15> H          1.24619       -3.44744       -2.40784
| 16> H          1.56387       -0.96046       -2.27853
| 17> H          3.18033       -1.21449       -1.66568
| 18> H          1.79916       -1.72608       -0.72562
| 19> *
| 20>
| 21> %MaxCore 64000
| 22>
| 23> %pal nprocs 4
| 24> end
| 25>
| 26> %scf
| 27>   MaxIter 150
| 28> end
| 29>
| 30>
| 31>                          ****END OF INPUT****

CARTESIAN COORDINATES (ANGSTROEM)
---------------------------------
  C      2.234470   -2.989750   -2.397620
  C      2.756800   -2.945550   -3.765030
  C      1.987210   -2.590450   -4.818980
  N      0.743220   -3.017490   -4.913520
  N      2.499640   -1.848600   -5.803240
  H      3.309780   -1.292820   -5.558950
  H      1.801030   -1.304300   -6.289130
  H      3.716120   -2.628800   -3.829530
  H      0.395830   -3.627750   -4.185020
  H      0.039200   -2.454380   -5.371370
  C      2.191200   -1.619500   -1.715490
  H      2.872780   -3.666370   -1.828010
  H      1.246190   -3.447440   -2.407840
  H      1.563870   -0.960460   -2.278530
  H      3.180330   -1.214490   -1.665680
  H      1.799160   -1.726080   -0.725620

 Total Charge           Charge          ....    0
 Multiplicity           Mult            ....    1
 Number of Electrons    NEL             ....   48
 Basis Dimension        Dim             ....  246

ORBITAL ENERGIES
----------------

  NO   OCC          E(Eh)            E(eV)
   0   2.0000     -14.009384      -381.2147
   1   2.0000     -14.005448      -381.1076
   2   2.0000      -9.945034      -270.6181
   3   2.0000      -9.879471      -268.8341
   4   2.0000      -9.871050      -268.6049
   5   2.0000      -9.828587      -267.4495
   6   2.0000      -0.879867       -23.9424
   7   2.0000      -0.795927       -21.6583
   8   2.0000      -0.692194       -18.8356
   9   2.0000      -0.617751       -16.8099
  10   2.0000      -0.552890       -15.0449
  11   2.0000      -0.517103       -14.0711
  12   2.0000      -0.485873       -13.2213
  13   2.0000      -0.451019       -12.2728
  14   2.0000      -0.418602       -11.3907
  15   2.0000      -0.396325       -10.7845
  16   2.0000      -0.362098        -9.8532
  17   2.0000      -0.341696        -9.2980
  18   2.0000      -0.322700        -8.7811
  19   2.0000      -0.311336        -8.4719
  20   2.0000      -0.282239        -7.6801
  21   2.0000      -0.276596        -7.5266
  22   2.0000      -0.227546        -6.1918
  23   2.0000      -0.125561        -3.4167
  24   0.0000      -0.009997        -0.2720
  25   0.0000       0.022885         0.6227
  26   0.0000       0.037048         1.0081
  27   0.0000       0.040341         1.0977
  28   0.0000       0.055411         1.5078

MULLIKEN ATOMIC CHARGES
-----------------------
   0 C :   -0.145259
   1 C :   -0.293744
   2 C :    0.281776
   3 N :   -0.394089
   4 N :   -0.383886
   5 H :    0.216325
   6 H :    0.184272
   7 H :    0.041613
   8 H :    0.218398
   9 H :    0.186337
  10 C :   -0.243577
  11 H :    0.074229
  12 H :    0.022700
  13 H :    0.074593
  14 H :    0.077792
  15 H :    0.082520
Sum of atomic charges:   -0.0000000

LOEWDIN ATOMIC CHARGES
----------------------
   0 C :   -0.310077
   1 C :   -0.274784
   2 C :   -0.469322
   3 N :    0.013561
   4 N :   -0.008008
   5 H :    0.170584
   6 H :    0.158549
   7 H :    0.113742
   8 H :    0.173131
   9 H :    0.153020
  10 C :   -0.295353
  11 H :    0.131664
  12 H :    0.119752
  13 H :    0.107580
  14 H :    0.109508
  15 H :    0.106452

  Mayer bond orders larger than 0.100000
B(  0-C ,  1-C ) :   1.0467 B(  0-C , 10-C ) :   0.9184 B(  0-C , 11-H ) :   0.9739
B(  0-C , 12-H ) :   0.9624 B(  1-C ,  2-C ) :   1.6089 B(  1-C ,  7-H ) :   1.0202
B(  2-C ,  3-N ) :   1.1580 B(  2-C ,  4-N ) :   1.1454 B(  3-N ,  8-H ) :   0.9277
B(  3-N ,  9-H ) :   0.9151 B(  4-N ,  5-H ) :   0.9281 B(  4-N ,  6-H ) :   0.9323
B( 10-C , 13-H ) :   0.9790 B( 10-C , 14-H ) :   0.9757 B( 10-C , 15-H ) :   0.9672

Dispersion correction           -0.026197423
FINAL SINGLE POINT ENERGY      -267.903423610010

DIPOLE MOMENT
-------------
                                X             Y             Z
Electronic contribution:     -0.33151      -1.38641      -5.06832
Nuclear contribution   :     -0.44240       2.20379       4.66256
                        -----------------------------------------
Total Dipole Moment    :     -0.77391       0.81737      -0.40576
                        -----------------------------------------
Magnitude (a.u.)       :      1.19653
Magnitude (Debye)      :      3.04133

Rotational constants in cm-1:     0.209447     0.075194     0.066975
Rotational constants in MHz :  6279.068019  2254.272519  2007.845458

                             ****ORCA TERMINATED NORMALLY****
TOTAL RUN TIME: 0 days 0 hours 0 minutes 13 seconds 450 msec
