                         Program Version 5.0.0 -  RELEASE  -
|  1> !BLYP D3BJ RIJCOSX def2-TZVP def2/J TightSCF
|  2> *xyz 0 1
|  3> C         -1.10433        0.25137       -2.86006
|  4> C         -0.71189        0.84252       -4.21834
|  5> H          0.15463        1.49980       -4.13091
|  6> H         -1.53813        1.45922       -4.58267
|  7> C         -0.39762       -0.20587       -5.28802
|  8> O          0.61717       -0.00535       -5.99827
|  9> F         -1.13317       -1.22138       -5.34147
| 10> H         -1.95489       -0.38644       -2.98099
| 11> H         -1.34603        1.04362       -2.18269
| 12> H         -0.28606       -0.31581       -2.46809
| 13> *
| 14>
| 15> %MaxCore 64000
| 16>
| 17> %pal nprocs 4
| 18> end
| 19>
| 20> %scf
| 21>   MaxIter 150
| 22> end
| 23>
| 24>
| 25>                          ****END OF INPUT****

CARTESIAN COORDINATES (ANGSTROEM)
---------------------------------
  C     -1.104330    0.251370   -2.860060
  C     -0.711890    0.842520   -4.218340
  H      0.154630    1.499800   -4.130910
  H     -1.538130    1.459220   -4.582670
  C     -0.397620   -0.205870   -5.288020
  O      0.617170   -0.005350   -5.998270
  F     -1.133170   -1.221380   -5.341470
  H     -1.954890   -0.386440   -2.980990
  H     -1.346030    1.043620   -2.182690
  H     -0.286060   -0.315810   -2.468090

 Total Charge           Charge          ....    0
 Multiplicity           Mult            ....    1
 Number of Electrons    NEL             ....   40
 Basis Dimension        Dim             ....  185

ORBITAL ENERGIES
----------------

  NO   OCC          E(Eh)            E(eV)
   0   2.0000     -24.351610      -662.6410
   1   2.0000     -18.772829      -510.8347
   2   2.0000     -10.071942      -274.0715
   3   2.0000      -9.933771      -270.3117
   4   2.0000      -9.910929      -269.6901
   5   2.0000      -1.207638       -32.8615
   6   2.0000      -0.935748       -25.4630
   7   2.0000      -0.722398       -19.6574
   8   2.0000      -0.613671       -16.6988
   9   2.0000      -0.575200       -15.6520
  10   2.0000      -0.485280       -13.2051
  11   2.0000      -0.475550       -12.9404
  12   2.0000      -0.436170       -11.8688
  13   2.0000      -0.412557       -11.2263
  14   2.0000      -0.380519       -10.3544
  15   2.0000      -0.351068        -9.5531
  16   2.0000      -0.335459        -9.1283
  17   2.0000      -0.330139        -8.9835
  18   2.0000      -0.303178        -8.2499
  19   2.0000      -0.235578        -6.4104
  20   0.0000      -0.059565        -1.6208
  21   0.0000       0.006759         0.1839
  22   0.0000       0.051091         1.3903
  23   0.0000       0.068758         1.8710
  24   0.0000       0.076407         2.0792

MULLIKEN ATOMIC CHARGES
-----------------------
   0 C :   -0.300669
   1 C :   -0.189451
   2 H :    0.116220
   3 H :    0.101201
   4 C :    0.324115
   5 O :   -0.293188
   6 F :   -0.081863
   7 H :    0.104669
   8 H :    0.109306
   9 H :    0.109661
Sum of atomic charges:   -0.0000000

LOEWDIN ATOMIC CHARGES
----------------------
   0 C :   -0.290251
   1 C :   -0.254252
   2 H :    0.148855
   3 H :    0.147801
   4 C :   -0.527225
   5 O :    0.080381
   6 F :    0.342413
   7 H :    0.116339
   8 H :    0.118068
   9 H :    0.117871

  Mayer bond orders larger than 0.100000
B(  0-C ,  1-C ) :   0.9394 B(  0-C ,  7-H ) :   0.9686 B(  0-C ,  8-H ) :   0.9677
B(  0-C ,  9-H ) :   0.9741 B(  1-C ,  2-H ) :   0.9625 B(  1-C ,  3-H ) :   0.9314
B(  1-C ,  4-C ) :   0.9995 B(  4-C ,  5-O ) :   2.0877 B(  4-C ,  6-F ) :   1.1634

Dispersion correction           -0.012728483
FINAL SINGLE POINT ENERGY      -292.452348029177

DIPOLE MOMENT
-------------
                                X             Y             Z
Electronic contribution:      0.71249      -4.39433      -6.64240
Nuclear contribution   :     -1.45527       4.68977       7.53208
                        -----------------------------------------
Total Dipole Moment    :     -0.74278       0.29544       0.88968
                        -----------------------------------------
Magnitude (a.u.)       :      1.19605
Magnitude (Debye)      :      3.04011

Rotational constants in cm-1:     0.298240     0.132464     0.099915
Rotational constants in MHz :  8940.998095  3971.171647  2995.369122

                             ****ORCA TERMINATED NORMALLY****
TOTAL RUN TIME: 0 days 0 hours 0 minutes 8 seconds 532 msec
