                         Program Version 5.0.0 -  RELEASE  -
|  1> !BLYP D3BJ RIJCOSX def2-TZVP def2/J TightSCF
|  2> *xyz 0 1
|  3> C          2.23447       -2.98975       -2.39762
|  4> N          2.75680       -2.94555       -3.76503
|  5> C          1.98721       -2.59045       -4.81898
|  6> C          0.74322       -3.01749       -4.91352
|  7> N          2.49964       -1.84860       -5.80324
|  8> H          3.30978       -1.29282       -5.55895
|  9> H          1.80103       -1.30430       -6.28913
| 10> H          3.71612       -2.62880       -3.82953
| 11> H          0.39583       -3.62775       -4.18502
| 12> H          0.03920       -2.45438       -5.37137
| 13> C          2.19120       -1.61950       -1.71549
| 14> H          2.87278       -3.66637       -1.82801
| 15> H          1.24619       -3.44744       -2.40784
| 16> H          1.56387       -0.96046       -2.27853
| 17> H          3.18033       -1.21449       -1.66568
| 18> H          1.79916       -1.72608       -0.72562
| 19> *
| 20>
| 21> %MaxCore 64000
| 22>
| 23> %pal nprocs 4
| 24> end
| 25>
| 26> %scf
| 27>   MaxIter 150
| 28> end
| 29>
| 30>
| 31>                          ****END OF INPUT****

CARTESIAN COORDINATES (ANGSTROEM)
---------------------------------
  C      2.234470   -2.989750   -2.397620
  N      2.756800   -2.945550   -3.765030
  C      1.987210   -2.590450   -4.818980
  C      0.743220   -3.017490   -4.913520
  N      2.499640   -1.848600   -5.803240
  H      3.309780   -1.292820   -5.558950
  H      1.801030   -1.304300   -6.289130
  H      3.716120   -2.628800   -3.829530
  H      0.395830   -3.627750   -4.185020
  H      0.039200   -2.454380   -5.371370
  C      2.191200   -1.619500   -1.715490
  H      2.872780   -3.666370   -1.828010
  H      1.246190   -3.447440   -2.407840
  H      1.563870   -0.960460   -2.278530
  H      3.180330   -1.214490   -1.665680
  H      1.799160   -1.726080   -0.725620

 Total Charge           Charge          ....    0
 Multiplicity           Mult            ....    1
 Number of Electrons    NEL             ....   48
 Basis Dimension        Dim             ....  246

ORBITAL ENERGIES
----------------

  NO   OCC          E(Eh)            E(eV)
   0   2.0000     -14.006368      -381.1326
   1   2.0000     -14.003746      -381.0613
   2   2.0000      -9.942725      -270.5553
   3   2.0000      -9.935339      -270.3543
   4   2.0000      -9.892459      -269.1875
   5   2.0000      -9.820898      -267.2402
   6   2.0000      -0.876781       -23.8584
   7   2.0000      -0.803489       -21.8641
   8   2.0000      -0.678773       -18.4704
   9   2.0000      -0.638461       -17.3734
  10   2.0000      -0.573032       -15.5930
  11   2.0000      -0.501588       -13.6489
  12   2.0000      -0.485821       -13.2199
  13   2.0000      -0.456546       -12.4233
  14   2.0000      -0.408969       -11.1286
  15   2.0000      -0.394966       -10.7476
  16   2.0000      -0.364982        -9.9317
  17   2.0000      -0.348527        -9.4839
  18   2.0000      -0.344536        -9.3753
  19   2.0000      -0.324125        -8.8199
  20   2.0000      -0.309698        -8.4273
  21   2.0000      -0.302337        -8.2270
  22   2.0000      -0.207243        -5.6394
  23   2.0000      -0.140237        -3.8160
  24   0.0000      -0.003813        -0.1038
  25   0.0000       0.024606         0.6696
  26   0.0000       0.033508         0.9118
  27   0.0000       0.045815         1.2467
  28   0.0000       0.060184         1.6377

MULLIKEN ATOMIC CHARGES
-----------------------
   0 C :   -0.046126
   1 N :   -0.274090
   2 C :    0.325312
   3 C :   -0.449714
   4 N :   -0.390464
   5 H :    0.174185
   6 H :    0.211377
   7 H :    0.157197
   8 H :    0.054678
   9 H :    0.065846
  10 C :   -0.297788
  11 H :    0.090147
  12 H :    0.094628
  13 H :    0.110342
  14 H :    0.080952
  15 H :    0.093517
Sum of atomic charges:    0.0000000

LOEWDIN ATOMIC CHARGES
----------------------
   0 C :   -0.296644
   1 N :    0.113981
   2 C :   -0.468339
   3 C :   -0.314262
   4 N :   -0.011142
   5 H :    0.148347
   6 H :    0.174080
   7 H :    0.167912
   8 H :    0.097727
   9 H :    0.095342
  10 C :   -0.302507
  11 H :    0.124371
  12 H :    0.132541
  13 H :    0.116051
  14 H :    0.107836
  15 H :    0.114705

  Mayer bond orders larger than 0.100000
B(  0-C ,  1-N ) :   0.9551 B(  0-C , 10-C ) :   0.9457 B(  0-C , 11-H ) :   0.9712
B(  0-C , 12-H ) :   0.9642 B(  1-N ,  2-C ) :   1.1328 B(  1-N ,  7-H ) :   0.9368
B(  2-C ,  3-C ) :   1.6023 B(  2-C ,  4-N ) :   1.1525 B(  3-C ,  8-H ) :   1.0129
B(  3-C ,  9-H ) :   0.9765 B(  4-N ,  5-H ) :   0.9255 B(  4-N ,  6-H ) :   0.9264
B( 10-C , 13-H ) :   0.9743 B( 10-C , 14-H ) :   0.9720 B( 10-C , 15-H ) :   0.9655

Dispersion correction           -0.026016214
FINAL SINGLE POINT ENERGY      -267.899734523699

DIPOLE MOMENT
-------------
                                X             Y             Z
Electronic contribution:      1.52593      -1.26640      -3.87341
Nuclear contribution   :     -0.86957       2.18853       4.41892
                        -----------------------------------------
Total Dipole Moment    :      0.65637       0.92213       0.54551
                        -----------------------------------------
Magnitude (a.u.)       :      1.25647
Magnitude (Debye)      :      3.19370

Rotational constants in cm-1:     0.214718     0.075736     0.068547
Rotational constants in MHz :  6437.075121  2270.519635  2054.974198

                             ****ORCA TERMINATED NORMALLY****
TOTAL RUN TIME: 0 days 0 hours 0 minutes 13 seconds 946 msec
