                         Program Version 5.0.0 -  RELEASE  -
|  1> !BLYP D3BJ RIJCOSX def2-TZVP def2/J TightSCF
|  2> *xyz 0 1
|  3> C          2.23447       -2.98975       -2.39762
|  4> N          2.75680       -2.94555       -3.76503
|  5> C          1.98721       -2.59045       -4.81898
|  6> N          0.74322       -3.01749       -4.91352
|  7> C          2.49964       -1.84860       -5.80324
|  8> H          3.30978       -1.29282       -5.55895
|  9> H          1.80103       -1.30430       -6.28913
| 10> H          3.71612       -2.62880       -3.82953
| 11> H          0.39583       -3.62775       -4.18502
| 12> H          0.03920       -2.45438       -5.37137
| 13> C          2.19120       -1.61950       -1.71549
| 14> H          2.87278       -3.66637       -1.82801
| 15> H          1.24619       -3.44744       -2.40784
| 16> H          1.56387       -0.96046       -2.27853
| 17> H          3.18033       -1.21449       -1.66568
| 18> H          1.79916       -1.72608       -0.72562
| 19> *
| 20>
| 21> %MaxCore 64000
| 22>
| 23> %pal nprocs 4
| 24> end
| 25>
| 26> %scf
| 27>   MaxIter 150
| 28> end
| 29>
| 30>
| 31>                          ****END OF INPUT****

CARTESIAN COORDINATES (ANGSTROEM)
---------------------------------
  C      2.234470   -2.989750   -2.397620
  N      2.756800   -2.945550   -3.765030
  C      1.987210   -2.590450   -4.818980
  N      0.743220   -3.017490   -4.913520
  C      2.499640   -1.848600   -5.803240
  H      3.309780   -1.292820   -5.558950
  H      1.801030   -1.304300   -6.289130
  H      3.716120   -2.628800   -3.829530
  H      0.395830   -3.627750   -4.185020
  H      0.039200   -2.454380   -5.371370
  C      2.191200   -1.619500   -1.715490
  H      2.872780   -3.666370   -1.828010
  H      1.246190   -3.447440   -2.407840
  H      1.563870   -0.960460   -2.278530
  H      3.180330   -1.214490   -1.665680
  H      1.799160   -1.726080   -0.725620

 Total Charge           Charge          ....    0
 Multiplicity           Mult            ....    1
 Number of Electrons    NEL             ....   48
 Basis Dimension        Dim             ....  246

ORBITAL ENERGIES
----------------

  NO   OCC          E(Eh)            E(eV)
   0   2.0000     -14.006796      -381.1443
   1   2.0000     -14.005013      -381.0958
   2   2.0000      -9.945325      -270.6261
   3   2.0000      -9.943102      -270.5656
   4   2.0000      -9.896125      -269.2872
   5   2.0000      -9.816270      -267.1143
   6   2.0000      -0.878313       -23.9001
   7   2.0000      -0.803601       -21.8671
   8   2.0000      -0.689858       -18.7720
   9   2.0000      -0.632154       -17.2018
  10   2.0000      -0.562884       -15.3169
  11   2.0000      -0.539048       -14.6682
  12   2.0000      -0.481751       -13.1091
  13   2.0000      -0.438022       -11.9192
  14   2.0000      -0.434795       -11.8314
  15   2.0000      -0.388562       -10.5733
  16   2.0000      -0.376162       -10.2359
  17   2.0000      -0.351367        -9.5612
  18   2.0000      -0.330110        -8.9827
  19   2.0000      -0.320089        -8.7101
  20   2.0000      -0.315618        -8.5884
  21   2.0000      -0.307370        -8.3640
  22   2.0000      -0.209544        -5.7020
  23   2.0000      -0.135440        -3.6855
  24   0.0000      -0.002763        -0.0752
  25   0.0000       0.022100         0.6014
  26   0.0000       0.025825         0.7027
  27   0.0000       0.041545         1.1305
  28   0.0000       0.055325         1.5055

MULLIKEN ATOMIC CHARGES
-----------------------
   0 C :   -0.092379
   1 N :   -0.257980
   2 C :    0.280517
   3 N :   -0.398894
   4 C :   -0.388951
   5 H :    0.041891
   6 H :    0.038301
   7 H :    0.187524
   8 H :    0.194592
   9 H :    0.218068
  10 C :   -0.272714
  11 H :    0.099419
  12 H :    0.064385
  13 H :    0.105708
  14 H :    0.089549
  15 H :    0.090963
Sum of atomic charges:   -0.0000000

LOEWDIN ATOMIC CHARGES
----------------------
   0 C :   -0.312668
   1 N :    0.113940
   2 C :   -0.468584
   3 N :    0.015659
   4 C :   -0.342669
   5 H :    0.092734
   6 H :    0.097635
   7 H :    0.185045
   8 H :    0.157794
   9 H :    0.172344
  10 C :   -0.299366
  11 H :    0.126134
  12 H :    0.119624
  13 H :    0.116267
  14 H :    0.112195
  15 H :    0.113915

  Mayer bond orders larger than 0.100000
B(  0-C ,  1-N ) :   0.9826 B(  0-C , 10-C ) :   0.9357 B(  0-C , 11-H ) :   0.9718
B(  0-C , 12-H ) :   0.9711 B(  1-N ,  2-C ) :   1.1783 B(  1-N ,  7-H ) :   0.9313
B(  2-C ,  3-N ) :   1.1213 B(  2-C ,  4-C ) :   1.6919 B(  3-N ,  8-H ) :   0.9350
B(  3-N ,  9-H ) :   0.9233 B(  4-C ,  5-H ) :   1.0091 B(  4-C ,  6-H ) :   0.9955
B( 10-C , 13-H ) :   0.9744 B( 10-C , 14-H ) :   0.9718 B( 10-C , 15-H ) :   0.9640

Dispersion correction           -0.025912518
FINAL SINGLE POINT ENERGY      -267.894532307545

DIPOLE MOMENT
-------------
                                X             Y             Z
Electronic contribution:     -0.13183      -2.42685      -2.98856
Nuclear contribution   :     -0.49695       2.43650       4.23017
                        -----------------------------------------
Total Dipole Moment    :     -0.62878       0.00965       1.24161
                        -----------------------------------------
Magnitude (a.u.)       :      1.39178
Magnitude (Debye)      :      3.53762

Rotational constants in cm-1:     0.211102     0.077011     0.069221
Rotational constants in MHz :  6328.667765  2308.731604  2075.192956

                             ****ORCA TERMINATED NORMALLY****
TOTAL RUN TIME: 0 days 0 hours 0 minutes 15 seconds 243 msec
