                         Program Version 5.0.0 -  RELEASE  -
|  1> !BLYP D3BJ RIJCOSX def2-TZVP def2/J TightSCF xyzfile
|  2>
|  3> *xyzfile 0 1 D2.xyz
|  4>
|  5> %MaxCore 64000
|  6>
|  7> %pal nprocs 18
|  8> end
|  9>
| 10> %scf
| 11>   MaxIter 150
| 12> end
| 13>
| 14>
| 15>                          ****END OF INPUT****

CARTESIAN COORDINATES (ANGSTROEM)
---------------------------------
  C      2.234473   -2.989754   -2.397622
  N      2.756799   -2.945553   -3.765029
  C     -1.104325    0.251374   -2.860056
  C     -0.711893    0.842517   -4.218344
  H      0.154626    1.499800   -4.130909
  H     -1.538134    1.459222   -4.582671
  C     -0.397624   -0.205875   -5.288018
  C      1.987208   -2.590451   -4.818975
  C      0.743221   -3.017493   -4.913524
  N      2.499636   -1.848598   -5.803241
  H      3.309780   -1.292818   -5.558947
  H      1.801025   -1.304298   -6.289129
  H      3.716116   -2.628797   -3.829533
  H      0.395828   -3.627747   -4.185024
  H      0.039201   -2.454383   -5.371367
  F      0.617165   -0.005348   -5.998273
  O     -1.133173   -1.221380   -5.341465
  C      2.191199   -1.619503   -1.715492
  H      2.872783   -3.666368   -1.828014
  H      1.246188   -3.447444   -2.407842
  C      1.298729   -0.554314   -2.359773
  H      1.872917   -1.787955   -0.681310
  H      3.216809   -1.238432   -1.654428
  C     -0.196255   -0.863365   -2.325763
  H      1.612531   -0.371346   -3.393065
  H      1.480944    0.388638   -1.834444
  H     -0.404105   -1.761825   -2.909448
  H     -0.490439   -1.087880   -1.294131
  H     -1.143842    1.066711   -2.129680
  H     -2.114401   -0.156834   -2.930323

 Total Charge           Charge          ....    0
 Multiplicity           Mult            ....    1
 Number of Electrons    NEL             ....  102
 Basis Dimension        Dim             ....  505

ORBITAL ENERGIES
----------------

  NO   OCC          E(Eh)            E(eV)
   0   2.0000     -24.368339      -663.0962
   1   2.0000     -18.781545      -511.0718
   2   2.0000     -13.997365      -380.8877
   3   2.0000     -13.989297      -380.6681
   4   2.0000     -10.080166      -274.2953
   5   2.0000      -9.936428      -270.3839
   6   2.0000      -9.930306      -270.2174
   7   2.0000      -9.928887      -270.1787
   8   2.0000      -9.915644      -269.8184
   9   2.0000      -9.904619      -269.5184
  10   2.0000      -9.904277      -269.5091
  11   2.0000      -9.898065      -269.3400
  12   2.0000      -9.799250      -266.6512
  13   2.0000      -1.226762       -33.3819
  14   2.0000      -0.949873       -25.8473
  15   2.0000      -0.867335       -23.6014
  16   2.0000      -0.795584       -21.6489
  17   2.0000      -0.740752       -20.1569
  18   2.0000      -0.705413       -19.1953
  19   2.0000      -0.658533       -17.9196
  20   2.0000      -0.633467       -17.2375
  21   2.0000      -0.617925       -16.8146
  22   2.0000      -0.592738       -16.1292
  23   2.0000      -0.552078       -15.0228
  24   2.0000      -0.522093       -14.2069
  25   2.0000      -0.502898       -13.6846
  26   2.0000      -0.486284       -13.2325
  27   2.0000      -0.478046       -13.0083
  28   2.0000      -0.474429       -12.9099
  29   2.0000      -0.462538       -12.5863
  30   2.0000      -0.437807       -11.9133
  31   2.0000      -0.425401       -11.5758
  32   2.0000      -0.415874       -11.3165
  33   2.0000      -0.396695       -10.7946
  34   2.0000      -0.390534       -10.6270
  35   2.0000      -0.375151       -10.2084
  36   2.0000      -0.364282        -9.9126
  37   2.0000      -0.356784        -9.7086
  38   2.0000      -0.344505        -9.3745
  39   2.0000      -0.335775        -9.1369
  40   2.0000      -0.327310        -8.9066
  41   2.0000      -0.320406        -8.7187
  42   2.0000      -0.310441        -8.4475
  43   2.0000      -0.308952        -8.4070
  44   2.0000      -0.297205        -8.0874
  45   2.0000      -0.288203        -7.8424
  46   2.0000      -0.278224        -7.5709
  47   2.0000      -0.276634        -7.5276
  48   2.0000      -0.235499        -6.4082
  49   2.0000      -0.197878        -5.3845
  50   2.0000      -0.126893        -3.4529
  51   0.0000      -0.071823        -1.9544
  52   0.0000      -0.001481        -0.0403
  53   0.0000       0.014677         0.3994
  54   0.0000       0.024159         0.6574
  55   0.0000       0.034871         0.9489

MULLIKEN ATOMIC CHARGES
-----------------------
   0 C :   -0.088445
   1 N :   -0.238708
   2 C :   -0.122780
   3 C :   -0.194447
   4 H :    0.095190
   5 H :    0.117229
   6 C :    0.351592
   7 C :    0.198094
   8 C :   -0.469906
   9 N :   -0.351753
  10 H :    0.165855
  11 H :    0.206020
  12 H :    0.154243
  13 H :    0.049841
  14 H :    0.128071
  15 F :   -0.114435
  16 O :   -0.279042
  17 C :   -0.164340
  18 H :    0.096988
  19 H :    0.106959
  20 C :   -0.094538
  21 H :    0.065175
  22 H :    0.070160
  23 C :   -0.175653
  24 H :    0.068591
  25 H :    0.064299
  26 H :    0.119835
  27 H :    0.065400
  28 H :    0.083168
  29 H :    0.087334
Sum of atomic charges:    0.0000000

LOEWDIN ATOMIC CHARGES
----------------------
   0 C :   -0.275593
   1 N :    0.116806
   2 C :   -0.248426
   3 C :   -0.233503
   4 H :    0.138702
   5 H :    0.155290
   6 C :   -0.519905
   7 C :   -0.493818
   8 C :   -0.301141
   9 N :   -0.013192
  10 H :    0.142999
  11 H :    0.158970
  12 H :    0.166339
  13 H :    0.093779
  14 H :    0.093809
  15 F :    0.344389
  16 O :    0.115922
  17 C :   -0.264517
  18 H :    0.128153
  19 H :    0.135344
  20 C :   -0.261556
  21 H :    0.134683
  22 H :    0.129038
  23 C :   -0.261187
  24 H :    0.132396
  25 H :    0.132573
  26 H :    0.142446
  27 H :    0.133539
  28 H :    0.135897
  29 H :    0.141762

  Mayer bond orders larger than 0.100000
B(  0-C ,  1-N ) :   0.9507 B(  0-C , 17-C ) :   0.9666 B(  0-C , 18-H ) :   0.9728
B(  0-C , 19-H ) :   0.9694 B(  1-N ,  7-C ) :   1.1395 B(  1-N , 12-H ) :   0.9298
B(  2-C ,  3-C ) :   0.9621 B(  2-C , 23-C ) :   0.9771 B(  2-C , 28-H ) :   0.9556
B(  2-C , 29-H ) :   0.9523 B(  3-C ,  4-H ) :   0.9453 B(  3-C ,  5-H ) :   0.9334
B(  3-C ,  6-C ) :   0.9948 B(  6-C , 15-F ) :   1.0980 B(  6-C , 16-O ) :   2.0274
B(  7-C ,  8-C ) :   1.5821 B(  7-C ,  9-N ) :   1.1640 B(  8-C , 13-H ) :   1.0188
B(  8-C , 14-H ) :   0.9825 B(  9-N , 10-H ) :   0.9291 B(  9-N , 11-H ) :   0.9213
B( 17-C , 20-C ) :   0.9681 B( 17-C , 21-H ) :   0.9483 B( 17-C , 22-H ) :   0.9647
B( 20-C , 23-C ) :   0.9355 B( 20-C , 24-H ) :   0.9533 B( 20-C , 25-H ) :   0.9629
B( 23-C , 26-H ) :   0.9604 B( 23-C , 27-H ) :   0.9621

Dispersion correction           -0.070304254
FINAL SINGLE POINT ENERGY      -637.750766726269

DIPOLE MOMENT
-------------
                                X             Y             Z
Electronic contribution:     -1.47279       2.09351     -13.61727
Nuclear contribution   :      2.00823      -0.28769      14.57028
                        -----------------------------------------
Total Dipole Moment    :      0.53544       1.80583       0.95301
                        -----------------------------------------
Magnitude (a.u.)       :      2.11091
Magnitude (Debye)      :      5.36550

Rotational constants in cm-1:     0.033070     0.023715     0.016943
Rotational constants in MHz :   991.423248   710.957140   507.940500

                             ****ORCA TERMINATED NORMALLY****
TOTAL RUN TIME: 0 days 0 hours 0 minutes 22 seconds 106 msec
