                         Program Version 5.0.0 -  RELEASE  -
|  1> !BLYP D3BJ RIJCOSX def2-TZVP def2/J TightSCF xyzfile
|  2>
|  3> *xyzfile 0 1 D4.xyz
|  4>
|  5> %MaxCore 64000
|  6>
|  7> %pal nprocs 18
|  8> end
|  9>
| 10> %scf
| 11>   MaxIter 150
| 12> end
| 13>
| 14>
| 15>                          ****END OF INPUT****

CARTESIAN COORDINATES (ANGSTROEM)
---------------------------------
  C      2.234473   -2.989754   -2.397622
  C      2.756799   -2.945553   -3.765029
  C     -1.104325    0.251374   -2.860056
  C     -0.711893    0.842517   -4.218344
  H      0.154626    1.499800   -4.130909
  H     -1.538134    1.459222   -4.582671
  C     -0.397624   -0.205875   -5.288018
  C      1.987208   -2.590451   -4.818975
  N      0.743221   -3.017493   -4.913524
  N      2.499636   -1.848598   -5.803241
  H      3.309780   -1.292818   -5.558947
  H      1.801025   -1.304298   -6.289129
  H      3.716116   -2.628797   -3.829533
  H      0.395828   -3.627747   -4.185024
  H      0.039201   -2.454383   -5.371367
  O      0.617165   -0.005348   -5.998273
  F     -1.133173   -1.221380   -5.341465
  C      2.191199   -1.619503   -1.715492
  H      2.872783   -3.666368   -1.828014
  H      1.246188   -3.447444   -2.407842
  C      1.298729   -0.554314   -2.359773
  H      1.872917   -1.787955   -0.681310
  H      3.216809   -1.238432   -1.654428
  C     -0.196255   -0.863365   -2.325763
  H      1.612531   -0.371346   -3.393065
  H      1.480944    0.388638   -1.834444
  H     -0.404105   -1.761825   -2.909448
  H     -0.490439   -1.087880   -1.294131
  H     -1.143842    1.066711   -2.129680
  H     -2.114401   -0.156834   -2.930323

 Total Charge           Charge          ....    0
 Multiplicity           Mult            ....    1
 Number of Electrons    NEL             ....  102
 Basis Dimension        Dim             ....  505

ORBITAL ENERGIES
----------------

  NO   OCC          E(Eh)            E(eV)
   0   2.0000     -24.382435      -663.4798
   1   2.0000     -18.801220      -511.6072
   2   2.0000     -13.995095      -380.8259
   3   2.0000     -13.980952      -380.4410
   4   2.0000     -10.093445      -274.6566
   5   2.0000      -9.942924      -270.5607
   6   2.0000      -9.934725      -270.3376
   7   2.0000      -9.923585      -270.0345
   8   2.0000      -9.906358      -269.5657
   9   2.0000      -9.896494      -269.2973
  10   2.0000      -9.886274      -269.0192
  11   2.0000      -9.877181      -268.7717
  12   2.0000      -9.821384      -267.2535
  13   2.0000      -1.241529       -33.7837
  14   2.0000      -0.967358       -26.3231
  15   2.0000      -0.866640       -23.5825
  16   2.0000      -0.781217       -21.2580
  17   2.0000      -0.749586       -20.3973
  18   2.0000      -0.709350       -19.3024
  19   2.0000      -0.674615       -18.3572
  20   2.0000      -0.631654       -17.1882
  21   2.0000      -0.616191       -16.7674
  22   2.0000      -0.585918       -15.9436
  23   2.0000      -0.548244       -14.9185
  24   2.0000      -0.528733       -14.3876
  25   2.0000      -0.517585       -14.0842
  26   2.0000      -0.504074       -13.7165
  27   2.0000      -0.498865       -13.5748
  28   2.0000      -0.465668       -12.6715
  29   2.0000      -0.458193       -12.4681
  30   2.0000      -0.432603       -11.7717
  31   2.0000      -0.427898       -11.6437
  32   2.0000      -0.419718       -11.4211
  33   2.0000      -0.402101       -10.9417
  34   2.0000      -0.387217       -10.5367
  35   2.0000      -0.384292       -10.4571
  36   2.0000      -0.375243       -10.2109
  37   2.0000      -0.353371        -9.6157
  38   2.0000      -0.347498        -9.4559
  39   2.0000      -0.341801        -9.3009
  40   2.0000      -0.337252        -9.1771
  41   2.0000      -0.316449        -8.6110
  42   2.0000      -0.311500        -8.4763
  43   2.0000      -0.300887        -8.1875
  44   2.0000      -0.293405        -7.9840
  45   2.0000      -0.280936        -7.6446
  46   2.0000      -0.271609        -7.3909
  47   2.0000      -0.264682        -7.2024
  48   2.0000      -0.259252        -7.0546
  49   2.0000      -0.211994        -5.7686
  50   2.0000      -0.117637        -3.2011
  51   0.0000      -0.083956        -2.2846
  52   0.0000      -0.002605        -0.0709
  53   0.0000       0.020177         0.5491
  54   0.0000       0.027544         0.7495
  55   0.0000       0.032289         0.8786

MULLIKEN ATOMIC CHARGES
-----------------------
   0 C :   -0.173483
   1 C :   -0.249258
   2 C :   -0.156029
   3 C :   -0.177164
   4 H :    0.118141
   5 H :    0.116407
   6 C :    0.341204
   7 C :    0.108743
   8 N :   -0.355355
   9 N :   -0.320034
  10 H :    0.202857
  11 H :    0.205601
  12 H :    0.040112
  13 H :    0.206431
  14 H :    0.194083
  15 O :   -0.329560
  16 F :   -0.099199
  17 C :   -0.076881
  18 H :    0.072801
  19 H :    0.042991
  20 C :   -0.122747
  21 H :    0.052065
  22 H :    0.059443
  23 C :   -0.175768
  24 H :    0.101012
  25 H :    0.061541
  26 H :    0.056789
  27 H :    0.075750
  28 H :    0.090411
  29 H :    0.089096
Sum of atomic charges:   -0.0000000

LOEWDIN ATOMIC CHARGES
----------------------
   0 C :   -0.288759
   1 C :   -0.268593
   2 C :   -0.258610
   3 C :   -0.228042
   4 H :    0.153392
   5 H :    0.152995
   6 C :   -0.527297
   7 C :   -0.482731
   8 N :    0.021902
   9 N :    0.007526
  10 H :    0.166593
  11 H :    0.146129
  12 H :    0.114037
  13 H :    0.166895
  14 H :    0.141630
  15 O :    0.086343
  16 F :    0.351514
  17 C :   -0.252257
  18 H :    0.135331
  19 H :    0.122667
  20 C :   -0.260982
  21 H :    0.127298
  22 H :    0.132014
  23 C :   -0.265334
  24 H :    0.138371
  25 H :    0.132661
  26 H :    0.124734
  27 H :    0.136054
  28 H :    0.138856
  29 H :    0.135667

  Mayer bond orders larger than 0.100000
B(  0-C ,  1-C ) :   1.0185 B(  0-C , 17-C ) :   0.9334 B(  0-C , 18-H ) :   0.9697
B(  0-C , 19-H ) :   0.9714 B(  1-C ,  7-C ) :   1.6559 B(  1-C , 12-H ) :   1.0088
B(  2-C ,  3-C ) :   0.9309 B(  2-C , 23-C ) :   0.9517 B(  2-C , 28-H ) :   0.9504
B(  2-C , 29-H ) :   0.9685 B(  3-C ,  4-H ) :   0.9555 B(  3-C ,  5-H ) :   0.9325
B(  3-C ,  6-C ) :   1.0052 B(  6-C , 15-O ) :   1.9554 B(  6-C , 16-F ) :   1.1158
B(  7-C ,  8-N ) :   1.1902 B(  7-C ,  9-N ) :   1.1905 B(  8-N , 13-H ) :   0.9287
B(  8-N , 14-H ) :   0.9062 B(  9-N , 10-H ) :   0.9332 B(  9-N , 11-H ) :   0.9017
B( 17-C , 20-C ) :   0.9850 B( 17-C , 21-H ) :   0.9461 B( 17-C , 22-H ) :   0.9569
B( 20-C , 23-C ) :   0.9307 B( 20-C , 24-H ) :   0.9536 B( 20-C , 25-H ) :   0.9614
B( 23-C , 26-H ) :   0.9679 B( 23-C , 27-H ) :   0.9641

Dispersion correction           -0.070146325
FINAL SINGLE POINT ENERGY      -637.770506302194

DIPOLE MOMENT
-------------
                                X             Y             Z
Electronic contribution:     -5.85447       0.06768     -13.50144
Nuclear contribution   :      4.38568       1.15960      13.97148
                        -----------------------------------------
Total Dipole Moment    :     -1.46879       1.22728       0.47004
                        -----------------------------------------
Magnitude (a.u.)       :      1.97091
Magnitude (Debye)      :      5.00966

Rotational constants in cm-1:     0.032892     0.023844     0.017123
Rotational constants in MHz :   986.091711   714.821905   513.334630

                             ****ORCA TERMINATED NORMALLY****
TOTAL RUN TIME: 0 days 0 hours 0 minutes 22 seconds 661 msec
