                         Program Version 5.0.0 -  RELEASE  -
|  1> !BLYP D3BJ RIJCOSX def2-TZVP def2/J TightSCF xyzfile
|  2>
|  3> *xyzfile 0 1 D5.xyz
|  4>
|  5> %MaxCore 64000
|  6>
|  7> %pal nprocs 18
|  8> end
|  9>
| 10> %scf
| 11>   MaxIter 150
| 12> end
| 13>
| 14>
| 15>                          ****END OF INPUT****

CARTESIAN COORDINATES (ANGSTROEM)
---------------------------------
  C      2.234473   -2.989754   -2.397622
  N      2.756799   -2.945553   -3.765029
  C     -1.104325    0.251374   -2.860056
  C     -0.711893    0.842517   -4.218344
  H      0.154626    1.499800   -4.130909
  H     -1.538134    1.459222   -4.582671
  C     -0.397624   -0.205875   -5.288018
  C      1.987208   -2.590451   -4.818975
  C      0.743221   -3.017493   -4.913524
  N      2.499636   -1.848598   -5.803241
  H      3.309780   -1.292818   -5.558947
  H      1.801025   -1.304298   -6.289129
  H      3.716116   -2.628797   -3.829533
  H      0.395828   -3.627747   -4.185024
  H      0.039201   -2.454383   -5.371367
  O      0.617165   -0.005348   -5.998273
  F     -1.133173   -1.221380   -5.341465
  C      2.191199   -1.619503   -1.715492
  H      2.872783   -3.666368   -1.828014
  H      1.246188   -3.447444   -2.407842
  C      1.298729   -0.554314   -2.359773
  H      1.872917   -1.787955   -0.681310
  H      3.216809   -1.238432   -1.654428
  C     -0.196255   -0.863365   -2.325763
  H      1.612531   -0.371346   -3.393065
  H      1.480944    0.388638   -1.834444
  H     -0.404105   -1.761825   -2.909448
  H     -0.490439   -1.087880   -1.294131
  H     -1.143842    1.066711   -2.129680
  H     -2.114401   -0.156834   -2.930323

 Total Charge           Charge          ....    0
 Multiplicity           Mult            ....    1
 Number of Electrons    NEL             ....  102
 Basis Dimension        Dim             ....  505

ORBITAL ENERGIES
----------------

  NO   OCC          E(Eh)            E(eV)
   0   2.0000     -24.356132      -662.7641
   1   2.0000     -18.786474      -511.2060
   2   2.0000     -13.998219      -380.9109
   3   2.0000     -13.978857      -380.3840
   4   2.0000     -10.081550      -274.3329
   5   2.0000      -9.935270      -270.3525
   6   2.0000      -9.931407      -270.2473
   7   2.0000      -9.931389      -270.2468
   8   2.0000      -9.918815      -269.9047
   9   2.0000      -9.904362      -269.5114
  10   2.0000      -9.903140      -269.4781
  11   2.0000      -9.902459      -269.4596
  12   2.0000      -9.807696      -266.8810
  13   2.0000      -1.216899       -33.1135
  14   2.0000      -0.952993       -25.9323
  15   2.0000      -0.864676       -23.5290
  16   2.0000      -0.790376       -21.5072
  17   2.0000      -0.743870       -20.2417
  18   2.0000      -0.705256       -19.1910
  19   2.0000      -0.658442       -17.9171
  20   2.0000      -0.630562       -17.1585
  21   2.0000      -0.614899       -16.7322
  22   2.0000      -0.591050       -16.0833
  23   2.0000      -0.551946       -15.0192
  24   2.0000      -0.521264       -14.1843
  25   2.0000      -0.505456       -13.7542
  26   2.0000      -0.485230       -13.2038
  27   2.0000      -0.480451       -13.0737
  28   2.0000      -0.470855       -12.8126
  29   2.0000      -0.456611       -12.4250
  30   2.0000      -0.430675       -11.7193
  31   2.0000      -0.425874       -11.5886
  32   2.0000      -0.417986       -11.3740
  33   2.0000      -0.397279       -10.8105
  34   2.0000      -0.391074       -10.6417
  35   2.0000      -0.368538       -10.0284
  36   2.0000      -0.364404        -9.9159
  37   2.0000      -0.360299        -9.8042
  38   2.0000      -0.342694        -9.3252
  39   2.0000      -0.334674        -9.1069
  40   2.0000      -0.328993        -8.9524
  41   2.0000      -0.324075        -8.8185
  42   2.0000      -0.313025        -8.5178
  43   2.0000      -0.311394        -8.4735
  44   2.0000      -0.294474        -8.0131
  45   2.0000      -0.287352        -7.8192
  46   2.0000      -0.283705        -7.7200
  47   2.0000      -0.278543        -7.5796
  48   2.0000      -0.248914        -6.7733
  49   2.0000      -0.194245        -5.2857
  50   2.0000      -0.130962        -3.5637
  51   0.0000      -0.070001        -1.9048
  52   0.0000       0.000967         0.0263
  53   0.0000       0.012344         0.3359
  54   0.0000       0.028441         0.7739
  55   0.0000       0.033804         0.9199

MULLIKEN ATOMIC CHARGES
-----------------------
   0 C :   -0.087525
   1 N :   -0.238459
   2 C :   -0.155122
   3 C :   -0.182011
   4 H :    0.111889
   5 H :    0.112961
   6 C :    0.361279
   7 C :    0.205615
   8 C :   -0.471931
   9 N :   -0.334790
  10 H :    0.163616
  11 H :    0.226372
  12 H :    0.157720
  13 H :    0.057612
  14 H :    0.089055
  15 O :   -0.343961
  16 F :   -0.078091
  17 C :   -0.164816
  18 H :    0.097928
  19 H :    0.103092
  20 C :   -0.109793
  21 H :    0.063938
  22 H :    0.072268
  23 C :   -0.165220
  24 H :    0.100278
  25 H :    0.064435
  26 H :    0.100937
  27 H :    0.067369
  28 H :    0.086658
  29 H :    0.088700
Sum of atomic charges:    0.0000000

LOEWDIN ATOMIC CHARGES
----------------------
   0 C :   -0.276231
   1 N :    0.119230
   2 C :   -0.257893
   3 C :   -0.228013
   4 H :    0.151046
   5 H :    0.151873
   6 C :   -0.515045
   7 C :   -0.483359
   8 C :   -0.314969
   9 N :    0.002198
  10 H :    0.144864
  11 H :    0.159184
  12 H :    0.168140
  13 H :    0.093152
  14 H :    0.090139
  15 O :    0.081118
  16 F :    0.361458
  17 C :   -0.264644
  18 H :    0.128266
  19 H :    0.134229
  20 C :   -0.261292
  21 H :    0.134031
  22 H :    0.129947
  23 C :   -0.264337
  24 H :    0.139249
  25 H :    0.133048
  26 H :    0.136850
  27 H :    0.133597
  28 H :    0.137041
  29 H :    0.137125

  Mayer bond orders larger than 0.100000
B(  0-C ,  1-N ) :   0.9523 B(  0-C , 17-C ) :   0.9656 B(  0-C , 18-H ) :   0.9731
B(  0-C , 19-H ) :   0.9706 B(  1-N ,  7-C ) :   1.1538 B(  1-N , 12-H ) :   0.9290
B(  2-C ,  3-C ) :   0.9349 B(  2-C , 23-C ) :   0.9592 B(  2-C , 28-H ) :   0.9523
B(  2-C , 29-H ) :   0.9657 B(  3-C ,  4-H ) :   0.9569 B(  3-C ,  5-H ) :   0.9331
B(  3-C ,  6-C ) :   1.0030 B(  6-C , 15-O ) :   1.9418 B(  6-C , 16-F ) :   1.1571
B(  7-C ,  8-C ) :   1.5605 B(  7-C ,  9-N ) :   1.2051 B(  8-C , 13-H ) :   1.0173
B(  8-C , 14-H ) :   1.0004 B(  9-N , 10-H ) :   0.9294 B(  9-N , 11-H ) :   0.8893
B( 17-C , 20-C ) :   0.9653 B( 17-C , 21-H ) :   0.9490 B( 17-C , 22-H ) :   0.9646
B( 20-C , 23-C ) :   0.9286 B( 20-C , 24-H ) :   0.9537 B( 20-C , 25-H ) :   0.9623
B( 23-C , 26-H ) :   0.9685 B( 23-C , 27-H ) :   0.9624

Dispersion correction           -0.070258299
FINAL SINGLE POINT ENERGY      -637.761005141039

DIPOLE MOMENT
-------------
                                X             Y             Z
Electronic contribution:     -4.27934       0.09815     -12.50594
Nuclear contribution   :      4.07548       1.14852      13.79455
                        -----------------------------------------
Total Dipole Moment    :     -0.20385       1.24667       1.28861
                        -----------------------------------------
Magnitude (a.u.)       :      1.80451
Magnitude (Debye)      :      4.58669

Rotational constants in cm-1:     0.033274     0.023559     0.016968
Rotational constants in MHz :   997.539108   706.293545   508.690532

                             ****ORCA TERMINATED NORMALLY****
TOTAL RUN TIME: 0 days 0 hours 0 minutes 19 seconds 833 msec
