                         Program Version 5.0.0 -  RELEASE  -
|  1> !BLYP D3BJ RIJCOSX def2-TZVP def2/J TightSCF xyzfile
|  2>
|  3> *xyzfile 0 1 D6.xyz
|  4>
|  5> %MaxCore 64000
|  6>
|  7> %pal nprocs 18
|  8> end
|  9>
| 10> %scf
| 11>   MaxIter 150
| 12> end
| 13>
| 14>
| 15>                          ****END OF INPUT****

CARTESIAN COORDINATES (ANGSTROEM)
---------------------------------
  C      2.234473   -2.989754   -2.397622
  N      2.756799   -2.945553   -3.765029
  C     -1.104325    0.251374   -2.860056
  C     -0.711893    0.842517   -4.218344
  H      0.154626    1.499800   -4.130909
  H     -1.538134    1.459222   -4.582671
  C     -0.397624   -0.205875   -5.288018
  C      1.987208   -2.590451   -4.818975
  N      0.743221   -3.017493   -4.913524
  C      2.499636   -1.848598   -5.803241
  H      3.309780   -1.292818   -5.558947
  H      1.801025   -1.304298   -6.289129
  H      3.716116   -2.628797   -3.829533
  H      0.395828   -3.627747   -4.185024
  H      0.039201   -2.454383   -5.371367
  O      0.617165   -0.005348   -5.998273
  F     -1.133173   -1.221380   -5.341465
  C      2.191199   -1.619503   -1.715492
  H      2.872783   -3.666368   -1.828014
  H      1.246188   -3.447444   -2.407842
  C      1.298729   -0.554314   -2.359773
  H      1.872917   -1.787955   -0.681310
  H      3.216809   -1.238432   -1.654428
  C     -0.196255   -0.863365   -2.325763
  H      1.612531   -0.371346   -3.393065
  H      1.480944    0.388638   -1.834444
  H     -0.404105   -1.761825   -2.909448
  H     -0.490439   -1.087880   -1.294131
  H     -1.143842    1.066711   -2.129680
  H     -2.114401   -0.156834   -2.930323

 Total Charge           Charge          ....    0
 Multiplicity           Mult            ....    1
 Number of Electrons    NEL             ....  102
 Basis Dimension        Dim             ....  505

ORBITAL ENERGIES
----------------

  NO   OCC          E(Eh)            E(eV)
   0   2.0000     -24.369330      -663.1232
   1   2.0000     -18.782764      -511.1050
   2   2.0000     -13.997208      -380.8834
   3   2.0000     -13.993252      -380.7758
   4   2.0000     -10.077099      -274.2118
   5   2.0000      -9.937792      -270.4211
   6   2.0000      -9.936057      -270.3738
   7   2.0000      -9.932250      -270.2703
   8   2.0000      -9.922425      -270.0029
   9   2.0000      -9.910852      -269.6880
  10   2.0000      -9.906978      -269.5826
  11   2.0000      -9.904911      -269.5263
  12   2.0000      -9.796763      -266.5835
  13   2.0000      -1.229313       -33.4513
  14   2.0000      -0.948433       -25.8082
  15   2.0000      -0.869988       -23.6736
  16   2.0000      -0.796612       -21.6769
  17   2.0000      -0.748006       -20.3543
  18   2.0000      -0.709827       -19.3154
  19   2.0000      -0.665910       -18.1203
  20   2.0000      -0.635237       -17.2857
  21   2.0000      -0.610448       -16.6111
  22   2.0000      -0.591846       -16.1050
  23   2.0000      -0.550462       -14.9788
  24   2.0000      -0.539798       -14.6886
  25   2.0000      -0.517865       -14.0918
  26   2.0000      -0.499536       -13.5931
  27   2.0000      -0.490619       -13.3504
  28   2.0000      -0.473030       -12.8718
  29   2.0000      -0.447425       -12.1751
  30   2.0000      -0.436461       -11.8767
  31   2.0000      -0.426581       -11.6079
  32   2.0000      -0.416592       -11.3361
  33   2.0000      -0.407891       -11.0993
  34   2.0000      -0.392758       -10.6875
  35   2.0000      -0.385470       -10.4892
  36   2.0000      -0.363118        -9.8810
  37   2.0000      -0.357528        -9.7288
  38   2.0000      -0.339333        -9.2337
  39   2.0000      -0.335406        -9.1269
  40   2.0000      -0.332334        -9.0433
  41   2.0000      -0.325564        -8.8590
  42   2.0000      -0.319314        -8.6890
  43   2.0000      -0.309903        -8.4329
  44   2.0000      -0.291021        -7.9191
  45   2.0000      -0.289730        -7.8840
  46   2.0000      -0.288913        -7.8617
  47   2.0000      -0.282542        -7.6884
  48   2.0000      -0.235593        -6.4108
  49   2.0000      -0.200901        -5.4668
  50   2.0000      -0.122680        -3.3383
  51   0.0000      -0.069200        -1.8830
  52   0.0000      -0.002321        -0.0632
  53   0.0000       0.013627         0.3708
  54   0.0000       0.016100         0.4381
  55   0.0000       0.033372         0.9081

MULLIKEN ATOMIC CHARGES
-----------------------
   0 C :   -0.133741
   1 N :   -0.221680
   2 C :   -0.155639
   3 C :   -0.185929
   4 H :    0.117782
   5 H :    0.112485
   6 C :    0.336331
   7 C :    0.155594
   8 N :   -0.373079
   9 C :   -0.343142
  10 H :    0.030051
  11 H :    0.077149
  12 H :    0.184643
  13 H :    0.186813
  14 H :    0.213950
  15 O :   -0.283605
  16 F :   -0.111615
  17 C :   -0.135692
  18 H :    0.105516
  19 H :    0.079925
  20 C :   -0.141957
  21 H :    0.060286
  22 H :    0.079195
  23 C :   -0.162925
  24 H :    0.137841
  25 H :    0.068505
  26 H :    0.054238
  27 H :    0.071511
  28 H :    0.089272
  29 H :    0.087918
Sum of atomic charges:   -0.0000000

LOEWDIN ATOMIC CHARGES
----------------------
   0 C :   -0.291990
   1 N :    0.118793
   2 C :   -0.259082
   3 C :   -0.230078
   4 H :    0.153326
   5 H :    0.151444
   6 C :   -0.533157
   7 C :   -0.486253
   8 N :    0.024967
   9 C :   -0.327353
  10 H :    0.090282
  11 H :    0.097660
  12 H :    0.184557
  13 H :    0.152169
  14 H :    0.154933
  15 O :    0.117913
  16 F :    0.342915
  17 C :   -0.264233
  18 H :    0.129560
  19 H :    0.122350
  20 C :   -0.260099
  21 H :    0.132922
  22 H :    0.133534
  23 C :   -0.267452
  24 H :    0.146158
  25 H :    0.134837
  26 H :    0.123539
  27 H :    0.134058
  28 H :    0.137897
  29 H :    0.135884

  Mayer bond orders larger than 0.100000
B(  0-C ,  1-N ) :   0.9797 B(  0-C , 17-C ) :   0.9496 B(  0-C , 18-H ) :   0.9754
B(  0-C , 19-H ) :   0.9788 B(  1-N ,  7-C ) :   1.1972 B(  1-N , 12-H ) :   0.9258
B(  2-C ,  3-C ) :   0.9292 B(  2-C , 23-C ) :   0.9599 B(  2-C , 28-H ) :   0.9519
B(  2-C , 29-H ) :   0.9677 B(  3-C ,  4-H ) :   0.9574 B(  3-C ,  5-H ) :   0.9347
B(  3-C ,  6-C ) :   1.0061 B(  6-C , 15-O ) :   2.0133 B(  6-C , 16-F ) :   1.0935
B(  7-C ,  8-N ) :   1.1370 B(  7-C ,  9-C ) :   1.6559 B(  8-N , 13-H ) :   0.9348
B(  8-N , 14-H ) :   0.9029 B(  9-C , 10-H ) :   0.9922 B(  9-C , 11-H ) :   0.9989
B( 17-C , 20-C ) :   0.9596 B( 17-C , 21-H ) :   0.9469 B( 17-C , 22-H ) :   0.9619
B( 20-C , 23-C ) :   0.9295 B( 20-C , 24-H ) :   0.9541 B( 20-C , 25-H ) :   0.9597
B( 23-C , 26-H ) :   0.9672 B( 23-C , 27-H ) :   0.9605

Dispersion correction           -0.069976213
FINAL SINGLE POINT ENERGY      -637.747124089466

DIPOLE MOMENT
-------------
                                X             Y             Z
Electronic contribution:     -5.58967      -0.82653     -11.80433
Nuclear contribution   :      4.34606       1.32859      13.65749
                        -----------------------------------------
Total Dipole Moment    :     -1.24360       0.50206       1.85316
                        -----------------------------------------
Magnitude (a.u.)       :      2.28753
Magnitude (Debye)      :      5.81445

Rotational constants in cm-1:     0.033551     0.023540     0.017085
Rotational constants in MHz :  1005.818710   705.725032   512.192443

                             ****ORCA TERMINATED NORMALLY****
TOTAL RUN TIME: 0 days 0 hours 0 minutes 19 seconds 565 msec
