                         Program Version 5.0.0 -  RELEASE  -
|  1> !CAM-B3LYP RIJCOSX def2-TZVP def2/J TightSCF
|  2> *xyz -1 1
|  3> C          3.80351        1.37472       -3.26081
|  4> C          3.93993        0.32036       -4.36773
|  5> H          4.10504       -0.65508       -3.90773
|  6> H          3.02280        0.28052       -4.95712
|  7> C          5.10585        0.66802       -5.30546
|  8> O          4.80913        1.15019       -6.41436
|  9> O          6.26737        0.56500       -4.81948
| 10> H          3.64113        2.33595       -3.70189
| 11> H          4.69995        1.39701       -2.67703
| 12> H          2.97435        1.12625       -2.63180
| 13> *
| 14>
| 15> %MaxCore 64000
| 16>
| 17> %pal nprocs 4
| 18> end
| 19>
| 20> %scf
| 21>   MaxIter 150
| 22> end
| 23>
| 24>
| 25>                          ****END OF INPUT****

CARTESIAN COORDINATES (ANGSTROEM)
---------------------------------
  C      3.803510    1.374720   -3.260810
  C      3.939930    0.320360   -4.367730
  H      4.105040   -0.655080   -3.907730
  H      3.022800    0.280520   -4.957120
  C      5.105850    0.668020   -5.305460
  O      4.809130    1.150190   -6.414360
  O      6.267370    0.565000   -4.819480
  H      3.641130    2.335950   -3.701890
  H      4.699950    1.397010   -2.677030
  H      2.974350    1.126250   -2.631800

 Total Charge           Charge          ....   -1
 Multiplicity           Mult            ....    1
 Number of Electrons    NEL             ....   40
 Basis Dimension        Dim             ....  185

ORBITAL ENERGIES
----------------

  NO   OCC          E(Eh)            E(eV)
   0   2.0000     -18.924049      -514.9496
   1   2.0000     -18.920005      -514.8395
   2   2.0000     -10.120251      -275.3860
   3   2.0000     -10.076868      -274.2055
   4   2.0000     -10.063204      -273.8337
   5   2.0000      -0.894561       -24.3422
   6   2.0000      -0.800655       -21.7869
   7   2.0000      -0.684018       -18.6131
   8   2.0000      -0.546885       -14.8815
   9   2.0000      -0.388942       -10.5836
  10   2.0000      -0.358951        -9.7676
  11   2.0000      -0.325469        -8.8565
  12   2.0000      -0.293310        -7.9814
  13   2.0000      -0.276730        -7.5302
  14   2.0000      -0.272212        -7.4073
  15   2.0000      -0.239126        -6.5070
  16   2.0000      -0.225126        -6.1260
  17   2.0000      -0.104322        -2.8387
  18   2.0000      -0.097415        -2.6508
  19   2.0000      -0.088031        -2.3955
  20   0.0000       0.221659         6.0316
  21   0.0000       0.261935         7.1276
  22   0.0000       0.283929         7.7261
  23   0.0000       0.287068         7.8115
  24   0.0000       0.308992         8.4081

MULLIKEN ATOMIC CHARGES
-----------------------
   0 C :   -0.343573
   1 C :   -0.124644
   2 H :    0.031705
   3 H :    0.036788
   4 C :    0.194121
   5 O :   -0.505714
   6 O :   -0.539849
   7 H :    0.094787
   8 H :    0.099095
   9 H :    0.057285
Sum of atomic charges:   -1.0000000

LOEWDIN ATOMIC CHARGES
----------------------
   0 C :   -0.322374
   1 C :   -0.288484
   2 H :    0.115358
   3 H :    0.115850
   4 C :   -0.701147
   5 O :   -0.100864
   6 O :   -0.132416
   7 H :    0.109745
   8 H :    0.111331
   9 H :    0.093002

  Mayer bond orders larger than 0.100000
B(  0-C ,  1-C ) :   0.9475 B(  0-C ,  7-H ) :   0.9874 B(  0-C ,  8-H ) :   0.9758
B(  0-C ,  9-H ) :   0.9774 B(  1-C ,  2-H ) :   0.9582 B(  1-C ,  3-H ) :   0.9595
B(  1-C ,  4-C ) :   0.9243 B(  4-C ,  5-O ) :   1.9079 B(  4-C ,  6-O ) :   1.8522

FINAL SINGLE POINT ENERGY      -267.830200552886

DIPOLE MOMENT
-------------
                                X             Y             Z
Electronic contribution:      3.74655      -0.48220      -4.51571
Nuclear contribution   :     -5.15232       0.33441       5.87398
                        -----------------------------------------
Total Dipole Moment    :     -1.40578      -0.14779       1.35827
                        -----------------------------------------
Magnitude (a.u.)       :      1.96034
Magnitude (Debye)      :      4.98279

Rotational constants in cm-1:     0.295355     0.137164     0.110193
Rotational constants in MHz :  8854.523706  4112.077980  3303.490503

                             ****ORCA TERMINATED NORMALLY****
TOTAL RUN TIME: 0 days 0 hours 0 minutes 24 seconds 791 msec
