                         Program Version 5.0.0 -  RELEASE  -
|  1> !CAM-B3LYP RIJCOSX def2-TZVP def2/J TightSCF
|  2> *xyz 1 1
|  3> C          3.90595        2.81985       -3.75292
|  4> N          5.29562        3.13151       -4.10533
|  5> C          3.80351        1.37472       -3.26081
|  6> C          5.70862        3.46889       -5.32419
|  7> N          6.90470        3.03895       -5.71708
|  8> N          4.98188        4.29357       -6.09746
|  9> H          5.00055        4.10131       -7.08776
| 10> H          4.08469        4.59690       -5.73965
| 11> H          5.96336        2.52611       -3.64239
| 12> H          7.04716        2.06686       -5.47360
| 13> H          7.19815        3.30799       -6.64523
| 14> H          3.28202        2.94919       -4.64026
| 15> H          3.56525        3.51457       -2.98252
| 16> H          4.14157        0.71142       -4.02935
| 17> H          2.78528        1.15146       -3.01944
| 18> H          4.41205        1.25066       -2.38949
| 19> *
| 20>
| 21> %MaxCore 64000
| 22>
| 23> %pal nprocs 4
| 24> end
| 25>
| 26> %scf
| 27>   MaxIter 150
| 28> end
| 29>
| 30>
| 31>                          ****END OF INPUT****

CARTESIAN COORDINATES (ANGSTROEM)
---------------------------------
  C      3.905950    2.819850   -3.752920
  N      5.295620    3.131510   -4.105330
  C      3.803510    1.374720   -3.260810
  C      5.708620    3.468890   -5.324190
  N      6.904700    3.038950   -5.717080
  N      4.981880    4.293570   -6.097460
  H      5.000550    4.101310   -7.087760
  H      4.084690    4.596900   -5.739650
  H      5.963360    2.526110   -3.642390
  H      7.047160    2.066860   -5.473600
  H      7.198150    3.307990   -6.645230
  H      3.282020    2.949190   -4.640260
  H      3.565250    3.514570   -2.982520
  H      4.141570    0.711420   -4.029350
  H      2.785280    1.151460   -3.019440
  H      4.412050    1.250660   -2.389490

 Total Charge           Charge          ....    1
 Multiplicity           Mult            ....    1
 Number of Electrons    NEL             ....   48
 Basis Dimension        Dim             ....  246

ORBITAL ENERGIES
----------------

  NO   OCC          E(Eh)            E(eV)
   0   2.0000     -14.616713      -397.7410
   1   2.0000     -14.615968      -397.7207
   2   2.0000     -14.615508      -397.7082
   3   2.0000     -10.585327      -288.0414
   4   2.0000     -10.454551      -284.4828
   5   2.0000     -10.386317      -282.6261
   6   2.0000      -1.307235       -35.5717
   7   2.0000      -1.192198       -32.4414
   8   2.0000      -1.184013       -32.2186
   9   2.0000      -1.016742       -27.6669
  10   2.0000      -0.912503       -24.8305
  11   2.0000      -0.885966       -24.1084
  12   2.0000      -0.850831       -23.1523
  13   2.0000      -0.819352       -22.2957
  14   2.0000      -0.773392       -21.0451
  15   2.0000      -0.758464       -20.6388
  16   2.0000      -0.722617       -19.6634
  17   2.0000      -0.697289       -18.9742
  18   2.0000      -0.666592       -18.1389
  19   2.0000      -0.628263       -17.0959
  20   2.0000      -0.604024       -16.4363
  21   2.0000      -0.588767       -16.0212
  22   2.0000      -0.556424       -15.1411
  23   2.0000      -0.523688       -14.2503
  24   0.0000      -0.144389        -3.9290
  25   0.0000      -0.116757        -3.1771
  26   0.0000      -0.081854        -2.2274
  27   0.0000      -0.067460        -1.8357
  28   0.0000      -0.045723        -1.2442

MULLIKEN ATOMIC CHARGES
-----------------------
   0 C :   -0.116635
   1 N :   -0.220450
   2 C :   -0.394996
   3 C :    0.376615
   4 N :   -0.365243
   5 N :   -0.384983
   6 H :    0.279236
   7 H :    0.284435
   8 H :    0.243431
   9 H :    0.276508
  10 H :    0.274331
  11 H :    0.121626
  12 H :    0.174090
  13 H :    0.130641
  14 H :    0.166603
  15 H :    0.154792
Sum of atomic charges:    1.0000000

LOEWDIN ATOMIC CHARGES
----------------------
   0 C :   -0.277946
   1 N :    0.168696
   2 C :   -0.283004
   3 C :   -0.406158
   4 N :    0.060350
   5 N :    0.062442
   6 H :    0.196795
   7 H :    0.196909
   8 H :    0.211453
   9 H :    0.201334
  10 H :    0.197824
  11 H :    0.136348
  12 H :    0.146087
  13 H :    0.121761
  14 H :    0.139046
  15 H :    0.128065

  Mayer bond orders larger than 0.100000
B(  0-C ,  1-N ) :   0.8422 B(  0-C ,  2-C ) :   0.9511 B(  0-C , 11-H ) :   0.9779
B(  0-C , 12-H ) :   0.9532 B(  1-N ,  3-C ) :   1.3962 B(  1-N ,  8-H ) :   0.9086
B(  2-C , 13-H ) :   0.9686 B(  2-C , 14-H ) :   0.9670 B(  2-C , 15-H ) :   0.9684
B(  3-C ,  4-N ) :   1.3048 B(  3-C ,  5-N ) :   1.3145 B(  4-N ,  9-H ) :   0.8940
B(  4-N , 10-H ) :   0.9003 B(  5-N ,  6-H ) :   0.8921 B(  5-N ,  7-H ) :   0.8994

FINAL SINGLE POINT ENERGY      -284.352290590428

DIPOLE MOMENT
-------------
                                X             Y             Z
Electronic contribution:      3.51221       3.39469      -2.68200
Nuclear contribution   :     -3.31456      -3.64300       1.57303
                        -----------------------------------------
Total Dipole Moment    :      0.19765      -0.24831      -1.10897
                        -----------------------------------------
Magnitude (a.u.)       :      1.15349
Magnitude (Debye)      :      2.93193

Rotational constants in cm-1:     0.229487     0.071000     0.059428
Rotational constants in MHz :  6879.840828  2128.520047  1781.605314

                             ****ORCA TERMINATED NORMALLY****
TOTAL RUN TIME: 0 days 0 hours 0 minutes 50 seconds 189 msec
