                         Program Version 5.0.0 -  RELEASE  -
|  1> !CAM-B3LYP RIJCOSX def2-TZVP def2/J TightSCF xyzfile
|  2>
|  3> *xyzfile 0 1 B.xyz
|  4>
|  5> %MaxCore 64000
|  6>
|  7> %pal nprocs 18
|  8> end
|  9>
| 10> %scf
| 11>   MaxIter 150
| 12> end
| 13>
| 14>
| 15>                          ****END OF INPUT****

CARTESIAN COORDINATES (ANGSTROEM)
---------------------------------
  C      3.905947    2.819855   -3.752920
  N      5.295615    3.131515   -4.105334
  C      3.803511    1.374716   -3.260807
  C      3.939934    0.320362   -4.367729
  H      4.105043   -0.655085   -3.907733
  H      3.022801    0.280517   -4.957117
  C      5.105846    0.668022   -5.305463
  C      5.708619    3.468885   -5.324190
  N      6.904696    3.038954   -5.717084
  N      4.981884    4.293570   -6.097457
  H      5.000546    4.101311   -7.087761
  H      4.084693    4.596899   -5.739652
  H      5.963358    2.526112   -3.642391
  H      7.047164    2.066861   -5.473604
  H      7.198145    3.307994   -6.645225
  H      3.282025    2.949187   -4.640259
  H      3.565254    3.514574   -2.982523
  H      4.574833    1.215157   -2.500443
  H      2.843514    1.260845   -2.751465
  O      4.809132    1.150187   -6.414361
  O      6.267366    0.564999   -4.819481

 Total Charge           Charge          ....    0
 Multiplicity           Mult            ....    1
 Number of Electrons    NEL             ....   78
 Basis Dimension        Dim             ....  376

ORBITAL ENERGIES
----------------

  NO   OCC          E(Eh)            E(eV)
   0   2.0000     -19.111793      -520.0583
   1   2.0000     -19.108783      -519.9764
   2   2.0000     -14.453554      -393.3012
   3   2.0000     -14.444947      -393.0670
   4   2.0000     -14.422247      -392.4493
   5   2.0000     -10.413692      -283.3710
   6   2.0000     -10.305512      -280.4272
   7   2.0000     -10.302628      -280.3488
   8   2.0000     -10.254658      -279.0434
   9   2.0000     -10.221162      -278.1320
  10   2.0000      -1.135801       -30.9067
  11   2.0000      -1.084313       -29.5057
  12   2.0000      -1.026104       -27.9217
  13   2.0000      -1.007203       -27.4074
  14   2.0000      -0.990414       -26.9505
  15   2.0000      -0.878696       -23.9105
  16   2.0000      -0.794046       -21.6071
  17   2.0000      -0.733519       -19.9601
  18   2.0000      -0.701075       -19.0772
  19   2.0000      -0.681029       -18.5317
  20   2.0000      -0.647750       -17.6262
  21   2.0000      -0.607295       -16.5253
  22   2.0000      -0.586281       -15.9535
  23   2.0000      -0.570034       -15.5114
  24   2.0000      -0.548772       -14.9328
  25   2.0000      -0.545336       -14.8393
  26   2.0000      -0.500892       -13.6300
  27   2.0000      -0.493405       -13.4262
  28   2.0000      -0.479406       -13.0453
  29   2.0000      -0.456015       -12.4088
  30   2.0000      -0.449564       -12.2333
  31   2.0000      -0.444145       -12.0858
  32   2.0000      -0.406735       -11.0678
  33   2.0000      -0.401820       -10.9341
  34   2.0000      -0.382369       -10.4048
  35   2.0000      -0.355452        -9.6723
  36   2.0000      -0.295300        -8.0355
  37   2.0000      -0.282164        -7.6781
  38   2.0000      -0.273714        -7.4481
  39   0.0000       0.026999         0.7347
  40   0.0000       0.043778         1.1913
  41   0.0000       0.069188         1.8827
  42   0.0000       0.081119         2.2074
  43   0.0000       0.100423         2.7327

MULLIKEN ATOMIC CHARGES
-----------------------
   0 C :   -0.114016
   1 N :   -0.226608
   2 C :   -0.274686
   3 C :   -0.177958
   4 H :    0.102563
   5 H :    0.094322
   6 C :    0.253172
   7 C :    0.308001
   8 N :   -0.333165
   9 N :   -0.415968
  10 H :    0.270053
  11 H :    0.251927
  12 H :    0.254167
  13 H :    0.282345
  14 H :    0.228181
  15 H :    0.116569
  16 H :    0.133074
  17 H :    0.123382
  18 H :    0.114715
  19 O :   -0.450461
  20 O :   -0.539607
Sum of atomic charges:   -0.0000000

LOEWDIN ATOMIC CHARGES
----------------------
   0 C :   -0.265197
   1 N :    0.161686
   2 C :   -0.264789
   3 C :   -0.240588
   4 H :    0.140507
   5 H :    0.136356
   6 C :   -0.668610
   7 C :   -0.420568
   8 N :    0.053325
   9 N :    0.031815
  10 H :    0.188322
  11 H :    0.180878
  12 H :    0.209149
  13 H :    0.175473
  14 H :    0.177377
  15 H :    0.139057
  16 H :    0.130317
  17 H :    0.141222
  18 H :    0.139695
  19 O :   -0.050593
  20 O :   -0.094837

  Mayer bond orders larger than 0.100000
B(  0-C ,  1-N ) :   0.8963 B(  0-C ,  2-C ) :   0.9512 B(  0-C , 15-H ) :   0.9753
B(  0-C , 16-H ) :   0.9714 B(  1-N ,  7-C ) :   1.3716 B(  1-N , 12-H ) :   0.8915
B(  2-C ,  3-C ) :   0.9570 B(  2-C , 17-H ) :   0.9718 B(  2-C , 18-H ) :   0.9746
B(  3-C ,  4-H ) :   0.9573 B(  3-C ,  5-H ) :   0.9756 B(  3-C ,  6-C ) :   0.9278
B(  6-C , 19-O ) :   1.8664 B(  6-C , 20-O ) :   1.6973 B(  7-C ,  8-N ) :   1.3970
B(  7-C ,  9-N ) :   1.2532 B(  7-C , 19-O ) :   0.1556 B(  8-N , 13-H ) :   0.8030
B(  8-N , 14-H ) :   0.9220 B(  9-N , 10-H ) :   0.9085 B(  9-N , 11-H ) :   0.9181
B( 13-H , 20-O ) :   0.1606

FINAL SINGLE POINT ENERGY      -511.857707005121

DIPOLE MOMENT
-------------
                                X             Y             Z
Electronic contribution:      4.15832       0.42297      -3.44898
Nuclear contribution   :     -4.94498       2.03334       3.78956
                        -----------------------------------------
Total Dipole Moment    :     -0.78666       2.45631       0.34058
                        -----------------------------------------
Magnitude (a.u.)       :      2.60159
Magnitude (Debye)      :      6.61273

Rotational constants in cm-1:     0.062533     0.042832     0.033687
Rotational constants in MHz :  1874.701390  1284.063603  1009.911042

                             ****ORCA TERMINATED NORMALLY****
TOTAL RUN TIME: 0 days 0 hours 0 minutes 44 seconds 579 msec
