                         Program Version 5.0.0 -  RELEASE  -
|  1> !CAM-B3LYP RIJCOSX def2-TZVP def2/J TightSCF
|  2> *xyz 0 1
|  3> C          3.80351        1.37472       -3.26081
|  4> C          3.93993        0.32036       -4.36773
|  5> H          4.10504       -0.65508       -3.90773
|  6> H          3.02280        0.28052       -4.95712
|  7> C          5.10585        0.66802       -5.30546
|  8> F          4.80913        1.15019       -6.41436
|  9> O          6.26737        0.56500       -4.81948
| 10> H          3.64113        2.33595       -3.70189
| 11> H          4.69995        1.39701       -2.67703
| 12> H          2.97435        1.12625       -2.63180
| 13> *
| 14>
| 15> %MaxCore 64000
| 16>
| 17> %pal nprocs 4
| 18> end
| 19>
| 20> %scf
| 21>   MaxIter 150
| 22> end
| 23>
| 24>
| 25>                          ****END OF INPUT****

CARTESIAN COORDINATES (ANGSTROEM)
---------------------------------
  C      3.803510    1.374720   -3.260810
  C      3.939930    0.320360   -4.367730
  H      4.105040   -0.655080   -3.907730
  H      3.022800    0.280520   -4.957120
  C      5.105850    0.668020   -5.305460
  F      4.809130    1.150190   -6.414360
  O      6.267370    0.565000   -4.819480
  H      3.641130    2.335950   -3.701890
  H      4.699950    1.397010   -2.677030
  H      2.974350    1.126250   -2.631800

 Total Charge           Charge          ....    0
 Multiplicity           Mult            ....    1
 Number of Electrons    NEL             ....   40
 Basis Dimension        Dim             ....  185

ORBITAL ENERGIES
----------------

  NO   OCC          E(Eh)            E(eV)
   0   2.0000     -24.832030      -675.7139
   1   2.0000     -19.203898      -522.5646
   2   2.0000     -10.427736      -283.7531
   3   2.0000     -10.275774      -279.6180
   4   2.0000     -10.249609      -278.9061
   5   2.0000      -1.411339       -38.4045
   6   2.0000      -1.111380       -30.2422
   7   2.0000      -0.884802       -24.0767
   8   2.0000      -0.770324       -20.9616
   9   2.0000      -0.720909       -19.6169
  10   2.0000      -0.630571       -17.1587
  11   2.0000      -0.616024       -16.7629
  12   2.0000      -0.581854       -15.8330
  13   2.0000      -0.537181       -14.6174
  14   2.0000      -0.506283       -13.7767
  15   2.0000      -0.467646       -12.7253
  16   2.0000      -0.447797       -12.1852
  17   2.0000      -0.441357       -12.0099
  18   2.0000      -0.412112       -11.2141
  19   2.0000      -0.359105        -9.7718
  20   0.0000       0.019177         0.5218
  21   0.0000       0.070384         1.9152
  22   0.0000       0.110364         3.0031
  23   0.0000       0.126013         3.4290
  24   0.0000       0.138792         3.7767

MULLIKEN ATOMIC CHARGES
-----------------------
   0 C :   -0.362878
   1 C :   -0.202879
   2 H :    0.129787
   3 H :    0.109256
   4 C :    0.366237
   5 F :   -0.090684
   6 O :   -0.335869
   7 H :    0.119763
   8 H :    0.142222
   9 H :    0.125047
Sum of atomic charges:    0.0000000

LOEWDIN ATOMIC CHARGES
----------------------
   0 C :   -0.287015
   1 C :   -0.256721
   2 H :    0.150781
   3 H :    0.137374
   4 C :   -0.499022
   5 F :    0.340571
   6 O :    0.049388
   7 H :    0.119564
   8 H :    0.125334
   9 H :    0.119747

  Mayer bond orders larger than 0.100000
B(  0-C ,  1-C ) :   0.9469 B(  0-C ,  7-H ) :   0.9747 B(  0-C ,  8-H ) :   0.9721
B(  0-C ,  9-H ) :   0.9753 B(  1-C ,  2-H ) :   0.9566 B(  1-C ,  3-H ) :   0.9624
B(  1-C ,  4-C ) :   0.9705 B(  4-C ,  5-F ) :   1.1747 B(  4-C ,  6-O ) :   2.0555

FINAL SINGLE POINT ENERGY      -292.397954986939

DIPOLE MOMENT
-------------
                                X             Y             Z
Electronic contribution:      3.98450      -0.01578      -7.43733
Nuclear contribution   :     -5.17129      -0.01923       7.59895
                        -----------------------------------------
Total Dipole Moment    :     -1.18679      -0.03501       0.16162
                        -----------------------------------------
Magnitude (a.u.)       :      1.19826
Magnitude (Debye)      :      3.04573

Rotational constants in cm-1:     0.282073     0.131822     0.105134
Rotational constants in MHz :  8456.328792  3951.925810  3151.840112

                             ****ORCA TERMINATED NORMALLY****
TOTAL RUN TIME: 0 days 0 hours 0 minutes 22 seconds 571 msec
