                         Program Version 5.0.0 -  RELEASE  -
|  1> !CAM-B3LYP RIJCOSX def2-TZVP def2/J TightSCF
|  2> *xyz 0 1
|  3> C          3.90595        2.81985       -3.75292
|  4> C          5.29562        3.13151       -4.10533
|  5> C          3.80351        1.37472       -3.26081
|  6> C          5.70862        3.46889       -5.32419
|  7> N          6.90470        3.03895       -5.71708
|  8> N          4.98188        4.29357       -6.09746
|  9> H          5.00055        4.10131       -7.08776
| 10> H          4.08469        4.59690       -5.73965
| 11> H          5.96336        2.52611       -3.64239
| 12> H          7.04716        2.06686       -5.47360
| 13> H          7.19815        3.30799       -6.64523
| 14> H          3.28202        2.94919       -4.64026
| 15> H          3.56525        3.51457       -2.98252
| 16> H          4.14157        0.71142       -4.02935
| 17> H          2.78528        1.15146       -3.01944
| 18> H          4.41205        1.25066       -2.38949
| 19> *
| 20>
| 21> %MaxCore 64000
| 22>
| 23> %pal nprocs 4
| 24> end
| 25>
| 26> %scf
| 27>   MaxIter 150
| 28> end
| 29>
| 30>
| 31>                          ****END OF INPUT****

CARTESIAN COORDINATES (ANGSTROEM)
---------------------------------
  C      3.905950    2.819850   -3.752920
  C      5.295620    3.131510   -4.105330
  C      3.803510    1.374720   -3.260810
  C      5.708620    3.468890   -5.324190
  N      6.904700    3.038950   -5.717080
  N      4.981880    4.293570   -6.097460
  H      5.000550    4.101310   -7.087760
  H      4.084690    4.596900   -5.739650
  H      5.963360    2.526110   -3.642390
  H      7.047160    2.066860   -5.473600
  H      7.198150    3.307990   -6.645230
  H      3.282020    2.949190   -4.640260
  H      3.565250    3.514570   -2.982520
  H      4.141570    0.711420   -4.029350
  H      2.785280    1.151460   -3.019440
  H      4.412050    1.250660   -2.389490

 Total Charge           Charge          ....    0
 Multiplicity           Mult            ....    1
 Number of Electrons    NEL             ....   48
 Basis Dimension        Dim             ....  246

ORBITAL ENERGIES
----------------

  NO   OCC          E(Eh)            E(eV)
   0   2.0000     -14.391080      -391.6012
   1   2.0000     -14.387758      -391.5108
   2   2.0000     -10.287087      -279.9259
   3   2.0000     -10.219545      -278.0880
   4   2.0000     -10.211856      -277.8787
   5   2.0000     -10.166580      -276.6467
   6   2.0000      -1.049145       -28.5487
   7   2.0000      -0.958485       -26.0817
   8   2.0000      -0.859622       -23.3915
   9   2.0000      -0.775451       -21.1011
  10   2.0000      -0.690215       -18.7817
  11   2.0000      -0.650188       -17.6925
  12   2.0000      -0.606370       -16.5002
  13   2.0000      -0.582233       -15.8434
  14   2.0000      -0.546317       -14.8660
  15   2.0000      -0.516505       -14.0548
  16   2.0000      -0.490373       -13.3437
  17   2.0000      -0.457284       -12.4433
  18   2.0000      -0.436855       -11.8874
  19   2.0000      -0.416612       -11.3366
  20   2.0000      -0.391869       -10.6633
  21   2.0000      -0.388230       -10.5643
  22   2.0000      -0.339848        -9.2477
  23   2.0000      -0.226837        -6.1725
  24   0.0000       0.053754         1.4627
  25   0.0000       0.088342         2.4039
  26   0.0000       0.093552         2.5457
  27   0.0000       0.108565         2.9542
  28   0.0000       0.119110         3.2411

MULLIKEN ATOMIC CHARGES
-----------------------
   0 C :   -0.145447
   1 C :   -0.298482
   2 C :   -0.360463
   3 C :    0.283429
   4 N :   -0.448327
   5 N :   -0.452404
   6 H :    0.203876
   7 H :    0.238422
   8 H :    0.065697
   9 H :    0.241920
  10 H :    0.205816
  11 H :    0.047509
  12 H :    0.098001
  13 H :    0.098405
  14 H :    0.107291
  15 H :    0.114758
Sum of atomic charges:    0.0000000

LOEWDIN ATOMIC CHARGES
----------------------
   0 C :   -0.306249
   1 C :   -0.274277
   2 C :   -0.301593
   3 C :   -0.466494
   4 N :   -0.017671
   5 N :   -0.021175
   6 H :    0.155691
   7 H :    0.174686
   8 H :    0.125225
   9 H :    0.180125
  10 H :    0.160046
  11 H :    0.124457
  12 H :    0.128831
  13 H :    0.111657
  14 H :    0.111024
  15 H :    0.115717

  Mayer bond orders larger than 0.100000
B(  0-C ,  1-C ) :   0.9391 B(  0-C ,  2-C ) :   0.9430 B(  0-C , 11-H ) :   0.9712
B(  0-C , 12-H ) :   0.9775 B(  1-C ,  3-C ) :   1.6684 B(  1-C ,  8-H ) :   1.0408
B(  2-C , 13-H ) :   0.9814 B(  2-C , 14-H ) :   0.9844 B(  2-C , 15-H ) :   0.9840
B(  3-C ,  4-N ) :   1.1124 B(  3-C ,  5-N ) :   1.1362 B(  4-N ,  9-H ) :   0.9217
B(  4-N , 10-H ) :   0.9342 B(  5-N ,  6-H ) :   0.9184 B(  5-N ,  7-H ) :   0.9275

FINAL SINGLE POINT ENERGY      -267.868035136885

DIPOLE MOMENT
-------------
                                X             Y             Z
Electronic contribution:      3.18037       3.25093      -2.89005
Nuclear contribution   :     -3.27358      -3.61654       1.70633
                        -----------------------------------------
Total Dipole Moment    :     -0.09321      -0.36561      -1.18372
                        -----------------------------------------
Magnitude (a.u.)       :      1.24240
Magnitude (Debye)      :      3.15792

Rotational constants in cm-1:     0.231961     0.071249     0.059473
Rotational constants in MHz :  6954.024434  2135.976855  1782.962814

                             ****ORCA TERMINATED NORMALLY****
TOTAL RUN TIME: 0 days 0 hours 0 minutes 52 seconds 445 msec
