                         Program Version 5.0.0 -  RELEASE  -
|  1> !CAM-B3LYP RIJCOSX def2-TZVP def2/J TightSCF
|  2> *xyz 0 1
|  3> C          3.80351        1.37472       -3.26081
|  4> C          3.93993        0.32036       -4.36773
|  5> H          4.10504       -0.65508       -3.90773
|  6> H          3.02280        0.28052       -4.95712
|  7> C          5.10585        0.66802       -5.30546
|  8> O          4.80913        1.15019       -6.41436
|  9> F          6.26737        0.56500       -4.81948
| 10> H          3.64113        2.33595       -3.70189
| 11> H          4.69995        1.39701       -2.67703
| 12> H          2.97435        1.12625       -2.63180
| 13> *
| 14>
| 15> %MaxCore 64000
| 16>
| 17> %pal nprocs 4
| 18> end
| 19>
| 20> %scf
| 21>   MaxIter 150
| 22> end
| 23>
| 24>
| 25>                          ****END OF INPUT****

CARTESIAN COORDINATES (ANGSTROEM)
---------------------------------
  C      3.803510    1.374720   -3.260810
  C      3.939930    0.320360   -4.367730
  H      4.105040   -0.655080   -3.907730
  H      3.022800    0.280520   -4.957120
  C      5.105850    0.668020   -5.305460
  O      4.809130    1.150190   -6.414360
  F      6.267370    0.565000   -4.819480
  H      3.641130    2.335950   -3.701890
  H      4.699950    1.397010   -2.677030
  H      2.974350    1.126250   -2.631800

 Total Charge           Charge          ....    0
 Multiplicity           Mult            ....    1
 Number of Electrons    NEL             ....   40
 Basis Dimension        Dim             ....  185

ORBITAL ENERGIES
----------------

  NO   OCC          E(Eh)            E(eV)
   0   2.0000     -24.825235      -675.5290
   1   2.0000     -19.206989      -522.6487
   2   2.0000     -10.425430      -283.6904
   3   2.0000     -10.275245      -279.6036
   4   2.0000     -10.252371      -278.9812
   5   2.0000      -1.397709       -38.0336
   6   2.0000      -1.122522       -30.5454
   7   2.0000      -0.886686       -24.1280
   8   2.0000      -0.764808       -20.8115
   9   2.0000      -0.718866       -19.5613
  10   2.0000      -0.624748       -17.0003
  11   2.0000      -0.611529       -16.6405
  12   2.0000      -0.578540       -15.7429
  13   2.0000      -0.537213       -14.6183
  14   2.0000      -0.507374       -13.8063
  15   2.0000      -0.471563       -12.8319
  16   2.0000      -0.453529       -12.3412
  17   2.0000      -0.442001       -12.0275
  18   2.0000      -0.421052       -11.4574
  19   2.0000      -0.359713        -9.7883
  20   0.0000       0.023896         0.6502
  21   0.0000       0.068299         1.8585
  22   0.0000       0.109569         2.9815
  23   0.0000       0.127627         3.4729
  24   0.0000       0.144643         3.9359

MULLIKEN ATOMIC CHARGES
-----------------------
   0 C :   -0.367914
   1 C :   -0.202521
   2 H :    0.115178
   3 H :    0.131548
   4 C :    0.356167
   5 O :   -0.309980
   6 F :   -0.109703
   7 H :    0.133417
   8 H :    0.125667
   9 H :    0.128140
Sum of atomic charges:    0.0000000

LOEWDIN ATOMIC CHARGES
----------------------
   0 C :   -0.290824
   1 C :   -0.254183
   2 H :    0.141423
   3 H :    0.150083
   4 C :   -0.497541
   5 O :    0.075173
   6 F :    0.311889
   7 H :    0.123049
   8 H :    0.119787
   9 H :    0.121144

  Mayer bond orders larger than 0.100000
B(  0-C ,  1-C ) :   0.9383 B(  0-C ,  7-H ) :   0.9734 B(  0-C ,  8-H ) :   0.9743
B(  0-C ,  9-H ) :   0.9749 B(  1-C ,  2-H ) :   0.9517 B(  1-C ,  3-H ) :   0.9684
B(  1-C ,  4-C ) :   0.9843 B(  4-C ,  5-O ) :   2.0910 B(  4-C ,  6-F ) :   1.1469

FINAL SINGLE POINT ENERGY      -292.403476239053

DIPOLE MOMENT
-------------
                                X             Y             Z
Electronic contribution:      6.40516      -0.99532      -4.76372
Nuclear contribution   :     -6.76123       0.61881       5.86003
                        -----------------------------------------
Total Dipole Moment    :     -0.35607      -0.37652       1.09631
                        -----------------------------------------
Magnitude (a.u.)       :      1.21262
Magnitude (Debye)      :      3.08225

Rotational constants in cm-1:     0.275298     0.134631     0.105723
Rotational constants in MHz :  8253.224169  4036.137572  3169.487264

                             ****ORCA TERMINATED NORMALLY****
TOTAL RUN TIME: 0 days 0 hours 0 minutes 27 seconds 282 msec
