                         Program Version 5.0.0 -  RELEASE  -
|  1> !CAM-B3LYP RIJCOSX def2-TZVP def2/J TightSCF
|  2> *xyz 0 1
|  3> C          3.90595        2.81985       -3.75292
|  4> N          5.29562        3.13151       -4.10533
|  5> C          3.80351        1.37472       -3.26081
|  6> C          5.70862        3.46889       -5.32419
|  7> C          6.90470        3.03895       -5.71708
|  8> N          4.98188        4.29357       -6.09746
|  9> H          5.00055        4.10131       -7.08776
| 10> H          4.08469        4.59690       -5.73965
| 11> H          5.96336        2.52611       -3.64239
| 12> H          7.04716        2.06686       -5.47360
| 13> H          7.19815        3.30799       -6.64523
| 14> H          3.28202        2.94919       -4.64026
| 15> H          3.56525        3.51457       -2.98252
| 16> H          4.14157        0.71142       -4.02935
| 17> H          2.78528        1.15146       -3.01944
| 18> H          4.41205        1.25066       -2.38949
| 19> *
| 20>
| 21> %MaxCore 64000
| 22>
| 23> %pal nprocs 4
| 24> end
| 25>
| 26> %scf
| 27>   MaxIter 150
| 28> end
| 29>
| 30>
| 31>                          ****END OF INPUT****

CARTESIAN COORDINATES (ANGSTROEM)
---------------------------------
  C      3.905950    2.819850   -3.752920
  N      5.295620    3.131510   -4.105330
  C      3.803510    1.374720   -3.260810
  C      5.708620    3.468890   -5.324190
  C      6.904700    3.038950   -5.717080
  N      4.981880    4.293570   -6.097460
  H      5.000550    4.101310   -7.087760
  H      4.084690    4.596900   -5.739650
  H      5.963360    2.526110   -3.642390
  H      7.047160    2.066860   -5.473600
  H      7.198150    3.307990   -6.645230
  H      3.282020    2.949190   -4.640260
  H      3.565250    3.514570   -2.982520
  H      4.141570    0.711420   -4.029350
  H      2.785280    1.151460   -3.019440
  H      4.412050    1.250660   -2.389490

 Total Charge           Charge          ....    0
 Multiplicity           Mult            ....    1
 Number of Electrons    NEL             ....   48
 Basis Dimension        Dim             ....  246

ORBITAL ENERGIES
----------------

  NO   OCC          E(Eh)            E(eV)
   0   2.0000     -14.391368      -391.6090
   1   2.0000     -14.389906      -391.5692
   2   2.0000     -10.292668      -280.0777
   3   2.0000     -10.284364      -279.8518
   4   2.0000     -10.242051      -278.7004
   5   2.0000     -10.152559      -276.2652
   6   2.0000      -1.054701       -28.6999
   7   2.0000      -0.970846       -26.4181
   8   2.0000      -0.856828       -23.3155
   9   2.0000      -0.787708       -21.4346
  10   2.0000      -0.709085       -19.2952
  11   2.0000      -0.671418       -18.2702
  12   2.0000      -0.606342       -16.4994
  13   2.0000      -0.565781       -15.3957
  14   2.0000      -0.556376       -15.1398
  15   2.0000      -0.522137       -14.2081
  16   2.0000      -0.492737       -13.4081
  17   2.0000      -0.470660       -12.8073
  18   2.0000      -0.448248       -12.1974
  19   2.0000      -0.441327       -12.0091
  20   2.0000      -0.438664       -11.9367
  21   2.0000      -0.404855       -11.0167
  22   2.0000      -0.325857        -8.8670
  23   2.0000      -0.232052        -6.3145
  24   0.0000       0.058976         1.6048
  25   0.0000       0.080330         2.1859
  26   0.0000       0.096741         2.6324
  27   0.0000       0.104009         2.8302
  28   0.0000       0.121067         3.2944

MULLIKEN ATOMIC CHARGES
-----------------------
   0 C :   -0.079071
   1 N :   -0.263767
   2 C :   -0.389300
   3 C :    0.297839
   4 C :   -0.486337
   5 N :   -0.453474
   6 H :    0.241621
   7 H :    0.214869
   8 H :    0.211397
   9 H :    0.075776
  10 H :    0.059317
  11 H :    0.086367
  12 H :    0.115326
  13 H :    0.127961
  14 H :    0.117931
  15 H :    0.123544
Sum of atomic charges:   -0.0000000

LOEWDIN ATOMIC CHARGES
----------------------
   0 C :   -0.305568
   1 N :    0.111579
   2 C :   -0.306349
   3 C :   -0.464143
   4 C :   -0.354963
   5 N :   -0.012511
   6 H :    0.174583
   7 H :    0.160205
   8 H :    0.196014
   9 H :    0.101981
  10 H :    0.095552
  11 H :    0.124791
  12 H :    0.123915
  13 H :    0.119012
  14 H :    0.118954
  15 H :    0.116949

  Mayer bond orders larger than 0.100000
B(  0-C ,  1-N ) :   0.9161 B(  0-C ,  2-C ) :   0.9547 B(  0-C , 11-H ) :   0.9769
B(  0-C , 12-H ) :   0.9682 B(  1-N ,  3-C ) :   1.2271 B(  1-N ,  8-H ) :   0.9290
B(  2-C , 13-H ) :   0.9759 B(  2-C , 14-H ) :   0.9781 B(  2-C , 15-H ) :   0.9779
B(  3-C ,  4-C ) :   1.6528 B(  3-C ,  5-N ) :   1.1026 B(  4-C ,  9-H ) :   0.9915
B(  4-C , 10-H ) :   1.0270 B(  5-N ,  6-H ) :   0.9232 B(  5-N ,  7-H ) :   0.9351

FINAL SINGLE POINT ENERGY      -267.858240996688

DIPOLE MOMENT
-------------
                                X             Y             Z
Electronic contribution:      1.48223       3.24588      -1.28045
Nuclear contribution   :     -2.93222      -3.63618       1.36440
                        -----------------------------------------
Total Dipole Moment    :     -1.44999      -0.39030       0.08395
                        -----------------------------------------
Magnitude (a.u.)       :      1.50395
Magnitude (Debye)      :      3.82274

Rotational constants in cm-1:     0.237993     0.072843     0.061284
Rotational constants in MHz :  7134.860770  2183.763760  1837.240960

                             ****ORCA TERMINATED NORMALLY****
TOTAL RUN TIME: 0 days 0 hours 0 minutes 52 seconds 49 msec
