                         Program Version 5.0.0 -  RELEASE  -
|  1> !CAM-B3LYP RIJCOSX def2-TZVP def2/J TightSCF
|  2> *xyz 0 1
|  3> C          3.90595        2.81985       -3.75292
|  4> N          5.29562        3.13151       -4.10533
|  5> C          3.80351        1.37472       -3.26081
|  6> C          5.70862        3.46889       -5.32419
|  7> N          6.90470        3.03895       -5.71708
|  8> C          4.98188        4.29357       -6.09746
|  9> H          5.00055        4.10131       -7.08776
| 10> H          4.08469        4.59690       -5.73965
| 11> H          5.96336        2.52611       -3.64239
| 12> H          7.04716        2.06686       -5.47360
| 13> H          7.19815        3.30799       -6.64523
| 14> H          3.28202        2.94919       -4.64026
| 15> H          3.56525        3.51457       -2.98252
| 16> H          4.14157        0.71142       -4.02935
| 17> H          2.78528        1.15146       -3.01944
| 18> H          4.41205        1.25066       -2.38949
| 19> *
| 20>
| 21> %MaxCore 64000
| 22>
| 23> %pal nprocs 4
| 24> end
| 25>
| 26> %scf
| 27>   MaxIter 150
| 28> end
| 29>
| 30>
| 31>                          ****END OF INPUT****

CARTESIAN COORDINATES (ANGSTROEM)
---------------------------------
  C      3.905950    2.819850   -3.752920
  N      5.295620    3.131510   -4.105330
  C      3.803510    1.374720   -3.260810
  C      5.708620    3.468890   -5.324190
  N      6.904700    3.038950   -5.717080
  C      4.981880    4.293570   -6.097460
  H      5.000550    4.101310   -7.087760
  H      4.084690    4.596900   -5.739650
  H      5.963360    2.526110   -3.642390
  H      7.047160    2.066860   -5.473600
  H      7.198150    3.307990   -6.645230
  H      3.282020    2.949190   -4.640260
  H      3.565250    3.514570   -2.982520
  H      4.141570    0.711420   -4.029350
  H      2.785280    1.151460   -3.019440
  H      4.412050    1.250660   -2.389490

 Total Charge           Charge          ....    0
 Multiplicity           Mult            ....    1
 Number of Electrons    NEL             ....   48
 Basis Dimension        Dim             ....  246

ORBITAL ENERGIES
----------------

  NO   OCC          E(Eh)            E(eV)
   0   2.0000     -14.391914      -391.6239
   1   2.0000     -14.390459      -391.5843
   2   2.0000     -10.291529      -280.0467
   3   2.0000     -10.278178      -279.6834
   4   2.0000     -10.239799      -278.6391
   5   2.0000     -10.157997      -276.4132
   6   2.0000      -1.059528       -28.8312
   7   2.0000      -0.972684       -26.4681
   8   2.0000      -0.845436       -23.0055
   9   2.0000      -0.789046       -21.4710
  10   2.0000      -0.722436       -19.6585
  11   2.0000      -0.641750       -17.4629
  12   2.0000      -0.608853       -16.5677
  13   2.0000      -0.588810       -16.0223
  14   2.0000      -0.543966       -14.8021
  15   2.0000      -0.526805       -14.3351
  16   2.0000      -0.475005       -12.9256
  17   2.0000      -0.470036       -12.7903
  18   2.0000      -0.461149       -12.5485
  19   2.0000      -0.440562       -11.9883
  20   2.0000      -0.430198       -11.7063
  21   2.0000      -0.406245       -11.0545
  22   2.0000      -0.323302        -8.7975
  23   2.0000      -0.235172        -6.3993
  24   0.0000       0.055746         1.5169
  25   0.0000       0.085874         2.3368
  26   0.0000       0.101468         2.7611
  27   0.0000       0.104312         2.8385
  28   0.0000       0.120727         3.2852

MULLIKEN ATOMIC CHARGES
-----------------------
   0 C :   -0.059671
   1 N :   -0.282284
   2 C :   -0.387828
   3 C :    0.307572
   4 N :   -0.442145
   5 C :   -0.493332
   6 H :    0.086863
   7 H :    0.069576
   8 H :    0.175743
   9 H :    0.202742
  10 H :    0.236178
  11 H :    0.115926
  12 H :    0.113559
  13 H :    0.117666
  14 H :    0.119784
  15 H :    0.119650
Sum of atomic charges:    0.0000000

LOEWDIN ATOMIC CHARGES
----------------------
   0 C :   -0.291105
   1 N :    0.113721
   2 C :   -0.309642
   3 C :   -0.473830
   4 N :   -0.017691
   5 C :   -0.341279
   6 H :    0.097050
   7 H :    0.096717
   8 H :    0.178121
   9 H :    0.159857
  10 H :    0.176580
  11 H :    0.135756
  12 H :    0.125979
  13 H :    0.115260
  14 H :    0.119814
  15 H :    0.114694

  Mayer bond orders larger than 0.100000
B(  0-C ,  1-N ) :   0.9118 B(  0-C ,  2-C ) :   0.9501 B(  0-C , 11-H ) :   0.9731
B(  0-C , 12-H ) :   0.9714 B(  1-N ,  3-C ) :   1.1749 B(  1-N ,  8-H ) :   0.9392
B(  2-C , 13-H ) :   0.9776 B(  2-C , 14-H ) :   0.9788 B(  2-C , 15-H ) :   0.9783
B(  3-C ,  4-N ) :   1.1318 B(  3-C ,  5-C ) :   1.5962 B(  4-N ,  9-H ) :   0.9212
B(  4-N , 10-H ) :   0.9261 B(  5-C ,  6-H ) :   0.9823 B(  5-C ,  7-H ) :   1.0199

FINAL SINGLE POINT ENERGY      -267.862695819887

DIPOLE MOMENT
-------------
                                X             Y             Z
Electronic contribution:      3.40366       2.03843      -0.98446
Nuclear contribution   :     -3.34013      -3.37002       1.28371
                        -----------------------------------------
Total Dipole Moment    :      0.06353      -1.33159       0.29925
                        -----------------------------------------
Magnitude (a.u.)       :      1.36627
Magnitude (Debye)      :      3.47279

Rotational constants in cm-1:     0.239537     0.072280     0.060961
Rotational constants in MHz :  7181.153552  2166.902802  1827.551447

                             ****ORCA TERMINATED NORMALLY****
TOTAL RUN TIME: 0 days 0 hours 0 minutes 53 seconds 453 msec
