                         Program Version 5.0.0 -  RELEASE  -
|  1> !CAM-B3LYP RIJCOSX def2-TZVP def2/J TightSCF xyzfile
|  2>
|  3> *xyzfile 0 1 D1.xyz
|  4>
|  5> %MaxCore 64000
|  6>
|  7> %pal nprocs 18
|  8> end
|  9>
| 10> %scf
| 11>   MaxIter 150
| 12> end
| 13>
| 14>
| 15>                          ****END OF INPUT****

CARTESIAN COORDINATES (ANGSTROEM)
---------------------------------
  C      3.905947    2.819855   -3.752920
  C      5.295615    3.131515   -4.105334
  C      3.803511    1.374716   -3.260807
  C      3.939934    0.320362   -4.367729
  H      4.105043   -0.655085   -3.907733
  H      3.022801    0.280517   -4.957117
  C      5.105846    0.668022   -5.305463
  C      5.708619    3.468885   -5.324190
  N      6.904696    3.038954   -5.717084
  N      4.981884    4.293570   -6.097457
  H      5.000546    4.101311   -7.087761
  H      4.084693    4.596899   -5.739652
  H      5.963358    2.526112   -3.642391
  H      7.047164    2.066861   -5.473604
  H      7.198145    3.307994   -6.645225
  H      3.282025    2.949187   -4.640259
  H      3.565254    3.514574   -2.982523
  H      4.574833    1.215157   -2.500443
  H      2.843514    1.260845   -2.751465
  F      4.809132    1.150187   -6.414361
  O      6.267366    0.564999   -4.819481

 Total Charge           Charge          ....    0
 Multiplicity           Mult            ....    1
 Number of Electrons    NEL             ....   78
 Basis Dimension        Dim             ....  376

ORBITAL ENERGIES
----------------

  NO   OCC          E(Eh)            E(eV)
   0   2.0000     -24.837436      -675.8610
   1   2.0000     -19.208059      -522.6778
   2   2.0000     -14.389928      -391.5698
   3   2.0000     -14.368316      -390.9818
   4   2.0000     -10.434860      -283.9470
   5   2.0000     -10.285207      -279.8747
   6   2.0000     -10.272498      -279.5289
   7   2.0000     -10.249946      -278.9152
   8   2.0000     -10.231617      -278.4165
   9   2.0000     -10.166709      -276.6502
  10   2.0000      -1.417726       -38.5783
  11   2.0000      -1.123067       -30.5602
  12   2.0000      -1.043219       -28.3874
  13   2.0000      -0.951194       -25.8833
  14   2.0000      -0.902034       -24.5456
  15   2.0000      -0.833862       -22.6905
  16   2.0000      -0.775391       -21.0995
  17   2.0000      -0.739706       -20.1284
  18   2.0000      -0.686422       -18.6785
  19   2.0000      -0.653529       -17.7834
  20   2.0000      -0.636407       -17.3175
  21   2.0000      -0.618799       -16.8384
  22   2.0000      -0.607477       -16.5303
  23   2.0000      -0.592148       -16.1132
  24   2.0000      -0.573413       -15.6034
  25   2.0000      -0.537332       -14.6215
  26   2.0000      -0.530699       -14.4410
  27   2.0000      -0.511482       -13.9181
  28   2.0000      -0.500282       -13.6134
  29   2.0000      -0.468175       -12.7397
  30   2.0000      -0.455148       -12.3852
  31   2.0000      -0.434223       -11.8158
  32   2.0000      -0.431040       -11.7292
  33   2.0000      -0.412892       -11.2354
  34   2.0000      -0.400520       -10.8987
  35   2.0000      -0.386792       -10.5252
  36   2.0000      -0.367686       -10.0053
  37   2.0000      -0.329458        -8.9650
  38   2.0000      -0.227344        -6.1863
  39   0.0000       0.012443         0.3386
  40   0.0000       0.061240         1.6664
  41   0.0000       0.081699         2.2232
  42   0.0000       0.096149         2.6163
  43   0.0000       0.105244         2.8638

MULLIKEN ATOMIC CHARGES
-----------------------
   0 C :   -0.195212
   1 C :   -0.325321
   2 C :   -0.213767
   3 C :   -0.244745
   4 H :    0.135976
   5 H :    0.116034
   6 C :    0.433457
   7 C :    0.163658
   8 N :   -0.399038
   9 N :   -0.441353
  10 H :    0.205731
  11 H :    0.234510
  12 H :    0.117788
  13 H :    0.255653
  14 H :    0.199272
  15 H :    0.064167
  16 H :    0.114269
  17 H :    0.129203
  18 H :    0.109862
  19 F :   -0.092398
  20 O :   -0.367745
Sum of atomic charges:   -0.0000000

LOEWDIN ATOMIC CHARGES
----------------------
   0 C :   -0.285258
   1 C :   -0.267160
   2 C :   -0.247351
   3 C :   -0.224730
   4 H :    0.154196
   5 H :    0.140859
   6 C :   -0.493193
   7 C :   -0.482347
   8 N :   -0.007360
   9 N :   -0.018818
  10 H :    0.155381
  11 H :    0.172182
  12 H :    0.131329
  13 H :    0.165896
  14 H :    0.157450
  15 H :    0.130009
  16 H :    0.135009
  17 H :    0.146123
  18 H :    0.136598
  19 F :    0.353564
  20 O :    0.047623

  Mayer bond orders larger than 0.100000
B(  0-C ,  1-C ) :   0.9420 B(  0-C ,  2-C ) :   0.9414 B(  0-C , 15-H ) :   0.9729
B(  0-C , 16-H ) :   0.9741 B(  1-C ,  7-C ) :   1.6039 B(  1-C , 12-H ) :   1.0457
B(  2-C ,  3-C ) :   0.9516 B(  2-C , 17-H ) :   0.9742 B(  2-C , 18-H ) :   0.9774
B(  3-C ,  4-H ) :   0.9583 B(  3-C ,  5-H ) :   0.9617 B(  3-C ,  6-C ) :   0.9787
B(  6-C , 19-F ) :   1.1720 B(  6-C , 20-O ) :   1.9549 B(  7-C ,  8-N ) :   1.1895
B(  7-C ,  9-N ) :   1.1522 B(  8-N , 13-H ) :   0.8695 B(  8-N , 14-H ) :   0.9328
B(  9-N , 10-H ) :   0.9211 B(  9-N , 11-H ) :   0.9289

FINAL SINGLE POINT ENERGY      -519.760807112345

DIPOLE MOMENT
-------------
                                X             Y             Z
Electronic contribution:      3.39226      -3.65607      -6.50926
Nuclear contribution   :     -4.60158       3.22721       5.56005
                        -----------------------------------------
Total Dipole Moment    :     -1.20933      -0.42885      -0.94920
                        -----------------------------------------
Magnitude (a.u.)       :      1.59605
Magnitude (Debye)      :      4.05684

Rotational constants in cm-1:     0.061224     0.042534     0.033552
Rotational constants in MHz :  1835.464095  1275.135177  1005.856966

                             ****ORCA TERMINATED NORMALLY****
TOTAL RUN TIME: 0 days 0 hours 0 minutes 45 seconds 197 msec
