                         Program Version 5.0.0 -  RELEASE  -
|  1> !CAM-B3LYP RIJCOSX def2-TZVP def2/J TightSCF xyzfile
|  2>
|  3> *xyzfile 0 1 D4.xyz
|  4>
|  5> %MaxCore 64000
|  6>
|  7> %pal nprocs 18
|  8> end
|  9>
| 10> %scf
| 11>   MaxIter 150
| 12> end
| 13>
| 14>
| 15>                          ****END OF INPUT****

CARTESIAN COORDINATES (ANGSTROEM)
---------------------------------
  C      3.905947    2.819855   -3.752920
  C      5.295615    3.131515   -4.105334
  C      3.803511    1.374716   -3.260807
  C      3.939934    0.320362   -4.367729
  H      4.105043   -0.655085   -3.907733
  H      3.022801    0.280517   -4.957117
  C      5.105846    0.668022   -5.305463
  C      5.708619    3.468885   -5.324190
  N      6.904696    3.038954   -5.717084
  N      4.981884    4.293570   -6.097457
  H      5.000546    4.101311   -7.087761
  H      4.084693    4.596899   -5.739652
  H      5.963358    2.526112   -3.642391
  H      7.047164    2.066861   -5.473604
  H      7.198145    3.307994   -6.645225
  H      3.282025    2.949187   -4.640259
  H      3.565254    3.514574   -2.982523
  H      4.574833    1.215157   -2.500443
  H      2.843514    1.260845   -2.751465
  O      4.809132    1.150187   -6.414361
  F      6.267366    0.564999   -4.819481

 Total Charge           Charge          ....    0
 Multiplicity           Mult            ....    1
 Number of Electrons    NEL             ....   78
 Basis Dimension        Dim             ....  376

ORBITAL ENERGIES
----------------

  NO   OCC          E(Eh)            E(eV)
   0   2.0000     -24.834238      -675.7740
   1   2.0000     -19.205464      -522.6073
   2   2.0000     -14.387785      -391.5115
   3   2.0000     -14.377125      -391.2215
   4   2.0000     -10.427820      -283.7554
   5   2.0000     -10.288256      -279.9577
   6   2.0000     -10.269582      -279.4495
   7   2.0000     -10.250152      -278.9208
   8   2.0000     -10.229012      -278.3456
   9   2.0000     -10.167834      -276.6808
  10   2.0000      -1.410040       -38.3691
  11   2.0000      -1.125210       -30.6185
  12   2.0000      -1.044673       -28.4270
  13   2.0000      -0.953657       -25.9503
  14   2.0000      -0.901480       -24.5305
  15   2.0000      -0.832626       -22.6569
  16   2.0000      -0.774171       -21.0663
  17   2.0000      -0.737442       -20.0668
  18   2.0000      -0.685981       -18.6665
  19   2.0000      -0.664507       -18.0822
  20   2.0000      -0.632377       -17.2078
  21   2.0000      -0.618816       -16.8388
  22   2.0000      -0.599560       -16.3148
  23   2.0000      -0.580856       -15.8059
  24   2.0000      -0.574761       -15.6400
  25   2.0000      -0.537720       -14.6321
  26   2.0000      -0.535044       -14.5593
  27   2.0000      -0.512250       -13.9390
  28   2.0000      -0.498825       -13.5737
  29   2.0000      -0.467939       -12.7333
  30   2.0000      -0.452823       -12.3219
  31   2.0000      -0.439039       -11.9469
  32   2.0000      -0.430004       -11.7010
  33   2.0000      -0.411245       -11.1905
  34   2.0000      -0.402922       -10.9641
  35   2.0000      -0.392117       -10.6701
  36   2.0000      -0.358802        -9.7635
  37   2.0000      -0.330411        -8.9909
  38   2.0000      -0.229580        -6.2472
  39   0.0000       0.021002         0.5715
  40   0.0000       0.066739         1.8161
  41   0.0000       0.080764         2.1977
  42   0.0000       0.097104         2.6423
  43   0.0000       0.105412         2.8684

MULLIKEN ATOMIC CHARGES
-----------------------
   0 C :   -0.167683
   1 C :   -0.328650
   2 C :   -0.248776
   3 C :   -0.235206
   4 H :    0.125609
   5 H :    0.130159
   6 C :    0.398274
   7 C :    0.204423
   8 N :   -0.387629
   9 N :   -0.445121
  10 H :    0.217009
  11 H :    0.233992
  12 H :    0.092201
  13 H :    0.230285
  14 H :    0.207679
  15 H :    0.072371
  16 H :    0.112097
  17 H :    0.125853
  18 H :    0.111529
  19 O :   -0.313797
  20 F :   -0.134619
Sum of atomic charges:    0.0000000

LOEWDIN ATOMIC CHARGES
----------------------
   0 C :   -0.283181
   1 C :   -0.279053
   2 C :   -0.253350
   3 C :   -0.224181
   4 H :    0.144494
   5 H :    0.152524
   6 C :   -0.502879
   7 C :   -0.470285
   8 N :   -0.002811
   9 N :   -0.008014
  10 H :    0.160938
  11 H :    0.173442
  12 H :    0.123033
  13 H :    0.165305
  14 H :    0.161564
  15 H :    0.135065
  16 H :    0.134328
  17 H :    0.141136
  18 H :    0.137289
  19 O :    0.080186
  20 F :    0.314451

  Mayer bond orders larger than 0.100000
B(  0-C ,  1-C ) :   0.9335 B(  0-C ,  2-C ) :   0.9357 B(  0-C , 15-H ) :   0.9676
B(  0-C , 16-H ) :   0.9743 B(  1-C ,  7-C ) :   1.6004 B(  1-C , 12-H ) :   1.0640
B(  2-C ,  3-C ) :   0.9459 B(  2-C , 17-H ) :   0.9795 B(  2-C , 18-H ) :   0.9761
B(  3-C ,  4-H ) :   0.9571 B(  3-C ,  5-H ) :   0.9721 B(  3-C ,  6-C ) :   0.9851
B(  6-C , 19-O ) :   2.0717 B(  6-C , 20-F ) :   1.0895 B(  7-C ,  8-N ) :   1.1710
B(  7-C ,  9-N ) :   1.1575 B(  8-N , 13-H ) :   0.9140 B(  8-N , 14-H ) :   0.9332
B(  9-N , 10-H ) :   0.9217 B(  9-N , 11-H ) :   0.9297

FINAL SINGLE POINT ENERGY      -519.762240702372

DIPOLE MOMENT
-------------
                                X             Y             Z
Electronic contribution:      5.82652      -4.53725      -3.95670
Nuclear contribution   :     -6.25608       3.89116       3.75052
                        -----------------------------------------
Total Dipole Moment    :     -0.42956      -0.64610      -0.20618
                        -----------------------------------------
Magnitude (a.u.)       :      0.80279
Magnitude (Debye)      :      2.04052

Rotational constants in cm-1:     0.061229     0.042568     0.033282
Rotational constants in MHz :  1835.590871  1276.154029   997.769927

                             ****ORCA TERMINATED NORMALLY****
TOTAL RUN TIME: 0 days 0 hours 0 minutes 44 seconds 409 msec
