                         Program Version 5.0.0 -  RELEASE  -
|  1> !CAM-B3LYP RIJCOSX def2-TZVP def2/J TightSCF xyzfile
|  2>
|  3> *xyzfile 0 1 D6.xyz
|  4>
|  5> %MaxCore 64000
|  6>
|  7> %pal nprocs 18
|  8> end
|  9>
| 10> %scf
| 11>   MaxIter 150
| 12> end
| 13>
| 14>
| 15>                          ****END OF INPUT****

CARTESIAN COORDINATES (ANGSTROEM)
---------------------------------
  C      3.905947    2.819855   -3.752920
  N      5.295615    3.131515   -4.105334
  C      3.803511    1.374716   -3.260807
  C      3.939934    0.320362   -4.367729
  H      4.105043   -0.655085   -3.907733
  H      3.022801    0.280517   -4.957117
  C      5.105846    0.668022   -5.305463
  C      5.708619    3.468885   -5.324190
  N      6.904696    3.038954   -5.717084
  C      4.981884    4.293570   -6.097457
  H      5.000546    4.101311   -7.087761
  H      4.084693    4.596899   -5.739652
  H      5.963358    2.526112   -3.642391
  H      7.047164    2.066861   -5.473604
  H      7.198145    3.307994   -6.645225
  H      3.282025    2.949187   -4.640259
  H      3.565254    3.514574   -2.982523
  H      4.574833    1.215157   -2.500443
  H      2.843514    1.260845   -2.751465
  O      4.809132    1.150187   -6.414361
  F      6.267366    0.564999   -4.819481

 Total Charge           Charge          ....    0
 Multiplicity           Mult            ....    1
 Number of Electrons    NEL             ....   78
 Basis Dimension        Dim             ....  376

ORBITAL ENERGIES
----------------

  NO   OCC          E(Eh)            E(eV)
   0   2.0000     -24.848476      -676.1614
   1   2.0000     -19.218670      -522.9666
   2   2.0000     -14.396674      -391.7534
   3   2.0000     -14.375395      -391.1744
   4   2.0000     -10.437450      -284.0175
   5   2.0000     -10.287473      -279.9364
   6   2.0000     -10.285933      -279.8945
   7   2.0000     -10.285209      -279.8748
   8   2.0000     -10.275618      -279.6138
   9   2.0000     -10.151147      -276.2268
  10   2.0000      -1.424783       -38.7703
  11   2.0000      -1.136196       -30.9175
  12   2.0000      -1.058796       -28.8113
  13   2.0000      -0.973073       -26.4787
  14   2.0000      -0.902014       -24.5451
  15   2.0000      -0.820024       -22.3140
  16   2.0000      -0.783456       -21.3189
  17   2.0000      -0.759939       -20.6790
  18   2.0000      -0.713176       -19.4065
  19   2.0000      -0.656069       -17.8526
  20   2.0000      -0.649978       -17.6868
  21   2.0000      -0.638866       -17.3844
  22   2.0000      -0.596781       -16.2393
  23   2.0000      -0.584894       -15.9158
  24   2.0000      -0.573782       -15.6134
  25   2.0000      -0.556146       -15.1335
  26   2.0000      -0.551244       -15.0001
  27   2.0000      -0.501282       -13.6406
  28   2.0000      -0.497194       -13.5293
  29   2.0000      -0.473588       -12.8870
  30   2.0000      -0.462466       -12.5843
  31   2.0000      -0.457129       -12.4391
  32   2.0000      -0.449619       -12.2348
  33   2.0000      -0.434126       -11.8132
  34   2.0000      -0.426994       -11.6191
  35   2.0000      -0.398925       -10.8553
  36   2.0000      -0.368732       -10.0337
  37   2.0000      -0.321149        -8.7389
  38   2.0000      -0.229239        -6.2379
  39   0.0000       0.010114         0.2752
  40   0.0000       0.057270         1.5584
  41   0.0000       0.086917         2.3651
  42   0.0000       0.097860         2.6629
  43   0.0000       0.100830         2.7437

MULLIKEN ATOMIC CHARGES
-----------------------
   0 C :   -0.094270
   1 N :   -0.263270
   2 C :   -0.292970
   3 C :   -0.212608
   4 H :    0.132701
   5 H :    0.141730
   6 C :    0.336502
   7 C :    0.209341
   8 N :   -0.396366
   9 C :   -0.450440
  10 H :    0.095985
  11 H :    0.059323
  12 H :    0.183004
  13 H :    0.205144
  14 H :    0.233769
  15 H :    0.139220
  16 H :    0.128353
  17 H :    0.132653
  18 H :    0.126307
  19 O :   -0.272241
  20 F :   -0.141867
Sum of atomic charges:    0.0000000

LOEWDIN ATOMIC CHARGES
----------------------
   0 C :   -0.266596
   1 N :    0.124942
   2 C :   -0.265945
   3 C :   -0.225680
   4 H :    0.146517
   5 H :    0.156038
   6 C :   -0.515287
   7 C :   -0.491732
   8 N :   -0.009285
   9 C :   -0.328496
  10 H :    0.099306
  11 H :    0.094382
  12 H :    0.175118
  13 H :    0.150999
  14 H :    0.176443
  15 H :    0.146207
  16 H :    0.131285
  17 H :    0.139172
  18 H :    0.144475
  19 O :    0.111853
  20 F :    0.306281

  Mayer bond orders larger than 0.100000
B(  0-C ,  1-N ) :   0.9187 B(  0-C ,  2-C ) :   0.9354 B(  0-C , 15-H ) :   0.9724
B(  0-C , 16-H ) :   0.9783 B(  1-N ,  7-C ) :   1.1366 B(  1-N , 12-H ) :   0.9349
B(  2-C ,  3-C ) :   0.9326 B(  2-C , 17-H ) :   0.9798 B(  2-C , 18-H ) :   0.9736
B(  3-C ,  4-H ) :   0.9592 B(  3-C ,  5-H ) :   0.9704 B(  3-C ,  6-C ) :   0.9725
B(  6-C , 19-O ) :   2.0992 B(  6-C , 20-F ) :   1.0785 B(  7-C ,  8-N ) :   1.1844
B(  7-C ,  9-C ) :   1.6653 B(  8-N , 13-H ) :   0.9269 B(  8-N , 14-H ) :   0.9287
B(  9-C , 10-H ) :   0.9805 B(  9-C , 11-H ) :   1.0171

FINAL SINGLE POINT ENERGY      -519.749194357727

DIPOLE MOMENT
-------------
                                X             Y             Z
Electronic contribution:      5.95785      -5.71236      -2.33319
Nuclear contribution   :     -6.29470       4.03423       3.50525
                        -----------------------------------------
Total Dipole Moment    :     -0.33685      -1.67813       1.17206
                        -----------------------------------------
Magnitude (a.u.)       :      2.07444
Magnitude (Debye)      :      5.27281

Rotational constants in cm-1:     0.061094     0.043661     0.033867
Rotational constants in MHz :  1831.559881  1308.929520  1015.295167

                             ****ORCA TERMINATED NORMALLY****
TOTAL RUN TIME: 0 days 0 hours 0 minutes 48 seconds 316 msec
