                         Program Version 5.0.0 -  RELEASE  -
|  1> !PBE D3BJ RIJCOSX def2-SVP def2/J TightSCF
|  2> *xyz -1 1
|  3> C         -0.77455        2.78833       -0.54394
|  4> C          0.69721        3.22791       -0.52513
|  5> O          1.48929        2.37470        0.19919
|  6> H          0.71600        4.26403       -0.13077
|  7> H          1.03615        3.33092       -1.58367
|  8> H         -1.34746        3.48478       -1.11982
|  9> H         -1.15078        2.75876        0.45729
| 10> H         -0.85058        1.81526       -0.98241
| 11> *
| 12>
| 13> %MaxCore 64000
| 14> %pal nprocs 4
| 15> end
| 16>
| 17> %scf
| 18>   MaxIter 150
| 19> end
| 20>
| 21>
| 22>                          ****END OF INPUT****

CARTESIAN COORDINATES (ANGSTROEM)
---------------------------------
  C     -0.774550    2.788330   -0.543940
  C      0.697210    3.227910   -0.525130
  O      1.489290    2.374700    0.199190
  H      0.716000    4.264030   -0.130770
  H      1.036150    3.330920   -1.583670
  H     -1.347460    3.484780   -1.119820
  H     -1.150780    2.758760    0.457290
  H     -0.850580    1.815260   -0.982410

 Total Charge           Charge          ....   -1
 Multiplicity           Mult            ....    1
 Number of Electrons    NEL             ....   26
 Basis Dimension        Dim             ....   67

ORBITAL ENERGIES
----------------

  NO   OCC          E(Eh)            E(eV)
   0   2.0000     -18.381591      -500.1885
   1   2.0000      -9.681847      -263.4565
   2   2.0000      -9.669528      -263.1212
   3   2.0000      -0.548435       -14.9237
   4   2.0000      -0.427633       -11.6365
   5   2.0000      -0.284150        -7.7321
   6   2.0000      -0.181405        -4.9363
   7   2.0000      -0.160279        -4.3614
   8   2.0000      -0.108276        -2.9463
   9   2.0000      -0.089069        -2.4237
  10   2.0000      -0.026570        -0.7230
  11   2.0000       0.115957         3.1554
  12   2.0000       0.120762         3.2861
  13   0.0000       0.233949         6.3661
  14   0.0000       0.274824         7.4783
  15   0.0000       0.286644         7.8000
  16   0.0000       0.295596         8.0436
  17   0.0000       0.336177         9.1478

MULLIKEN ATOMIC CHARGES
-----------------------
   0 C :    0.077650
   1 C :    0.201703
   2 O :   -0.642924
   3 H :   -0.173929
   4 H :   -0.174675
   5 H :   -0.140937
   6 H :   -0.072843
   7 H :   -0.074045
Sum of atomic charges:   -1.0000000

LOEWDIN ATOMIC CHARGES
----------------------
   0 C :   -0.118652
   1 C :   -0.007649
   2 O :   -0.616341
   3 H :   -0.086275
   4 H :   -0.087222
   5 H :   -0.045612
   6 H :   -0.018758
   7 H :   -0.019491

  Mayer bond orders larger than 0.100000
B(  0-C ,  1-C ) :   1.0031 B(  0-C ,  2-O ) :  -0.1099 B(  0-C ,  5-H ) :   0.8847
B(  0-C ,  6-H ) :   0.9457 B(  0-C ,  7-H ) :   0.9448 B(  1-C ,  2-O ) :   1.5411
B(  1-C ,  3-H ) :   0.8435 B(  1-C ,  4-H ) :   0.8420 B(  2-O ,  5-H ) :   0.1136

Dispersion correction           -0.003763028
FINAL SINGLE POINT ENERGY      -154.086037294325

DIPOLE MOMENT
-------------
                                X             Y             Z
Electronic contribution:      2.79281      -1.35251       1.46987
Nuclear contribution   :     -3.69910       1.55962      -1.78699
                        -----------------------------------------
Total Dipole Moment    :     -0.90628       0.20711      -0.31712
                        -----------------------------------------
Magnitude (a.u.)       :      0.98225
Magnitude (Debye)      :      2.49667

Rotational constants in cm-1:     1.268893     0.327436     0.287754
Rotational constants in MHz : 38040.440181  9816.269339  8626.646564

                             ****ORCA TERMINATED NORMALLY****
TOTAL RUN TIME: 0 days 0 hours 0 minutes 5 seconds 754 msec
