                         Program Version 5.0.0 -  RELEASE  -
|  1> !PBE D3BJ RIJCOSX def2-SVP def2/J TightSCF
|  2> *xyz 1 1
|  3> C          3.95643        0.50147       -0.37910
|  4> H          3.16840        0.02920        0.20738
|  5> N          3.80389        1.96157       -0.15675
|  6> C          3.84232        0.14849       -1.85406
|  7> H          4.92323        0.17798        0.00937
|  8> H          4.20643        2.24441        0.74536
|  9> H          2.80827        2.21132       -0.09610
| 10> H          4.28076        2.50155       -0.89104
| 11> H          4.62951        0.62800       -2.39748
| 12> H          2.89665        0.48102       -2.22825
| 13> H          3.92053       -0.91187       -1.97413
| 14> *
| 15>
| 16> %MaxCore 64000
| 17> %pal nprocs 4
| 18> end
| 19>
| 20> %scf
| 21>   MaxIter 150
| 22> end
| 23>
| 24>
| 25>                          ****END OF INPUT****

CARTESIAN COORDINATES (ANGSTROEM)
---------------------------------
  C      3.956430    0.501470   -0.379100
  H      3.168400    0.029200    0.207380
  N      3.803890    1.961570   -0.156750
  C      3.842320    0.148490   -1.854060
  H      4.923230    0.177980    0.009370
  H      4.206430    2.244410    0.745360
  H      2.808270    2.211320   -0.096100
  H      4.280760    2.501550   -0.891040
  H      4.629510    0.628000   -2.397480
  H      2.896650    0.481020   -2.228250
  H      3.920530   -0.911870   -1.974130

 Total Charge           Charge          ....    1
 Multiplicity           Mult            ....    1
 Number of Electrons    NEL             ....   26
 Basis Dimension        Dim             ....   82

ORBITAL ENERGIES
----------------

  NO   OCC          E(Eh)            E(eV)
   0   2.0000     -14.336611      -390.1190
   1   2.0000     -10.148234      -276.1475
   2   2.0000     -10.071761      -274.0666
   3   2.0000      -1.132200       -30.8087
   4   2.0000      -0.892459       -24.2850
   5   2.0000      -0.782083       -21.2816
   6   2.0000      -0.753782       -20.5114
   7   2.0000      -0.735768       -20.0213
   8   2.0000      -0.650937       -17.7129
   9   2.0000      -0.594986       -16.1904
  10   2.0000      -0.539379       -14.6772
  11   2.0000      -0.524735       -14.2788
  12   2.0000      -0.506504       -13.7827
  13   0.0000      -0.208569        -5.6755
  14   0.0000      -0.155452        -4.2301
  15   0.0000      -0.149294        -4.0625
  16   0.0000      -0.115721        -3.1489
  17   0.0000      -0.080214        -2.1827

MULLIKEN ATOMIC CHARGES
-----------------------
   0 C :   -0.066468
   1 H :    0.102591
   2 N :    0.038071
   3 C :   -0.044846
   4 H :    0.109234
   5 H :    0.209039
   6 H :    0.211964
   7 H :    0.206497
   8 H :    0.068706
   9 H :    0.064024
  10 H :    0.101189
Sum of atomic charges:    1.0000000

LOEWDIN ATOMIC CHARGES
----------------------
   0 C :    0.039226
   1 H :    0.056332
   2 N :    0.304467
   3 C :   -0.046521
   4 H :    0.058239
   5 H :    0.146818
   6 H :    0.146770
   7 H :    0.141879
   8 H :    0.042993
   9 H :    0.042023
  10 H :    0.067774

  Mayer bond orders larger than 0.100000
B(  0-C ,  1-H ) :   0.9441 B(  0-C ,  2-N ) :   0.9468 B(  0-C ,  3-C ) :   1.1194
B(  0-C ,  4-H ) :   0.9456 B(  2-N ,  5-H ) :   0.9323 B(  2-N ,  6-H ) :   0.9354
B(  2-N ,  7-H ) :   0.9307 B(  3-C ,  8-H ) :   0.9614 B(  3-C ,  9-H ) :   0.9664
B(  3-C , 10-H ) :   0.9500

Dispersion correction           -0.006160709
FINAL SINGLE POINT ENERGY      -135.246737767851

DIPOLE MOMENT
-------------
                                X             Y             Z
Electronic contribution:     -0.01611       1.38290       1.26648
Nuclear contribution   :     -0.06214      -0.04120      -0.39947
                        -----------------------------------------
Total Dipole Moment    :     -0.07825       1.34170       0.86701
                        -----------------------------------------
Magnitude (a.u.)       :      1.59937
Magnitude (Debye)      :      4.06527

Rotational constants in cm-1:     1.011771     0.281435     0.249812
Rotational constants in MHz : 30332.138762  8437.210602  7489.166323

                             ****ORCA TERMINATED NORMALLY****
TOTAL RUN TIME: 0 days 0 hours 0 minutes 6 seconds 472 msec
